Title
42846
    1CHL1    C3    1   3.710   3.539   5.705  0.2529 -0.5984  0.1839
    1CHL1    H3    2   3.814   3.505   5.686  0.4316 -0.9234  1.6153
    1CHL1    O3    3   3.681   3.515   5.842 -0.3335  0.0464  0.4732
    1CHL1   H3'    4   3.588   3.538   5.850 -0.7702 -1.0361 -0.9394
    1CHL1    C4    5   3.684   3.688   5.676  0.3472  0.2634 -0.4492
    1CHL1   H4A    6   3.578   3.708   5.703  0.4717  0.0318  0.2226
    1CHL1   H4B    7   3.737   3.751   5.751 -2.5550 -1.2949  3.2513
    1CHL1    C5    8   3.708   3.720   5.529  0.0277  0.0787  0.4585
    1CHL1    C6    9   3.786   3.820   5.487 -0.7955  0.0873 -0.8510
    1CHL1    H6   10   3.829   3.886   5.564 -1.3610 -0.6290  0.0992
    1CHL1    C7   11   3.811   3.856   5.344 -0.2093 -0.2592 -0.3384
    1CHL1   H7A   12   3.818   3.966   5.337  0.3107 -0.4010 -3.3466
    1CHL1   H7B   13   3.913   3.820   5.319  0.3642  0.1536  1.2757
    1CHL1    C8   14   3.710   3.785   5.251  0.1697  0.1034 -0.6075
    1CHL1    H8   15   3.614   3.840   5.248 -0.6168 -1.2141 -0.5299
    1CHL1   C14   16   3.771   3.789   5.111 -0.3554  0.2285  0.3835
    1CHL1   H14   17   3.858   3.721   5.126  0.9829  1.8746  0.4295
    1CHL1   C15   18   3.838   3.923   5.059 -0.0267  0.8358  0.1746
    1CHL1  H15A   19   3.777   4.014   5.081  0.1911  0.4132  2.9526
    1CHL1  H15B   20   3.937   3.939   5.108 -0.1777 -0.4184  0.9359
    1CHL1   C16   21   3.845   3.889   4.905 -0.1339 -0.2365 -0.4209
    1CHL1  H16A   22   3.788   3.967   4.849 -0.0450 -2.4865 -3.9490
    1CHL1  H16B   23   3.949   3.882   4.867 -0.2825 -1.5743 -0.6248
    1CHL1   C17   24   3.779   3.755   4.876  0.2461  0.5489 -0.7718
    1CHL1   H17   25   3.856   3.677   4.896 -1.8762 -1.1563  1.3069
    1CHL1   C13   26   3.681   3.729   4.999 -0.8042  0.2939  0.4881
    1CHL1   C18   27   3.554   3.814   4.977  0.4717 -0.2157  0.3656
    1CHL1  H18A   28   3.571   3.914   4.932  1.5435 -0.1743  0.8240
    1CHL1  H18B   29   3.485   3.773   4.900  0.4236  3.7246 -1.9602
    1CHL1  H18C   30   3.488   3.826   5.066 -0.3669 -0.5532 -0.1938
    1CHL1   C12   31   3.648   3.579   5.033  0.1119  0.2897 -0.0475
    1CHL1  H12A   32   3.572   3.526   4.971  0.0121 -0.8801  1.0453
    1CHL1  H12B   33   3.741   3.518   5.042 -0.5488 -0.8643 -0.7534
    1CHL1   C11   34   3.585   3.574   5.175  0.2156 -0.5248 -0.4418
    1CHL1  H11A   35   3.485   3.622   5.170  0.0147 -1.0384 -1.8648
    1CHL1  H11B   36   3.567   3.469   5.205  0.5373  0.1132  2.2165
    1CHL1    C9   37   3.681   3.637   5.285  0.0068 -0.4978  0.5048
    1CHL1    H9   38   3.776   3.580   5.278  0.7156  0.2600  2.9818
    1CHL1   C10   39   3.632   3.625   5.433 -0.9136  0.5704  0.3248
    1CHL1   C19   40   3.483   3.668   5.441  0.2127 -0.1370 -0.8703
    1CHL1  H19A   41   3.449   3.684   5.545 -1.4955  1.0340 -1.5669
    1CHL1  H19B   42   3.468   3.763   5.385 -0.1025 -0.2027 -0.8963
    1CHL1  H19C   43   3.424   3.585   5.397 -2.9372  0.4180  1.9090
    1CHL1    C1   44   3.651   3.471   5.477 -0.3550  0.4787  0.5875
    1CHL1   H1A   45   3.581   3.409   5.415  1.4176 -0.4226 -0.6104
    1CHL1   H1B   46   3.754   3.442   5.449 -0.2820  1.7099 -0.4861
    1CHL1    C2   47   3.624   3.445   5.623  0.0644  0.0484 -0.4258
    1CHL1   H2A   48   3.641   3.338   5.647  0.4448 -0.5882 -3.1974
    1CHL1   H2B   49   3.517   3.468   5.635 -0.3246  0.0836 -3.2324
    1CHL1   C20   50   3.715   3.743   4.733 -0.2239  0.3429 -0.0763
    1CHL1   H20   51   3.624   3.803   4.712  0.3580  1.1105 -0.4647
    1CHL1   C21   52   3.697   3.598   4.704  0.4569  0.5053  0.3347
    1CHL1  H21A   53   3.627   3.555   4.778 -0.4381 -0.9192 -1.2822
    1CHL1  H21B   54   3.791   3.538   4.704  0.2386  0.1343 -0.7642
    1CHL1  H21C   55   3.653   3.595   4.602 -1.1092  0.0036  1.0009
    1CHL1   C22   56   3.805   3.795   4.627 -0.7056 -0.6866  0.1396
    1CHL1  H22A   57   3.817   3.905   4.640 -1.6373 -0.4732 -0.6496
    1CHL1  H22B   58   3.906   3.754   4.645  0.1368  0.7608 -1.0471
    1CHL1   C23   59   3.765   3.771   4.479  0.1484  0.1654  0.5392
    1CHL1  H23A   60   3.787   3.665   4.458  0.9871  0.7909 -2.2336
    1CHL1  H23B   61   3.656   3.774   4.456  0.2481 -3.0076 -0.9059
    1CHL1   C24   62   3.840   3.856   4.381 -0.0853 -0.0310 -0.0576
    1CHL1  H24A   63   3.833   3.962   4.413 -1.5887 -0.4035  0.9576
    1CHL1  H24B   64   3.948   3.834   4.389  0.0006  0.9101  1.7748
    1CHL1   C25   65   3.793   3.831   4.233 -0.7880  0.8987  0.2817
    1CHL1   H25   66   3.683   3.842   4.220 -0.7507  1.1564  0.1981
    1CHL1   C26   67   3.865   3.937   4.148  0.0973 -0.2481 -0.4756
    1CHL1  H26A   68   3.824   4.037   4.172 -0.4610 -0.3287 -1.0775
    1CHL1  H26B   69   3.975   3.938   4.165 -0.3001 -0.5348  2.6040
    1CHL1  H26C   70   3.844   3.909   4.043 -0.4070  0.1035 -0.4692
    1CHL1   C27   71   3.825   3.684   4.197 -0.7475  0.3220  0.2978
    1CHL1  H27A   72   3.755   3.615   4.248 -0.4745 -3.3214 -3.6506
    1CHL1  H27B   73   3.811   3.665   4.088 -0.4107  0.6361  0.1990
    1CHL1  H27C   74   3.933   3.664   4.211 -0.5114  0.4427 -1.1938
    2CHL1    C3   75   3.868   3.157   5.742  0.2281  0.3048  0.2956
    2CHL1    H3   76   3.805   3.244   5.773 -1.7745 -0.5479 -1.2018
    2CHL1    O3   77   3.906   3.095   5.868  0.0195  0.7994  0.7108
    2CHL1   H3'   78   3.961   3.162   5.908 -0.3324  0.2459  2.1909
    2CHL1    C4   79   3.781   3.060   5.664  0.2632 -0.1059 -0.5119
    2CHL1   H4A   80   3.824   2.958   5.673  1.9456  0.7262  1.7682
    2CHL1   H4B   81   3.684   3.047   5.717  0.9608 -0.6313  0.6510
    2CHL1    C5   82   3.770   3.081   5.514  0.1147 -0.2903 -0.4990
    2CHL1    C6   83   3.644   3.067   5.458 -0.1616 -0.5513  0.1094
    2CHL1    H6   84   3.556   3.034   5.515  0.1713  0.1494  1.0554
    2CHL1    C7   85   3.617   3.081   5.316  1.1204  0.4345  0.2336
    2CHL1   H7A   86   3.533   3.021   5.273 -0.5279  2.5698  0.2930
    2CHL1   H7B   87   3.577   3.181   5.288 -1.2670 -0.6674 -0.5790
    2CHL1    C8   88   3.745   3.067   5.228  0.2457 -0.0265 -1.3551
    2CHL1    H8   89   3.771   2.959   5.228 -0.4203 -0.3189  2.2288
    2CHL1   C14   90   3.722   3.109   5.083 -0.1006  0.4771  0.8763
    2CHL1   H14   91   3.678   3.210   5.091 -1.0284  0.4167 -2.1646
    2CHL1   C15   92   3.609   3.036   5.007  0.4031 -0.3201  0.0719
    2CHL1  H15A   93   3.620   2.926   5.013 -2.2337 -0.7196 -1.1801
    2CHL1  H15B   94   3.511   3.074   5.043  1.0341  1.1198  0.3735
    2CHL1   C16   95   3.641   3.075   4.858 -0.1634 -0.1630  0.1685
    2CHL1  H16A   96   3.637   2.981   4.798 -1.3050  0.0329 -0.0826
    2CHL1  H16B   97   3.566   3.150   4.826  3.6939  2.2984 -4.3277
    2CHL1   C17   98   3.780   3.140   4.861  0.0669 -0.0137  0.2086
    2CHL1   H17   99   3.758   3.248   4.881 -0.7389 -0.3034  0.9553
    2CHL1   C13  100   3.846   3.105   4.995 -0.1016  0.3039  0.5394
    2CHL1   C18  101   3.907   2.963   4.996  0.6503  0.2239  0.6164
    2CHL1  H18A  102   3.929   2.907   5.089  2.2011  0.0582  0.1730
    2CHL1  H18B  103   3.830   2.901   4.947 -0.6458  2.5015 -0.4142
    2CHL1  H18C  104   4.004   2.980   4.945  0.2540  0.5240 -0.0464
    2CHL1   C12  105   3.946   3.205   5.058  0.8297  0.0921  0.6369
    2CHL1  H12A  106   4.041   3.207   5.000  0.1558  0.5539 -0.4934
    2CHL1  H12B  107   3.894   3.303   5.058  0.8194  0.0852  0.8250
    2CHL1   C11  108   3.979   3.163   5.199  0.0654  1.2138 -0.1283
    2CHL1  H11A  109   4.028   3.064   5.213  2.2975  2.3070  0.2325
    2CHL1  H11B  110   4.048   3.238   5.241  0.1246  1.4111 -0.5667
    2CHL1    C9  111   3.858   3.149   5.292  1.0818 -0.6130 -0.0924
    2CHL1    H9  112   3.815   3.251   5.294 -2.7983 -2.0864 -0.3249
    2CHL1   C10  113   3.897   3.111   5.434 -0.6078 -0.0890  0.6649
    2CHL1   C19  114   3.985   2.979   5.434 -0.2208  0.0230  0.1078
    2CHL1  H19A  115   3.941   2.908   5.361  1.6011 -0.6732 -0.3562
    2CHL1  H19B  116   4.090   3.006   5.409  0.2057 -1.2835  0.3779
    2CHL1  H19C  117   3.991   2.930   5.534 -1.9191  0.9364  0.6936
    2CHL1    C1  118   3.969   3.225   5.519  0.0266  0.2269  0.4260
    2CHL1   H1A  119   4.066   3.243   5.467 -0.4773 -0.4507 -0.7886
    2CHL1   H1B  120   3.915   3.322   5.520  1.7259  1.2218  0.3283
    2CHL1    C2  121   3.996   3.196   5.668  0.1059 -0.3115  0.6509
    2CHL1   H2A  122   4.068   3.264   5.717  0.8171 -0.0399 -0.7237
    2CHL1   H2B  123   4.053   3.101   5.660 -2.5691 -2.0142  0.1945
    2CHL1   C20  124   3.856   3.146   4.729  0.3220 -0.2523 -0.3922
    2CHL1   H20  125   3.779   3.189   4.661  0.9553  0.9822 -0.3656
    2CHL1   C21  126   3.900   3.008   4.664 -0.1905 -0.5266 -0.4889
    2CHL1  H21A  127   3.975   2.955   4.726 -1.6195 -1.9040  0.1320
    2CHL1  H21B  128   3.943   3.022   4.562 -0.5953 -0.7955 -0.7031
    2CHL1  H21C  129   3.817   2.934   4.656 -0.0270 -0.6445 -1.2631
    2CHL1   C22  130   3.967   3.251   4.730  0.1428 -0.0769 -0.0967
    2CHL1  H22A  131   3.935   3.332   4.799  1.1208  1.6276 -1.5587
    2CHL1  H22B  132   4.058   3.201   4.769  0.3112 -1.6895 -2.3566
    2CHL1   C23  133   3.996   3.328   4.598  0.0538 -0.4121  0.0504
    2CHL1  H23A  134   4.028   3.245   4.531  0.8497 -2.0572  2.3511
    2CHL1  H23B  135   3.899   3.362   4.555  1.6021 -0.0356 -3.5340
    2CHL1   C24  136   4.097   3.446   4.605 -0.3267  0.0103  0.1349
    2CHL1  H24A  137   4.057   3.528   4.669  1.0137 -1.1437  2.6100
    2CHL1  H24B  138   4.190   3.405   4.649  3.2065  3.8279 -3.0263
    2CHL1   C25  139   4.127   3.498   4.468 -0.0781  0.0118  0.5503
    2CHL1   H25  140   4.033   3.529   4.417  0.6158 -0.4706 -1.0614
    2CHL1   C26  141   4.200   3.623   4.486 -0.3505 -0.1790  0.3460
    2CHL1  H26A  142   4.209   3.673   4.387 -1.6365 -0.7209 -0.0601
    2CHL1  H26B  143   4.157   3.692   4.561 -0.1368  0.4363 -0.0870
    2CHL1  H26C  144   4.303   3.596   4.516 -0.0762  2.4485  2.0941
    2CHL1   C27  145   4.212   3.401   4.376 -0.5203 -0.4914 -0.2782
    2CHL1  H27A  146   4.319   3.407   4.404  0.0148  0.9925 -2.3296
    2CHL1  H27B  147   4.170   3.298   4.373  0.9591 -1.1351  0.4572
    2CHL1  H27C  148   4.204   3.444   4.273  1.5121 -1.6197 -0.9486
    3CHL1    C3  149   3.007   3.371   5.957  0.0075  0.5860 -0.2218
    3CHL1    H3  150   2.914   3.430   5.939 -0.1871  0.1868 -0.5589
    3CHL1    O3  151   3.015   3.358   6.094  0.0285  0.2079 -0.3112
    3CHL1   H3'  152   3.099   3.311   6.103 -0.8769 -1.0531  3.0520
    3CHL1    C4  153   3.011   3.235   5.879  0.7384 -0.0845  0.4976
    3CHL1   H4A  154   3.095   3.170   5.910  0.4347 -0.9346 -0.4084
    3CHL1   H4B  155   2.925   3.171   5.907  0.7103  0.3869  1.5675
    3CHL1    C5  156   3.017   3.251   5.731  0.2126  0.1528  0.2437
    3CHL1    C6  157   2.919   3.191   5.654 -0.6640 -0.1952 -0.3914
    3CHL1    H6  158   2.838   3.143   5.711 -1.1457  0.5571 -0.4221
    3CHL1    C7  159   2.920   3.183   5.504 -1.0599 -0.9923  0.1115
    3CHL1   H7A  160   2.917   3.078   5.466 -3.0783 -1.2703  0.9574
    3CHL1   H7B  161   2.842   3.252   5.467  1.1460  2.0324  0.6470
    3CHL1    C8  162   3.056   3.238   5.445 -0.1315  0.1674 -0.2585
    3CHL1    H8  163   3.135   3.166   5.472  1.5511  2.3095  0.8741
    3CHL1   C14  164   3.033   3.266   5.303 -0.3491 -0.3258  0.0122
    3CHL1   H14  165   2.961   3.350   5.305  0.6456  0.5619 -0.6773
    3CHL1   C15  166   2.987   3.155   5.209 -0.0212  0.6012  0.4787
    3CHL1  H15A  167   3.015   3.052   5.239  0.3652  0.7264  0.5539
    3CHL1  H15B  168   2.877   3.159   5.200 -0.1116  0.1299  1.2807
    3CHL1   C16  169   3.061   3.188   5.077  0.3859 -0.3710 -0.1950
    3CHL1  H16A  170   3.141   3.117   5.047 -0.6498 -1.0285 -1.4765
    3CHL1  H16B  171   2.996   3.187   4.988  2.5183 -0.4743 -1.8419
    3CHL1   C17  172   3.126   3.328   5.081  0.0274 -0.0208 -0.0669
    3CHL1   H17  173   3.047   3.405   5.074 -0.5714 -0.4968  1.1129
    3CHL1   C13  174   3.161   3.330   5.232 -0.6472  0.8964 -0.2041
    3CHL1   C18  175   3.292   3.245   5.248 -0.5207 -0.1937 -0.4129
    3CHL1  H18A  176   3.283   3.150   5.192 -2.4496  2.0822 -4.3879
    3CHL1  H18B  177   3.372   3.307   5.201  0.3411  0.9018  2.2841
    3CHL1  H18C  178   3.331   3.225   5.350  0.8093  0.3918 -0.7864
    3CHL1   C12  179   3.176   3.468   5.301 -0.0218 -0.2569  0.6679
    3CHL1  H12A  180   3.265   3.516   5.254 -0.7929 -0.2312 -0.8553
    3CHL1  H12B  181   3.093   3.540   5.282 -0.5650 -1.0354 -0.0208
    3CHL1   C11  182   3.201   3.449   5.450  0.0807  0.3162  0.5525
    3CHL1  H11A  183   3.308   3.421   5.462  0.2379  0.9723  0.7602
    3CHL1  H11B  184   3.199   3.550   5.497  0.3531  0.3601  0.4755
    3CHL1    C9  185   3.096   3.365   5.526  0.7481  0.1248 -0.2308
    3CHL1    H9  186   3.007   3.431   5.520  0.3536 -0.3790 -0.0690
    3CHL1   C10  187   3.124   3.341   5.672  0.1878 -0.0693 -0.7566
    3CHL1   C19  188   3.264   3.276   5.687 -0.1578 -0.5583 -0.8399
    3CHL1  H19A  189   3.338   3.350   5.648  1.6072 -1.8940 -0.1668
    3CHL1  H19B  190   3.291   3.257   5.793 -3.1682  2.0898  0.5562
    3CHL1  H19C  191   3.281   3.181   5.632 -1.0985 -0.3753 -1.4622
    3CHL1    C1  192   3.111   3.479   5.748  0.4715  0.0377  1.2936
    3CHL1   H1A  193   3.197   3.546   5.724  0.2392  0.5656  1.9086
    3CHL1   H1B  194   3.014   3.532   5.733 -0.0923 -1.7810 -2.5450
    3CHL1    C2  195   3.119   3.461   5.911 -0.3308 -0.1482  0.5416
    3CHL1   H2A  196   3.119   3.568   5.942 -1.0106  0.6887 -2.0147
    3CHL1   H2B  197   3.219   3.419   5.934 -0.0790 -0.3021 -0.7641
    3CHL1   C20  198   3.228   3.360   4.976 -0.0945 -0.0966 -0.1728
    3CHL1   H20  199   3.321   3.313   5.015 -0.0418  0.7722  0.7947
    3CHL1   C21  200   3.257   3.517   4.969 -0.2495 -0.0921 -0.1453
    3CHL1  H21A  201   3.337   3.521   4.892 -2.4000  0.0835 -2.5336
    3CHL1  H21B  202   3.281   3.559   5.069 -2.4933  0.4411  0.2274
    3CHL1  H21C  203   3.165   3.569   4.934 -0.2002 -0.7264 -1.2552
    3CHL1   C22  204   3.197   3.304   4.833 -0.2764  0.1184  0.2009
    3CHL1  H22A  205   3.283   3.347   4.777 -0.7742  1.4253  0.3846
    3CHL1  H22B  206   3.199   3.195   4.853 -1.9321  0.0840  0.2915
    3CHL1   C23  207   3.079   3.352   4.761 -0.4569  0.5627  0.0950
    3CHL1  H23A  208   2.991   3.336   4.827  0.5922  1.6389  1.8169
    3CHL1  H23B  209   3.081   3.463   4.752 -2.3781  1.0213  3.4066
    3CHL1   C24  210   3.062   3.282   4.624  0.6559 -0.2003  0.0289
    3CHL1  H24A  211   3.146   3.294   4.551  0.4512 -2.6327 -0.6827
    3CHL1  H24B  212   3.051   3.172   4.636  1.1816 -0.2156  0.3861
    3CHL1   C25  213   2.932   3.327   4.549  0.2148 -0.9034  1.0950
    3CHL1   H25  214   2.845   3.281   4.602 -0.1552 -0.9866  0.4207
    3CHL1   C26  215   2.923   3.482   4.544  0.0102 -0.5271  0.2990
    3CHL1  H26A  216   2.827   3.500   4.492  0.2420  0.8791  0.3384
    3CHL1  H26B  217   2.906   3.524   4.645 -1.8466 -0.0699 -0.1756
    3CHL1  H26C  218   3.006   3.531   4.487 -1.2260  2.0131  0.5570
    3CHL1   C27  219   2.929   3.267   4.410  0.3456  0.6342  0.1845
    3CHL1  H27A  220   2.833   3.300   4.364 -0.5920 -1.3696  0.5894
    3CHL1  H27B  221   3.016   3.306   4.354  0.1261  0.6672 -0.1362
    3CHL1  H27C  222   2.926   3.156   4.414 -0.5685  0.6541  0.3715
    4CHL1    C3  223   2.576   3.704   5.934 -0.1160 -0.1033 -0.1562
    4CHL1    H3  224   2.535   3.806   5.918  0.2911  0.3310  1.3894
    4CHL1    O3  225   2.582   3.671   6.074  1.1036  0.0633 -0.4615
    4CHL1   H3'  226   2.657   3.714   6.114  0.6198 -0.7320  1.4236
    4CHL1    C4  227   2.478   3.604   5.861  1.1271  0.2799 -0.0628
    4CHL1   H4A  228   2.498   3.501   5.896  0.7850  0.3354  0.3072
    4CHL1   H4B  229   2.380   3.638   5.900  0.6484  0.6266 -1.5056
    4CHL1    C5  230   2.487   3.613   5.703 -0.5109  0.3697 -0.0960
    4CHL1    C6  231   2.383   3.622   5.623  0.0634  0.9478 -0.8165
    4CHL1    H6  232   2.283   3.628   5.669 -0.9632 -2.3955 -2.2876
    4CHL1    C7  233   2.389   3.635   5.473  0.0911 -0.9047 -0.1932
    4CHL1   H7A  234   2.314   3.562   5.436  1.3155 -3.9183  2.7362
    4CHL1   H7B  235   2.383   3.736   5.426  1.0966 -0.0296  1.4501
    4CHL1    C8  236   2.525   3.575   5.422 -0.3709 -0.3300  0.1980
    4CHL1    H8  237   2.517   3.466   5.442  0.7963 -0.2033  1.5094
    4CHL1   C14  238   2.542   3.603   5.273 -0.4887  0.2382  0.1440
    4CHL1   H14  239   2.552   3.713   5.265  0.2319  0.1562 -0.1196
    4CHL1   C15  240   2.419   3.562   5.191 -0.1046  0.1793  0.4029
    4CHL1  H15A  241   2.360   3.480   5.237 -0.7113 -0.1974 -1.0161
    4CHL1  H15B  242   2.355   3.653   5.185  0.7231  0.7227 -0.4337
    4CHL1   C16  243   2.480   3.531   5.050  0.6081  0.5391  0.3352
    4CHL1  H16A  244   2.473   3.422   5.029  2.5017  0.6424 -1.0890
    4CHL1  H16B  245   2.427   3.591   4.973 -1.7439 -2.1796 -0.3280
    4CHL1   C17  246   2.631   3.571   5.061  0.1387 -0.0601 -0.2867
    4CHL1   H17  247   2.618   3.681   5.050 -0.2107  0.1518  1.8393
    4CHL1   C13  248   2.666   3.545   5.210  0.3759 -0.1330 -0.2629
    4CHL1   C18  249   2.672   3.390   5.228  0.1992 -0.0045  0.5843
    4CHL1  H18A  250   2.673   3.371   5.337  0.3996 -1.6435  0.3168
    4CHL1  H18B  251   2.581   3.350   5.178 -0.3578  1.4626  0.3654
    4CHL1  H18C  252   2.765   3.348   5.184  1.1936  3.3253 -0.7868
    4CHL1   C12  253   2.782   3.621   5.279 -0.0347  0.6473 -0.0051
    4CHL1  H12A  254   2.869   3.578   5.226 -0.9701 -1.1849 -0.1357
    4CHL1  H12B  255   2.770   3.727   5.248 -0.7355  0.5877  0.0390
    4CHL1   C11  256   2.782   3.595   5.432  0.9127 -0.0390  0.1472
    4CHL1  H11A  257   2.804   3.487   5.448  0.8337 -0.4887 -2.3037
    4CHL1  H11B  258   2.869   3.647   5.478  1.5065 -1.7890  1.0999
    4CHL1    C9  259   2.643   3.635   5.494 -0.2760  0.3860  0.7386
    4CHL1    H9  260   2.655   3.743   5.471  1.8515 -0.0646 -0.5865
    4CHL1   C10  261   2.631   3.605   5.647 -0.3276  0.2246  0.4682
    4CHL1   C19  262   2.678   3.456   5.671  0.9043  0.2757  0.4617
    4CHL1  H19A  263   2.645   3.376   5.602  2.0729 -0.0251  0.2227
    4CHL1  H19B  264   2.789   3.456   5.667  0.9284  2.4977 -3.4141
    4CHL1  H19C  265   2.642   3.419   5.770  1.5542  1.3760  1.1324
    4CHL1    C1  266   2.724   3.698   5.724  0.4701  0.5698 -0.0041
    4CHL1   H1A  267   2.825   3.665   5.691 -0.2876 -0.9262 -0.9021
    4CHL1   H1B  268   2.711   3.807   5.704  0.3379  0.4070 -0.8205
    4CHL1    C2  269   2.715   3.683   5.877  0.1931 -0.6337  0.8620
    4CHL1   H2A  270   2.797   3.742   5.924 -0.5938  1.1067  0.1315
    4CHL1   H2B  271   2.741   3.577   5.898 -2.1745 -1.4770 -0.1877
    4CHL1   C20  272   2.721   3.522   4.943 -0.4060 -0.7336 -1.2704
    4CHL1   H20  273   2.755   3.419   4.970 -0.8326 -1.2816 -2.6827
    4CHL1   C21  274   2.841   3.616   4.939 -0.5767 -0.2607  0.9774
    4CHL1  H21A  275   2.806   3.717   4.906  1.0963  0.0732  0.1204
    4CHL1  H21B  276   2.912   3.587   4.859  1.4340  0.4974  2.3887
    4CHL1  H21C  277   2.898   3.627   5.033  0.2045 -0.5578  0.5447
    4CHL1   C22  278   2.649   3.508   4.799 -0.4196 -1.0517 -0.0251
    4CHL1  H22A  279   2.708   3.445   4.729  0.7642  1.5247 -1.4784
    4CHL1  H22B  280   2.562   3.443   4.823  1.2573 -2.7274  1.8746
    4CHL1   C23  281   2.616   3.646   4.739 -0.6204 -0.1632 -0.6099
    4CHL1  H23A  282   2.547   3.702   4.806 -1.0859  0.0361 -1.2505
    4CHL1  H23B  283   2.711   3.698   4.715  0.7864 -2.3459 -0.0746
    4CHL1   C24  284   2.554   3.625   4.600  0.0449  0.0682  0.5264
    4CHL1  H24A  285   2.614   3.549   4.546  1.0482  1.2667 -0.0841
    4CHL1  H24B  286   2.451   3.585   4.614  0.7273 -3.2297 -2.4941
    4CHL1   C25  287   2.555   3.748   4.501 -0.1492  0.3042 -0.9774
    4CHL1   H25  288   2.488   3.825   4.545  0.9791  0.0400  1.3472
    4CHL1   C26  289   2.699   3.812   4.488  0.3535 -0.8256  0.3309
    4CHL1  H26A  290   2.766   3.728   4.460 -0.1317 -1.2700  0.5064
    4CHL1  H26B  291   2.691   3.894   4.414 -0.1984 -1.4470 -0.3036
    4CHL1  H26C  292   2.727   3.853   4.588 -2.0763  0.7225  0.4411
    4CHL1   C27  293   2.505   3.710   4.364  0.3752 -0.0126 -0.2400
    4CHL1  H27A  294   2.412   3.654   4.390  0.6851 -0.3992  0.0488
    4CHL1  H27B  295   2.488   3.794   4.295 -1.1656  1.7136  2.0943
    4CHL1  H27C  296   2.582   3.643   4.319  0.4296  0.1473 -0.3818
    5CHL1    C3  297   3.200   4.037   5.786  0.3175 -0.6863  0.4477
    5CHL1    H3  298   3.309   4.053   5.770  0.2845  1.9579  2.1979
    5CHL1    O3  299   3.167   4.031   5.919 -0.1927 -0.4304 -0.1510
    5CHL1   H3'  300   3.099   4.098   5.925  0.7226  0.3853  2.0883
    5CHL1    C4  301   3.112   4.136   5.707 -0.2702 -0.0039 -0.9177
    5CHL1   H4A  302   3.009   4.102   5.730 -0.7143  1.3161 -0.9072
    5CHL1   H4B  303   3.112   4.233   5.762  1.2938 -1.2440  1.4632
    5CHL1    C5  304   3.130   4.141   5.556  0.3272 -0.2425 -0.5895
    5CHL1    C6  305   3.169   4.246   5.485 -0.0415 -0.0855 -0.5640
    5CHL1    H6  306   3.175   4.344   5.535  0.5518 -0.6871  0.5741
    5CHL1    C7  307   3.177   4.261   5.333  0.8825  0.1517 -0.0936
    5CHL1   H7A  308   3.112   4.348   5.312 -0.5276 -0.9169 -0.3124
    5CHL1   H7B  309   3.284   4.266   5.301  1.1515  0.3053  0.7943
    5CHL1    C8  310   3.123   4.134   5.270 -0.3458 -0.3365  0.3733
    5CHL1    H8  311   3.012   4.141   5.264 -0.2776 -0.3089 -1.7213
    5CHL1   C14  312   3.166   4.125   5.123 -0.0026 -0.4655  0.1003
    5CHL1   H14  313   3.277   4.128   5.127  0.0100 -1.2797  0.5261
    5CHL1   C15  314   3.135   4.251   5.041  0.1516 -0.3927 -0.8127
    5CHL1  H15A  315   3.025   4.262   5.054  0.3237  0.7679 -0.2203
    5CHL1  H15B  316   3.179   4.350   5.068 -1.8671  0.2461  0.3322
    5CHL1   C16  317   3.158   4.203   4.899  0.7368 -0.2441 -0.2563
    5CHL1  H16A  318   3.067   4.226   4.840  0.5229 -1.5581 -0.4573
    5CHL1  H16B  319   3.247   4.253   4.855  0.3074  1.8217  1.0671
    5CHL1   C17  320   3.176   4.049   4.898 -0.0960  0.1650 -0.1126
    5CHL1   H17  321   3.286   4.036   4.902 -0.4312 -3.2682  1.0572
    5CHL1   C13  322   3.125   4.004   5.043  0.0375 -0.0546 -0.1617
    5CHL1   C18  323   2.972   3.998   5.029 -0.2468  0.0346 -0.1551
    5CHL1  H18A  324   2.924   4.081   4.974 -0.4573 -0.4071 -0.6486
    5CHL1  H18B  325   2.957   3.903   4.973 -1.3258  0.4229 -0.5497
    5CHL1  H18C  326   2.925   3.983   5.129 -2.1010  0.7983 -0.8789
    5CHL1   C12  327   3.168   3.879   5.109 -0.3353  0.7507  0.4887
    5CHL1  H12A  328   3.118   3.792   5.061  1.9820 -0.2778 -0.1914
    5CHL1  H12B  329   3.278   3.876   5.094 -0.0781  0.3259  2.2016
    5CHL1   C11  330   3.139   3.882   5.257  0.2449 -0.2349  0.4072
    5CHL1  H11A  331   3.034   3.849   5.269 -0.8493  1.7669 -2.6564
    5CHL1  H11B  332   3.187   3.787   5.290 -0.7609 -0.7945  0.2981
    5CHL1    C9  333   3.167   4.012   5.343  0.1985  0.6183 -0.0148
    5CHL1    H9  334   3.278   4.011   5.348  0.2636  1.6675 -0.9683
    5CHL1   C10  335   3.112   4.004   5.490  0.0363  0.5787 -0.3037
    5CHL1   C19  336   2.962   3.964   5.489 -0.1104  0.1268 -0.3812
    5CHL1  H19A  337   2.908   4.017   5.408  0.4498  1.1786 -0.0799
    5CHL1  H19B  338   2.951   3.859   5.453 -0.0484  0.0647 -0.2203
    5CHL1  H19C  339   2.907   3.963   5.585  0.3943  2.6934 -0.0054
    5CHL1    C1  340   3.198   3.901   5.569 -0.2235 -0.3419 -0.3901
    5CHL1   H1A  341   3.179   3.795   5.544  0.9463 -0.8138  0.6327
    5CHL1   H1B  342   3.307   3.916   5.556 -0.6037  2.9959 -0.5176
    5CHL1    C2  343   3.166   3.909   5.719  0.0266  0.6352 -0.1887
    5CHL1   H2A  344   3.219   3.820   5.760 -0.0518 -1.2635 -3.7649
    5CHL1   H2B  345   3.057   3.891   5.733 -0.1251  0.2149 -1.7333
    5CHL1   C20  346   3.153   3.977   4.764 -0.5834  0.1936  0.1838
    5CHL1   H20  347   3.222   4.028   4.693  0.6086 -0.4231  0.8741
    5CHL1   C21  348   3.008   3.995   4.702 -0.2149  0.1190  0.4015
    5CHL1  H21A  349   2.927   3.959   4.769  1.4629 -1.0368  1.9044
    5CHL1  H21B  350   2.996   3.926   4.615 -2.0110 -2.1947  2.3215
    5CHL1  H21C  351   2.991   4.101   4.673  0.4046 -0.0343 -0.5509
    5CHL1   C22  352   3.198   3.828   4.763  0.3299 -1.0088 -0.3091
    5CHL1  H22A  353   3.270   3.810   4.845  0.3532  0.6128  0.0672
    5CHL1  H22B  354   3.108   3.768   4.789  0.3974  0.0180  2.6654
    5CHL1   C23  355   3.267   3.796   4.630  0.0042  0.5268  0.0970
    5CHL1  H23A  356   3.192   3.814   4.550 -2.7973  2.9095  3.0062
    5CHL1  H23B  357   3.362   3.852   4.619  0.8177 -0.7705  0.2735
    5CHL1   C24  358   3.313   3.646   4.611 -0.5386  0.8072  0.0637
    5CHL1  H24A  359   3.368   3.611   4.701  2.4709  0.0560 -1.8857
    5CHL1  H24B  360   3.218   3.590   4.599  1.0835 -1.6155 -3.2772
    5CHL1   C25  361   3.395   3.610   4.480  0.0692  0.0405  0.1183
    5CHL1   H25  362   3.490   3.666   4.494  0.1330 -0.1999  0.6894
    5CHL1   C26  363   3.427   3.458   4.468  0.3288 -0.2640 -0.0592
    5CHL1  H26A  364   3.341   3.407   4.420 -0.3332  0.1239  0.7044
    5CHL1  H26B  365   3.516   3.447   4.402 -0.2185  1.0976 -1.0732
    5CHL1  H26C  366   3.445   3.420   4.571 -2.7428 -0.5198  0.4526
    5CHL1   C27  367   3.321   3.670   4.356  0.4086  0.6129  0.1751
    5CHL1  H27A  368   3.337   3.614   4.261 -0.3594 -0.3301  0.5923
    5CHL1  H27B  369   3.213   3.665   4.381  0.4458 -2.0497  0.0189
    5CHL1  H27C  370   3.356   3.775   4.349  0.9366  0.4566  0.4308
    6CHL1    C3  371   3.233   2.363   5.653  0.0342 -0.5723  0.3613
    6CHL1    H3  372   3.219   2.458   5.597 -1.2775 -1.2941 -0.5817
    6CHL1    O3  373   3.176   2.376   5.779  0.5363  0.8854 -0.2050
    6CHL1   H3'  374   3.149   2.286   5.799  0.0904  1.0096 -0.2458
    6CHL1    C4  375   3.161   2.251   5.571  0.1262 -0.5970  0.0777
    6CHL1   H4A  376   3.176   2.154   5.622  0.2147 -0.5024  0.2330
    6CHL1   H4B  377   3.055   2.283   5.572  0.7897  1.8762 -0.6871
    6CHL1    C5  378   3.228   2.228   5.437 -0.5124 -0.2906  0.6760
    6CHL1    C6  379   3.161   2.231   5.323 -0.2761  0.7735  0.2575
    6CHL1    H6  380   3.051   2.240   5.330 -0.3211 -0.0651  0.8505
    6CHL1    C7  381   3.214   2.201   5.190 -0.5500  0.4449  0.4525
    6CHL1   H7A  382   3.150   2.145   5.119  0.7800 -0.0651 -0.3791
    6CHL1   H7B  383   3.235   2.302   5.147 -2.3829  1.9320  2.8410
    6CHL1    C8  384   3.352   2.131   5.194 -0.2915  0.0434  0.4579
    6CHL1    H8  385   3.334   2.024   5.215  0.4159 -0.6730 -2.2562
    6CHL1   C14  386   3.418   2.149   5.052  0.2622 -0.3157 -0.3382
    6CHL1   H14  387   3.425   2.260   5.041 -1.6299  0.0735  1.7706
    6CHL1   C15  388   3.344   2.086   4.932 -0.2882 -0.8875  0.0197
    6CHL1  H15A  389   3.319   1.983   4.964 -0.9598 -1.5040 -2.3638
    6CHL1  H15B  390   3.253   2.140   4.898  0.2784 -0.0335 -0.1899
    6CHL1   C16  391   3.451   2.087   4.825 -0.6153  0.6144 -0.2525
    6CHL1  H16A  392   3.460   1.985   4.781 -1.5852 -0.8139  2.5525
    6CHL1  H16B  393   3.431   2.158   4.742 -2.3892 -0.7010 -1.0271
    6CHL1   C17  394   3.587   2.133   4.887  0.5112 -0.5397 -0.0683
    6CHL1   H17  395   3.592   2.243   4.872  1.2539 -0.5021  0.3881
    6CHL1   C13  396   3.565   2.102   5.045 -0.4174  0.5723  0.5584
    6CHL1   C18  397   3.578   1.948   5.064 -0.3293 -0.4260  0.0620
    6CHL1  H18A  398   3.584   1.931   5.174 -1.1295 -0.5090  0.0983
    6CHL1  H18B  399   3.506   1.892   5.001  0.5034 -1.5637  0.0873
    6CHL1  H18C  400   3.684   1.924   5.040  0.3709 -1.1727  3.4187
    6CHL1   C12  401   3.656   2.179   5.142  0.1947 -0.0131 -0.0766
    6CHL1  H12A  402   3.758   2.137   5.153 -0.1687 -0.9009 -0.0159
    6CHL1  H12B  403   3.657   2.285   5.109  0.4163 -0.4384 -1.5116
    6CHL1   C11  404   3.594   2.173   5.287 -0.5029 -0.3255 -0.1299
    6CHL1  H11A  405   3.612   2.072   5.330 -0.5230  0.1157  0.9551
    6CHL1  H11B  406   3.647   2.247   5.351  1.7619  0.4682 -2.7201
    6CHL1    C9  407   3.444   2.207   5.296 -1.0707  0.1078  0.0916
    6CHL1    H9  408   3.434   2.313   5.264  1.9100  0.9451  1.5775
    6CHL1   C10  409   3.381   2.200   5.438 -0.3471  0.6007 -0.3370
    6CHL1   C19  410   3.410   2.067   5.502 -0.3949  0.8692 -0.1653
    6CHL1  H19A  411   3.354   2.055   5.597 -0.0528 -1.7320 -0.2316
    6CHL1  H19B  412   3.378   1.980   5.441  0.5331  0.1418  0.3580
    6CHL1  H19C  413   3.519   2.069   5.527 -0.4491 -1.7641  0.5924
    6CHL1    C1  414   3.449   2.310   5.529 -0.0760  0.4630 -0.5143
    6CHL1   H1A  415   3.553   2.274   5.544 -0.1126  0.1421 -1.0083
    6CHL1   H1B  416   3.452   2.407   5.474 -1.0198 -0.6820 -2.7448
    6CHL1    C2  417   3.384   2.329   5.665  0.1748  0.2650 -0.8030
    6CHL1   H2A  418   3.432   2.412   5.721  0.4151  0.3338 -1.1079
    6CHL1   H2B  419   3.387   2.235   5.724 -1.4752  0.9152  0.3898
    6CHL1   C20  420   3.719   2.090   4.809 -0.1611  0.0275  0.2794
    6CHL1   H20  421   3.725   1.981   4.831  1.0310  0.2137  0.9898
    6CHL1   C21  422   3.846   2.156   4.871  0.2964 -0.2418  0.0789
    6CHL1  H21A  423   3.839   2.266   4.873  1.5796 -0.1576  1.4547
    6CHL1  H21B  424   3.938   2.135   4.813 -0.6511  0.0058 -1.5784
    6CHL1  H21C  425   3.859   2.137   4.980 -0.7324 -0.3557  0.1912
    6CHL1   C22  426   3.715   2.120   4.657 -0.6513  0.4949 -0.2241
    6CHL1  H22A  427   3.619   2.097   4.606 -0.1100  0.3080 -1.1937
    6CHL1  H22B  428   3.734   2.228   4.642  0.5544  0.5886  1.6148
    6CHL1   C23  429   3.817   2.041   4.562  0.2744 -0.3187 -0.7589
    6CHL1  H23A  430   3.905   2.017   4.626 -0.5734 -0.5462  0.3629
    6CHL1  H23B  431   3.755   1.951   4.540 -0.6596 -0.1963  1.1516
    6CHL1   C24  432   3.855   2.123   4.436  0.2574 -0.6639 -0.1618
    6CHL1  H24A  433   3.766   2.154   4.378  0.2867 -0.1137  0.0824
    6CHL1  H24B  434   3.900   2.215   4.478  0.4776 -0.4202 -0.9124
    6CHL1   C25  435   3.954   2.048   4.344  0.5253 -0.4785  0.7912
    6CHL1   H25  436   4.045   2.021   4.401 -0.3656 -2.4683  1.3658
    6CHL1   C26  437   3.889   1.913   4.286 -0.8145  0.1205  0.2910
    6CHL1  H26A  438   3.797   1.938   4.229 -1.6636 -1.2497  1.0101
    6CHL1  H26B  439   3.963   1.863   4.220  0.8621  0.1954  2.0308
    6CHL1  H26C  440   3.871   1.844   4.371  1.7012  1.0167  1.6597
    6CHL1   C27  441   4.002   2.136   4.225 -0.5109  0.8445  0.0940
    6CHL1  H27A  442   4.047   2.062   4.155  1.8021  0.8749  1.4202
    6CHL1  H27B  443   3.914   2.181   4.175 -1.1163 -1.3586 -0.9726
    6CHL1  H27C  444   4.067   2.219   4.260 -2.0448  2.0967  0.0701
    7CHL1    C3  445   2.103   1.939   5.754 -0.4231 -0.2838 -0.0381
    7CHL1    H3  446   2.213   1.923   5.753 -0.2962  0.4697 -1.5274
    7CHL1    O3  447   2.068   1.962   5.888  0.4518  0.5335 -0.1484
    7CHL1   H3'  448   1.973   1.977   5.892  0.3037 -0.4903  0.8717
    7CHL1    C4  449   2.068   2.065   5.685  0.2829 -0.2029 -0.0959
    7CHL1   H4A  450   1.960   2.081   5.665  0.2967 -1.8236 -1.7378
    7CHL1   H4B  451   2.104   2.151   5.746  0.3361  0.0963 -0.5455
    7CHL1    C5  452   2.113   2.061   5.542  0.1765  0.1938  0.2880
    7CHL1    C6  453   2.214   2.141   5.508  0.1066  0.3155  0.3165
    7CHL1    H6  454   2.232   2.221   5.582  0.5756 -0.8296  1.4965
    7CHL1    C7  455   2.276   2.136   5.367 -0.2446 -0.0786  0.2682
    7CHL1   H7A  456   2.285   2.240   5.328  0.3104  0.5568  2.0279
    7CHL1   H7B  457   2.374   2.086   5.378 -0.8184 -1.5541 -0.9834
    7CHL1    C8  458   2.182   2.060   5.271  0.2957  0.2260  0.8429
    7CHL1    H8  459   2.087   2.111   5.244 -0.2249 -1.6285 -1.1240
    7CHL1   C14  460   2.263   2.029   5.139 -0.1744  0.7807 -0.5836
    7CHL1   H14  461   2.348   1.966   5.172 -0.4841 -1.3545 -3.4497
    7CHL1   C15  462   2.340   2.143   5.075  0.0815 -0.3110 -0.2819
    7CHL1  H15A  463   2.282   2.238   5.073  1.8998  0.8268 -1.4730
    7CHL1  H15B  464   2.424   2.161   5.145  0.1678  1.0872 -0.7207
    7CHL1   C16  465   2.380   2.087   4.934  0.6663  0.8102  0.3558
    7CHL1  H16A  466   2.358   2.163   4.856 -0.9565  1.9867  1.8690
    7CHL1  H16B  467   2.490   2.069   4.930  0.6389  0.2082  1.6558
    7CHL1   C17  468   2.307   1.951   4.919 -0.0831  0.5490 -0.3463
    7CHL1   H17  469   2.368   1.866   4.956  0.6709  0.8218 -0.9359
    7CHL1   C13  470   2.196   1.953   5.027  0.0447 -0.3484 -1.2347
    7CHL1   C18  471   2.080   2.040   4.979  0.2303 -0.2901 -0.0394
    7CHL1  H18A  472   2.017   1.993   4.900 -2.6705  1.9887  0.7361
    7CHL1  H18B  473   2.005   2.051   5.061 -0.2598 -1.8407 -0.2591
    7CHL1  H18C  474   2.101   2.135   4.925 -0.6473 -1.5265 -2.7527
    7CHL1   C12  475   2.135   1.818   5.078  0.3440 -0.0148 -0.4082
    7CHL1  H12A  476   2.059   1.778   5.008 -2.3680  1.0187  1.7121
    7CHL1  H12B  477   2.215   1.741   5.081 -0.8172 -1.3932 -2.4491
    7CHL1   C11  478   2.060   1.837   5.214 -0.1214 -0.3280  0.0316
    7CHL1  H11A  479   1.963   1.880   5.181 -0.0117 -0.2374 -0.1732
    7CHL1  H11B  480   2.038   1.733   5.247 -0.3183 -0.9735 -1.9839
    7CHL1    C9  481   2.134   1.923   5.325  0.5190 -0.3726  0.7149
    7CHL1    H9  482   2.221   1.858   5.350  0.0050 -0.9849  0.9501
    7CHL1   C10  483   2.061   1.939   5.458 -0.2852 -0.4020  0.2259
    7CHL1   C19  484   1.911   1.957   5.428  0.0566  0.7314 -0.1784
    7CHL1  H19A  485   1.879   1.866   5.371  2.5030  0.2614 -0.9388
    7CHL1  H19B  486   1.861   1.968   5.526  1.5950  4.8961  0.3073
    7CHL1  H19C  487   1.893   2.047   5.366 -1.4246 -0.4120 -1.5149
    7CHL1    C1  488   2.080   1.805   5.534 -0.0276  0.2317 -0.6705
    7CHL1   H1A  489   2.026   1.721   5.487 -0.7933  0.8906 -0.9938
    7CHL1   H1B  490   2.186   1.770   5.531 -0.3648 -0.7571 -1.6171
    7CHL1    C2  491   2.047   1.810   5.683 -0.3698  0.9490 -0.1505
    7CHL1   H2A  492   2.093   1.722   5.733 -1.8661 -0.9542 -1.9744
    7CHL1   H2B  493   1.936   1.811   5.690 -0.4030  0.6892 -0.6227
    7CHL1   C20  494   2.274   1.908   4.777 -1.0343 -0.4902 -0.2709
    7CHL1   H20  495   2.198   1.981   4.740 -4.8110 -1.2610  4.8139
    7CHL1   C21  496   2.213   1.768   4.765  0.2678  0.5387 -0.3457
    7CHL1  H21A  497   2.114   1.762   4.816 -0.5746  0.9329 -1.8636
    7CHL1  H21B  498   2.280   1.696   4.817  0.3749  0.4672 -0.5807
    7CHL1  H21C  499   2.207   1.738   4.658  0.7934 -0.4045 -0.1215
    7CHL1   C22  500   2.404   1.924   4.689 -0.0294  0.3007  0.6175
    7CHL1  H22A  501   2.461   2.017   4.708 -1.0860  1.5153 -1.7850
    7CHL1  H22B  502   2.483   1.850   4.711  2.0145  2.2764  0.2122
    7CHL1   C23  503   2.382   1.918   4.537  0.6918 -0.0073 -0.5147
    7CHL1  H23A  504   2.344   1.818   4.509 -0.0546  0.7765 -2.5285
    7CHL1  H23B  505   2.297   1.988   4.518  0.0049  0.5557  3.5641
    7CHL1   C24  506   2.494   1.946   4.441 -0.0257 -0.9940  0.1220
    7CHL1  H24A  507   2.576   1.872   4.446  1.0761  0.2656  2.1762
    7CHL1  H24B  508   2.458   1.938   4.336  1.4830 -1.3723 -0.3851
    7CHL1   C25  509   2.554   2.086   4.457  0.4531 -0.6538  0.3385
    7CHL1   H25  510   2.591   2.105   4.560 -3.0916  2.4538  1.2390
    7CHL1   C26  511   2.681   2.126   4.370  0.2445 -0.4314  0.4089
    7CHL1  H26A  512   2.669   2.141   4.261  2.4485  1.7274  0.3760
    7CHL1  H26B  513   2.726   2.218   4.414 -0.3413 -0.2926  0.7397
    7CHL1  H26C  514   2.759   2.048   4.381  2.0867  1.4213  1.2130
    7CHL1   C27  515   2.443   2.193   4.438  0.0335  0.4748  0.1888
    7CHL1  H27A  516   2.396   2.177   4.339  1.3242  0.0585 -0.3820
    7CHL1  H27B  517   2.366   2.191   4.518  0.0077 -1.6713  0.1703
    7CHL1  H27C  518   2.480   2.298   4.433  0.5588  0.2525 -0.7639
    8CHL1    C3  519   2.518   4.320   5.945  0.5079  0.2620  0.2417
    8CHL1    H3  520   2.410   4.318   5.917  0.3501  0.8940  0.7792
    8CHL1    O3  521   2.540   4.328   6.084 -0.3107 -0.6810 -0.4479
    8CHL1   H3'  522   2.531   4.236   6.110 -0.9269 -0.5172 -0.0580
    8CHL1    C4  523   2.580   4.190   5.888 -0.0423 -0.5615  0.5837
    8CHL1   H4A  524   2.685   4.182   5.925  0.3908  1.7401  0.0164
    8CHL1   H4B  525   2.526   4.104   5.931 -0.3768 -0.1714  0.9539
    8CHL1    C5  526   2.589   4.186   5.734  0.2628  0.3743 -0.1555
    8CHL1    C6  527   2.545   4.072   5.672  0.5136  0.1988 -0.5090
    8CHL1    H6  528   2.507   3.985   5.726  2.1145  0.7887  1.7229
    8CHL1    C7  529   2.531   4.062   5.523 -0.2160 -0.4706  0.0113
    8CHL1   H7A  530   2.560   3.957   5.500 -1.8196 -1.3181  1.5557
    8CHL1   H7B  531   2.422   4.061   5.502  0.0899 -2.8118 -2.0188
    8CHL1    C8  532   2.602   4.171   5.454 -0.9127  0.0018 -0.6081
    8CHL1    H8  533   2.708   4.140   5.466 -1.7714 -2.2654  2.8485
    8CHL1   C14  534   2.566   4.159   5.310 -0.1154  0.2726  0.3271
    8CHL1   H14  535   2.459   4.186   5.295 -0.0360  0.4488  0.0883
    8CHL1   C15  536   2.588   4.016   5.248  0.8406 -0.2035  0.0304
    8CHL1  H15A  537   2.688   3.976   5.272  2.0513  1.5266 -1.8037
    8CHL1  H15B  538   2.506   3.945   5.270  0.4738  0.4419  0.8216
    8CHL1   C16  539   2.584   4.050   5.093 -0.0483 -0.0690  0.6507
    8CHL1  H16A  540   2.683   4.013   5.057  0.0160 -0.7879  1.5248
    8CHL1  H16B  541   2.495   4.008   5.042  0.4831  0.3343 -0.6634
    8CHL1   C17  542   2.577   4.209   5.082  0.5161  0.4221  0.1322
    8CHL1   H17  543   2.467   4.225   5.083  0.2125 -1.4478 -0.2404
    8CHL1   C13  544   2.631   4.260   5.217 -0.2547  0.2491  0.4592
    8CHL1   C18  545   2.782   4.246   5.230 -0.2311 -0.1338 -0.2045
    8CHL1  H18A  546   2.816   4.332   5.168 -2.9986  1.7845  0.7229
    8CHL1  H18B  547   2.813   4.275   5.332  0.3773  2.5647 -1.0805
    8CHL1  H18C  548   2.819   4.149   5.190  0.6061  0.6487 -1.4202
    8CHL1   C12  549   2.586   4.398   5.267 -0.3599 -0.1251 -0.7667
    8CHL1  H12A  550   2.629   4.483   5.209  0.5149  1.5825  2.1741
    8CHL1  H12B  551   2.475   4.403   5.268 -0.3625  2.0127  2.9891
    8CHL1   C11  552   2.631   4.417   5.414  0.4599 -0.0021 -0.2262
    8CHL1  H11A  553   2.742   4.426   5.422  0.4798 -0.9754  0.9045
    8CHL1  H11B  554   2.587   4.516   5.434 -0.8588 -0.2875 -1.5168
    8CHL1    C9  555   2.575   4.314   5.512  0.3110  0.2177  0.9161
    8CHL1    H9  556   2.465   4.323   5.512  0.4338  2.2657  0.2670
    8CHL1   C10  557   2.627   4.321   5.662  0.0595  0.5794  0.2540
    8CHL1   C19  558   2.782   4.326   5.674  0.0084 -0.3995 -0.4720
    8CHL1  H19A  559   2.817   4.321   5.779  1.4305 -3.7042 -1.0027
    8CHL1  H19B  560   2.836   4.244   5.623 -0.0842  0.1279 -1.4441
    8CHL1  H19C  561   2.812   4.423   5.629 -0.0536 -1.9214 -4.1205
    8CHL1    C1  562   2.564   4.445   5.729 -0.3282  0.0605  0.1573
    8CHL1   H1A  563   2.605   4.541   5.692 -0.2397  0.0276  0.1696
    8CHL1   H1B  564   2.456   4.455   5.704 -0.9392  1.5726  2.9528
    8CHL1    C2  565   2.582   4.443   5.881  0.0538 -0.0220 -0.2724
    8CHL1   H2A  566   2.543   4.534   5.931 -0.3748 -0.2630 -0.1683
    8CHL1   H2B  567   2.684   4.437   5.924 -0.9009 -1.4366  1.9286
    8CHL1   C20  568   2.633   4.261   4.950 -0.0626  0.1219 -1.0349
    8CHL1   H20  569   2.742   4.240   4.945  0.0146  0.0941  0.3288
    8CHL1   C21  570   2.631   4.417   4.933  0.7800  0.9245 -0.4437
    8CHL1  H21A  571   2.528   4.447   4.904  0.1247 -0.4191  0.4047
    8CHL1  H21B  572   2.696   4.448   4.848  2.2930  0.8501  0.6460
    8CHL1  H21C  573   2.670   4.464   5.026 -0.4554  0.4439  0.3518
    8CHL1   C22  574   2.557   4.188   4.836  0.7463 -0.3347  0.3790
    8CHL1  H22A  575   2.566   4.078   4.850  0.9658 -0.4100 -0.3068
    8CHL1  H22B  576   2.449   4.211   4.843  0.0404 -3.3729  1.1745
    8CHL1   C23  577   2.620   4.230   4.702  1.2113  0.0405 -0.6583
    8CHL1  H23A  578   2.591   4.336   4.689 -0.5803 -0.0051  2.0846
    8CHL1  H23B  579   2.731   4.228   4.708  1.3496  1.6086 -1.9507
    8CHL1   C24  580   2.553   4.177   4.577 -0.5806  0.2156 -0.1752
    8CHL1  H24A  581   2.592   4.073   4.577 -1.1474 -0.0111 -1.2006
    8CHL1  H24B  582   2.444   4.177   4.597  0.0359 -1.0463  4.4005
    8CHL1   C25  583   2.605   4.228   4.442 -0.3650  0.4736 -0.4069
    8CHL1   H25  584   2.580   4.337   4.440 -0.0136  0.5505 -0.9846
    8CHL1   C26  585   2.761   4.201   4.429 -0.5925 -0.6062  0.1805
    8CHL1  H26A  586   2.797   4.233   4.329  2.3237 -0.6243  1.1526
    8CHL1  H26B  587   2.816   4.259   4.506 -0.1670 -0.4600 -0.2323
    8CHL1  H26C  588   2.763   4.092   4.452 -0.4479 -0.5403  0.4801
    8CHL1   C27  589   2.530   4.148   4.340 -0.6257 -0.6962  0.1563
    8CHL1  H27A  590   2.564   4.186   4.242 -1.9286  0.4791  0.1235
    8CHL1  H27B  591   2.560   4.041   4.335 -1.6642 -0.9842 -0.1508
    8CHL1  H27C  592   2.421   4.170   4.330 -0.5692 -1.1240 -1.6462
    9CHL1    C3  593   4.348   5.205   5.699  0.0651 -0.2022  0.3913
    9CHL1    H3  594   4.456   5.179   5.697 -0.2751 -1.7929  1.3637
    9CHL1    O3  595   4.303   5.240   5.828 -0.1253  0.6245  0.3543
    9CHL1   H3'  596   4.221   5.290   5.822 -0.8650 -0.6840 -3.0754
    9CHL1    C4  597   4.319   5.318   5.603  0.2522 -0.4342  0.2722
    9CHL1   H4A  598   4.209   5.333   5.597  0.3726 -0.1158 -2.9218
    9CHL1   H4B  599   4.360   5.412   5.646 -0.5386 -0.3400  0.8502
    9CHL1    C5  600   4.366   5.296   5.463 -0.1335 -0.5806  1.0986
    9CHL1    C6  601   4.454   5.378   5.404 -0.8606  0.3034  0.3646
    9CHL1    H6  602   4.498   5.459   5.463 -1.8448  0.1195  1.3943
    9CHL1    C7  603   4.486   5.367   5.254  0.2858 -0.3501  0.0603
    9CHL1   H7A  604   4.463   5.467   5.210 -1.1993 -1.3117 -1.4663
    9CHL1   H7B  605   4.595   5.345   5.245  0.2828 -0.6327  0.6950
    9CHL1    C8  606   4.399   5.275   5.167 -0.8748  0.4654 -0.1663
    9CHL1    H8  607   4.307   5.333   5.147  0.1451  1.1074 -3.7965
    9CHL1   C14  608   4.468   5.247   5.036 -0.2896  0.2027  0.1976
    9CHL1   H14  609   4.555   5.189   5.073 -0.8802 -0.3211  0.7815
    9CHL1   C15  610   4.516   5.354   4.939  0.2181  0.2383 -0.5806
    9CHL1  H15A  611   4.433   5.428   4.933 -0.9440 -0.9559  0.2631
    9CHL1  H15B  612   4.605   5.407   4.980  1.2020 -3.0653  2.0104
    9CHL1   C16  613   4.538   5.275   4.816  0.3096  0.2200  0.7789
    9CHL1  H16A  614   4.479   5.327   4.737 -0.2586  0.5820  1.4258
    9CHL1  H16B  615   4.642   5.273   4.778  0.4203  0.8140  1.0394
    9CHL1   C17  616   4.474   5.138   4.826 -0.2097 -0.0275 -0.0633
    9CHL1   H17  617   4.549   5.064   4.861  1.0701  1.1649 -0.1852
    9CHL1   C13  618   4.385   5.148   4.951  0.0729 -0.6193  0.6810
    9CHL1   C18  619   4.255   5.213   4.897  0.1411 -0.5310 -0.0025
    9CHL1  H18A  620   4.199   5.129   4.852  0.4934 -1.1139  0.6195
    9CHL1  H18B  621   4.199   5.250   4.985 -0.8021 -1.1038 -0.3480
    9CHL1  H18C  622   4.276   5.293   4.823  0.6705  0.1914  0.9029
    9CHL1   C12  623   4.360   5.020   5.022 -0.5331  0.1652  0.7156
    9CHL1  H12A  624   4.317   4.950   4.949  2.4563 -0.4852 -0.5631
    9CHL1  H12B  625   4.451   4.969   5.059 -2.0754 -1.4409  2.5537
    9CHL1   C11  626   4.283   5.039   5.148 -0.3946 -0.6131  0.2682
    9CHL1  H11A  627   4.178   5.068   5.127 -1.8043 -3.6326  2.5617
    9CHL1  H11B  628   4.275   4.950   5.213  0.1226 -0.5776  0.3906
    9CHL1    C9  629   4.365   5.143   5.249 -0.0283 -0.2091  0.3281
    9CHL1    H9  630   4.460   5.092   5.278  0.4267  1.2743  1.5690
    9CHL1   C10  631   4.306   5.176   5.391  0.0836 -0.8921  0.4334
    9CHL1   C19  632   4.157   5.205   5.362  0.0833 -0.0828  0.0842
    9CHL1  H19A  633   4.101   5.242   5.451  0.6453 -0.1823  0.4868
    9CHL1  H19B  634   4.139   5.276   5.279 -0.6805 -1.5821 -1.0592
    9CHL1  H19C  635   4.108   5.114   5.322  1.9476  0.1242 -2.9783
    9CHL1    C1  636   4.315   5.058   5.490 -0.4978  0.8687  0.1450
    9CHL1   H1A  637   4.257   4.969   5.459  0.8592  0.4856 -1.4505
    9CHL1   H1B  638   4.423   5.033   5.495 -0.7464 -0.1823  0.5047
    9CHL1    C2  639   4.272   5.086   5.637 -0.1568 -0.1790 -0.1416
    9CHL1   H2A  640   4.284   4.996   5.700 -0.5080 -0.7391 -0.8523
    9CHL1   H2B  641   4.162   5.100   5.642 -0.4545 -1.9517 -0.9089
    9CHL1   C20  642   4.428   5.077   4.691 -0.4068 -0.5816 -0.1160
    9CHL1   H20  643   4.351   4.998   4.707 -0.3433 -0.5534  0.3346
    9CHL1   C21  644   4.551   5.006   4.631 -0.5841  0.0032  0.0682
    9CHL1  H21A  645   4.539   4.960   4.531 -0.5182 -3.0332  1.3328
    9CHL1  H21B  646   4.571   4.918   4.696  0.8013 -1.1047 -1.7408
    9CHL1  H21C  647   4.643   5.068   4.628 -1.1480  1.1491  2.8573
    9CHL1   C22  648   4.371   5.171   4.582  0.0762 -0.3070  0.3502
    9CHL1  H22A  649   4.292   5.234   4.628  0.2784  0.7255 -0.6764
    9CHL1  H22B  650   4.451   5.237   4.541 -1.1119  1.1122  0.2282
    9CHL1   C23  651   4.307   5.102   4.465  0.2499 -0.1982  0.5424
    9CHL1  H23A  652   4.382   5.044   4.407 -1.6882  0.2664 -2.6273
    9CHL1  H23B  653   4.242   5.020   4.505  1.1947 -0.8902  0.6969
    9CHL1   C24  654   4.223   5.185   4.361 -0.0638  0.0262 -0.8958
    9CHL1  H24A  655   4.169   5.119   4.290 -0.0815 -0.3204 -0.5627
    9CHL1  H24B  656   4.151   5.256   4.408 -3.3401 -2.1019 -2.3073
    9CHL1   C25  657   4.311   5.278   4.270  0.4516 -0.2909 -0.3590
    9CHL1   H25  658   4.378   5.337   4.336 -0.2990 -1.0750  1.1574
    9CHL1   C26  659   4.392   5.196   4.170 -1.1149 -0.4982  0.0882
    9CHL1  H26A  660   4.322   5.122   4.125  0.2308 -1.6494 -0.1823
    9CHL1  H26B  661   4.426   5.259   4.085 -3.3434  1.1820  0.3683
    9CHL1  H26C  662   4.481   5.152   4.219 -0.9358 -1.3085 -0.9136
    9CHL1   C27  663   4.225   5.366   4.174  0.7584  0.0777  0.1726
    9CHL1  H27A  664   4.150   5.420   4.236 -2.1108  0.0106 -2.9218
    9CHL1  H27B  665   4.291   5.436   4.119  0.9821  0.7138  1.2293
    9CHL1  H27C  666   4.154   5.315   4.105 -1.4692  1.6290  1.2092
   10CHL1    C3  667   1.857   3.513   5.655  0.3681 -0.0421  1.1574
   10CHL1    H3  668   1.892   3.619   5.655  0.1051  0.0620 -0.4772
   10CHL1    O3  669   1.832   3.472   5.785  0.3518 -0.1169 -0.0223
   10CHL1   H3'  670   1.909   3.421   5.812  0.1696 -0.2927  0.1697
   10CHL1    C4  671   1.729   3.523   5.570 -0.8995 -0.1008  0.0225
   10CHL1   H4A  672   1.682   3.422   5.569  0.8240 -0.9392  0.4384
   10CHL1   H4B  673   1.664   3.594   5.627  0.4966 -1.0422  3.0041
   10CHL1    C5  674   1.750   3.563   5.423 -0.2926 -0.4626 -0.4852
   10CHL1    C6  675   1.691   3.667   5.364  0.1651  0.2015 -0.7046
   10CHL1    H6  676   1.607   3.715   5.416 -2.3160 -2.8379 -1.5254
   10CHL1    C7  677   1.709   3.721   5.225 -0.7845  0.1177 -1.0837
   10CHL1   H7A  678   1.613   3.744   5.174 -1.8749 -1.7883  0.0006
   10CHL1   H7B  679   1.775   3.811   5.225  1.4012 -1.3064 -4.1871
   10CHL1    C8  680   1.788   3.608   5.151 -0.1401  0.0264  0.6706
   10CHL1    H8  681   1.719   3.523   5.134  1.0087 -1.4540  2.8757
   10CHL1   C14  682   1.825   3.663   5.009  0.5031  0.7320 -0.2577
   10CHL1   H14  683   1.884   3.754   5.034  2.6892 -0.9924  1.2136
   10CHL1   C15  684   1.721   3.712   4.901 -0.3250 -0.2959  0.1781
   10CHL1  H15A  685   1.639   3.638   4.886 -1.5219  0.8785  0.7701
   10CHL1  H15B  686   1.672   3.807   4.930  0.5305  0.3998 -0.5749
   10CHL1   C16  687   1.792   3.710   4.771 -0.0187 -0.3925 -0.3310
   10CHL1  H16A  688   1.736   3.657   4.691  2.8221 -2.8290 -0.8738
   10CHL1  H16B  689   1.803   3.818   4.745 -2.0337  0.1493  0.8331
   10CHL1   C17  690   1.923   3.630   4.790 -0.0562 -0.3490  0.8066
   10CHL1   H17  691   2.000   3.710   4.795  0.5062 -0.8074 -0.3653
   10CHL1   C13  692   1.916   3.566   4.926  0.1085 -0.7762  0.5380
   10CHL1   C18  693   1.854   3.426   4.914 -0.1161 -0.3765  0.2196
   10CHL1  H18A  694   1.809   3.389   5.008  0.6373  0.9042  1.1096
   10CHL1  H18B  695   1.769   3.427   4.842  1.2160  0.4407 -1.4167
   10CHL1  H18C  696   1.942   3.361   4.892  0.3642  0.0168  0.9671
   10CHL1   C12  697   2.045   3.551   5.003 -1.5104  0.2053 -0.5438
   10CHL1  H12A  698   2.118   3.485   4.951 -1.4072  0.2488 -0.4549
   10CHL1  H12B  699   2.107   3.642   5.003  0.3373 -0.9980 -0.0181
   10CHL1   C11  700   2.026   3.501   5.149 -0.4019  0.2379  0.1141
   10CHL1  H11A  701   1.982   3.399   5.141 -1.2490  0.5937  0.1276
   10CHL1  H11B  702   2.120   3.497   5.207  1.1927  0.5093 -2.3437
   10CHL1    C9  703   1.910   3.566   5.235  0.2592  0.6844 -0.2284
   10CHL1    H9  704   1.947   3.665   5.268  0.0309 -0.2033  2.9949
   10CHL1   C10  705   1.869   3.485   5.360  0.4333  1.1514 -0.0166
   10CHL1   C19  706   1.823   3.343   5.326  0.8625  0.2325  0.0531
   10CHL1  H19A  707   1.910   3.278   5.301  1.3417  0.8207  0.1643
   10CHL1  H19B  708   1.797   3.291   5.421  1.4562 -1.1971 -0.5302
   10CHL1  H19C  709   1.741   3.334   5.251 -1.0276  0.5113  1.9996
   10CHL1    C1  710   2.006   3.472   5.448  1.0847 -0.1629 -0.1549
   10CHL1   H1A  711   2.079   3.408   5.394 -1.5420 -3.7172  0.1066
   10CHL1   H1B  712   2.041   3.574   5.473 -0.7444  0.3378  0.5824
   10CHL1    C2  713   1.968   3.422   5.589  0.3103  0.6495 -0.6330
   10CHL1   H2A  714   2.061   3.436   5.649  0.8240  2.5947 -1.8095
   10CHL1   H2B  715   1.929   3.318   5.589 -1.3583  1.1764  1.9610
   10CHL1   C20  716   1.950   3.550   4.662  0.0902  0.3527 -0.2326
   10CHL1   H20  717   1.869   3.478   4.640  0.9837 -0.7280 -0.0821
   10CHL1   C21  718   2.080   3.473   4.674  0.0512  0.6392  0.4285
   10CHL1  H21A  719   2.171   3.536   4.686 -1.7897  3.3431  1.1472
   10CHL1  H21B  720   2.083   3.408   4.584  3.1401  1.4194 -0.1408
   10CHL1  H21C  721   2.093   3.405   4.762 -2.9514  0.0554  0.5362
   10CHL1   C22  722   1.953   3.639   4.535 -0.2465  0.1345  0.0733
   10CHL1  H22A  723   1.986   3.580   4.447  0.5698  0.1189  0.3849
   10CHL1  H22B  724   1.848   3.671   4.516 -0.3219 -1.2883 -2.2367
   10CHL1   C23  725   2.035   3.768   4.532 -0.9184 -0.1804 -0.3690
   10CHL1  H23A  726   1.993   3.850   4.595  0.3768  2.0248 -2.1946
   10CHL1  H23B  727   2.127   3.747   4.591 -2.4178 -0.9910  1.8073
   10CHL1   C24  728   2.060   3.816   4.389  0.9110 -0.1008 -0.0265
   10CHL1  H24A  729   2.115   3.734   4.339  0.3673  0.0026 -0.7970
   10CHL1  H24B  730   1.957   3.823   4.350  0.7226 -2.5108 -0.1177
   10CHL1   C25  731   2.130   3.947   4.383  0.3424  0.1887  0.3579
   10CHL1   H25  732   2.216   3.939   4.453  0.8476  0.5750 -0.2196
   10CHL1   C26  733   2.186   3.969   4.240 -1.2394 -0.2810 -0.5301
   10CHL1  H26A  734   2.241   3.883   4.195 -1.4299  1.4420 -4.4414
   10CHL1  H26B  735   2.109   4.014   4.174 -0.8891  2.0310  0.5387
   10CHL1  H26C  736   2.269   4.041   4.257 -1.9095  0.2025  0.8717
   10CHL1   C27  737   2.055   4.074   4.417  0.1942  0.2420  0.2544
   10CHL1  H27A  738   2.116   4.167   4.413 -1.3493  1.3223  0.8961
   10CHL1  H27B  739   1.967   4.087   4.350 -0.4980  2.7382  1.5293
   10CHL1  H27C  740   2.016   4.061   4.520 -0.5669  0.9693  0.0714
   11CHL1    C3  741   5.275   3.830   5.847  0.4750 -0.2326  0.2819
   11CHL1    H3  742   5.276   3.934   5.887  0.2378  0.5963 -1.7719
   11CHL1    O3  743   5.318   3.736   5.948 -0.4773 -0.3627 -0.0680
   11CHL1   H3'  744   5.414   3.741   5.957 -0.6105 -0.9673  2.3545
   11CHL1    C4  745   5.134   3.794   5.800  0.1735 -0.5030  0.2822
   11CHL1   H4A  746   5.141   3.692   5.756 -0.1388 -0.3692 -0.0809
   11CHL1   H4B  747   5.058   3.790   5.880 -0.8334 -1.1222 -0.6774
   11CHL1    C5  748   5.095   3.891   5.692  0.3468 -0.1503  0.8941
   11CHL1    C6  749   4.988   3.969   5.703  0.5405 -0.3233  0.2601
   11CHL1    H6  750   4.932   3.946   5.795  0.3009 -0.7697  0.0010
   11CHL1    C7  751   4.935   4.067   5.603 -0.6540  0.1976  0.8450
   11CHL1   H7A  752   4.825   4.055   5.590 -0.6250 -0.8446  1.4234
   11CHL1   H7B  753   4.939   4.169   5.646  0.9902  1.0668 -1.1823
   11CHL1    C8  754   5.003   4.058   5.465 -0.1295 -0.0468  0.0468
   11CHL1    H8  755   4.962   3.971   5.408 -2.9062  2.1136 -1.4794
   11CHL1   C14  756   4.976   4.183   5.380 -0.7452  0.2738 -0.1269
   11CHL1   H14  757   5.020   4.264   5.442 -0.1524  0.0190 -0.2102
   11CHL1   C15  758   4.841   4.223   5.347 -0.2484 -0.2541  0.2442
   11CHL1  H15A  759   4.774   4.141   5.314  0.3307 -0.6597  0.0624
   11CHL1  H15B  760   4.801   4.266   5.442 -0.4799 -0.1211  0.0876
   11CHL1   C16  761   4.862   4.331   5.236  0.5926  0.1952  0.0519
   11CHL1  H16A  762   4.783   4.326   5.159 -0.4327 -1.7596  1.1350
   11CHL1  H16B  763   4.846   4.430   5.282 -2.3698  0.2800 -0.9875
   11CHL1   C17  764   5.013   4.322   5.186  0.5179 -0.3057  0.1888
   11CHL1   H17  765   5.067   4.394   5.251 -1.0007 -0.0420  1.2445
   11CHL1   C13  766   5.058   4.189   5.250 -0.4766 -0.6165  0.9796
   11CHL1   C18  767   5.017   4.070   5.165 -0.1664 -0.3672  0.0898
   11CHL1  H18A  768   4.912   4.069   5.130 -0.0972 -1.8940 -0.1216
   11CHL1  H18B  769   5.076   4.076   5.071  0.4010  1.3672  0.5211
   11CHL1  H18C  770   5.048   3.968   5.197 -0.0217 -0.9527 -1.7982
   11CHL1   C12  771   5.209   4.171   5.272  0.1414 -0.2755  0.0287
   11CHL1  H12A  772   5.263   4.168   5.176 -0.7270 -3.2527 -0.4846
   11CHL1  H12B  773   5.254   4.247   5.339  1.6448 -0.7587 -0.4130
   11CHL1   C11  774   5.238   4.047   5.354  0.1900 -0.3540  0.0903
   11CHL1  H11A  775   5.229   3.953   5.295 -1.2449 -1.3523  1.7908
   11CHL1  H11B  776   5.347   4.054   5.373 -0.1880  1.4187  1.8659
   11CHL1    C9  777   5.152   4.046   5.482  0.0606  0.4190 -0.2201
   11CHL1    H9  778   5.178   4.130   5.550  0.3955 -0.0650  0.2560
   11CHL1   C10  779   5.185   3.913   5.564 -0.1406 -0.0815 -0.1855
   11CHL1   C19  780   5.160   3.783   5.484  0.1668 -0.1237 -0.9694
   11CHL1  H19A  781   5.190   3.694   5.544 -0.1506  0.6637  0.4116
   11CHL1  H19B  782   5.052   3.782   5.457 -0.1476  0.2886  0.2231
   11CHL1  H19C  783   5.223   3.782   5.392  1.7465  0.1946  0.0649
   11CHL1    C1  784   5.332   3.927   5.611  0.8067 -0.0667 -0.3230
   11CHL1   H1A  785   5.400   3.892   5.531  2.4841  0.4960  0.8156
   11CHL1   H1B  786   5.355   4.032   5.638  0.2281  0.3210 -1.2673
   11CHL1    C2  787   5.376   3.834   5.733  0.0714  0.2324  0.9069
   11CHL1   H2A  788   5.482   3.861   5.752  1.4008 -3.7653  0.1100
   11CHL1   H2B  789   5.380   3.729   5.697 -1.2549  0.3186  0.4458
   11CHL1   C20  790   5.042   4.353   5.037 -0.5167 -0.2383  0.1184
   11CHL1   H20  791   5.053   4.261   4.975  2.6432 -0.6823  1.1812
   11CHL1   C21  792   5.184   4.410   5.030 -0.0919  1.0284  0.0219
   11CHL1  H21A  793   5.230   4.396   4.930  2.0462  2.0301  0.8022
   11CHL1  H21B  794   5.253   4.367   5.107  0.3829  2.0442  0.1779
   11CHL1  H21C  795   5.184   4.520   5.040 -1.6334  1.1971 -1.4516
   11CHL1   C22  796   4.948   4.441   4.955  0.4061 -0.5403 -0.3614
   11CHL1  H22A  797   4.845   4.402   4.946 -0.8858  2.7942 -1.8555
   11CHL1  H22B  798   4.933   4.531   5.018 -0.2849 -1.3480  0.6343
   11CHL1   C23  799   5.000   4.481   4.813 -0.5071 -0.0614  0.0158
   11CHL1  H23A  800   5.084   4.552   4.824 -0.1522 -0.0407 -2.2723
   11CHL1  H23B  801   5.041   4.397   4.752 -0.3311  0.5839 -0.7658
   11CHL1   C24  802   4.891   4.556   4.739 -0.8452 -0.2491 -0.1412
   11CHL1  H24A  803   4.803   4.495   4.711 -0.6410  0.1315 -1.7264
   11CHL1  H24B  804   4.843   4.626   4.811 -3.0158 -2.0172  0.2110
   11CHL1   C25  805   4.936   4.630   4.608  0.0728 -0.0270  0.0167
   11CHL1   H25  806   5.020   4.688   4.651  0.4501  0.3493 -1.1654
   11CHL1   C26  807   4.984   4.533   4.504 -0.0425 -0.0822  0.7164
   11CHL1  H26A  808   5.040   4.588   4.426 -0.1364 -1.0942 -0.0843
   11CHL1  H26B  809   5.058   4.457   4.536 -0.4967 -0.9811 -0.2993
   11CHL1  H26C  810   4.895   4.484   4.459 -0.3714  1.6944 -0.6896
   11CHL1   C27  811   4.833   4.728   4.557  0.2944 -0.1513 -0.4123
   11CHL1  H27A  812   4.736   4.684   4.525 -0.5652  1.5407 -0.2205
   11CHL1  H27B  813   4.823   4.817   4.622  3.0795  0.6835 -0.9852
   11CHL1  H27C  814   4.866   4.785   4.468 -0.5863 -0.6027 -1.0403
   12CHL1    C3  815   5.662   3.412   5.786  0.1786  0.2768  0.4167
   12CHL1    H3  816   5.761   3.428   5.737  1.4242  1.4397  3.1204
   12CHL1    O3  817   5.673   3.432   5.928  0.2734 -0.0366  0.1778
   12CHL1   H3'  818   5.758   3.474   5.936  0.7270 -1.0279  0.8630
   12CHL1    C4  819   5.549   3.500   5.718  0.5487 -0.0745 -0.3622
   12CHL1   H4A  820   5.461   3.484   5.784  1.1226  2.6974  1.2242
   12CHL1   H4B  821   5.578   3.607   5.728  0.0826  0.1767 -1.5548
   12CHL1    C5  822   5.531   3.467   5.574 -0.1421 -0.0486 -0.6583
   12CHL1    C6  823   5.532   3.568   5.486  0.3228 -1.0011  0.7138
   12CHL1    H6  824   5.545   3.674   5.515  2.6433 -0.6756 -1.1962
   12CHL1    C7  825   5.498   3.548   5.339  0.1878 -0.5316  0.0728
   12CHL1   H7A  826   5.417   3.616   5.307  1.2599  0.3342 -0.9014
   12CHL1   H7B  827   5.579   3.569   5.266 -0.3143 -1.4566 -0.7747
   12CHL1    C8  828   5.456   3.406   5.291 -0.1997 -0.1507 -0.5562
   12CHL1    H8  829   5.350   3.400   5.325 -0.6045 -0.0354 -1.7336
   12CHL1   C14  830   5.473   3.375   5.145  0.2036  0.7634  0.4592
   12CHL1   H14  831   5.582   3.372   5.125  0.5190 -1.3528  2.1010
   12CHL1   C15  832   5.431   3.482   5.044 -0.2213 -0.3844 -0.2760
   12CHL1  H15A  833   5.326   3.511   5.065  0.4955  1.9335  0.3707
   12CHL1  H15B  834   5.504   3.565   5.036  1.7036 -2.0495 -0.8770
   12CHL1   C16  835   5.421   3.404   4.913 -0.0642 -0.3756  0.4413
   12CHL1  H16A  836   5.316   3.411   4.876 -0.7472  0.4371  2.3735
   12CHL1  H16B  837   5.491   3.432   4.832 -0.0023  0.6237  0.8262
   12CHL1   C17  838   5.448   3.252   4.953  0.9081 -0.8620 -0.1494
   12CHL1   H17  839   5.556   3.245   4.931  0.6159  0.7069 -2.4142
   12CHL1   C13  840   5.420   3.244   5.105 -0.5661  0.7916 -0.1603
   12CHL1   C18  841   5.268   3.243   5.134 -0.3144 -0.6057 -0.0388
   12CHL1  H18A  842   5.247   3.235   5.243 -0.8182 -1.2963 -0.1830
   12CHL1  H18B  843   5.220   3.333   5.088 -1.0154 -1.3657 -0.8309
   12CHL1  H18C  844   5.216   3.154   5.093 -2.2194  0.1251  0.6717
   12CHL1   C12  845   5.501   3.137   5.184  0.2153  1.2633  0.3628
   12CHL1  H12A  846   5.476   3.033   5.153  0.7998  1.1864  0.1417
   12CHL1  H12B  847   5.606   3.150   5.153 -0.0743  1.3542 -0.6253
   12CHL1   C11  848   5.486   3.159   5.332 -0.2371  0.0945  0.6084
   12CHL1  H11A  849   5.380   3.135   5.359  0.0382 -1.5560  0.3305
   12CHL1  H11B  850   5.547   3.083   5.385 -2.4001 -0.0443  3.1352
   12CHL1    C9  851   5.531   3.303   5.379  0.8116  0.9397 -0.4230
   12CHL1    H9  852   5.642   3.305   5.373  0.7510  0.9657 -2.1007
   12CHL1   C10  853   5.517   3.314   5.538 -0.0696 -0.6329 -0.1961
   12CHL1   C19  854   5.378   3.265   5.588 -0.2296  0.5154 -0.6973
   12CHL1  H19A  855   5.386   3.157   5.615  1.1037  0.3115 -1.8135
   12CHL1  H19B  856   5.358   3.322   5.680  0.1545  0.6422 -0.6922
   12CHL1  H19C  857   5.304   3.275   5.505  2.1651  2.3865 -2.7805
   12CHL1    C1  858   5.629   3.235   5.613  1.0766 -0.2003 -0.6423
   12CHL1   H1A  859   5.606   3.127   5.603  3.5009 -0.7481 -0.9278
   12CHL1   H1B  860   5.724   3.263   5.563  1.7412 -0.0851  0.6493
   12CHL1    C2  861   5.627   3.263   5.766  0.4036  0.1711 -0.7542
   12CHL1   H2A  862   5.709   3.207   5.817 -0.8789 -0.9350  0.1482
   12CHL1   H2B  863   5.531   3.232   5.811  0.9722 -2.9853 -1.5018
   12CHL1   C20  864   5.375   3.151   4.857 -0.0682 -0.4038  0.0071
   12CHL1   H20  865   5.265   3.164   4.865  0.1126  0.7800  0.6886
   12CHL1   C21  866   5.394   3.002   4.893  0.1624 -0.4547 -0.2156
   12CHL1  H21A  867   5.331   2.971   4.979  2.0828 -1.3471  0.9444
   12CHL1  H21B  868   5.501   2.985   4.918  0.6359  1.6895 -0.5469
   12CHL1  H21C  869   5.367   2.922   4.821  0.0977 -1.3581  0.7937
   12CHL1   C22  870   5.426   3.169   4.712 -0.5451  0.6427 -0.0675
   12CHL1  H22A  871   5.427   3.276   4.680  2.8643  0.1344 -2.1741
   12CHL1  H22B  872   5.534   3.145   4.704 -0.7535 -0.0667 -0.9456
   12CHL1   C23  873   5.342   3.083   4.617 -0.0174 -0.6988 -0.2082
   12CHL1  H23A  874   5.375   2.977   4.622 -1.7207 -1.2526 -0.1214
   12CHL1  H23B  875   5.240   3.080   4.658  0.3452 -0.9085  0.6966
   12CHL1   C24  876   5.347   3.146   4.476  0.0908  0.1533 -0.3530
   12CHL1  H24A  877   5.274   3.089   4.414 -0.0839  0.1863 -0.1751
   12CHL1  H24B  878   5.311   3.250   4.492  0.4737  0.2236  0.0506
   12CHL1   C25  879   5.480   3.152   4.392  0.0853 -0.6931 -0.0068
   12CHL1   H25  880   5.555   3.204   4.455 -0.0283 -0.0066 -0.4281
   12CHL1   C26  881   5.556   3.021   4.354  0.3515 -0.3559  0.6868
   12CHL1  H26A  882   5.497   2.954   4.289 -0.6525  1.2894 -0.1693
   12CHL1  H26B  883   5.657   3.046   4.314 -0.4799 -0.2197 -1.4217
   12CHL1  H26C  884   5.573   2.960   4.446 -0.1383 -0.2234  0.8686
   12CHL1   C27  885   5.467   3.247   4.270 -1.1687  0.4949  0.1768
   12CHL1  H27A  886   5.562   3.277   4.221 -2.1375  1.8148 -0.9711
   12CHL1  H27B  887   5.417   3.188   4.190  0.7040 -0.5237 -0.3054
   12CHL1  H27C  888   5.408   3.337   4.299  2.4229  2.2350  2.8437
   13CHL1    C3  889   1.522   1.684   5.682  0.6215 -0.1426 -0.4544
   13CHL1    H3  890   1.520   1.791   5.712 -2.3286 -0.0356 -0.7296
   13CHL1    O3  891   1.488   1.607   5.801  0.3451  0.4117  0.0544
   13CHL1   H3'  892   1.471   1.516   5.772 -2.0682 -0.0786  2.6046
   13CHL1    C4  893   1.414   1.659   5.582 -0.2886  0.2142  0.4498
   13CHL1   H4A  894   1.382   1.553   5.579 -1.3767  0.4958  1.1514
   13CHL1   H4B  895   1.323   1.705   5.627  0.1431 -0.2843  1.8901
   13CHL1    C5  896   1.443   1.712   5.445 -0.3419 -0.0411 -0.7846
   13CHL1    C6  897   1.356   1.796   5.384  0.2569 -0.1704  0.6400
   13CHL1    H6  898   1.263   1.828   5.434  0.1327 -0.0774  0.3493
   13CHL1    C7  899   1.387   1.847   5.244  0.7408  0.9301 -0.1711
   13CHL1   H7A  900   1.291   1.858   5.189  0.2886  2.2742  0.8351
   13CHL1   H7B  901   1.430   1.949   5.245 -2.1272  2.2485 -1.4250
   13CHL1    C8  902   1.492   1.756   5.166  0.1675 -0.3324  0.2829
   13CHL1    H8  903   1.431   1.666   5.146 -0.8594  0.7669 -1.7817
   13CHL1   C14  904   1.539   1.819   5.036  0.2388 -0.3239  0.1666
   13CHL1   H14  905   1.599   1.905   5.070  1.1086 -1.7352  2.4446
   13CHL1   C15  906   1.430   1.877   4.946  0.1567 -0.5484 -0.3671
   13CHL1  H15A  907   1.347   1.807   4.921  1.2474 -1.5101 -1.4114
   13CHL1  H15B  908   1.390   1.972   4.989 -2.4967 -1.5841 -0.3277
   13CHL1   C16  909   1.494   1.916   4.815 -0.0196  0.2077  0.3330
   13CHL1  H16A  910   1.424   1.894   4.731 -1.9437  1.0804  1.6234
   13CHL1  H16B  911   1.508   2.026   4.813 -1.4246  0.3992  0.0853
   13CHL1   C17  912   1.639   1.846   4.827 -0.0626 -0.3407 -0.4526
   13CHL1   H17  913   1.703   1.930   4.861 -0.5164  0.4698 -1.5311
   13CHL1   C13  914   1.630   1.747   4.938 -0.5248 -0.0940 -0.3484
   13CHL1   C18  915   1.566   1.614   4.893  0.5165 -0.6518  0.1965
   13CHL1  H18A  916   1.505   1.569   4.974 -0.3458  0.5110  0.2246
   13CHL1  H18B  917   1.500   1.632   4.805 -3.0377 -2.2073  2.3273
   13CHL1  H18C  918   1.646   1.543   4.863  0.2899 -1.0381  0.5001
   13CHL1   C12  919   1.759   1.722   5.018  0.5404 -0.0356 -0.1021
   13CHL1  H12A  920   1.827   1.656   4.960  2.1847 -0.2330  1.9269
   13CHL1  H12B  921   1.811   1.817   5.043  1.7215 -0.0267 -2.3868
   13CHL1   C11  922   1.725   1.658   5.159 -0.1525 -0.7838  0.3748
   13CHL1  H11A  923   1.688   1.558   5.130  1.1694 -1.3704  0.6640
   13CHL1  H11B  924   1.823   1.642   5.209  0.8566  1.9984 -0.4726
   13CHL1    C9  925   1.616   1.726   5.252  0.5083 -0.5671  0.5959
   13CHL1    H9  926   1.665   1.823   5.272  2.1366 -1.4270  0.9580
   13CHL1   C10  927   1.575   1.663   5.383  0.3365 -0.8633  0.0970
   13CHL1   C19  928   1.556   1.516   5.355  0.2016  0.0043  0.4221
   13CHL1  H19A  929   1.641   1.468   5.302 -0.9125 -1.9687  0.3047
   13CHL1  H19B  930   1.541   1.465   5.452  1.2614 -0.0163  0.5838
   13CHL1  H19C  931   1.466   1.513   5.290 -0.3130  0.8229  1.0767
   13CHL1    C1  932   1.684   1.690   5.489  0.1414 -0.4592 -1.0238
   13CHL1   H1A  933   1.778   1.649   5.445 -0.4601 -2.0823 -0.8609
   13CHL1   H1B  934   1.693   1.800   5.501 -2.0889 -0.3952  0.5447
   13CHL1    C2  935   1.657   1.628   5.629  0.0403  0.0839  0.0709
   13CHL1   H2A  936   1.737   1.656   5.702 -1.4386 -1.0145  2.2100
   13CHL1   H2B  937   1.659   1.518   5.617 -1.3690  0.0580 -0.1186
   13CHL1   C20  938   1.698   1.801   4.688  0.2050  0.9905 -0.2154
   13CHL1   H20  939   1.652   1.705   4.658 -1.8716  2.2612 -1.2884
   13CHL1   C21  940   1.851   1.780   4.708 -0.0635  0.0846 -0.3685
   13CHL1  H21A  941   1.907   1.770   4.612  1.6721 -1.5161  0.7354
   13CHL1  H21B  942   1.876   1.685   4.759 -1.2080 -0.5051 -0.8659
   13CHL1  H21C  943   1.893   1.874   4.751  1.6844 -0.9014  0.2070
   13CHL1   C22  944   1.660   1.893   4.571 -0.1703  0.2747 -0.2997
   13CHL1  H22A  945   1.551   1.909   4.561 -0.1838  0.3691 -0.0201
   13CHL1  H22B  946   1.706   1.991   4.596 -2.0127  0.4179  3.0070
   13CHL1   C23  947   1.707   1.836   4.433 -0.0126  0.0468 -0.4761
   13CHL1  H23A  948   1.817   1.839   4.446 -0.1496  1.1154  0.6787
   13CHL1  H23B  949   1.666   1.733   4.435  1.0151 -0.4261  2.7086
   13CHL1   C24  950   1.660   1.917   4.315  0.8131  0.3305 -0.1505
   13CHL1  H24A  951   1.557   1.880   4.301  1.2037 -1.1692  0.6999
   13CHL1  H24B  952   1.656   2.022   4.353 -2.3246  0.3979 -0.4033
   13CHL1   C25  953   1.755   1.915   4.198 -0.0868 -0.7575  0.8622
   13CHL1   H25  954   1.857   1.946   4.230  0.0404 -1.0121  0.7106
   13CHL1   C26  955   1.758   1.780   4.144  0.4462  0.0682  0.2388
   13CHL1  H26A  956   1.797   1.767   4.041  0.2674 -1.0961  0.2998
   13CHL1  H26B  957   1.819   1.710   4.205 -0.5880 -3.4041 -2.4131
   13CHL1  H26C  958   1.662   1.724   4.141  0.9629 -1.1300  2.9135
   13CHL1   C27  959   1.712   2.021   4.091  0.0785  0.4649 -0.2994
   13CHL1  H27A  960   1.691   2.118   4.141 -0.0524 -0.9749  2.6662
   13CHL1  H27B  961   1.793   2.024   4.015  0.1766 -1.1519 -0.2989
   13CHL1  H27C  962   1.629   1.978   4.031 -0.3234 -0.6033  0.9816
   14CHL1    C3  963   1.960   4.049   5.906  0.6158  0.2051 -0.4337
   14CHL1    H3  964   1.921   3.945   5.903  0.7622  0.1254  0.2002
   14CHL1    O3  965   1.982   4.081   6.039  0.1430  0.4412 -0.0915
   14CHL1   H3'  966   1.894   4.079   6.076  0.7400 -0.7670  1.3684
   14CHL1    C4  967   2.090   4.056   5.835  0.0339  0.4998 -0.4212
   14CHL1   H4A  968   2.135   4.156   5.853  0.5838  0.0467  0.8726
   14CHL1   H4B  969   2.166   3.991   5.884  0.2697 -1.1852 -2.8802
   14CHL1    C5  970   2.079   4.035   5.688  1.2441  0.2505 -0.1043
   14CHL1    C6  971   2.153   3.938   5.637  0.2337  0.1659 -1.0504
   14CHL1    H6  972   2.216   3.870   5.697  0.5024  2.4146  1.3795
   14CHL1    C7  973   2.156   3.913   5.490 -0.1819  0.6656 -0.2121
   14CHL1   H7A  974   2.258   3.891   5.451 -0.4965 -0.0649 -0.6378
   14CHL1   H7B  975   2.087   3.827   5.478  0.1007  0.3248  0.5588
   14CHL1    C8  976   2.103   4.029   5.402 -1.2728  0.4087 -0.2703
   14CHL1    H8  977   2.178   4.111   5.398 -2.7186  1.7233 -1.4621
   14CHL1   C14  978   2.085   3.988   5.260  0.5465  0.4120  0.3376
   14CHL1   H14  979   2.014   3.903   5.258  1.9429 -0.8406  1.1899
   14CHL1   C15  980   2.200   3.928   5.185  0.0523 -0.0448  0.3226
   14CHL1  H15A  981   2.300   3.958   5.223  0.8259  0.2344 -1.7971
   14CHL1  H15B  982   2.196   3.818   5.199 -2.6200  0.2423  2.6734
   14CHL1   C16  983   2.171   3.962   5.041 -0.4405  0.2580 -0.3034
   14CHL1  H16A  984   2.265   4.003   4.998 -0.3810 -0.9528 -1.3593
   14CHL1  H16B  985   2.155   3.876   4.974 -1.2487  1.4962 -1.7690
   14CHL1   C17  986   2.040   4.049   5.034 -0.7204  0.0228 -1.3775
   14CHL1   H17  987   1.964   3.968   5.024 -0.4091 -0.3865 -0.5296
   14CHL1   C13  988   2.036   4.105   5.171  0.4718  0.0693 -0.0756
   14CHL1   C18  989   2.130   4.220   5.183  0.1715  0.2802  1.2800
   14CHL1  H18A  990   2.135   4.261   5.286 -2.8287 -0.3850  1.7929
   14CHL1  H18B  991   2.232   4.185   5.158 -0.1869 -1.9096  2.6233
   14CHL1  H18C  992   2.103   4.306   5.117 -0.3682  0.1933  1.3760
   14CHL1   C12  993   1.901   4.155   5.221 -0.7559 -0.4906  0.3904
   14CHL1  H12A  994   1.863   4.247   5.171 -0.4849 -0.6723 -0.1545
   14CHL1  H12B  995   1.824   4.077   5.201 -2.3830  1.5159 -1.6569
   14CHL1   C11  996   1.908   4.185   5.372 -0.0648 -0.5721  0.4017
   14CHL1  H11A  997   1.955   4.285   5.372  0.1926 -0.6723 -1.0560
   14CHL1  H11B  998   1.804   4.194   5.411 -0.1620 -2.1093  0.5707
   14CHL1    C9  999   1.977   4.086   5.466  0.4732 -0.0040  0.8723
   14CHL1    H9 1000   1.909   3.998   5.468 -0.7883  0.7984 -1.9840
   14CHL1   C10 1001   1.987   4.129   5.611  0.1560  0.7569  0.3614
   14CHL1   C19 1002   2.041   4.275   5.618 -0.0931  0.3556 -0.1750
   14CHL1  H19A 1003   1.988   4.352   5.558  2.6714  0.3914 -2.7819
   14CHL1  H19B 1004   2.037   4.307   5.724 -1.7485 -0.1074 -0.0647
   14CHL1  H19C 1005   2.146   4.278   5.583 -0.2235 -1.2926 -0.8292
   14CHL1    C1 1006   1.850   4.108   5.682 -0.5289  0.7625  0.1049
   14CHL1   H1A 1007   1.773   4.164   5.625 -1.3615  0.0887  0.5360
   14CHL1   H1B 1008   1.817   4.002   5.685 -1.1545  0.9640  0.7807
   14CHL1    C2 1009   1.847   4.133   5.837  0.0631 -1.1479  0.3241
   14CHL1   H2A 1010   1.750   4.098   5.879 -0.3553 -1.0093 -0.4991
   14CHL1   H2B 1011   1.853   4.243   5.846 -3.0942 -0.9054  0.6771
   14CHL1   C20 1012   2.028   4.146   4.915 -0.4126 -0.7155  0.0576
   14CHL1   H20 1013   1.973   4.233   4.957  0.7319 -1.1465  2.6226
   14CHL1   C21 1014   1.946   4.069   4.806  0.5157  0.0555 -0.5502
   14CHL1  H21A 1015   1.981   3.969   4.772 -0.7178 -0.2840 -0.8623
   14CHL1  H21B 1016   1.936   4.121   4.709  1.3965  0.5547 -0.3855
   14CHL1  H21C 1017   1.844   4.050   4.847  1.2834 -1.3594  0.8481
   14CHL1   C22 1018   2.158   4.202   4.857  0.5176 -0.3445  0.4479
   14CHL1  H22A 1019   2.227   4.225   4.941  1.7279  2.8219 -1.2666
   14CHL1  H22B 1020   2.210   4.138   4.783  0.1583  2.9533 -2.9338
   14CHL1   C23 1021   2.139   4.331   4.784 -0.0265 -0.6137 -0.0832
   14CHL1  H23A 1022   2.077   4.323   4.692  0.3627  1.7937 -0.6305
   14CHL1  H23B 1023   2.076   4.392   4.852 -1.0355 -0.9347 -0.7164
   14CHL1   C24 1024   2.274   4.409   4.758 -0.5671  0.2187  0.2376
   14CHL1  H24A 1025   2.343   4.401   4.845 -0.3644 -0.4639  0.0244
   14CHL1  H24B 1026   2.327   4.358   4.675  0.7261  2.3906 -0.3658
   14CHL1   C25 1027   2.258   4.556   4.724  0.5348 -1.1628 -0.1649
   14CHL1   H25 1028   2.168   4.574   4.661  0.5862 -1.0956 -0.2194
   14CHL1   C26 1029   2.255   4.637   4.855 -0.4709  0.3686  0.3754
   14CHL1  H26A 1030   2.172   4.620   4.927 -1.6990 -0.9052 -1.2524
   14CHL1  H26B 1031   2.356   4.635   4.902  0.0627 -0.5645 -0.7611
   14CHL1  H26C 1032   2.229   4.740   4.823  0.6623 -0.9225 -6.3280
   14CHL1   C27 1033   2.381   4.614   4.646  0.2452 -0.0509  0.1130
   14CHL1  H27A 1034   2.403   4.564   4.549  1.4414 -1.1418  0.9099
   14CHL1  H27B 1035   2.362   4.722   4.631 -0.0881 -0.2092 -0.6852
   14CHL1  H27C 1036   2.476   4.609   4.703 -0.2156 -2.3623  0.8093
   15CHL1    C3 1037   4.673   5.735   5.786  0.7621 -0.2941 -0.5494
   15CHL1    H3 1038   4.784   5.743   5.786  0.7074  2.9440 -3.6285
   15CHL1    O3 1039   4.619   5.701   5.915 -0.2067  0.2469 -0.0980
   15CHL1   H3' 1040   4.604   5.606   5.911 -0.1212  0.2375 -0.2132
   15CHL1    C4 1041   4.612   5.872   5.756 -0.4384  0.3841 -0.5768
   15CHL1   H4A 1042   4.501   5.875   5.750 -0.5867 -2.6368 -0.5058
   15CHL1   H4B 1043   4.638   5.943   5.838  0.3451  0.0762 -0.5573
   15CHL1    C5 1044   4.660   5.923   5.618  0.2938 -0.2251 -0.2204
   15CHL1    C6 1045   4.728   6.038   5.606  0.0944  0.4276  0.6065
   15CHL1    H6 1046   4.749   6.103   5.692  0.8760 -0.6832  1.2764
   15CHL1    C7 1047   4.766   6.088   5.472  0.4931  0.4158 -0.4812
   15CHL1   H7A 1048   4.745   6.197   5.469 -2.2798 -0.0303 -0.2932
   15CHL1   H7B 1049   4.873   6.061   5.475  0.1577 -0.9503  1.5640
   15CHL1    C8 1050   4.710   6.008   5.350  0.0448 -0.3511 -1.2333
   15CHL1    H8 1051   4.607   6.046   5.335 -1.1143 -2.1181  1.4879
   15CHL1   C14 1052   4.787   6.040   5.221  0.2897 -0.0094  0.4264
   15CHL1   H14 1053   4.889   5.997   5.230 -0.0434 -0.7629  0.7332
   15CHL1   C15 1054   4.806   6.188   5.184  0.1005  0.0491  0.6064
   15CHL1  H15A 1055   4.707   6.239   5.190  2.1888  4.6532  0.3796
   15CHL1  H15B 1056   4.869   6.249   5.253  2.1576  0.1920 -1.2933
   15CHL1   C16 1057   4.863   6.178   5.046 -0.3546  0.1297 -0.5358
   15CHL1  H16A 1058   4.831   6.267   4.987  0.9981  1.6883  0.9774
   15CHL1  H16B 1059   4.974   6.177   5.047 -0.3047 -1.1393  2.0001
   15CHL1   C17 1060   4.810   6.036   4.988 -0.9361 -0.0257 -0.1458
   15CHL1   H17 1061   4.909   5.985   4.991 -0.6700  0.4189 -0.9803
   15CHL1   C13 1062   4.725   5.977   5.097  0.3837  0.5178  0.4893
   15CHL1   C18 1063   4.577   6.014   5.068  0.8667  0.0858  0.1001
   15CHL1  H18A 1064   4.495   5.985   5.137 -0.8895 -1.3047 -2.3825
   15CHL1  H18B 1065   4.559   6.121   5.042  0.5298  0.8331  3.0906
   15CHL1  H18C 1066   4.537   5.954   4.983 -0.0082  0.1557  0.4515
   15CHL1   C12 1067   4.731   5.827   5.121 -0.2910 -0.1601  0.1939
   15CHL1  H12A 1068   4.691   5.769   5.035 -0.3255 -0.6943  0.5660
   15CHL1  H12B 1069   4.840   5.803   5.124 -0.2152  0.2537  1.1513
   15CHL1   C11 1070   4.666   5.781   5.250 -0.6186  0.7993  0.2353
   15CHL1  H11A 1071   4.556   5.789   5.234 -0.4200  1.9389 -0.6692
   15CHL1  H11B 1072   4.689   5.675   5.273 -0.8597  0.9157  1.0486
   15CHL1    C9 1073   4.702   5.859   5.377  0.7455 -0.3420  0.5714
   15CHL1    H9 1074   4.810   5.838   5.391  1.0480 -0.4334 -1.5322
   15CHL1   C10 1075   4.628   5.821   5.501 -0.0261 -0.5906 -0.1233
   15CHL1   C19 1076   4.474   5.819   5.475  0.2992  0.0759  0.7087
   15CHL1  H19A 1077   4.411   5.807   5.566 -1.1623 -1.3398 -0.4269
   15CHL1  H19B 1078   4.432   5.908   5.423 -4.4434 -1.1879  1.8588
   15CHL1  H19C 1079   4.442   5.742   5.402 -1.9884  0.2490  1.4300
   15CHL1    C1 1080   4.686   5.683   5.541 -0.2866 -0.1943  0.1685
   15CHL1   H1A 1081   4.665   5.599   5.472  0.6703 -0.2088 -0.1169
   15CHL1   H1B 1082   4.795   5.698   5.555 -0.3693 -0.1002  0.7251
   15CHL1    C2 1083   4.640   5.631   5.678 -0.6882  1.0461 -0.2630
   15CHL1   H2A 1084   4.698   5.542   5.709  0.5722  2.4475  1.5448
   15CHL1   H2B 1085   4.531   5.608   5.672 -0.2556 -2.4040  2.3293
   15CHL1   C20 1086   4.761   6.045   4.844 -0.3722  0.0300  0.4916
   15CHL1   H20 1087   4.659   6.088   4.834  0.2253  1.1474 -1.5482
   15CHL1   C21 1088   4.761   5.901   4.787  0.1000 -0.8335 -0.1087
   15CHL1  H21A 1089   4.732   5.896   4.680 -1.4692 -3.2778  0.3592
   15CHL1  H21B 1090   4.690   5.836   4.842 -0.4429  0.9829  1.3974
   15CHL1  H21C 1091   4.858   5.846   4.794 -1.1872 -3.4248 -1.2520
   15CHL1   C22 1092   4.858   6.135   4.752 -0.4338  0.4544 -0.2733
   15CHL1  H22A 1093   4.833   6.243   4.763  1.9612  1.0236  0.1850
   15CHL1  H22B 1094   4.966   6.122   4.775 -1.0091 -0.7212  2.0809
   15CHL1   C23 1095   4.836   6.128   4.600  0.3799 -0.2562  0.9604
   15CHL1  H23A 1096   4.866   6.025   4.571 -0.9207 -0.4836  0.3666
   15CHL1  H23B 1097   4.729   6.148   4.578  0.3004  2.1641  3.0678
   15CHL1   C24 1098   4.926   6.222   4.516 -0.3882 -0.0330 -1.1201
   15CHL1  H24A 1099   4.926   6.323   4.562 -0.7565 -0.1265 -0.9090
   15CHL1  H24B 1100   5.024   6.171   4.528  0.5686  2.1723  1.3686
   15CHL1   C25 1101   4.878   6.237   4.376 -0.7979 -0.0631  0.3304
   15CHL1   H25 1102   4.786   6.300   4.383 -0.0278  1.3257 -1.2158
   15CHL1   C26 1103   4.989   6.310   4.305  0.2953 -0.0203 -0.1790
   15CHL1  H26A 1104   4.952   6.332   4.203 -0.9700 -2.8177 -0.4253
   15CHL1  H26B 1105   4.996   6.409   4.353  1.0034 -0.4381  0.6194
   15CHL1  H26C 1106   5.092   6.268   4.315  0.2027  0.0187  1.2144
   15CHL1   C27 1107   4.856   6.103   4.308  0.0530 -0.4249  0.4679
   15CHL1  H27A 1108   4.842   6.113   4.199  1.0830 -2.0722  0.1553
   15CHL1  H27B 1109   4.926   6.020   4.331  0.0841 -0.2224  1.1348
   15CHL1  H27C 1110   4.762   6.054   4.344 -1.2546  2.6466  1.6163
   16CHL1    C3 1111   6.239   4.684   5.961 -0.8645  0.2225 -0.1412
   16CHL1    H3 1112   6.242   4.795   5.968  1.0109  0.3613 -2.0363
   16CHL1    O3 1113   6.273   4.619   6.083 -0.3035  0.3813 -0.4006
   16CHL1   H3' 1114   6.225   4.536   6.081  1.3545 -0.6421 -0.3243
   16CHL1    C4 1115   6.100   4.638   5.924  0.2670 -0.0496  0.7275
   16CHL1   H4A 1116   6.100   4.526   5.922 -1.1511 -0.0521 -0.4426
   16CHL1   H4B 1117   6.019   4.671   5.992 -3.5528 -4.0870 -1.2880
   16CHL1    C5 1118   6.069   4.678   5.776 -0.1313  0.1155  0.5614
   16CHL1    C6 1119   5.957   4.745   5.744 -0.2290  0.1713  0.0065
   16CHL1    H6 1120   5.901   4.772   5.834  0.8196  1.5797  0.2714
   16CHL1    C7 1121   5.907   4.780   5.609 -0.0870  0.6077  0.3552
   16CHL1   H7A 1122   5.807   4.739   5.583  1.2929 -1.3880 -2.2173
   16CHL1   H7B 1123   5.907   4.889   5.588 -1.8083  0.8695  1.4965
   16CHL1    C8 1124   5.997   4.721   5.499  0.5194  0.0265  0.0264
   16CHL1    H8 1125   5.970   4.615   5.477  3.3761 -0.8679  0.4823
   16CHL1   C14 1126   5.977   4.793   5.366 -0.4875 -0.2475  0.1319
   16CHL1   H14 1127   6.017   4.896   5.377  2.5140 -0.6324 -4.3092
   16CHL1   C15 1128   5.832   4.815   5.325  0.0468  0.3815 -0.2678
   16CHL1  H15A 1129   5.781   4.717   5.337  2.5302 -0.9936 -0.2390
   16CHL1  H15B 1130   5.782   4.899   5.378 -1.2454 -0.3119 -0.3413
   16CHL1   C16 1131   5.848   4.839   5.177 -0.1427 -1.3417  0.5801
   16CHL1  H16A 1132   5.778   4.762   5.138 -1.3650 -0.7494  1.5115
   16CHL1  H16B 1133   5.806   4.939   5.153  1.4264 -0.6042  0.8157
   16CHL1   C17 1134   5.995   4.824   5.135 -0.2937  0.2415  0.1424
   16CHL1   H17 1135   6.039   4.923   5.161 -0.0327 -0.3410  2.0559
   16CHL1   C13 1136   6.053   4.738   5.251 -0.0281  0.3917  0.1818
   16CHL1   C18 1137   6.005   4.599   5.205  0.2399  0.2074 -0.0534
   16CHL1  H18A 1138   5.904   4.602   5.160  0.6008  1.1698 -0.8555
   16CHL1  H18B 1139   6.071   4.543   5.135 -1.2034 -2.5116  0.6229
   16CHL1  H18C 1140   5.999   4.524   5.286 -0.2476  0.3613  0.0582
   16CHL1   C12 1141   6.198   4.741   5.283 -0.8028 -0.6760 -0.2076
   16CHL1  H12A 1142   6.257   4.697   5.199  0.9177  0.5541  0.2952
   16CHL1  H12B 1143   6.238   4.841   5.310 -0.7563 -0.7450 -0.0251
   16CHL1   C11 1144   6.222   4.661   5.411 -0.2670 -0.3366  0.1104
   16CHL1  H11A 1145   6.187   4.556   5.406  1.5973 -0.9671 -0.2976
   16CHL1  H11B 1146   6.330   4.654   5.437  0.1049 -0.6802 -1.4534
   16CHL1    C9 1147   6.147   4.721   5.531 -0.9746 -0.1812 -0.4747
   16CHL1    H9 1148   6.170   4.826   5.557 -0.8652 -0.4802  0.7396
   16CHL1   C10 1149   6.179   4.643   5.671  0.4196  0.6627  0.7144
   16CHL1   C19 1150   6.170   4.491   5.646  0.0588 -0.1903 -0.9728
   16CHL1  H19A 1151   6.181   4.441   5.745 -0.2427  2.6340  0.5781
   16CHL1  H19B 1152   6.069   4.465   5.607  0.0387 -2.1486  0.2114
   16CHL1  H19C 1153   6.244   4.453   5.572  2.9896 -1.6622  2.4385
   16CHL1    C1 1154   6.321   4.681   5.719 -0.6021  0.1077 -0.6767
   16CHL1   H1A 1155   6.408   4.631   5.671 -0.4455 -0.7347  0.4644
   16CHL1   H1B 1156   6.346   4.786   5.691  1.2232  0.1298  0.8237
   16CHL1    C2 1157   6.346   4.640   5.862 -0.7043 -0.0928 -0.7697
   16CHL1   H2A 1158   6.443   4.684   5.895  0.3867 -1.4443 -1.9972
   16CHL1   H2B 1159   6.362   4.530   5.866  1.9338  0.2163 -0.7282
   16CHL1   C20 1160   6.017   4.801   4.980  0.8990 -0.6830  0.4644
   16CHL1   H20 1161   5.961   4.711   4.949 -0.3027  0.1449  0.1855
   16CHL1   C21 1162   6.162   4.776   4.937  0.4934  0.2632  0.3911
   16CHL1  H21A 1163   6.229   4.858   4.903  1.0871 -0.9042 -1.3887
   16CHL1  H21B 1164   6.161   4.715   4.844  1.2530  0.1218  0.4688
   16CHL1  H21C 1165   6.223   4.709   5.002 -0.2636 -0.3323  0.4937
   16CHL1   C22 1166   5.955   4.917   4.889 -0.3736 -0.5995 -0.4708
   16CHL1  H22A 1167   5.862   4.957   4.934 -0.7211 -1.7480 -0.1638
   16CHL1  H22B 1168   6.033   4.997   4.888 -1.3988  0.4546  0.8430
   16CHL1   C23 1169   5.925   4.862   4.744 -0.2486 -0.8241  0.2942
   16CHL1  H23A 1170   6.026   4.839   4.706  0.6662  1.6008  1.0389
   16CHL1  H23B 1171   5.863   4.770   4.750 -0.6035 -0.5753  0.5767
   16CHL1   C24 1172   5.855   4.966   4.652 -0.3373 -0.3446  0.4583
   16CHL1  H24A 1173   5.814   4.918   4.561  0.9025  1.1213 -0.9143
   16CHL1  H24B 1174   5.768   5.003   4.711 -1.1451 -0.6050 -0.5386
   16CHL1   C25 1175   5.945   5.087   4.608 -0.3248 -0.7008 -0.2980
   16CHL1   H25 1176   5.982   5.139   4.699 -1.1177  0.5564 -0.6718
   16CHL1   C26 1177   6.070   5.046   4.534 -0.1452  0.2195  0.5006
   16CHL1  H26A 1178   6.118   5.139   4.497 -3.9913  1.7787 -1.0917
   16CHL1  H26B 1179   6.143   4.990   4.597  0.4966 -1.1382 -1.3522
   16CHL1  H26C 1180   6.047   4.992   4.440 -2.6601  0.6554  0.8063
   16CHL1   C27 1181   5.866   5.177   4.518  0.3554 -0.6432 -0.0377
   16CHL1  H27A 1182   5.756   5.159   4.519 -0.0368  1.0835 -2.4376
   16CHL1  H27B 1183   5.886   5.283   4.545  0.9753 -0.6419 -0.4774
   16CHL1  H27C 1184   5.898   5.169   4.412  0.2770  1.6849 -0.2858
   17CHL1    C3 1185   5.888   4.014   5.764  0.1909 -0.0757 -0.3448
   17CHL1    H3 1186   5.880   4.104   5.700  1.4166 -0.1724 -0.6552
   17CHL1    O3 1187   5.868   4.054   5.897  0.3193 -0.0404  0.6045
   17CHL1   H3' 1188   5.841   3.976   5.947 -2.9830  1.1889  0.9639
   17CHL1    C4 1189   5.778   3.914   5.728 -0.3535 -0.0637 -0.0454
   17CHL1   H4A 1190   5.788   3.831   5.801  2.4823 -0.0990 -0.3819
   17CHL1   H4B 1191   5.679   3.964   5.736  0.4890  1.7459 -0.3435
   17CHL1    C5 1192   5.805   3.861   5.581 -0.1330 -0.8577 -0.7802
   17CHL1    C6 1193   5.709   3.878   5.486 -0.4943  0.8823  0.4299
   17CHL1    H6 1194   5.611   3.921   5.512 -0.1730  1.9492 -0.0885
   17CHL1    C7 1195   5.737   3.835   5.345 -0.4789 -0.1278 -0.2448
   17CHL1   H7A 1196   5.650   3.790   5.291  0.6201 -2.0613 -0.5211
   17CHL1   H7B 1197   5.749   3.929   5.287 -3.6801  0.3984 -0.2585
   17CHL1    C8 1198   5.858   3.737   5.325 -0.1114 -0.1907 -0.3212
   17CHL1    H8 1199   5.824   3.637   5.361  0.8016 -1.1223 -1.9271
   17CHL1   C14 1200   5.897   3.730   5.174 -0.1280 -0.3416 -0.4767
   17CHL1   H14 1201   5.938   3.831   5.153  0.8958 -0.5636  0.3926
   17CHL1   C15 1202   5.793   3.719   5.067  0.3730 -0.5682  0.2031
   17CHL1  H15A 1203   5.734   3.626   5.084  1.3778 -0.7577  3.4747
   17CHL1  H15B 1204   5.729   3.809   5.060  1.0798 -0.0617  0.1316
   17CHL1   C16 1205   5.872   3.688   4.945  0.7660 -0.7881 -0.2221
   17CHL1  H16A 1206   5.851   3.588   4.904  3.4136 -1.4481 -0.1607
   17CHL1  H16B 1207   5.869   3.767   4.867  2.3921 -0.5658 -0.1046
   17CHL1   C17 1208   6.017   3.667   4.995  0.2804  0.5274  0.0057
   17CHL1   H17 1209   6.065   3.766   4.983  1.1534  0.0276 -0.7609
   17CHL1   C13 1210   6.007   3.636   5.145 -0.0760  0.7624 -0.1376
   17CHL1   C18 1211   5.971   3.488   5.175  0.5365  0.3822  0.3422
   17CHL1  H18A 1212   6.048   3.413   5.150  0.2519  0.1450  0.1779
   17CHL1  H18B 1213   5.945   3.486   5.283 -0.8707 -0.2988  0.0164
   17CHL1  H18C 1214   5.877   3.462   5.121  2.2482 -0.8448 -2.2532
   17CHL1   C12 1215   6.132   3.676   5.222  0.3184  0.3922 -0.1906
   17CHL1  H12A 1216   6.214   3.602   5.211 -1.0745 -0.9518 -2.0334
   17CHL1  H12B 1217   6.176   3.774   5.192 -0.1823  0.0891 -2.0814
   17CHL1   C11 1218   6.093   3.683   5.374  0.1094 -0.2234 -0.0854
   17CHL1  H11A 1219   6.078   3.581   5.415 -0.8850  0.9849  2.9029
   17CHL1  H11B 1220   6.185   3.721   5.423 -0.9215 -0.5107  2.2222
   17CHL1    C9 1221   5.982   3.782   5.401 -0.3722 -0.5002 -0.3643
   17CHL1    H9 1222   6.019   3.878   5.360 -0.0231 -0.1983  0.6320
   17CHL1   C10 1223   5.945   3.804   5.554  0.4859 -0.5425  0.4315
   17CHL1   C19 1224   5.952   3.671   5.630  0.3520  0.1005 -0.2753
   17CHL1  H19A 1225   6.057   3.634   5.630  0.1915 -0.3725  0.3838
   17CHL1  H19B 1226   5.927   3.686   5.737  0.5966 -0.3352 -0.1528
   17CHL1  H19C 1227   5.891   3.600   5.572  1.4362 -2.3908  1.4625
   17CHL1    C1 1228   6.043   3.909   5.608 -0.1908 -0.1079  0.0671
   17CHL1   H1A 1229   6.141   3.862   5.589 -2.0409 -3.5771 -1.8294
   17CHL1   H1B 1230   6.039   4.001   5.546 -0.3918  0.7414  1.2945
   17CHL1    C2 1231   6.029   3.956   5.758 -0.0277 -0.2944 -0.1948
   17CHL1   H2A 1232   6.101   4.038   5.777  0.3660 -0.0749 -2.3412
   17CHL1   H2B 1233   6.043   3.871   5.828 -0.9049  0.1725  0.5699
   17CHL1   C20 1234   6.094   3.561   4.913  0.0431  0.3135 -0.4914
   17CHL1   H20 1235   6.032   3.472   4.936 -0.1921  1.0066  1.8475
   17CHL1   C21 1236   6.241   3.529   4.964  0.5360 -0.0156 -0.2462
   17CHL1  H21A 1237   6.244   3.475   5.061  0.2702 -0.9651 -0.7562
   17CHL1  H21B 1238   6.290   3.629   4.963  0.1959  0.1577  0.2239
   17CHL1  H21C 1239   6.287   3.457   4.893 -0.8568 -2.0556  0.8434
   17CHL1   C22 1240   6.091   3.587   4.757 -0.6141  0.3881 -0.1972
   17CHL1  H22A 1241   6.140   3.501   4.708 -1.0123 -0.6913  1.2225
   17CHL1  H22B 1242   5.986   3.597   4.722 -0.8874  0.5552  0.6498
   17CHL1   C23 1243   6.168   3.710   4.706 -0.0937  0.2445 -0.2357
   17CHL1  H23A 1244   6.127   3.800   4.758 -0.6003  0.0159 -0.2328
   17CHL1  H23B 1245   6.273   3.690   4.734 -0.1364 -1.8248 -1.3660
   17CHL1   C24 1246   6.153   3.739   4.560  0.7742 -0.7227 -0.0780
   17CHL1  H24A 1247   6.054   3.782   4.530  0.8188  0.1675  0.9923
   17CHL1  H24B 1248   6.217   3.829   4.546 -0.6455  0.1170 -1.7219
   17CHL1   C25 1249   6.202   3.630   4.458 -0.0295  0.1511  0.1271
   17CHL1   H25 1250   6.143   3.536   4.468  1.8734 -1.1608 -0.4128
   17CHL1   C26 1251   6.208   3.695   4.318 -0.5624 -0.1191 -0.3883
   17CHL1  H26A 1252   6.257   3.625   4.246 -0.5222 -1.3408  0.7866
   17CHL1  H26B 1253   6.104   3.718   4.288 -0.9717  1.1391  1.8376
   17CHL1  H26C 1254   6.258   3.794   4.325 -1.7841  0.5748 -1.1898
   17CHL1   C27 1255   6.340   3.581   4.488 -0.0962  0.0631  0.7028
   17CHL1  H27A 1256   6.416   3.661   4.475  1.1009 -1.1647 -0.2077
   17CHL1  H27B 1257   6.333   3.545   4.593  0.6542 -1.6985  0.1778
   17CHL1  H27C 1258   6.365   3.492   4.426  0.0485  1.4140 -1.2603
   18CHL1    C3 1259   5.690   5.294   6.038  0.3713  0.2774  0.5710
   18CHL1    H3 1260   5.684   5.401   6.012 -0.2314  0.2194  0.4673
   18CHL1    O3 1261   5.720   5.285   6.181 -0.0924  0.0870  0.6411
   18CHL1   H3' 1262   5.775   5.207   6.171  0.5999  0.6544 -0.1613
   18CHL1    C4 1263   5.552   5.229   6.010 -0.0697 -0.2854 -0.0488
   18CHL1   H4A 1264   5.558   5.126   6.052 -0.8330 -0.2594  0.1404
   18CHL1   H4B 1265   5.473   5.282   6.068  0.1681 -2.0872  2.0821
   18CHL1    C5 1266   5.522   5.235   5.863 -0.0222 -0.6512 -0.2441
   18CHL1    C6 1267   5.406   5.287   5.814  0.5967  0.3597 -0.0571
   18CHL1    H6 1268   5.327   5.313   5.886  0.8830  0.3027  0.2776
   18CHL1    C7 1269   5.367   5.289   5.667  0.1792  0.0643  0.4925
   18CHL1   H7A 1270   5.265   5.254   5.643 -0.8145  2.6959  0.5346
   18CHL1   H7B 1271   5.384   5.391   5.626 -1.0985 -0.2813 -0.9632
   18CHL1    C8 1272   5.465   5.201   5.578  0.1685 -0.7575 -0.3969
   18CHL1    H8 1273   5.437   5.096   5.601  0.9740 -0.4270  2.5392
   18CHL1   C14 1274   5.446   5.236   5.429 -0.5759 -0.4086  0.4284
   18CHL1   H14 1275   5.474   5.344   5.424 -1.5325 -0.1115  1.2794
   18CHL1   C15 1276   5.310   5.222   5.357  1.3763 -0.2391  0.0143
   18CHL1  H15A 1277   5.267   5.128   5.398 -0.5432 -0.2909 -1.9456
   18CHL1  H15B 1278   5.242   5.306   5.381  1.9209  0.0691  0.5018
   18CHL1   C16 1279   5.334   5.205   5.210  0.6838 -0.5603  0.0968
   18CHL1  H16A 1280   5.286   5.109   5.183  0.7437 -0.4033 -0.6099
   18CHL1  H16B 1281   5.296   5.289   5.147 -0.2649  0.1474  1.5624
   18CHL1   C17 1282   5.488   5.206   5.190 -0.5775  0.2475 -0.6660
   18CHL1   H17 1283   5.515   5.313   5.174  0.6398 -0.1040 -1.0982
   18CHL1   C13 1284   5.542   5.160   5.334  0.2094 -0.1896  0.3327
   18CHL1   C18 1285   5.513   5.004   5.344  0.2681  0.3083  0.1314
   18CHL1  H18A 1286   5.539   4.968   5.446 -1.6191 -0.7869  0.2897
   18CHL1  H18B 1287   5.405   4.983   5.325  0.1613  1.5192 -0.7402
   18CHL1  H18C 1288   5.581   4.950   5.275  1.2585  0.5104  0.9314
   18CHL1   C12 1289   5.688   5.189   5.367 -0.0537  0.2778 -0.1501
   18CHL1  H12A 1290   5.754   5.130   5.301 -0.7472  0.2003 -0.7875
   18CHL1  H12B 1291   5.695   5.296   5.335  1.3633  0.1860 -0.2122
   18CHL1   C11 1292   5.709   5.155   5.518  0.0054 -0.1533 -0.3467
   18CHL1  H11A 1293   5.698   5.045   5.529 -1.6367  0.0634  0.4450
   18CHL1  H11B 1294   5.814   5.183   5.543  0.2005 -0.7706 -0.4671
   18CHL1    C9 1295   5.610   5.228   5.623 -0.3790  0.2741  0.7004
   18CHL1    H9 1296   5.621   5.338   5.617 -0.5686  0.2271 -1.7047
   18CHL1   C10 1297   5.635   5.184   5.768 -0.3058  0.7754 -0.3507
   18CHL1   C19 1298   5.647   5.031   5.775  0.9378  0.0112 -0.0998
   18CHL1  H19A 1299   5.653   4.994   5.879 -0.6014 -0.6873 -0.2264
   18CHL1  H19B 1300   5.565   4.976   5.724  1.8983 -0.1556 -1.5260
   18CHL1  H19C 1301   5.738   4.988   5.729 -0.3281 -2.3278 -0.6055
   18CHL1    C1 1302   5.772   5.233   5.811  0.2389 -0.7688 -0.5322
   18CHL1   H1A 1303   5.850   5.173   5.759  1.2386 -0.9138  1.0637
   18CHL1   H1B 1304   5.782   5.335   5.768 -0.1921 -0.4768  0.0505
   18CHL1    C2 1305   5.805   5.233   5.957 -0.2652 -0.8513  0.1923
   18CHL1   H2A 1306   5.901   5.287   5.968 -0.8043  0.5153 -1.3825
   18CHL1   H2B 1307   5.829   5.130   5.990  3.6901 -0.8234 -2.0013
   18CHL1   C20 1308   5.543   5.126   5.061 -0.0964 -0.9945 -0.4357
   18CHL1   H20 1309   5.560   5.020   5.088 -0.5671 -0.9634  0.0016
   18CHL1   C21 1310   5.682   5.180   5.022 -0.7147  0.0351 -0.7802
   18CHL1  H21A 1311   5.706   5.288   5.027  2.2768 -0.4789 -2.0687
   18CHL1  H21B 1312   5.711   5.135   4.925 -0.5896  2.3862 -1.8949
   18CHL1  H21C 1313   5.744   5.134   5.102 -2.6629 -2.2055 -0.4399
   18CHL1   C22 1314   5.446   5.116   4.946  0.3485 -0.4065 -0.0572
   18CHL1  H22A 1315   5.351   5.068   4.978  0.4579 -1.4002 -1.1545
   18CHL1  H22B 1316   5.424   5.221   4.915  0.2697  0.8992  3.8766
   18CHL1   C23 1317   5.505   5.050   4.818 -0.2378 -0.0547 -0.0071
   18CHL1  H23A 1318   5.425   5.048   4.742  1.1667  0.3852 -1.5647
   18CHL1  H23B 1319   5.578   5.122   4.776  1.9111 -0.6295  2.4715
   18CHL1   C24 1320   5.560   4.906   4.830 -0.0560  0.5754 -0.7872
   18CHL1  H24A 1321   5.604   4.869   4.736 -0.3255  1.3702 -1.2336
   18CHL1  H24B 1322   5.645   4.909   4.902  2.1519  0.4386 -3.2473
   18CHL1   C25 1323   5.453   4.797   4.873  0.2990 -0.4548  0.3783
   18CHL1   H25 1324   5.411   4.821   4.974  1.2055 -1.8667  1.1256
   18CHL1   C26 1325   5.332   4.801   4.777 -0.1361  0.0086  0.0727
   18CHL1  H26A 1326   5.272   4.892   4.799 -1.2497 -1.0134  1.5564
   18CHL1  H26B 1327   5.374   4.802   4.674 -1.4782  0.6508 -0.4865
   18CHL1  H26C 1328   5.256   4.724   4.805 -1.2186  1.2157  0.5705
   18CHL1   C27 1329   5.508   4.653   4.876 -0.2302  0.8319 -0.1709
   18CHL1  H27A 1330   5.559   4.632   4.780  0.0967  2.8047 -0.4735
   18CHL1  H27B 1331   5.581   4.642   4.959 -0.7637 -0.6282  0.1343
   18CHL1  H27C 1332   5.432   4.576   4.902 -0.5232  0.8156 -1.0590
   19CHL1    C3 1333   0.861   1.131   5.772  0.3605 -0.1644 -0.3441
   19CHL1    H3 1334   0.824   1.043   5.716 -0.6500  0.3279 -0.4739
   19CHL1    O3 1335   0.845   1.114   5.911 -0.0445 -0.1269  0.2818
   19CHL1   H3' 1336   0.869   1.026   5.941  1.7349 -0.8752 -2.8763
   19CHL1    C4 1337   1.013   1.146   5.746  0.1046  0.1644  0.4781
   19CHL1   H4A 1338   1.047   1.230   5.809 -3.0932  2.5090 -0.6429
   19CHL1   H4B 1339   1.062   1.048   5.765  0.1786 -0.5812 -2.8661
   19CHL1    C5 1340   1.038   1.179   5.600 -0.4821  0.5568 -0.8327
   19CHL1    C6 1341   1.118   1.105   5.525 -0.1961 -0.3269 -0.3895
   19CHL1    H6 1342   1.176   1.021   5.567 -1.0464 -1.3197 -1.1275
   19CHL1    C7 1343   1.139   1.130   5.375  0.3115  0.2542  0.6125
   19CHL1   H7A 1344   1.248   1.116   5.354 -0.1010  1.0706 -2.6559
   19CHL1   H7B 1345   1.085   1.063   5.305  0.6452  0.3593  0.2508
   19CHL1    C8 1346   1.097   1.282   5.332 -0.1427  0.7986  0.4010
   19CHL1    H8 1347   1.177   1.339   5.384  0.8049 -0.6651  0.6072
   19CHL1   C14 1348   1.100   1.308   5.179  0.3010 -0.4507 -0.0211
   19CHL1   H14 1349   1.033   1.229   5.138 -0.4181 -0.1811  0.6105
   19CHL1   C15 1350   1.234   1.283   5.113  0.5913 -0.4066  0.6245
   19CHL1  H15A 1351   1.318   1.303   5.183 -1.2223  0.0346  2.7794
   19CHL1  H15B 1352   1.239   1.178   5.077 -1.0958 -0.5077  0.6006
   19CHL1   C16 1353   1.223   1.370   4.989 -0.6901  0.4113  0.7445
   19CHL1  H16A 1354   1.309   1.439   5.001  0.1420 -0.5572  0.4587
   19CHL1  H16B 1355   1.240   1.310   4.897 -1.6779 -0.1122  0.8897
   19CHL1   C17 1356   1.080   1.436   4.987  0.2612 -0.8830 -0.3084
   19CHL1   H17 1357   1.007   1.362   4.947 -0.4028 -0.2678 -0.2434
   19CHL1   C13 1358   1.043   1.447   5.143 -0.0224  0.7467 -0.0358
   19CHL1   C18 1359   1.144   1.554   5.207  0.1205  0.0916 -0.1616
   19CHL1  H18A 1360   1.244   1.561   5.159  0.7796  2.7742  1.3965
   19CHL1  H18B 1361   1.102   1.656   5.192 -0.9308 -0.2770  0.1844
   19CHL1  H18C 1362   1.163   1.542   5.316 -1.4426 -2.7645 -0.1213
   19CHL1   C12 1363   0.892   1.453   5.182  0.1891  0.6072 -0.2194
   19CHL1  H12A 1364   0.841   1.548   5.157 -0.2325  0.1509 -1.1706
   19CHL1  H12B 1365   0.830   1.376   5.131 -2.6238  0.9062  2.4505
   19CHL1   C11 1366   0.887   1.438   5.330  0.3866 -0.3184 -0.7602
   19CHL1  H11A 1367   0.939   1.526   5.373 -0.0694 -1.0453  1.4044
   19CHL1  H11B 1368   0.781   1.453   5.360  0.9032 -1.4767  1.9540
   19CHL1    C9 1369   0.952   1.306   5.386 -0.2917 -0.6304 -0.1260
   19CHL1    H9 1370   0.888   1.221   5.355 -1.0643  0.2335 -0.9577
   19CHL1   C10 1371   0.954   1.288   5.536  0.3284 -0.1856 -0.3695
   19CHL1   C19 1372   1.013   1.427   5.590  0.3797 -0.2838 -0.5841
   19CHL1  H19A 1373   0.943   1.509   5.563  2.2627  0.9282 -2.0077
   19CHL1  H19B 1374   0.996   1.441   5.699  2.1869  3.1452 -0.6257
   19CHL1  H19C 1375   1.119   1.449   5.563  1.1346 -0.9617  1.5855
   19CHL1    C1 1376   0.802   1.272   5.580 -0.4689 -0.1597  0.5915
   19CHL1   H1A 1377   0.735   1.353   5.544 -0.4232  0.4005  1.7421
   19CHL1   H1B 1378   0.762   1.180   5.531  1.0023  0.6409 -2.3364
   19CHL1    C2 1379   0.780   1.258   5.731  0.3401 -0.0161  0.8195
   19CHL1   H2A 1380   0.679   1.237   5.772  0.0610  0.3724  0.3396
   19CHL1   H2B 1381   0.816   1.346   5.788  0.7342  0.8841 -0.7683
   19CHL1   C20 1382   1.065   1.556   4.899  0.2737 -0.1380  0.8814
   19CHL1   H20 1383   1.128   1.639   4.939  1.4500 -0.7731  0.3998
   19CHL1   C21 1384   0.919   1.604   4.911 -0.5554  0.1333 -0.5715
   19CHL1  H21A 1385   0.914   1.656   5.009  1.6693  1.5037 -1.0950
   19CHL1  H21B 1386   0.842   1.525   4.911 -1.2779  0.8228 -0.7309
   19CHL1  H21C 1387   0.902   1.684   4.835  0.9683  0.7961 -0.2655
   19CHL1   C22 1388   1.104   1.526   4.747  0.0153 -0.2601 -1.6298
   19CHL1  H22A 1389   1.201   1.472   4.754  0.6074  0.7674 -1.7178
   19CHL1  H22B 1390   1.033   1.453   4.702 -0.6434 -2.0297  1.8727
   19CHL1   C23 1391   1.096   1.653   4.664  0.2953 -0.1486  0.0517
   19CHL1  H23A 1392   0.998   1.673   4.615  0.0892 -0.1055  0.4790
   19CHL1  H23B 1393   1.119   1.738   4.731  1.8175  1.3630 -2.2368
   19CHL1   C24 1394   1.187   1.659   4.542  0.1866  0.0372  0.7101
   19CHL1  H24A 1395   1.285   1.621   4.577  0.9869 -0.4424 -1.8086
   19CHL1  H24B 1396   1.168   1.576   4.471  1.9565  0.2115 -0.0121
   19CHL1   C25 1397   1.197   1.791   4.465 -0.3153 -0.6773  0.5015
   19CHL1   H25 1398   1.185   1.881   4.530 -0.8807 -2.5059  3.0994
   19CHL1   C26 1399   1.326   1.785   4.381  0.2581  0.0896  0.1274
   19CHL1  H26A 1400   1.351   1.886   4.341 -2.2318  0.7652  0.1196
   19CHL1  H26B 1401   1.409   1.747   4.444  0.1814 -2.3342 -1.1062
   19CHL1  H26C 1402   1.309   1.721   4.292  0.2805  0.1153  0.1045
   19CHL1   C27 1403   1.083   1.807   4.372 -0.2068 -0.4392  0.3502
   19CHL1  H27A 1404   0.985   1.827   4.420 -0.0073 -0.4821  0.7751
   19CHL1  H27B 1405   1.112   1.879   4.292  0.7508 -1.0579  0.1260
   19CHL1  H27C 1406   1.079   1.717   4.306  0.8990  1.7574 -2.9829
   20CHL1    C3 1407   4.548   6.265   5.871  0.2381  0.4366  0.3287
   20CHL1    H3 1408   4.624   6.209   5.813  0.2638  0.7958  0.0164
   20CHL1    O3 1409   4.589   6.285   6.000 -0.1757 -0.4804 -0.6234
   20CHL1   H3' 1410   4.645   6.208   6.010 -0.3334 -0.6902 -1.3096
   20CHL1    C4 1411   4.516   6.404   5.813  0.1264  0.2152 -0.6714
   20CHL1   H4A 1412   4.433   6.456   5.866 -0.9641  0.4419 -2.5406
   20CHL1   H4B 1413   4.605   6.470   5.827 -0.5182  1.4714 -2.1384
   20CHL1    C5 1414   4.484   6.386   5.664  0.1373 -0.3036  0.3137
   20CHL1    C6 1415   4.550   6.429   5.558  0.5016 -0.3464  0.5516
   20CHL1    H6 1416   4.637   6.495   5.573 -0.9030  2.4767 -2.4332
   20CHL1    C7 1417   4.527   6.403   5.416 -0.2612 -0.1696  0.2895
   20CHL1   H7A 1418   4.556   6.489   5.352 -0.7938 -0.8885 -0.9725
   20CHL1   H7B 1419   4.595   6.323   5.379 -1.5750 -0.5305 -1.4865
   20CHL1    C8 1420   4.383   6.359   5.399  0.5651 -0.1541  0.4371
   20CHL1    H8 1421   4.326   6.453   5.417  2.0390  0.8924 -0.1305
   20CHL1   C14 1422   4.370   6.318   5.254 -0.7939  0.1726 -0.5947
   20CHL1   H14 1423   4.430   6.225   5.248 -0.6069  0.3750 -2.3667
   20CHL1   C15 1424   4.426   6.404   5.141 -0.0446 -0.1340 -0.0148
   20CHL1  H15A 1425   4.404   6.508   5.175  1.2615 -0.6373  2.6653
   20CHL1  H15B 1426   4.534   6.386   5.126  0.0333 -0.1660  0.5479
   20CHL1   C16 1427   4.349   6.358   5.016  0.1970  0.3005 -0.2636
   20CHL1  H16A 1428   4.296   6.434   4.956  0.2489  2.2369  1.9846
   20CHL1  H16B 1429   4.414   6.302   4.945 -1.1885  0.0255 -1.3565
   20CHL1   C17 1430   4.245   6.248   5.066 -0.1019 -0.8147 -0.2259
   20CHL1   H17 1431   4.296   6.149   5.066  0.1029 -0.7342  1.0243
   20CHL1   C13 1432   4.228   6.275   5.222  0.0626 -0.2401  0.5007
   20CHL1   C18 1433   4.131   6.397   5.230 -0.0975 -0.2532  0.5546
   20CHL1  H18A 1434   4.124   6.437   5.333 -1.1251  0.0017  0.4002
   20CHL1  H18B 1435   4.166   6.480   5.166  0.0104  0.1460  1.1237
   20CHL1  H18C 1436   4.026   6.373   5.203  0.1928 -0.6866 -0.2179
   20CHL1   C12 1437   4.196   6.157   5.311  0.8120  0.0632 -0.8904
   20CHL1  H12A 1438   4.089   6.137   5.288  0.5810  2.2413 -1.8829
   20CHL1  H12B 1439   4.261   6.070   5.287  2.3230  0.9211 -0.0682
   20CHL1   C11 1440   4.207   6.187   5.459  0.4361  0.2585 -0.6441
   20CHL1  H11A 1441   4.125   6.260   5.475  0.7270  1.3772 -3.6180
   20CHL1  H11B 1442   4.174   6.107   5.529 -1.8509  1.5255 -0.1557
   20CHL1    C9 1443   4.339   6.251   5.500 -0.2494  0.1067 -0.0992
   20CHL1    H9 1444   4.412   6.170   5.481  0.4298  1.4365 -3.8944
   20CHL1   C10 1445   4.354   6.302   5.647 -1.1267  0.3310  0.0280
   20CHL1   C19 1446   4.235   6.396   5.680  0.2050  0.9874  0.2069
   20CHL1  H19A 1447   4.233   6.401   5.791  0.6823 -2.7436  0.5123
   20CHL1  H19B 1448   4.252   6.495   5.633  0.0971  0.0837 -1.8446
   20CHL1  H19C 1449   4.134   6.365   5.645  0.3336  1.3435 -0.4964
   20CHL1    C1 1450   4.348   6.174   5.747  0.1232 -0.3305 -0.2994
   20CHL1   H1A 1451   4.241   6.147   5.762  0.7650 -1.4879  3.0634
   20CHL1   H1B 1452   4.396   6.088   5.695  1.0211  1.5390 -2.7576
   20CHL1    C2 1453   4.413   6.195   5.884 -0.4953 -0.2823  0.1986
   20CHL1   H2A 1454   4.427   6.094   5.930 -1.5284 -0.0099  1.1630
   20CHL1   H2B 1455   4.346   6.254   5.951  0.2310 -0.5903  1.2197
   20CHL1   C20 1456   4.133   6.238   4.963  0.4074 -0.2748  0.2073
   20CHL1   H20 1457   4.093   6.341   4.964  1.6739  0.3147 -2.0348
   20CHL1   C21 1458   4.012   6.153   5.005 -0.0301 -0.3105  0.1555
   20CHL1  H21A 1459   3.935   6.175   4.929  0.5339 -0.9132 -0.6036
   20CHL1  H21B 1460   3.983   6.164   5.112  2.4148 -0.6800  0.9343
   20CHL1  H21C 1461   4.042   6.046   4.993  0.6841  0.0901 -2.0209
   20CHL1   C22 1462   4.178   6.201   4.824 -0.5525 -0.1419 -0.0860
   20CHL1  H22A 1463   4.286   6.226   4.815 -1.0544  2.5480  0.4694
   20CHL1  H22B 1464   4.172   6.091   4.810  1.4144 -0.6392  2.3652
   20CHL1   C23 1465   4.116   6.283   4.709  0.4741  0.4790 -0.3674
   20CHL1  H23A 1466   4.005   6.276   4.716  0.5630 -1.5315 -0.5741
   20CHL1  H23B 1467   4.141   6.391   4.720  0.4846  0.4451 -0.0399
   20CHL1   C24 1468   4.169   6.243   4.576 -0.6729 -0.2866 -1.0726
   20CHL1  H24A 1469   4.281   6.241   4.578 -0.6922 -1.3046 -0.2651
   20CHL1  H24B 1470   4.132   6.139   4.563 -1.3279 -0.4725  1.6534
   20CHL1   C25 1471   4.113   6.331   4.464  0.0273  0.2968 -0.4621
   20CHL1   H25 1472   4.155   6.434   4.475 -1.4823  1.2235 -2.6034
   20CHL1   C26 1473   4.168   6.264   4.335 -0.0390 -0.4949 -0.2412
   20CHL1  H26A 1474   4.277   6.256   4.354 -0.0772 -1.0517 -0.2252
   20CHL1  H26B 1475   4.124   6.163   4.317 -0.3289 -0.1589 -1.4556
   20CHL1  H26C 1476   4.140   6.317   4.242  1.0772  0.8392  0.1654
   20CHL1   C27 1477   3.954   6.353   4.448 -0.4507 -0.6034 -0.2742
   20CHL1  H27A 1478   3.913   6.406   4.537 -1.2290 -2.3010  0.4368
   20CHL1  H27B 1479   3.950   6.425   4.364 -1.8322  0.6453  0.8080
   20CHL1  H27C 1480   3.905   6.254   4.435  0.3041 -1.5225  2.9175
   21CHL1    C3 1481   2.435   5.546   6.069 -1.0405  0.2639 -0.6488
   21CHL1    H3 1482   2.537   5.586   6.053 -0.2661 -0.3579  2.1441
   21CHL1    O3 1483   2.414   5.544   6.209 -0.4134  0.7717  0.7323
   21CHL1   H3' 1484   2.352   5.471   6.217 -0.1951 -0.0518 -3.0539
   21CHL1    C4 1485   2.326   5.639   6.005 -1.2530 -0.0358  0.7323
   21CHL1   H4A 1486   2.229   5.601   6.044 -0.0013 -2.1661  1.9583
   21CHL1   H4B 1487   2.353   5.741   6.042 -2.1690 -0.1944  1.8884
   21CHL1    C5 1488   2.332   5.636   5.857 -0.4482  0.4588 -0.5325
   21CHL1    C6 1489   2.344   5.748   5.783  0.0168 -0.1230 -0.8369
   21CHL1    H6 1490   2.354   5.842   5.840 -0.0520 -1.2957  1.2165
   21CHL1    C7 1491   2.342   5.758   5.635 -0.2357  0.2198  0.5181
   21CHL1   H7A 1492   2.278   5.842   5.599  0.7687  0.6915 -0.2115
   21CHL1   H7B 1493   2.445   5.777   5.599  0.1988 -0.8808  1.1502
   21CHL1    C8 1494   2.292   5.623   5.570 -0.9071 -0.7445 -0.4112
   21CHL1    H8 1495   2.182   5.617   5.586 -1.2208 -0.5355 -2.1822
   21CHL1   C14 1496   2.321   5.615   5.423  0.0270  0.1079  0.5491
   21CHL1   H14 1497   2.432   5.606   5.421 -0.0516 -0.8001 -0.5350
   21CHL1   C15 1498   2.285   5.737   5.333  0.7287  0.3845  0.2580
   21CHL1  H15A 1499   2.182   5.773   5.355  0.8236  3.0895 -3.0185
   21CHL1  H15B 1500   2.356   5.821   5.347 -0.0984  1.3596 -1.2092
   21CHL1   C16 1501   2.290   5.693   5.187  0.6038  0.3374  0.3141
   21CHL1  H16A 1502   2.188   5.693   5.143  0.1719  0.4284  1.2836
   21CHL1  H16B 1503   2.367   5.755   5.137  1.5456  0.2457  1.6161
   21CHL1   C17 1504   2.327   5.539   5.196 -0.4484 -0.4486  0.1399
   21CHL1   H17 1505   2.438   5.538   5.202 -0.2326 -1.0441 -2.6433
   21CHL1   C13 1506   2.278   5.491   5.342 -0.4675  0.1960 -0.0350
   21CHL1   C18 1507   2.131   5.466   5.336  0.3391 -0.5200  1.1816
   21CHL1  H18A 1508   2.077   5.534   5.266  0.7417  0.2660  1.6246
   21CHL1  H18B 1509   2.115   5.361   5.303  1.0378  0.0301 -1.1371
   21CHL1  H18C 1510   2.087   5.481   5.436  0.1546  0.9224  0.9045
   21CHL1   C12 1511   2.353   5.374   5.410  0.0063  0.8262  0.0372
   21CHL1  H12A 1512   2.326   5.280   5.358 -1.2736  0.0447  2.0094
   21CHL1  H12B 1513   2.462   5.396   5.406 -0.1711  1.8454  0.3669
   21CHL1   C11 1514   2.314   5.367   5.559 -0.4741  0.1593 -0.1345
   21CHL1  H11A 1515   2.205   5.351   5.573 -0.4223 -0.2518 -0.1907
   21CHL1  H11B 1516   2.370   5.284   5.609  1.6382  1.4618 -0.2047
   21CHL1    C9 1517   2.356   5.501   5.638  0.2003 -1.0879 -0.3290
   21CHL1    H9 1518   2.467   5.504   5.634  0.2253 -2.3008 -1.0411
   21CHL1   C10 1519   2.324   5.498   5.793 -0.3280 -0.3411  0.2129
   21CHL1   C19 1520   2.175   5.448   5.807  0.5482 -0.8417 -0.8401
   21CHL1  H19A 1521   2.163   5.343   5.770 -0.9907 -0.1930 -2.3291
   21CHL1  H19B 1522   2.131   5.455   5.909 -3.2049 -4.2137 -1.9287
   21CHL1  H19C 1523   2.101   5.511   5.753  0.8268  2.1688  2.0038
   21CHL1    C1 1524   2.430   5.407   5.859 -0.1715  0.4190  0.3317
   21CHL1   H1A 1525   2.413   5.306   5.816 -1.0890  0.2840  0.9792
   21CHL1   H1B 1526   2.529   5.451   5.835 -0.2574  0.2604 -0.3096
   21CHL1    C2 1527   2.424   5.401   6.014 -0.4726  0.0674  0.3723
   21CHL1   H2A 1528   2.518   5.352   6.048  0.4392  0.4690 -1.3971
   21CHL1   H2B 1529   2.345   5.337   6.056  1.4667 -1.9775  1.0768
   21CHL1   C20 1530   2.299   5.449   5.075  0.3194 -0.5778  0.2678
   21CHL1   H20 1531   2.191   5.422   5.078  0.0625  0.1221 -1.5214
   21CHL1   C21 1532   2.399   5.325   5.091  0.1236 -0.9720  0.3560
   21CHL1  H21A 1533   2.505   5.360   5.099 -0.1611  0.0408 -0.0856
   21CHL1  H21B 1534   2.377   5.255   5.008 -1.9740 -0.6772  0.6284
   21CHL1  H21C 1535   2.377   5.258   5.176  0.5655 -0.8411  0.5802
   21CHL1   C22 1536   2.334   5.538   4.947 -0.6661  0.3921  0.6811
   21CHL1  H22A 1537   2.266   5.626   4.944  0.6224  1.4627  1.7510
   21CHL1  H22B 1538   2.435   5.580   4.965 -0.5872 -0.2989  1.9649
   21CHL1   C23 1539   2.324   5.459   4.817  0.8787 -0.2230 -1.1536
   21CHL1  H23A 1540   2.413   5.395   4.805 -0.3512 -2.2026 -0.1439
   21CHL1  H23B 1541   2.246   5.380   4.818  2.1607 -1.5174 -0.0507
   21CHL1   C24 1542   2.306   5.546   4.690  0.0455 -0.3705  0.2753
   21CHL1  H24A 1543   2.208   5.599   4.692 -0.4768 -1.3417  2.1239
   21CHL1  H24B 1544   2.385   5.624   4.693  0.1906 -0.5312  0.7048
   21CHL1   C25 1545   2.329   5.475   4.556  0.6896  0.2740  0.2257
   21CHL1   H25 1546   2.416   5.405   4.565 -0.4322 -1.2673 -0.4698
   21CHL1   C26 1547   2.214   5.377   4.527 -0.2166 -0.6607 -0.0262
   21CHL1  H26A 1548   2.118   5.425   4.556  0.0897 -0.6882  1.0592
   21CHL1  H26B 1549   2.205   5.343   4.421 -2.0362  0.1566 -0.1644
   21CHL1  H26C 1550   2.212   5.294   4.600  1.0086 -0.5288  0.1792
   21CHL1   C27 1551   2.347   5.586   4.443 -0.3526  0.0733 -0.4581
   21CHL1  H27A 1552   2.407   5.668   4.487  1.4453 -1.4469  0.0445
   21CHL1  H27B 1553   2.383   5.534   4.352 -0.4356 -0.7345 -0.0434
   21CHL1  H27C 1554   2.243   5.617   4.418 -1.4217 -1.1872  2.0157
   22CHL1    C3 1555   4.868   0.953   5.626  0.5332  0.1499 -0.0262
   22CHL1    H3 1556   4.929   0.861   5.607  1.4969  1.0475 -1.5321
   22CHL1    O3 1557   4.911   1.001   5.752 -0.3698 -0.2668 -0.2298
   22CHL1   H3' 1558   5.000   1.034   5.740 -0.8786  0.6911 -1.6902
   22CHL1    C4 1559   4.888   1.059   5.517 -0.6623  0.1964  0.3870
   22CHL1   H4A 1560   4.846   1.156   5.548  1.1402  0.6704  1.5011
   22CHL1   H4B 1561   4.999   1.071   5.520 -0.5296 -0.4580 -0.9839
   22CHL1    C5 1562   4.830   1.016   5.381 -0.8910  0.3190 -0.1089
   22CHL1    C6 1563   4.907   1.024   5.270  0.2351  0.5387 -0.3209
   22CHL1    H6 1564   5.006   1.072   5.276 -0.8991  2.9073  1.2367
   22CHL1    C7 1565   4.855   1.013   5.131 -0.1629  0.5298 -1.1076
   22CHL1   H7A 1566   4.881   1.099   5.065  1.1237  0.0516 -1.2607
   22CHL1   H7B 1567   4.906   0.936   5.070 -0.4086  1.0540 -1.9907
   22CHL1    C8 1568   4.701   1.002   5.123  0.4642 -0.5086 -0.1772
   22CHL1    H8 1569   4.661   1.104   5.138 -0.1268 -0.5058 -1.5859
   22CHL1   C14 1570   4.648   0.945   4.989  0.2294  0.2983 -0.1567
   22CHL1   H14 1571   4.676   0.837   4.995  1.2127  0.5665  0.3202
   22CHL1   C15 1572   4.705   1.003   4.855 -0.5185 -0.3459 -0.5436
   22CHL1  H15A 1573   4.700   1.114   4.863  1.6285 -0.2252 -0.5414
   22CHL1  H15B 1574   4.811   0.979   4.834  0.3361  3.2616 -1.1204
   22CHL1   C16 1575   4.611   0.934   4.760  0.3593 -0.1218  0.6324
   22CHL1  H16A 1576   4.576   1.005   4.681 -2.0315 -0.1927  1.5468
   22CHL1  H16B 1577   4.673   0.853   4.715  0.0543 -0.0034 -0.0152
   22CHL1   C17 1578   4.491   0.874   4.834  0.5692  0.0243  0.0394
   22CHL1   H17 1579   4.511   0.766   4.850 -1.2664 -0.4661 -0.7992
   22CHL1   C13 1580   4.499   0.931   4.974 -0.4605 -0.2571 -0.3413
   22CHL1   C18 1581   4.425   1.063   4.971 -0.1195 -0.2042 -0.0064
   22CHL1  H18A 1582   4.467   1.129   5.049  2.9414 -1.9421 -0.0046
   22CHL1  H18B 1583   4.437   1.110   4.871  0.0622 -0.6110 -0.1786
   22CHL1  H18C 1584   4.317   1.047   4.991  0.1791  0.2154  2.1149
   22CHL1   C12 1585   4.447   0.844   5.094  0.1620  0.1220  0.4305
   22CHL1  H12A 1586   4.338   0.825   5.090  0.3995 -2.2555  2.3829
   22CHL1  H12B 1587   4.493   0.746   5.068  0.7135  1.1382 -2.8484
   22CHL1   C11 1588   4.482   0.898   5.228 -0.4015 -0.0965  1.2006
   22CHL1  H11A 1589   4.428   0.993   5.248 -0.5064  0.6322 -1.8981
   22CHL1  H11B 1590   4.451   0.825   5.306  1.5474 -1.7045  0.5435
   22CHL1    C9 1591   4.638   0.921   5.241  0.6635 -0.4210  0.9975
   22CHL1    H9 1592   4.688   0.822   5.242 -2.0084 -1.8576  1.2791
   22CHL1   C10 1593   4.682   0.970   5.383 -0.0524  0.2163  0.3493
   22CHL1   C19 1594   4.586   1.085   5.427 -0.4681  0.4902 -0.2396
   22CHL1  H19A 1595   4.609   1.137   5.522  1.0646  2.1189 -1.4278
   22CHL1  H19B 1596   4.556   1.160   5.351  0.8426  0.6502 -0.6314
   22CHL1  H19C 1597   4.485   1.044   5.447 -1.7389  3.8722  0.9746
   22CHL1    C1 1598   4.679   0.853   5.490  0.4354 -0.0980 -0.1394
   22CHL1   H1A 1599   4.575   0.814   5.484  0.3462 -0.2528  1.7059
   22CHL1   H1B 1600   4.751   0.779   5.451 -0.7452 -0.0164 -2.6612
   22CHL1    C2 1601   4.720   0.908   5.627 -0.6091 -0.4221  0.5684
   22CHL1   H2A 1602   4.722   0.830   5.706  0.8509 -2.0162 -0.9536
   22CHL1   H2B 1603   4.663   0.997   5.660  0.3741  0.7515 -0.7793
   22CHL1   C20 1604   4.356   0.875   4.755  0.6908  0.6677  0.0651
   22CHL1   H20 1605   4.344   0.984   4.734  2.5657  0.4121 -3.0717
   22CHL1   C21 1606   4.233   0.811   4.829  0.3615  0.5679  0.2603
   22CHL1  H21A 1607   4.239   0.700   4.825  3.0162  0.5631  2.0526
   22CHL1  H21B 1608   4.135   0.831   4.781  0.1568 -2.6238 -0.9019
   22CHL1  H21C 1609   4.230   0.844   4.935  0.4497 -0.1853  0.5089
   22CHL1   C22 1610   4.372   0.824   4.601 -0.0599 -0.8146  0.3386
   22CHL1  H22A 1611   4.292   0.863   4.535  1.0776 -1.6003 -1.5704
   22CHL1  H22B 1612   4.459   0.875   4.555 -0.4323  2.2282  2.7037
   22CHL1   C23 1613   4.360   0.675   4.586  0.3729 -0.0785  0.3239
   22CHL1  H23A 1614   4.421   0.632   4.667  1.9530  0.5172 -0.5048
   22CHL1  H23B 1615   4.258   0.638   4.611 -0.3716  1.3250 -0.4860
   22CHL1   C24 1616   4.388   0.619   4.444  0.5036  0.1119  0.1480
   22CHL1  H24A 1617   4.381   0.508   4.453 -0.5354 -0.1150 -2.5243
   22CHL1  H24B 1618   4.312   0.662   4.374  0.1326  1.8856  1.5656
   22CHL1   C25 1619   4.519   0.663   4.363 -0.1161  0.1438 -0.0142
   22CHL1   H25 1620   4.501   0.767   4.327 -0.3433  0.3694  0.7386
   22CHL1   C26 1621   4.642   0.647   4.452  0.0690 -0.3031 -0.2839
   22CHL1  H26A 1622   4.618   0.692   4.551  0.3008 -0.3787 -0.1913
   22CHL1  H26B 1623   4.681   0.543   4.461 -1.2021 -1.0174 -2.4396
   22CHL1  H26C 1624   4.720   0.715   4.412  0.5414  0.4763  1.8166
   22CHL1   C27 1625   4.539   0.570   4.243 -0.0421  0.4752  0.0073
   22CHL1  H27A 1626   4.551   0.467   4.284 -1.8468 -0.8113 -2.4611
   22CHL1  H27B 1627   4.446   0.572   4.183  1.0460  1.3154 -1.7593
   22CHL1  H27C 1628   4.627   0.599   4.181 -0.1920 -0.9660 -0.9280
   23CHL1    C3 1629   3.962   6.078   5.928  0.5991  0.6369  0.8685
   23CHL1    H3 1630   4.064   6.084   5.884 -0.5760  1.3041 -2.0014
   23CHL1    O3 1631   3.975   6.098   6.063 -0.0281  0.4863 -0.1115
   23CHL1   H3' 1632   3.885   6.099   6.098  0.0617 -0.1587  0.1712
   23CHL1    C4 1633   3.873   6.196   5.873  0.3960 -0.4979  0.3746
   23CHL1   H4A 1634   3.771   6.198   5.917 -0.1832 -0.4259 -0.9430
   23CHL1   H4B 1635   3.919   6.296   5.890 -2.1446  0.8069  0.0430
   23CHL1    C5 1636   3.832   6.180   5.728 -0.7925 -0.5051 -0.5950
   23CHL1    C6 1637   3.842   6.284   5.642 -0.6266  0.7165  0.1534
   23CHL1    H6 1638   3.877   6.379   5.686  1.1264  0.1995 -0.0348
   23CHL1    C7 1639   3.799   6.284   5.499  0.7956  0.5748  0.2647
   23CHL1   H7A 1640   3.739   6.372   5.468  0.1377 -0.0330 -0.2438
   23CHL1   H7B 1641   3.887   6.270   5.433 -0.3295  0.8078 -1.3691
   23CHL1    C8 1642   3.704   6.161   5.468 -0.7883  0.2630 -0.0103
   23CHL1    H8 1643   3.602   6.190   5.498 -0.8937 -0.9725  0.9304
   23CHL1   C14 1644   3.698   6.137   5.316  0.1417 -0.4601  0.1954
   23CHL1   H14 1645   3.803   6.130   5.280 -0.2520  0.0159 -1.1290
   23CHL1   C15 1646   3.647   6.251   5.227  0.2512 -0.2873 -0.2525
   23CHL1  H15A 1647   3.549   6.289   5.265 -1.0926 -1.0023 -2.8033
   23CHL1  H15B 1648   3.711   6.341   5.211  1.0913 -1.1516 -2.0178
   23CHL1   C16 1649   3.617   6.181   5.093 -0.1334  0.0969  0.4145
   23CHL1  H16A 1650   3.514   6.197   5.054  0.8599  0.7936 -2.0788
   23CHL1  H16B 1651   3.683   6.206   5.007  0.0751 -2.7638 -0.3590
   23CHL1   C17 1652   3.641   6.029   5.119 -0.2109 -0.4438  0.1802
   23CHL1   H17 1653   3.746   6.010   5.090 -0.1370  0.1090  0.0780
   23CHL1   C13 1654   3.633   6.015   5.273  0.1596  0.1190 -0.0572
   23CHL1   C18 1655   3.491   6.017   5.327  0.9153 -0.2569 -0.1559
   23CHL1  H18A 1656   3.477   6.011   5.437 -0.5441 -3.7519 -0.3841
   23CHL1  H18B 1657   3.429   6.096   5.279  1.0865  0.2886  0.5078
   23CHL1  H18C 1658   3.449   5.920   5.295  0.8493 -0.5169  0.6877
   23CHL1   C12 1659   3.709   5.891   5.325  0.6599 -0.1939 -0.4582
   23CHL1  H12A 1660   3.659   5.792   5.312 -1.3763  0.8257 -0.7829
   23CHL1  H12B 1661   3.813   5.896   5.285  0.5415  2.1806 -0.6057
   23CHL1   C11 1662   3.718   5.897   5.476 -1.0229  0.2498 -0.1005
   23CHL1  H11A 1663   3.622   5.864   5.522  0.0271 -1.7847  0.7715
   23CHL1  H11B 1664   3.789   5.818   5.509 -1.5381 -0.4437 -0.6373
   23CHL1    C9 1665   3.765   6.033   5.534  0.3872  0.2300 -0.4382
   23CHL1    H9 1666   3.873   6.032   5.507  0.4206  0.0389 -0.2994
   23CHL1   C10 1667   3.773   6.049   5.685 -0.5579  0.3917 -0.2819
   23CHL1   C19 1668   3.631   6.017   5.740  0.1192  0.0023 -0.6464
   23CHL1  H19A 1669   3.551   6.061   5.677  2.1596  3.6485 -0.9663
   23CHL1  H19B 1670   3.613   5.908   5.744  1.9365 -0.2976  0.0218
   23CHL1  H19C 1671   3.633   6.033   5.850 -0.7266 -1.2127 -0.4359
   23CHL1    C1 1672   3.873   5.944   5.745  0.8055  0.3752 -0.3761
   23CHL1   H1A 1673   3.821   5.847   5.731  0.4817  0.3895  0.6726
   23CHL1   H1B 1674   3.968   5.943   5.687  0.8936 -1.5042 -0.2587
   23CHL1    C2 1675   3.897   5.945   5.891 -0.4920  0.2885  0.2091
   23CHL1   H2A 1676   3.968   5.862   5.914 -1.0771 -1.4039 -3.3139
   23CHL1   H2B 1677   3.803   5.928   5.947 -1.0539  1.1513 -0.4523
   23CHL1   C20 1678   3.553   5.934   5.042  0.6238 -0.3533  0.4239
   23CHL1   H20 1679   3.453   5.963   5.080  0.5038 -0.5147  0.2398
   23CHL1   C21 1680   3.577   5.786   5.069  0.2012  0.2799  0.0191
   23CHL1  H21A 1681   3.685   5.763   5.082 -0.3644 -1.8676  1.5546
   23CHL1  H21B 1682   3.523   5.732   4.988 -1.0360  1.3128  0.1126
   23CHL1  H21C 1683   3.518   5.762   5.160 -0.6802 -1.3767 -0.9513
   23CHL1   C22 1684   3.551   5.958   4.896 -0.1323  0.2354 -0.1305
   23CHL1  H22A 1685   3.485   5.883   4.847  1.0751 -2.2417  1.8282
   23CHL1  H22B 1686   3.507   6.052   4.857  0.2627  1.1144  1.4829
   23CHL1   C23 1687   3.694   5.950   4.826  0.6126  0.0957  0.4962
   23CHL1  H23A 1688   3.760   6.028   4.868  0.4901  0.4583  0.0215
   23CHL1  H23B 1689   3.736   5.848   4.839  1.9886  0.4920 -0.6532
   23CHL1   C24 1690   3.665   5.980   4.675 -0.8944  0.0432  0.9587
   23CHL1  H24A 1691   3.628   5.887   4.627 -1.5069  1.5339 -1.6625
   23CHL1  H24B 1692   3.595   6.066   4.661 -1.6078 -0.7657 -0.6644
   23CHL1   C25 1693   3.792   6.012   4.598  0.2331 -0.4065  0.6140
   23CHL1   H25 1694   3.806   6.118   4.626  0.3130  0.7317 -3.1502
   23CHL1   C26 1695   3.916   5.934   4.626  0.7913 -0.3784 -0.3461
   23CHL1  H26A 1696   3.956   5.941   4.730 -2.5082 -0.2359  1.0524
   23CHL1  H26B 1697   3.889   5.828   4.609  1.9142 -0.8294  0.5367
   23CHL1  H26C 1698   3.997   5.958   4.554 -2.0467  2.6484 -2.8424
   23CHL1   C27 1699   3.757   6.012   4.451  0.1721  0.5203  0.9108
   23CHL1  H27A 1700   3.743   5.914   4.402  2.6173  1.5419 -2.1723
   23CHL1  H27B 1701   3.661   6.067   4.436  0.2601  0.3337 -0.4669
   23CHL1  H27C 1702   3.836   6.066   4.395 -0.7996  0.2526 -0.7995
   24CHL1    C3 1703   6.711   4.831   5.659 -0.5259  0.2206 -0.3531
   24CHL1    H3 1704   6.646   4.749   5.621 -2.4456  2.0266 -1.1614
   24CHL1    O3 1705   6.733   4.812   5.800 -0.2393  0.0315  0.6013
   24CHL1   H3' 1706   6.807   4.754   5.818 -1.6397 -1.8186  0.7339
   24CHL1    C4 1707   6.844   4.835   5.575  0.2230  0.2112 -0.5511
   24CHL1   H4A 1708   6.881   4.933   5.610 -1.6123  0.6846  0.2110
   24CHL1   H4B 1709   6.907   4.748   5.602 -0.9381 -0.9489 -1.4193
   24CHL1    C5 1710   6.814   4.847   5.430 -0.6095  0.1806  0.6529
   24CHL1    C6 1711   6.859   4.747   5.347 -0.0752 -0.0068  1.2509
   24CHL1    H6 1712   6.926   4.668   5.384  0.0311 -0.6691 -0.2686
   24CHL1    C7 1713   6.841   4.748   5.198 -0.4565 -0.5532  0.5983
   24CHL1   H7A 1714   6.937   4.749   5.142 -0.7004  0.3325  0.1737
   24CHL1   H7B 1715   6.776   4.662   5.170 -1.7669 -0.0227  1.8707
   24CHL1    C8 1716   6.772   4.885   5.150  0.7326  0.6575  0.2319
   24CHL1    H8 1717   6.852   4.962   5.142  0.7848  0.6518  0.6793
   24CHL1   C14 1718   6.718   4.879   5.003 -0.1636 -0.6172  0.0906
   24CHL1   H14 1719   6.649   4.792   5.004 -1.4656  0.3424  2.9852
   24CHL1   C15 1720   6.813   4.841   4.889 -0.4386  0.2804  0.3588
   24CHL1  H15A 1721   6.913   4.889   4.892  0.1137 -0.8764  1.6543
   24CHL1  H15B 1722   6.827   4.731   4.888  0.7823  0.4277  0.7637
   24CHL1   C16 1723   6.742   4.883   4.763  0.2656 -0.5548 -0.4637
   24CHL1  H16A 1724   6.797   4.964   4.711 -0.7037 -0.2873 -1.1027
   24CHL1  H16B 1725   6.700   4.811   4.690 -1.7248  1.5953 -1.5364
   24CHL1   C17 1726   6.600   4.957   4.812 -0.3149  0.1219 -0.6273
   24CHL1   H17 1727   6.529   4.872   4.820 -0.1234 -0.0116 -0.3289
   24CHL1   C13 1728   6.635   5.006   4.953  0.3565  0.0979 -0.4530
   24CHL1   C18 1729   6.727   5.131   4.949  0.4221 -0.4816  0.0849
   24CHL1  H18A 1730   6.787   5.134   5.042  0.6327 -1.0623 -0.0260
   24CHL1  H18B 1731   6.663   5.221   4.948  1.0421 -0.0179  0.7965
   24CHL1  H18C 1732   6.802   5.138   4.867  0.0001 -0.9559 -0.3492
   24CHL1   C12 1733   6.521   5.026   5.056  0.9021  0.2332 -0.2017
   24CHL1  H12A 1734   6.452   5.109   5.029 -0.2528 -0.5734  0.1881
   24CHL1  H12B 1735   6.471   4.927   5.062 -2.7892  1.7471 -2.0955
   24CHL1   C11 1736   6.567   5.051   5.197 -0.1575  0.2863 -0.3989
   24CHL1  H11A 1737   6.622   5.148   5.199  5.2355 -2.3304  2.1389
   24CHL1  H11B 1738   6.479   5.055   5.264  0.0471 -0.5745 -0.0744
   24CHL1    C9 1739   6.662   4.934   5.249  0.1914  0.4639 -0.1661
   24CHL1    H9 1740   6.593   4.848   5.262 -0.0912  0.6739 -0.2724
   24CHL1   C10 1741   6.720   4.964   5.385 -0.0087  0.1856 -0.4101
   24CHL1   C19 1742   6.794   5.092   5.387 -0.1357 -0.4535  0.2632
   24CHL1  H19A 1743   6.729   5.175   5.350  1.1863  0.0719 -0.9849
   24CHL1  H19B 1744   6.834   5.124   5.485 -0.5229  1.4255 -0.1492
   24CHL1  H19C 1745   6.873   5.097   5.309 -0.9171  2.6658 -0.4980
   24CHL1    C1 1746   6.595   4.970   5.482 -0.4195 -0.5702  0.0448
   24CHL1   H1A 1747   6.541   5.067   5.481  1.0703  0.3264  1.4247
   24CHL1   H1B 1748   6.518   4.893   5.457 -1.5455  0.5938 -0.1690
   24CHL1    C2 1749   6.629   4.958   5.629  0.2776  0.9810 -0.0660
   24CHL1   H2A 1750   6.537   4.960   5.691 -1.6081  0.0017 -2.6570
   24CHL1   H2B 1751   6.699   5.038   5.660 -0.6117  1.5930  0.3883
   24CHL1   C20 1752   6.545   5.057   4.708  0.1557  0.0756 -0.1076
   24CHL1   H20 1753   6.625   5.131   4.684  1.8376 -2.0715 -1.4511
   24CHL1   C21 1754   6.423   5.126   4.764  0.3987  0.3277  0.2447
   24CHL1  H21A 1755   6.350   5.050   4.797  2.5673 -1.9010  0.2610
   24CHL1  H21B 1756   6.383   5.191   4.684  0.5043  2.0315  1.5041
   24CHL1  H21C 1757   6.456   5.186   4.852 -0.7594 -2.7136  2.9282
   24CHL1   C22 1758   6.500   4.990   4.574  0.0038  0.6194  0.1093
   24CHL1  H22A 1759   6.584   4.927   4.536 -0.6247 -1.1503  1.4909
   24CHL1  H22B 1760   6.414   4.922   4.590  0.2211  0.7373  1.9714
   24CHL1   C23 1761   6.466   5.088   4.462  0.5025 -0.4849  0.0449
   24CHL1  H23A 1762   6.366   5.128   4.488  0.9582  0.9539 -0.3394
   24CHL1  H23B 1763   6.536   5.173   4.474 -1.4049  0.8299  2.8801
   24CHL1   C24 1764   6.468   5.022   4.321 -0.2226 -0.1576 -0.2442
   24CHL1  H24A 1765   6.573   5.021   4.283 -0.5112 -0.0019 -1.0705
   24CHL1  H24B 1766   6.428   4.920   4.334 -1.2613  0.5354  2.9072
   24CHL1   C25 1767   6.404   5.100   4.205 -0.2743  0.6007 -0.2775
   24CHL1   H25 1768   6.298   5.121   4.231 -0.1274  1.7391 -0.5666
   24CHL1   C26 1769   6.465   5.237   4.181  0.0869  0.0235 -0.2120
   24CHL1  H26A 1770   6.567   5.225   4.139  0.8310 -2.5199  2.1013
   24CHL1  H26B 1771   6.401   5.308   4.123  0.4447  1.3942  1.0215
   24CHL1  H26C 1772   6.467   5.288   4.279 -0.5161 -0.9627  0.3281
   24CHL1   C27 1773   6.411   5.019   4.073  0.3806  0.6153 -0.1163
   24CHL1  H27A 1774   6.362   5.064   3.985 -0.9789 -0.9034 -0.1904
   24CHL1  H27B 1775   6.512   4.990   4.039  0.6260  0.2575  0.8939
   24CHL1  H27C 1776   6.354   4.928   4.104  0.9219  0.3802  0.1953
   25CHL1    C3 1777   0.301   1.536   5.876  0.4051  0.2120 -0.4994
   25CHL1    H3 1778   0.215   1.467   5.866 -0.4330  1.4321 -2.0121
   25CHL1    O3 1779   0.323   1.568   6.013  0.3463  0.0291 -0.0315
   25CHL1   H3' 1780   0.385   1.641   6.019  1.2325 -0.6407 -0.7561
   25CHL1    C4 1781   0.422   1.461   5.815 -0.0379 -0.0091  0.3552
   25CHL1   H4A 1782   0.515   1.517   5.839 -0.4461  0.6689  0.3698
   25CHL1   H4B 1783   0.428   1.365   5.870  1.5594  1.6189  3.3102
   25CHL1    C5 1784   0.400   1.446   5.671 -0.1380  0.0327  0.6462
   25CHL1    C6 1785   0.391   1.325   5.614  0.3314 -0.0783  0.6947
   25CHL1    H6 1786   0.416   1.238   5.676 -1.7265 -0.1060  1.5539
   25CHL1    C7 1787   0.372   1.300   5.469 -0.1747 -0.0667 -0.1089
   25CHL1   H7A 1788   0.424   1.212   5.427  0.7915  1.0063 -1.2558
   25CHL1   H7B 1789   0.265   1.286   5.443 -0.0200 -1.1452 -0.2071
   25CHL1    C8 1790   0.421   1.414   5.380  0.1925  0.3894  1.1202
   25CHL1    H8 1791   0.529   1.433   5.394  0.7390 -0.9413 -0.9845
   25CHL1   C14 1792   0.404   1.398   5.232  0.5429 -0.1903  0.1567
   25CHL1   H14 1793   0.298   1.367   5.220  0.5937  0.3137 -1.9635
   25CHL1   C15 1794   0.480   1.287   5.170  0.0978  0.3148 -0.7355
   25CHL1  H15A 1795   0.583   1.277   5.209  0.3882 -1.9495 -1.8831
   25CHL1  H15B 1796   0.428   1.189   5.186  0.0706  0.4231 -0.1326
   25CHL1   C16 1797   0.472   1.308   5.023  0.3762 -0.1062 -0.1714
   25CHL1  H16A 1798   0.576   1.298   4.984 -0.0493 -0.5004 -1.2696
   25CHL1  H16B 1799   0.398   1.235   4.983 -0.2020 -0.4228  1.4028
   25CHL1   C17 1800   0.404   1.450   5.000 -0.0766  0.0902  0.2436
   25CHL1   H17 1801   0.298   1.421   4.986 -0.0166  0.4586 -1.1542
   25CHL1   C13 1802   0.419   1.520   5.142  1.0292  0.3498 -0.2918
   25CHL1   C18 1803   0.562   1.588   5.142  0.4312  1.0020  0.4298
   25CHL1  H18A 1804   0.598   1.591   5.247 -0.4293 -0.2371  0.7810
   25CHL1  H18B 1805   0.634   1.524   5.087 -1.1328 -0.8927  0.4999
   25CHL1  H18C 1806   0.553   1.686   5.090  0.6367 -0.1946 -1.9865
   25CHL1   C12 1807   0.324   1.631   5.200  0.5117 -0.2757  0.1414
   25CHL1  H12A 1808   0.340   1.716   5.131  1.6806 -0.6295 -0.0408
   25CHL1  H12B 1809   0.224   1.584   5.188  1.1226 -1.5168 -0.2853
   25CHL1   C11 1810   0.351   1.668   5.345 -0.6170  0.3517 -0.7340
   25CHL1  H11A 1811   0.453   1.711   5.355 -0.9569  1.0881 -0.3257
   25CHL1  H11B 1812   0.292   1.747   5.397  0.2647  0.4008  0.2311
   25CHL1    C9 1813   0.347   1.538   5.435 -0.5746  0.5262 -0.1641
   25CHL1    H9 1814   0.239   1.513   5.431 -0.6605  0.8160  0.2361
   25CHL1   C10 1815   0.386   1.569   5.587 -0.5916 -0.0211  0.4755
   25CHL1   C19 1816   0.525   1.647   5.592  0.3755  0.6770 -0.0417
   25CHL1  H19A 1817   0.516   1.748   5.546  0.9205  0.4894 -0.5799
   25CHL1  H19B 1818   0.559   1.673   5.695  2.3284  1.5445 -0.8563
   25CHL1  H19C 1819   0.607   1.598   5.535 -0.1042  0.6047 -0.6884
   25CHL1    C1 1820   0.271   1.661   5.653  0.0871 -0.0809 -0.1517
   25CHL1   H1A 1821   0.263   1.765   5.612  2.6682 -0.4701 -1.9286
   25CHL1   H1B 1822   0.175   1.609   5.634  1.6208 -2.5753 -1.7198
   25CHL1    C2 1823   0.286   1.671   5.804 -0.1987 -0.0897 -0.0146
   25CHL1   H2A 1824   0.205   1.734   5.846  0.6113  0.4329  0.8058
   25CHL1   H2B 1825   0.381   1.726   5.821  0.8218 -2.4558  2.7455
   25CHL1   C20 1826   0.444   1.532   4.879  0.0864 -0.7079  0.3509
   25CHL1   H20 1827   0.533   1.594   4.905  0.2620 -0.7552 -0.1201
   25CHL1   C21 1828   0.340   1.644   4.839  0.0446 -0.4065  0.7196
   25CHL1  H21A 1829   0.306   1.711   4.921 -1.2534  0.0016 -0.1089
   25CHL1  H21B 1830   0.253   1.592   4.795 -0.4267  0.4582  0.5921
   25CHL1  H21C 1831   0.388   1.712   4.765 -0.2595 -0.7866  0.1664
   25CHL1   C22 1832   0.497   1.455   4.753 -0.1284  0.7243 -0.7858
   25CHL1  H22A 1833   0.576   1.379   4.771  0.2436  1.2545 -0.0979
   25CHL1  H22B 1834   0.412   1.411   4.697 -1.9560  1.8327  0.9961
   25CHL1   C23 1835   0.580   1.551   4.668 -0.2843 -0.8584 -0.0345
   25CHL1  H23A 1836   0.525   1.639   4.628  0.1316 -0.9195 -0.7634
   25CHL1  H23B 1837   0.659   1.601   4.728 -2.4453  1.5959  0.9500
   25CHL1   C24 1838   0.642   1.475   4.553  0.1823  0.5329 -0.5502
   25CHL1  H24A 1839   0.697   1.390   4.600 -1.7262  0.7363  2.2272
   25CHL1  H24B 1840   0.552   1.445   4.495  1.2039 -1.4019 -1.2262
   25CHL1   C25 1841   0.737   1.551   4.462  0.4224 -0.6658 -0.2657
   25CHL1   H25 1842   0.819   1.588   4.528  1.8409 -1.1872 -1.6742
   25CHL1   C26 1843   0.809   1.475   4.358 -0.5983 -0.0019  0.3703
   25CHL1  H26A 1844   0.892   1.416   4.403 -0.9203  0.6057  1.8264
   25CHL1  H26B 1845   0.739   1.401   4.312  0.1430 -0.4795 -0.0051
   25CHL1  H26C 1846   0.859   1.540   4.284 -3.0212  0.3554 -1.0730
   25CHL1   C27 1847   0.673   1.678   4.395  0.3607  0.1780 -0.0122
   25CHL1  H27A 1848   0.729   1.732   4.316 -1.0913  0.8593 -0.6117
   25CHL1  H27B 1849   0.579   1.649   4.342 -0.7716  3.9694 -0.3953
   25CHL1  H27C 1850   0.641   1.752   4.472 -2.1193 -0.0220 -0.7560
   26CHL1    C3 1851   6.403   1.237   5.794  0.0593  0.8475 -0.1505
   26CHL1    H3 1852   6.401   1.127   5.778 -0.0747  0.8259 -0.0002
   26CHL1    O3 1853   6.323   1.267   5.911 -0.1807  0.8433  0.5020
   26CHL1   H3' 1854   6.339   1.360   5.930  1.6268  0.9283 -1.1626
   26CHL1    C4 1855   6.544   1.292   5.806  0.6571 -0.0331  0.2964
   26CHL1   H4A 1856   6.534   1.400   5.826 -2.4463 -0.4764  1.5999
   26CHL1   H4B 1857   6.594   1.254   5.898  0.7752 -0.6608 -0.0179
   26CHL1    C5 1858   6.624   1.260   5.679  0.6726  0.0870 -0.1114
   26CHL1    C6 1859   6.731   1.185   5.678 -0.4748  1.1698 -0.1166
   26CHL1    H6 1860   6.771   1.141   5.770 -1.4172 -1.1691 -0.7538
   26CHL1    C7 1861   6.810   1.160   5.548 -0.8268  0.0179 -0.2680
   26CHL1   H7A 1862   6.917   1.155   5.578 -0.9798 -0.8508  0.1390
   26CHL1   H7B 1863   6.784   1.059   5.510  3.3950 -1.5027  0.3028
   26CHL1    C8 1864   6.788   1.263   5.433  0.1527 -0.4647  0.2003
   26CHL1    H8 1865   6.834   1.361   5.456 -1.0304  0.6481 -1.8741
   26CHL1   C14 1866   6.841   1.218   5.297 -0.1017  0.0887 -0.0779
   26CHL1   H14 1867   6.787   1.122   5.281 -0.4785  0.2617  0.1620
   26CHL1   C15 1868   6.989   1.176   5.289  0.2401  0.0959 -0.5580
   26CHL1  H15A 1869   7.050   1.259   5.331 -1.4828  0.7964  0.6584
   26CHL1  H15B 1870   7.024   1.083   5.339  0.8696  1.0920  0.9503
   26CHL1   C16 1871   7.012   1.163   5.139 -0.3249 -0.3852  0.0824
   26CHL1  H16A 1872   7.110   1.212   5.122 -0.6148  1.5235  3.1828
   26CHL1  H16B 1873   7.008   1.055   5.114 -0.5114 -0.8073  1.8321
   26CHL1   C17 1874   6.882   1.230   5.065  0.3626  0.5644 -0.5891
   26CHL1   H17 1875   6.814   1.144   5.046 -2.2150  2.2919  0.2493
   26CHL1   C13 1876   6.809   1.304   5.180 -0.0394 -0.1209  1.1838
   26CHL1   C18 1877   6.865   1.445   5.188 -0.5809  0.5577 -0.6083
   26CHL1  H18A 1878   6.975   1.431   5.177 -0.7639 -0.3760 -1.4213
   26CHL1  H18B 1879   6.830   1.494   5.095 -0.2521 -0.9577 -1.5715
   26CHL1  H18C 1880   6.830   1.500   5.278  0.6861  1.0761 -0.4080
   26CHL1   C12 1881   6.653   1.304   5.169  0.1740  0.4122 -0.4887
   26CHL1  H12A 1882   6.624   1.360   5.077  0.9057  1.0640 -0.3395
   26CHL1  H12B 1883   6.621   1.203   5.136  1.8909  0.2103 -1.7119
   26CHL1   C11 1884   6.587   1.359   5.296  0.2033  0.3099 -0.2589
   26CHL1  H11A 1885   6.617   1.466   5.299  1.9060 -0.1098 -0.9944
   26CHL1  H11B 1886   6.477   1.352   5.305 -0.2308  2.5970 -2.5031
   26CHL1    C9 1887   6.639   1.282   5.421  0.2982 -0.4315 -0.3274
   26CHL1    H9 1888   6.604   1.178   5.407  1.0888 -0.6025 -1.0939
   26CHL1   C10 1889   6.561   1.325   5.550  0.5990  0.7714 -0.0399
   26CHL1   C19 1890   6.553   1.476   5.551 -0.1771 -0.0866  0.4738
   26CHL1  H19A 1891   6.651   1.525   5.534  0.2966 -1.2688 -0.2919
   26CHL1  H19B 1892   6.492   1.510   5.465  1.3666 -0.1022 -0.6730
   26CHL1  H19C 1893   6.500   1.505   5.645  0.2838 -0.0825  0.7384
   26CHL1    C1 1894   6.413   1.269   5.536  0.8192  0.3027 -0.6469
   26CHL1   H1A 1895   6.359   1.327   5.458 -0.1288  1.6518  0.9630
   26CHL1   H1B 1896   6.430   1.160   5.519 -0.8327 -0.0237 -0.4683
   26CHL1    C2 1897   6.334   1.288   5.669  0.0229  0.1534 -0.2300
   26CHL1   H2A 1898   6.239   1.233   5.657  0.9134 -1.0549 -2.2150
   26CHL1   H2B 1899   6.293   1.391   5.684  0.4679  0.1148  1.4932
   26CHL1   C20 1900   6.910   1.301   4.927  0.5274  0.5360  0.1505
   26CHL1   H20 1901   6.973   1.393   4.926  2.8943 -0.9859  1.2415
   26CHL1   C21 1902   6.770   1.326   4.850 -0.5764 -0.7362 -0.0879
   26CHL1  H21A 1903   6.714   1.408   4.900 -0.4974 -0.2375 -0.8204
   26CHL1  H21B 1904   6.710   1.232   4.858  2.2083 -2.8122 -1.6450
   26CHL1  H21C 1905   6.782   1.345   4.742 -0.1075  1.2458  0.2703
   26CHL1   C22 1906   6.997   1.213   4.846  0.3414  0.0704 -0.3996
   26CHL1  H22A 1907   7.085   1.181   4.906  0.5402  1.0350 -0.1529
   26CHL1  H22B 1908   6.948   1.117   4.820  0.3730 -0.4854  1.4393
   26CHL1   C23 1909   7.055   1.277   4.720  0.2827  0.1326 -0.4267
   26CHL1  H23A 1910   6.965   1.294   4.657 -0.6492  2.0705  1.3139
   26CHL1  H23B 1911   7.102   1.373   4.748 -0.3445  0.5779 -0.8674
   26CHL1   C24 1912   7.159   1.194   4.647 -0.2148  1.1654  0.5106
   26CHL1  H24A 1913   7.238   1.168   4.721  1.9937  0.0730 -2.0566
   26CHL1  H24B 1914   7.120   1.097   4.608  0.3721  0.1756  2.2424
   26CHL1   C25 1915   7.234   1.269   4.537  0.0501 -0.4580  0.4225
   26CHL1   H25 1916   7.257   1.374   4.565 -0.5704 -0.3075  0.3907
   26CHL1   C26 1917   7.367   1.190   4.503  0.7315 -0.3504 -0.2135
   26CHL1  H26A 1918   7.452   1.217   4.569  0.4019  0.5351 -0.1374
   26CHL1  H26B 1919   7.361   1.079   4.495 -0.3693 -0.3149 -0.1121
   26CHL1  H26C 1920   7.398   1.231   4.404 -1.5169 -0.7441 -1.1656
   26CHL1   C27 1921   7.137   1.276   4.420  0.1587  0.2877 -0.0435
   26CHL1  H27A 1922   7.171   1.350   4.345 -0.4138  1.8954  1.2144
   26CHL1  H27B 1923   7.137   1.180   4.364  1.6308 -0.8680  1.8206
   26CHL1  H27C 1924   7.032   1.294   4.452  0.4733 -1.7333  2.4845
   27CHL1    C3 1925   0.294   0.892   6.008  0.1420 -0.3277  0.6202
   27CHL1    H3 1926   0.377   0.819   6.013  0.7598  0.3700  0.8257
   27CHL1    O3 1927   0.244   0.937   6.140 -0.4006  0.5250  0.5704
   27CHL1   H3' 1928   0.309   0.995   6.181  2.0686 -0.3964 -1.6851
   27CHL1    C4 1929   0.345   1.012   5.926 -0.1994  0.5739  0.0168
   27CHL1   H4A 1930   0.269   1.092   5.921  1.2179  1.8702 -3.4371
   27CHL1   H4B 1931   0.435   1.049   5.980 -0.1904 -1.0583  1.2040
   27CHL1    C5 1932   0.374   0.968   5.782  0.2118 -0.0064  0.2852
   27CHL1    C6 1933   0.494   0.996   5.722 -1.1603  0.3667 -1.0643
   27CHL1    H6 1934   0.567   1.054   5.781 -1.3369 -1.6921  1.3905
   27CHL1    C7 1935   0.531   0.945   5.590 -0.4207 -0.5047  0.2353
   27CHL1   H7A 1936   0.604   1.018   5.550  0.1614 -1.6941 -0.9379
   27CHL1   H7B 1937   0.587   0.851   5.610 -0.6853 -0.1016  3.3592
   27CHL1    C8 1938   0.408   0.919   5.509 -0.0169  0.3426  0.5887
   27CHL1    H8 1939   0.358   1.013   5.480 -1.1950 -0.7586 -1.1058
   27CHL1   C14 1940   0.444   0.848   5.377  0.5528 -0.0932 -0.1780
   27CHL1   H14 1941   0.482   0.748   5.409 -1.3531 -0.8998 -0.3119
   27CHL1   C15 1942   0.569   0.895   5.303  0.5036 -0.2120  0.2846
   27CHL1  H15A 1943   0.572   1.004   5.325  1.2606 -0.1865  0.0620
   27CHL1  H15B 1944   0.662   0.850   5.344  0.6672 -1.9151 -1.8183
   27CHL1   C16 1945   0.541   0.871   5.157 -0.6419  1.1477  0.2335
   27CHL1  H16A 1946   0.515   0.965   5.103  0.2838  1.3171  0.0668
   27CHL1  H16B 1947   0.628   0.829   5.103 -0.8583  1.5386 -0.4294
   27CHL1   C17 1948   0.418   0.771   5.164  0.1468  0.2846  0.0435
   27CHL1   H17 1949   0.461   0.674   5.198  1.4807  1.5089  1.9966
   27CHL1   C13 1950   0.330   0.818   5.280 -0.4339  0.3027  0.2236
   27CHL1   C18 1951   0.260   0.951   5.243 -0.1558 -0.1473  0.1965
   27CHL1  H18A 1952   0.221   1.016   5.324 -2.8501 -3.2463  1.6325
   27CHL1  H18B 1953   0.314   1.009   5.165 -0.7490  0.4066  0.1866
   27CHL1  H18C 1954   0.164   0.924   5.194 -0.6931  0.3666  0.9437
   27CHL1   C12 1955   0.241   0.719   5.354 -0.8136 -0.1822  0.0834
   27CHL1  H12A 1956   0.157   0.682   5.290  1.4407 -1.0476 -2.5764
   27CHL1  H12B 1957   0.301   0.631   5.384 -0.7790 -0.2710 -0.2358
   27CHL1   C11 1958   0.189   0.778   5.484 -0.3224  0.1043 -0.3292
   27CHL1  H11A 1959   0.121   0.858   5.448  0.5194 -0.2544 -2.9124
   27CHL1  H11B 1960   0.131   0.699   5.535 -0.9936  0.1024 -1.0713
   27CHL1    C9 1961   0.305   0.828   5.581 -0.3908  0.3002  0.3910
   27CHL1    H9 1962   0.346   0.727   5.600 -2.6760 -0.6853  0.4080
   27CHL1   C10 1963   0.259   0.886   5.713 -0.4437 -0.3115 -0.5802
   27CHL1   C19 1964   0.148   0.989   5.679  0.2246  0.3276  0.3450
   27CHL1  H19A 1965   0.128   1.047   5.772 -1.1460  1.8673 -0.8341
   27CHL1  H19B 1966   0.191   1.063   5.608  1.1017  0.4900  1.0350
   27CHL1  H19C 1967   0.057   0.947   5.630  0.9168  0.6563 -1.2786
   27CHL1    C1 1968   0.210   0.774   5.809 -1.0789 -0.5007  0.1881
   27CHL1   H1A 1969   0.120   0.722   5.769 -0.8317 -2.0674  1.5458
   27CHL1   H1B 1970   0.286   0.694   5.819 -0.4941 -0.5364 -3.3665
   27CHL1    C2 1971   0.180   0.824   5.943  0.1613 -0.2417 -0.2782
   27CHL1   H2A 1972   0.150   0.741   6.011 -1.5514  1.3094  0.9708
   27CHL1   H2B 1973   0.091   0.891   5.940 -0.0362 -0.4433  0.7106
   27CHL1   C20 1974   0.356   0.756   5.024 -0.2145 -0.7018  0.0135
   27CHL1   H20 1975   0.345   0.854   4.974 -0.7548 -0.6766  0.1784
   27CHL1   C21 1976   0.225   0.677   5.031 -0.0743 -1.0102  0.4376
   27CHL1  H21A 1977   0.205   0.662   4.923  1.6635 -0.0960 -0.0497
   27CHL1  H21B 1978   0.147   0.728   5.090 -0.5702 -0.8039 -0.3863
   27CHL1  H21C 1979   0.241   0.577   5.076  0.1035 -0.7142  1.0469
   27CHL1   C22 1980   0.454   0.688   4.926  0.4449  0.3466 -0.9967
   27CHL1  H22A 1981   0.555   0.734   4.924 -0.0892  1.6238 -0.1226
   27CHL1  H22B 1982   0.468   0.584   4.963 -2.9359 -0.3435 -1.3259
   27CHL1   C23 1983   0.429   0.690   4.777  0.2024 -0.3615  0.1205
   27CHL1  H23A 1984   0.329   0.644   4.764  0.2215 -0.4315  0.2196
   27CHL1  H23B 1985   0.422   0.796   4.742 -0.0817  0.1219  1.5711
   27CHL1   C24 1986   0.532   0.607   4.704 -0.3113  0.5101 -0.1571
   27CHL1  H24A 1987   0.633   0.633   4.741 -0.1608 -0.4140  0.1194
   27CHL1  H24B 1988   0.507   0.501   4.724 -1.5621  0.5932 -1.1703
   27CHL1   C25 1989   0.520   0.615   4.553 -0.3513 -1.0353 -0.6518
   27CHL1   H25 1990   0.525   0.720   4.519 -0.6400 -1.5833 -2.4861
   27CHL1   C26 1991   0.638   0.541   4.488 -0.5816  0.3707 -0.1226
   27CHL1  H26A 1992   0.635   0.432   4.510  3.3287  0.2402  0.5527
   27CHL1  H26B 1993   0.619   0.551   4.379  0.8254  0.3952 -0.3873
   27CHL1  H26C 1994   0.738   0.589   4.497 -1.0827  1.4275 -0.0735
   27CHL1   C27 1995   0.385   0.564   4.492  0.0894 -1.5589 -0.4598
   27CHL1  H27A 1996   0.368   0.454   4.498 -3.6563 -1.0635  0.7041
   27CHL1  H27B 1997   0.303   0.620   4.540  1.3539 -0.3938  0.4104
   27CHL1  H27C 1998   0.380   0.595   4.386  2.5025 -0.1164 -0.2133
   28CHL1    C3 1999   0.061   0.297   5.845 -0.6477 -0.5661  0.1484
   28CHL1    H3 2000  -0.036   0.345   5.822 -2.3963 -4.3887 -1.1512
   28CHL1    O3 2001   0.080   0.308   5.988  0.4606  0.2443 -0.3175
   28CHL1   H3' 2002   0.165   0.263   5.988 -0.1452 -1.0129 -2.5240
   28CHL1    C4 2003   0.059   0.155   5.803 -0.5481  0.1718 -0.3769
   28CHL1   H4A 2004   0.151   0.098   5.829  0.9435  1.2904 -2.8776
   28CHL1   H4B 2005  -0.020   0.096   5.854  0.5946 -1.6100 -0.5960
   28CHL1    C5 2006   0.033   0.136   5.650  0.4173 -0.1363 -0.2028
   28CHL1    C6 2007  -0.073   0.061   5.609 -0.0744 -0.6468  0.1883
   28CHL1    H6 2008  -0.136   0.010   5.683 -0.8405  0.0098  0.0085
   28CHL1    C7 2009  -0.106   0.041   5.464  1.9227  0.3039  0.3004
   28CHL1   H7A 2010  -0.111  -0.067   5.435  0.8886  0.4561 -0.1325
   28CHL1   H7B 2011  -0.203   0.092   5.446  0.8893 -2.1767 -1.8498
   28CHL1    C8 2012  -0.004   0.098   5.372 -0.1419 -1.2502  0.1657
   28CHL1    H8 2013   0.076   0.021   5.365 -0.8437 -2.3536  2.9566
   28CHL1   C14 2014  -0.068   0.126   5.238 -0.6220  0.1255  1.0631
   28CHL1   H14 2015  -0.148   0.198   5.263 -1.9192 -0.7169 -0.4899
   28CHL1   C15 2016  -0.142   0.012   5.171  0.2189 -0.1847  0.3825
   28CHL1  H15A 2017  -0.086  -0.083   5.179 -1.5988 -1.2213  1.2287
   28CHL1  H15B 2018  -0.234   0.007   5.233  1.1054  3.0218  2.2008
   28CHL1   C16 2019  -0.175   0.068   5.033  0.4836  0.0214 -0.2029
   28CHL1  H16A 2020  -0.152  -0.014   4.962  2.3185 -0.4650  0.8922
   28CHL1  H16B 2021  -0.281   0.096   5.014  0.6910 -0.4424 -2.2189
   28CHL1   C17 2022  -0.077   0.187   5.018 -0.0650  0.3627 -0.2854
   28CHL1   H17 2023  -0.132   0.276   5.055  1.2187  1.0527 -0.0091
   28CHL1   C13 2024   0.028   0.172   5.125 -0.9146 -0.2304  0.2880
   28CHL1   C18 2025   0.141   0.070   5.089 -0.2627 -0.3827 -0.0314
   28CHL1  H18A 2026   0.110  -0.022   5.036  0.6968 -0.2254 -0.9097
   28CHL1  H18B 2027   0.220   0.114   5.023  0.3716 -1.4011  0.0257
   28CHL1  H18C 2028   0.194   0.035   5.180  0.2058 -3.2847 -1.3027
   28CHL1   C12 2029   0.093   0.301   5.166 -0.1810  0.2714  0.7993
   28CHL1  H12A 2030   0.163   0.341   5.090 -0.9852 -0.8515 -0.5752
   28CHL1  H12B 2031   0.022   0.386   5.179  0.2924  0.9993 -1.0420
   28CHL1   C11 2032   0.153   0.283   5.311  0.4641  0.3499 -0.0245
   28CHL1  H11A 2033   0.250   0.230   5.299  1.0411  1.0284  1.3087
   28CHL1  H11B 2034   0.189   0.385   5.337  3.1738 -0.0201 -1.9988
   28CHL1    C9 2035   0.060   0.228   5.422 -0.0668 -0.2461  0.7845
   28CHL1    H9 2036  -0.024   0.300   5.436  0.4296  0.1100  2.0608
   28CHL1   C10 2037   0.125   0.211   5.561 -0.3178 -0.3682  0.4362
   28CHL1   C19 2038   0.268   0.139   5.551  0.4057 -0.2340  0.0685
   28CHL1  H19A 2039   0.258   0.044   5.495  0.4236 -0.9278  1.1981
   28CHL1  H19B 2040   0.336   0.203   5.491 -0.9297  2.3504  1.1413
   28CHL1  H19C 2041   0.317   0.138   5.651 -1.2113  0.3875  0.9173
   28CHL1    C1 2042   0.153   0.357   5.616 -0.6711  0.0264 -0.5399
   28CHL1   H1A 2043   0.233   0.404   5.555  0.3610 -0.8187  0.0961
   28CHL1   H1B 2044   0.060   0.414   5.598 -0.2177  0.5688 -1.1718
   28CHL1    C2 2045   0.182   0.364   5.765  0.0093  0.1220 -0.5496
   28CHL1   H2A 2046   0.207   0.468   5.794  1.0074  0.2105 -1.6607
   28CHL1   H2B 2047   0.280   0.317   5.788 -0.1510  0.1901  0.3004
   28CHL1   C20 2048  -0.063   0.233   4.872  0.3552  0.0665  0.1385
   28CHL1   H20 2049  -0.161   0.244   4.823 -1.0816 -4.3450  1.5649
   28CHL1   C21 2050   0.012   0.126   4.785  0.7639 -0.1067 -0.2650
   28CHL1  H21A 2051  -0.010   0.140   4.677 -0.8076  1.0699  0.1755
   28CHL1  H21B 2052  -0.010   0.025   4.825  0.9792  0.2688  0.8520
   28CHL1  H21C 2053   0.121   0.142   4.802  0.7945 -0.3037 -0.2774
   28CHL1   C22 2054   0.005   0.369   4.864  0.0161 -0.0238 -0.0138
   28CHL1  H22A 2055  -0.053   0.438   4.930 -1.5796 -1.0088 -0.3303
   28CHL1  H22B 2056   0.110   0.371   4.901 -0.1621 -0.8539  0.5540
   28CHL1   C23 2057   0.007   0.435   4.719  0.2095 -0.0780 -0.3576
   28CHL1  H23A 2058   0.055   0.534   4.733  2.6099 -1.0202 -1.3907
   28CHL1  H23B 2059   0.067   0.369   4.652  0.7549  0.7213 -0.6795
   28CHL1   C24 2060  -0.128   0.445   4.652 -0.0314  0.1141  1.1339
   28CHL1  H24A 2061  -0.177   0.347   4.633 -1.7440  0.9606  1.0157
   28CHL1  H24B 2062  -0.197   0.512   4.708  0.5312  1.2358  0.5269
   28CHL1   C25 2063  -0.133   0.520   4.513  0.1027  0.2929  1.1986
   28CHL1   H25 2064  -0.109   0.628   4.523  1.2226  0.0262  1.4959
   28CHL1   C26 2065  -0.036   0.448   4.420 -0.8822  0.1925 -0.4096
   28CHL1  H26A 2066   0.068   0.454   4.457 -1.1959  0.3657  0.4815
   28CHL1  H26B 2067  -0.052   0.339   4.402  0.2715 -0.1865  0.7034
   28CHL1  H26C 2068  -0.031   0.504   4.325  0.4955 -0.1028 -0.5322
   28CHL1   C27 2069  -0.276   0.510   4.453  0.2456  0.2842  0.2350
   28CHL1  H27A 2070  -0.315   0.406   4.453  0.6188  0.1378  1.2044
   28CHL1  H27B 2071  -0.348   0.572   4.511 -0.2281  0.2011 -0.2510
   28CHL1  H27C 2072  -0.281   0.543   4.347 -0.6185 -0.5712 -0.0078
   29CHL1    C3 2073   3.892   3.109   2.667 -0.5106 -0.0722  0.2730
   29CHL1    H3 2074   3.993   3.117   2.712 -0.9260 -1.5828  1.5879
   29CHL1    O3 2075   3.887   3.069   2.535  0.6914 -0.1312  0.0092
   29CHL1   H3' 2076   3.944   3.128   2.485 -0.3967 -0.4152 -1.6779
   29CHL1    C4 2077   3.815   3.004   2.747  0.5580  0.4933 -0.0231
   29CHL1   H4A 2078   3.715   2.986   2.702  0.6288 -1.3940  0.4755
   29CHL1   H4B 2079   3.869   2.907   2.757 -2.2190 -1.2460 -0.7168
   29CHL1    C5 2080   3.786   3.043   2.892  0.6573  0.0204  0.7293
   29CHL1    C6 2081   3.835   2.974   2.994  0.1098  0.2751  1.0176
   29CHL1    H6 2082   3.895   2.883   2.979 -1.4840 -0.5045 -1.1548
   29CHL1    C7 2083   3.806   3.019   3.133  0.6491  0.1600 -0.6599
   29CHL1   H7A 2084   3.789   2.930   3.197  1.4129  0.3635 -0.1622
   29CHL1   H7B 2085   3.887   3.079   3.179  0.2361 -0.1861  0.5583
   29CHL1    C8 2086   3.679   3.109   3.153 -0.4376  0.0767  0.0088
   29CHL1    H8 2087   3.594   3.050   3.112 -0.1824  1.7070 -3.1682
   29CHL1   C14 2088   3.659   3.155   3.294 -0.2232  0.2308  0.6654
   29CHL1   H14 2089   3.747   3.213   3.331  0.8479 -1.8769  1.6138
   29CHL1   C15 2090   3.643   3.048   3.409 -0.2821 -0.2316 -0.0867
   29CHL1  H15A 2091   3.571   2.967   3.381  0.2411 -0.3364 -1.1956
   29CHL1  H15B 2092   3.744   3.011   3.436  0.1603  0.4281 -0.8157
   29CHL1   C16 2093   3.589   3.127   3.523  0.4673  0.5476 -0.5524
   29CHL1  H16A 2094   3.510   3.073   3.580  0.5704 -0.5577 -1.4270
   29CHL1  H16B 2095   3.673   3.139   3.595  0.7544  0.8247 -0.9294
   29CHL1   C17 2096   3.546   3.266   3.466  0.5534  0.5599 -0.3302
   29CHL1   H17 2097   3.624   3.343   3.490  0.5422  1.1317 -2.0154
   29CHL1   C13 2098   3.542   3.250   3.310  0.6874  0.4015 -0.1467
   29CHL1   C18 2099   3.411   3.183   3.261 -0.9564 -0.2028  0.2364
   29CHL1  H18A 2100   3.382   3.108   3.337  1.0581 -0.2257  1.0357
   29CHL1  H18B 2101   3.330   3.259   3.267 -0.7037 -0.0446  2.2766
   29CHL1  H18C 2102   3.416   3.132   3.162 -1.3089 -2.1761  1.1981
   29CHL1   C12 2103   3.574   3.377   3.228  0.4540 -0.8350  0.1307
   29CHL1  H12A 2104   3.492   3.452   3.232  0.6619 -0.5510 -0.7167
   29CHL1  H12B 2105   3.664   3.428   3.268 -0.2720 -1.6438  3.0117
   29CHL1   C11 2106   3.591   3.340   3.076 -0.5133  0.0014 -1.0955
   29CHL1  H11A 2107   3.489   3.325   3.034 -0.5146  1.4141 -1.6588
   29CHL1  H11B 2108   3.633   3.429   3.025  0.1052  0.5250  0.2935
   29CHL1    C9 2109   3.694   3.224   3.059  0.0337 -0.5740  0.0068
   29CHL1    H9 2110   3.795   3.270   3.072 -0.7032  0.7412  1.3810
   29CHL1   C10 2111   3.708   3.174   2.907  0.7808 -0.1582  0.0754
   29CHL1   C19 2112   3.566   3.162   2.847 -0.0613 -0.0772 -0.0554
   29CHL1  H19A 2113   3.503   3.253   2.849 -0.8576 -0.6239  2.5801
   29CHL1  H19B 2114   3.563   3.117   2.745  2.3333 -0.5654  0.0319
   29CHL1  H19C 2115   3.514   3.088   2.911 -0.6992  0.4348  0.0248
   29CHL1    C1 2116   3.789   3.288   2.833 -0.8284  0.4983 -0.1596
   29CHL1   H1A 2117   3.728   3.380   2.831 -1.0489  0.3805  0.7663
   29CHL1   H1B 2118   3.882   3.314   2.889 -0.9971 -0.6705  0.7051
   29CHL1    C2 2119   3.819   3.244   2.679  0.3944 -0.1293 -0.0345
   29CHL1   H2A 2120   3.879   3.330   2.641  0.6285 -1.0608 -1.9050
   29CHL1   H2B 2121   3.721   3.231   2.627  0.6961  1.4018 -1.0532
   29CHL1   C20 2122   3.413   3.320   3.531 -0.0611  0.4738 -0.5410
   29CHL1   H20 2123   3.337   3.242   3.510 -0.5052  0.8407 -0.3293
   29CHL1   C21 2124   3.376   3.460   3.477 -0.1072 -0.4945 -0.1732
   29CHL1  H21A 2125   3.351   3.452   3.369  0.8532  0.3212 -0.4642
   29CHL1  H21B 2126   3.451   3.539   3.495 -1.1471  0.9682 -1.9405
   29CHL1  H21C 2127   3.286   3.494   3.532  0.1316 -1.0559  0.5905
   29CHL1   C22 2128   3.443   3.327   3.686 -0.1818  0.0504  0.6728
   29CHL1  H22A 2129   3.465   3.225   3.723 -0.0515 -1.0014 -2.0226
   29CHL1  H22B 2130   3.531   3.392   3.708  1.2654 -2.2612  2.1837
   29CHL1   C23 2131   3.319   3.374   3.762  0.1817  0.1310  0.7207
   29CHL1  H23A 2132   3.315   3.484   3.748 -3.6788 -0.0093 -0.2748
   29CHL1  H23B 2133   3.230   3.330   3.713  1.2710  1.0431 -2.3399
   29CHL1   C24 2134   3.323   3.345   3.911 -0.2973  0.2206 -0.8617
   29CHL1  H24A 2135   3.353   3.239   3.924  2.6050  1.0655 -0.0946
   29CHL1  H24B 2136   3.406   3.411   3.945 -0.5229 -0.6879  1.7025
   29CHL1   C25 2137   3.190   3.384   3.985  0.4076 -0.0479  0.4508
   29CHL1   H25 2138   3.170   3.485   3.943  0.7569  0.0600  0.5456
   29CHL1   C26 2139   3.071   3.292   3.947 -0.0249 -0.2424 -0.5553
   29CHL1  H26A 2140   3.044   3.308   3.841 -1.3292 -1.5451 -0.4459
   29CHL1  H26B 2141   3.105   3.186   3.956 -1.4141 -0.7473 -1.0578
   29CHL1  H26C 2142   2.985   3.294   4.017  1.7339  0.5080  1.7089
   29CHL1   C27 2143   3.212   3.361   4.132  0.2085 -0.4391  0.4785
   29CHL1  H27A 2144   3.199   3.256   4.167  1.0847 -0.6451  0.2155
   29CHL1  H27B 2145   3.315   3.398   4.152 -0.7446  2.8315 -0.0749
   29CHL1  H27C 2146   3.137   3.423   4.185  0.1475 -0.3732  0.3159
   30CHL1    C3 2147   2.745   3.089   2.587 -0.2784 -0.4854  0.1060
   30CHL1    H3 2148   2.662   3.021   2.616  0.7134 -1.9372 -0.4112
   30CHL1    O3 2149   2.748   3.069   2.448  0.3451 -0.1352  0.0070
   30CHL1   H3' 2150   2.839   3.083   2.420 -0.1385  1.9205 -0.7534
   30CHL1    C4 2151   2.697   3.227   2.620 -0.0501  0.1498 -0.0421
   30CHL1   H4A 2152   2.763   3.302   2.571 -1.0001  0.7925 -0.3569
   30CHL1   H4B 2153   2.595   3.230   2.575 -0.3092 -0.9875  0.4335
   30CHL1    C5 2154   2.698   3.264   2.766  0.1953 -0.0014 -0.3314
   30CHL1    C6 2155   2.585   3.313   2.827 -0.0529  1.0686  0.1930
   30CHL1    H6 2156   2.490   3.311   2.772 -1.0479 -2.8088  1.7149
   30CHL1    C7 2157   2.593   3.351   2.967  0.1578  0.8202  0.1094
   30CHL1   H7A 2158   2.538   3.447   2.980 -0.7018  0.4041 -0.3670
   30CHL1   H7B 2159   2.539   3.282   3.036 -0.6179  0.7331 -0.5686
   30CHL1    C8 2160   2.736   3.380   3.023 -0.5583  0.8255  0.6538
   30CHL1    H8 2161   2.773   3.478   2.986  1.3760 -0.0435  0.1790
   30CHL1   C14 2162   2.716   3.387   3.177 -0.9351  0.5981 -0.5951
   30CHL1   H14 2163   2.681   3.284   3.202 -0.5347  0.3488 -1.0456
   30CHL1   C15 2164   2.606   3.480   3.239  0.7002  0.2320 -0.1650
   30CHL1  H15A 2165   2.602   3.582   3.196  1.8083  1.4398  2.3755
   30CHL1  H15B 2166   2.508   3.429   3.226  0.7955 -0.3459  1.2305
   30CHL1   C16 2167   2.636   3.478   3.386 -0.1377 -0.2341 -0.0059
   30CHL1  H16A 2168   2.633   3.582   3.425 -1.1002  0.7350 -2.4881
   30CHL1  H16B 2169   2.554   3.424   3.439  0.0880 -0.4790  0.0978
   30CHL1   C17 2170   2.770   3.402   3.404 -0.7421  0.4978 -0.2560
   30CHL1   H17 2171   2.746   3.294   3.417 -0.1684  0.1698 -1.7599
   30CHL1   C13 2172   2.843   3.408   3.266  0.3651 -0.7025  0.2657
   30CHL1   C18 2173   2.907   3.549   3.244 -0.0702  0.2522 -0.1010
   30CHL1  H18A 2174   2.998   3.552   3.307  0.5461 -1.1849 -0.8725
   30CHL1  H18B 2175   2.952   3.561   3.143  0.7641  0.0134  0.2376
   30CHL1  H18C 2176   2.833   3.630   3.259  0.0116  0.2212  0.4763
   30CHL1   C12 2177   2.937   3.299   3.226 -0.1128  0.6401  0.2837
   30CHL1  H12A 2178   3.031   3.321   3.281  0.1915  3.1824 -1.1129
   30CHL1  H12B 2179   2.901   3.205   3.274  0.7919  0.9439  1.6142
   30CHL1   C11 2180   2.958   3.279   3.074  0.0691 -0.1717  0.9216
   30CHL1  H11A 2181   3.014   3.367   3.037 -0.4459 -0.9707 -2.0124
   30CHL1  H11B 2182   3.017   3.187   3.058 -3.5229 -2.3803 -0.7501
   30CHL1    C9 2183   2.829   3.265   2.985 -0.2604  0.5685  0.4955
   30CHL1    H9 2184   2.775   3.182   3.036 -1.1280  0.6809 -0.2133
   30CHL1   C10 2185   2.832   3.245   2.836  0.3194 -0.5324 -0.1829
   30CHL1   C19 2186   2.929   3.346   2.769 -0.0402 -0.1728 -0.5676
   30CHL1  H19A 2187   3.023   3.329   2.825  0.3130  0.0756 -1.0721
   30CHL1  H19B 2188   2.958   3.319   2.665  2.8389 -2.1203  0.6395
   30CHL1  H19C 2189   2.900   3.453   2.783  1.7470  0.5462 -2.0068
   30CHL1    C1 2190   2.876   3.102   2.804  0.0640 -0.0862 -0.0562
   30CHL1   H1A 2191   2.976   3.089   2.849 -0.3013 -0.3352  0.6984
   30CHL1   H1B 2192   2.813   3.024   2.853  1.7401 -0.4230  1.6799
   30CHL1    C2 2193   2.878   3.058   2.654  0.2683 -0.6137  0.1376
   30CHL1   H2A 2194   2.904   2.950   2.648  2.4608 -0.0946 -0.7144
   30CHL1   H2B 2195   2.960   3.121   2.612 -0.5103  1.3825  1.4708
   30CHL1   C20 2196   2.856   3.448   3.526  0.3342 -0.7771 -0.4432
   30CHL1   H20 2197   2.878   3.553   3.500 -0.1832 -1.1915 -2.7052
   30CHL1   C21 2198   2.985   3.365   3.536 -0.2121 -0.6903  0.0772
   30CHL1  H21A 2199   3.057   3.387   3.455 -0.3155 -1.0373 -0.1090
   30CHL1  H21B 2200   2.954   3.259   3.523  0.1478 -1.1366  2.3367
   30CHL1  H21C 2201   3.034   3.381   3.635  2.5684 -1.7625 -1.0431
   30CHL1   C22 2202   2.783   3.448   3.662  0.1338  0.0585  0.0348
   30CHL1  H22A 2203   2.674   3.460   3.642  0.1580 -1.0850 -0.8680
   30CHL1  H22B 2204   2.810   3.353   3.713 -1.4431 -0.4848 -0.0923
   30CHL1   C23 2205   2.835   3.555   3.763  0.2513  0.3102 -0.0279
   30CHL1  H23A 2206   2.943   3.535   3.782 -0.1627 -0.0142  2.2906
   30CHL1  H23B 2207   2.824   3.662   3.735  2.8585  0.3724 -1.1716
   30CHL1   C24 2208   2.767   3.522   3.897 -0.5830  0.0661  0.2639
   30CHL1  H24A 2209   2.656   3.536   3.899 -0.9454 -1.9605  3.4970
   30CHL1  H24B 2210   2.791   3.414   3.906  0.5693  0.0551 -2.2318
   30CHL1   C25 2211   2.832   3.597   4.008 -0.3616  0.2674  0.2016
   30CHL1   H25 2212   2.942   3.595   3.990 -0.5205  2.6402 -1.3739
   30CHL1   C26 2213   2.791   3.742   4.030 -0.5861 -0.2530  0.1424
   30CHL1  H26A 2214   2.680   3.738   4.042 -0.9703  2.5589 -1.7019
   30CHL1  H26B 2215   2.833   3.778   4.127  3.2252 -0.9396 -1.0924
   30CHL1  H26C 2216   2.825   3.819   3.958 -0.6664  0.6900  1.0865
   30CHL1   C27 2217   2.785   3.519   4.136 -0.3008  0.1526 -0.3795
   30CHL1  H27A 2218   2.839   3.563   4.222 -0.4242 -0.9489  0.2824
   30CHL1  H27B 2219   2.676   3.508   4.155  0.0438 -2.8510  0.2733
   30CHL1  H27C 2220   2.825   3.416   4.131  0.8224  0.4262  1.7365
   31CHL1    C3 2221   3.390   4.765   2.637  0.1724 -0.5736 -0.6474
   31CHL1    H3 2222   3.331   4.849   2.681  1.1241 -0.1257 -0.1953
   31CHL1    O3 2223   3.342   4.742   2.507 -0.0220 -0.4984  0.4818
   31CHL1   H3' 2224   3.347   4.826   2.462 -2.1644 -1.3509 -1.5907
   31CHL1    C4 2225   3.540   4.804   2.627  0.4949 -0.4581  0.0178
   31CHL1   H4A 2226   3.601   4.727   2.574  1.5945 -0.1251  0.7679
   31CHL1   H4B 2227   3.552   4.890   2.558 -1.0708  0.7402  1.1824
   31CHL1    C5 2228   3.589   4.831   2.766  0.3382  0.3516  0.3735
   31CHL1    C6 2229   3.645   4.947   2.797  0.3784 -0.2880 -0.5795
   31CHL1    H6 2230   3.668   5.026   2.724  2.1842  0.6270  0.8908
   31CHL1    C7 2231   3.687   4.975   2.937 -0.0313 -0.0363  0.0231
   31CHL1   H7A 2232   3.782   5.032   2.942  0.9468 -1.6792  1.3138
   31CHL1   H7B 2233   3.617   5.048   2.983  0.7049  0.2529  0.7206
   31CHL1    C8 2234   3.710   4.845   3.025 -0.3753 -0.1711  0.0156
   31CHL1    H8 2235   3.801   4.796   2.985  1.2715  0.5148  2.6630
   31CHL1   C14 2236   3.734   4.881   3.171 -0.3594  0.7891  0.2433
   31CHL1   H14 2237   3.643   4.941   3.194 -2.3684 -1.5061 -1.2698
   31CHL1   C15 2238   3.856   4.972   3.205 -0.3034 -0.6788 -0.4323
   31CHL1  H15A 2239   3.942   4.916   3.163 -0.4571 -2.4692  1.4390
   31CHL1  H15B 2240   3.850   5.074   3.162  0.8081 -1.5565 -2.8769
   31CHL1   C16 2241   3.868   4.962   3.360  0.2168 -0.2424  0.1356
   31CHL1  H16A 2242   3.973   4.936   3.388 -0.5956 -2.4094  1.3351
   31CHL1  H16B 2243   3.834   5.054   3.412 -0.3818 -0.1514 -0.4032
   31CHL1   C17 2244   3.760   4.852   3.410  0.2188  0.1831  0.0170
   31CHL1   H17 2245   3.670   4.906   3.445  1.8465  1.8162  1.9619
   31CHL1   C13 2246   3.738   4.772   3.279  0.0635  0.4408  0.3595
   31CHL1   C18 2247   3.859   4.682   3.253 -0.0061 -0.3165 -0.0904
   31CHL1  H18A 2248   3.879   4.645   3.150  2.9686  0.0934  0.2388
   31CHL1  H18B 2249   3.957   4.730   3.273  0.9779 -1.9397 -0.8115
   31CHL1  H18C 2250   3.838   4.598   3.323 -0.4220 -0.1912 -0.0672
   31CHL1   C12 2251   3.614   4.675   3.269 -0.1416  0.4478 -0.0021
   31CHL1  H12A 2252   3.620   4.587   3.336  0.7278  1.4970  1.3680
   31CHL1  H12B 2253   3.532   4.745   3.296 -0.7411 -0.3652  0.3023
   31CHL1   C11 2254   3.585   4.628   3.126  0.2479 -0.4602  0.6046
   31CHL1  H11A 2255   3.669   4.565   3.090 -0.0345  0.0685 -1.0442
   31CHL1  H11B 2256   3.487   4.575   3.125  0.2189 -0.4657 -1.7879
   31CHL1    C9 2257   3.586   4.752   3.017 -0.2464  0.3361 -0.8982
   31CHL1    H9 2258   3.500   4.805   3.062  1.2553  1.5925  0.6150
   31CHL1   C10 2259   3.561   4.714   2.872  0.0824 -0.0771  0.4985
   31CHL1   C19 2260   3.646   4.590   2.847  0.5087 -0.5244 -0.0927
   31CHL1  H19A 2261   3.753   4.603   2.874  0.7086  1.5644 -1.6775
   31CHL1  H19B 2262   3.605   4.500   2.898 -3.4331  0.9328 -0.3664
   31CHL1  H19C 2263   3.661   4.571   2.739  0.9328  1.7183 -0.4605
   31CHL1    C1 2264   3.407   4.674   2.863 -0.2413 -0.1869  0.4018
   31CHL1   H1A 2265   3.382   4.598   2.940 -0.3599 -1.5153 -0.9102
   31CHL1   H1B 2266   3.358   4.770   2.892  0.1068  0.7146 -1.8532
   31CHL1    C2 2267   3.369   4.635   2.727 -0.1390 -0.0162  0.1827
   31CHL1   H2A 2268   3.259   4.620   2.724 -0.0367 -0.6054 -0.9348
   31CHL1   H2B 2269   3.426   4.550   2.685  1.2120  0.7876  0.3014
   31CHL1   C20 2270   3.815   4.781   3.535 -0.1477 -0.4804  0.6386
   31CHL1   H20 2271   3.915   4.744   3.504  0.9938  2.9350 -0.2779
   31CHL1   C21 2272   3.724   4.675   3.586 -0.1215  0.8264 -0.0852
   31CHL1  H21A 2273   3.773   4.617   3.667  1.0274  0.4684 -0.9998
   31CHL1  H21B 2274   3.707   4.591   3.516 -1.1426 -1.5822  2.8450
   31CHL1  H21C 2275   3.629   4.722   3.618 -1.6185 -0.3427 -2.5823
   31CHL1   C22 2276   3.846   4.877   3.646 -0.4112  0.0301  0.0086
   31CHL1  H22A 2277   3.886   4.975   3.612 -0.5992 -0.3665 -1.4215
   31CHL1  H22B 2278   3.749   4.897   3.697 -0.7628  1.7476 -1.2550
   31CHL1   C23 2279   3.953   4.821   3.744  0.1222  0.0966 -0.1899
   31CHL1  H23A 2280   3.924   4.723   3.788 -0.1865  1.5820  3.2744
   31CHL1  H23B 2281   4.047   4.815   3.686  0.0264  1.8017 -0.5675
   31CHL1   C24 2282   3.983   4.916   3.868 -0.1909  0.7232 -0.1773
   31CHL1  H24A 2283   4.013   5.015   3.827  1.7700 -0.2844 -1.3254
   31CHL1  H24B 2284   3.886   4.939   3.918 -1.1078 -0.6289 -1.2788
   31CHL1   C25 2285   4.093   4.852   3.956 -1.1177 -0.7460  0.1348
   31CHL1   H25 2286   4.064   4.746   3.970 -1.3793 -0.6158  0.6198
   31CHL1   C26 2287   4.234   4.853   3.896  0.3458  0.2949  0.5013
   31CHL1  H26A 2288   4.228   4.819   3.790 -0.7909  0.7174  0.4145
   31CHL1  H26B 2289   4.277   4.955   3.887 -2.0423  1.3798  0.6845
   31CHL1  H26C 2290   4.303   4.792   3.958 -0.0569  0.0586  0.7244
   31CHL1   C27 2291   4.092   4.919   4.092 -0.0182 -0.0954 -0.5160
   31CHL1  H27A 2292   3.993   4.937   4.139 -0.4390  0.8896 -1.7357
   31CHL1  H27B 2293   4.154   4.857   4.160 -0.3802  0.0318 -0.0653
   31CHL1  H27C 2294   4.146   5.016   4.087 -0.5067  0.1322 -1.6639
   32CHL1    C3 2295   3.454   2.942   2.466 -0.3178  0.2659 -0.7148
   32CHL1    H3 2296   3.514   3.026   2.508  0.3481  1.7980 -4.3548
   32CHL1    O3 2297   3.464   2.940   2.325  0.3323 -0.2169  0.2488
   32CHL1   H3' 2298   3.414   3.021   2.307  0.4786  0.0545  1.0331
   32CHL1    C4 2299   3.494   2.805   2.527  0.2071 -0.1197  0.2236
   32CHL1   H4A 2300   3.436   2.730   2.470 -0.4522  0.7261 -0.2496
   32CHL1   H4B 2301   3.601   2.788   2.504 -0.5710 -2.3883 -2.1725
   32CHL1    C5 2302   3.458   2.804   2.675 -0.4712 -0.0662 -0.0493
   32CHL1    C6 2303   3.549   2.766   2.766  0.2944 -0.1865  0.7371
   32CHL1    H6 2304   3.650   2.742   2.730  0.7905 -0.2275  2.1087
   32CHL1    C7 2305   3.517   2.745   2.902  0.4881  0.2898  0.4848
   32CHL1   H7A 2306   3.569   2.657   2.945  0.0483 -0.4577 -0.4782
   32CHL1   H7B 2307   3.556   2.835   2.954 -1.3926  0.7093  1.2374
   32CHL1    C8 2308   3.370   2.730   2.940  0.3354 -0.0204 -0.3213
   32CHL1    H8 2309   3.324   2.633   2.911  1.1982 -0.4691 -0.2160
   32CHL1   C14 2310   3.365   2.763   3.094  0.1957 -0.1377  0.3424
   32CHL1   H14 2311   3.402   2.868   3.091  1.0066 -0.3778 -3.1569
   32CHL1   C15 2312   3.455   2.685   3.195  0.5769 -0.0296 -0.1631
   32CHL1  H15A 2313   3.442   2.577   3.170 -2.5435  0.2026 -0.0311
   32CHL1  H15B 2314   3.560   2.718   3.186  1.2854 -1.6728  1.4176
   32CHL1   C16 2315   3.389   2.713   3.326  0.1383 -0.0990 -0.0152
   32CHL1  H16A 2316   3.354   2.614   3.362 -1.2041  0.3111 -0.1373
   32CHL1  H16B 2317   3.458   2.774   3.389 -2.0741  2.7408 -0.1318
   32CHL1   C17 2318   3.260   2.795   3.295  0.1545  0.7952 -0.3941
   32CHL1   H17 2319   3.290   2.902   3.295 -1.0684  1.1510  0.2622
   32CHL1   C13 2320   3.230   2.756   3.150  0.0247  0.9132 -0.5002
   32CHL1   C18 2321   3.168   2.617   3.139 -0.1734 -0.4514  0.5824
   32CHL1  H18A 2322   3.066   2.606   3.183 -0.7977 -0.3266 -0.7734
   32CHL1  H18B 2323   3.166   2.568   3.039  1.1943  0.2164  0.2097
   32CHL1  H18C 2324   3.229   2.536   3.185  1.7911  1.9874  2.5273
   32CHL1   C12 2325   3.157   2.866   3.081  0.5424 -0.6700  0.5392
   32CHL1  H12A 2326   3.060   2.867   3.134  0.4022  0.2253  0.2927
   32CHL1  H12B 2327   3.207   2.963   3.102  2.0435 -1.0602 -1.0003
   32CHL1   C11 2328   3.153   2.837   2.924  0.5726  0.5547  0.3714
   32CHL1  H11A 2329   3.104   2.740   2.903 -0.1378  0.8092  0.8080
   32CHL1  H11B 2330   3.095   2.916   2.870 -0.8464  0.7357  2.0808
   32CHL1    C9 2331   3.296   2.841   2.868  0.7709  0.2943 -0.1120
   32CHL1    H9 2332   3.328   2.940   2.906 -1.3773  0.5047  1.3652
   32CHL1   C10 2333   3.320   2.839   2.714  0.2948 -0.0293  0.9173
   32CHL1   C19 2334   3.210   2.731   2.656  0.5318 -0.0702 -0.0922
   32CHL1  H19A 2335   3.223   2.717   2.547  3.8037  1.2156  0.0180
   32CHL1  H19B 2336   3.232   2.638   2.712 -1.1329  1.0484  2.6443
   32CHL1  H19C 2337   3.105   2.762   2.672  0.0982 -2.0806  1.2482
   32CHL1    C1 2338   3.296   2.979   2.659  0.2115  0.0631  0.3982
   32CHL1   H1A 2339   3.192   3.003   2.688 -0.2037  0.4200 -1.2590
   32CHL1   H1B 2340   3.365   3.057   2.699  0.5722  0.1395 -0.3543
   32CHL1    C2 2341   3.313   2.978   2.506  0.6215  0.9256 -0.1371
   32CHL1   H2A 2342   3.289   3.083   2.478  1.2928  0.8530 -1.0283
   32CHL1   H2B 2343   3.240   2.905   2.464 -0.0452 -0.3998  3.0290
   32CHL1   C20 2344   3.153   2.770   3.394 -0.0035 -0.3543 -0.5515
   32CHL1   H20 2345   3.054   2.789   3.347 -0.2016  0.9601  0.3646
   32CHL1   C21 2346   3.154   2.891   3.485  0.0938  0.1098  0.4300
   32CHL1  H21A 2347   3.078   2.879   3.566 -0.6527  0.5078 -0.2026
   32CHL1  H21B 2348   3.132   2.985   3.431 -0.3007  0.1978  0.7400
   32CHL1  H21C 2349   3.260   2.889   3.520  0.7014  1.7190 -1.1942
   32CHL1   C22 2350   3.138   2.642   3.476  0.3945 -0.3446  0.0820
   32CHL1  H22A 2351   3.155   2.552   3.412  0.7456 -0.0103 -0.3030
   32CHL1  H22B 2352   3.200   2.624   3.566  0.5203 -2.7967 -0.4116
   32CHL1   C23 2353   2.992   2.627   3.519  0.2144  0.1487 -0.2759
   32CHL1  H23A 2354   2.953   2.721   3.564 -1.7576 -1.0430  0.6680
   32CHL1  H23B 2355   2.938   2.613   3.423 -2.5035  3.0812  0.6651
   32CHL1   C24 2356   2.970   2.504   3.609 -0.9040 -0.2991  1.1126
   32CHL1  H24A 2357   3.007   2.426   3.539 -1.1817 -0.5613  1.2567
   32CHL1  H24B 2358   3.042   2.501   3.693  0.1217  0.4671  0.2916
   32CHL1   C25 2359   2.829   2.469   3.655 -0.6679 -0.2388  0.0830
   32CHL1   H25 2360   2.767   2.479   3.563  0.3642 -0.1100 -0.6098
   32CHL1   C26 2361   2.818   2.326   3.704 -0.0083  0.0394  0.5185
   32CHL1  H26A 2362   2.852   2.254   3.625  0.0504  1.6441 -0.9854
   32CHL1  H26B 2363   2.874   2.302   3.797 -1.0110 -0.0208  1.1167
   32CHL1  H26C 2364   2.712   2.296   3.717  0.2001  0.4212  3.9556
   32CHL1   C27 2365   2.769   2.562   3.761  0.0643  0.1301 -0.2391
   32CHL1  H27A 2366   2.661   2.546   3.782  0.4508  0.4133  2.3167
   32CHL1  H27B 2367   2.819   2.556   3.860  1.2892 -1.0880 -0.9120
   32CHL1  H27C 2368   2.774   2.668   3.728  0.0874 -0.1499 -1.1672
   33CHL1    C3 2369   4.376   2.960   2.641 -0.5208  0.4186 -0.8779
   33CHL1    H3 2370   4.478   2.918   2.652 -0.9770 -0.1335  2.0133
   33CHL1    O3 2371   4.329   3.007   2.515 -0.1675 -0.0490  0.1117
   33CHL1   H3' 2372   4.360   2.941   2.452  0.4523  0.2457  0.1025
   33CHL1    C4 2373   4.274   2.851   2.694 -0.3632  0.3314 -0.2901
   33CHL1   H4A 2374   4.170   2.888   2.694 -0.7546 -0.6867  1.4988
   33CHL1   H4B 2375   4.272   2.771   2.618 -0.4202 -1.6213  1.6730
   33CHL1    C5 2376   4.308   2.804   2.839 -0.8218  0.2396  0.2723
   33CHL1    C6 2377   4.338   2.672   2.872 -0.4174 -0.2192  0.2972
   33CHL1    H6 2378   4.341   2.594   2.794  0.8163 -0.8394  0.9379
   33CHL1    C7 2379   4.377   2.636   3.014  0.3545 -0.2592  0.3211
   33CHL1   H7A 2380   4.348   2.532   3.042 -1.9783 -0.5694 -2.6900
   33CHL1   H7B 2381   4.486   2.636   3.032  0.2576 -1.6639  1.1083
   33CHL1    C8 2382   4.336   2.740   3.123 -0.1008  0.2080  0.6899
   33CHL1    H8 2383   4.226   2.744   3.131 -0.1486 -1.9993  1.7092
   33CHL1   C14 2384   4.402   2.706   3.254  0.6731 -0.1332 -0.0651
   33CHL1   H14 2385   4.512   2.716   3.244  0.7457 -2.1799 -1.9696
   33CHL1   C15 2386   4.388   2.564   3.310  0.0921  0.1239  0.4882
   33CHL1  H15A 2387   4.279   2.542   3.307  0.0151  0.3341  1.6015
   33CHL1  H15B 2388   4.438   2.482   3.253 -1.0984 -2.5830  3.0860
   33CHL1   C16 2389   4.441   2.579   3.455 -0.2126  0.0196  0.6823
   33CHL1  H16A 2390   4.366   2.530   3.521 -0.7017 -1.2719 -0.7551
   33CHL1  H16B 2391   4.535   2.522   3.469  0.3777  0.0099 -2.5582
   33CHL1   C17 2392   4.445   2.734   3.483  0.7030 -0.2563  0.2706
   33CHL1   H17 2393   4.550   2.769   3.470  0.1689  1.4624  0.3724
   33CHL1   C13 2394   4.363   2.799   3.374 -0.0378 -0.5654  0.7772
   33CHL1   C18 2395   4.218   2.791   3.413 -0.2250 -0.2377  0.3048
   33CHL1  H18A 2396   4.155   2.815   3.325 -1.5617 -0.5164  1.1515
   33CHL1  H18B 2397   4.195   2.684   3.431  1.7216 -0.8333 -0.4899
   33CHL1  H18C 2398   4.207   2.871   3.489  0.7544  0.2251 -0.0320
   33CHL1   C12 2399   4.405   2.941   3.329  0.2962 -0.0008 -0.2283
   33CHL1  H12A 2400   4.375   3.020   3.402  1.0357 -1.8839  2.2508
   33CHL1  H12B 2401   4.515   2.941   3.319  0.4021 -0.8419  0.7767
   33CHL1   C11 2402   4.350   2.978   3.195  0.2930  0.1422 -0.4539
   33CHL1  H11A 2403   4.241   2.994   3.205  0.8593  4.6631  0.4885
   33CHL1  H11B 2404   4.375   3.083   3.168  0.3576 -0.1262 -1.4913
   33CHL1    C9 2405   4.378   2.881   3.080  0.1094  0.2160  0.5282
   33CHL1    H9 2406   4.489   2.881   3.071  0.2318 -1.7560  1.5298
   33CHL1   C10 2407   4.315   2.925   2.941  0.0641  0.5426  0.3200
   33CHL1   C19 2408   4.164   2.959   2.958 -0.0060  0.4315 -0.3727
   33CHL1  H19A 2409   4.108   2.879   3.012 -0.7366  0.1126 -1.5814
   33CHL1  H19B 2410   4.155   3.056   3.011 -1.0919  1.3728 -2.2036
   33CHL1  H19C 2411   4.119   2.977   2.859 -1.5224 -1.7148 -0.1415
   33CHL1    C1 2412   4.399   3.040   2.874 -0.3567  0.1784  0.0038
   33CHL1   H1A 2413   4.393   3.137   2.928 -0.8619 -0.5547  1.3075
   33CHL1   H1B 2414   4.507   3.020   2.891 -0.7653 -1.5081  0.7323
   33CHL1    C2 2415   4.368   3.079   2.734  0.0546 -0.7113 -0.0905
   33CHL1   H2A 2416   4.443   3.157   2.709  0.7613 -0.0500  3.4566
   33CHL1   H2B 2417   4.267   3.126   2.732  0.2157 -0.3132 -3.0382
   33CHL1   C20 2418   4.406   2.755   3.627 -0.2912  0.4797  0.2738
   33CHL1   H20 2419   4.299   2.729   3.647 -0.7618  1.7249 -0.4926
   33CHL1   C21 2420   4.429   2.904   3.663 -0.3433  0.2957 -0.1403
   33CHL1  H21A 2421   4.531   2.941   3.637 -1.1872  2.8914 -0.0562
   33CHL1  H21B 2422   4.432   2.925   3.772  4.4178  0.1852 -0.0440
   33CHL1  H21C 2423   4.349   2.967   3.618 -0.0893  1.7298  1.3358
   33CHL1   C22 2424   4.488   2.667   3.730 -0.7806  0.0244 -0.0475
   33CHL1  H22A 2425   4.446   2.697   3.829  2.5387  3.2384  0.6332
   33CHL1  H22B 2426   4.446   2.566   3.715  0.7904 -0.8019  0.8210
   33CHL1   C23 2427   4.641   2.680   3.732 -0.4532 -0.4055 -0.6874
   33CHL1  H23A 2428   4.678   2.621   3.645 -0.8866 -1.4955 -0.1436
   33CHL1  H23B 2429   4.681   2.783   3.723  0.1724 -0.5657  0.1358
   33CHL1   C24 2430   4.689   2.612   3.861 -0.6523  0.5381  0.3886
   33CHL1  H24A 2431   4.638   2.658   3.948  0.6580  1.9003  0.4882
   33CHL1  H24B 2432   4.663   2.504   3.859 -1.2752  0.6677  1.2691
   33CHL1   C25 2433   4.838   2.637   3.889 -0.4135 -0.6610 -0.0705
   33CHL1   H25 2434   4.846   2.585   3.987  0.3088 -0.0738  0.1902
   33CHL1   C26 2435   4.933   2.562   3.791  0.3272 -0.2048  0.1953
   33CHL1  H26A 2436   5.027   2.524   3.837 -1.3097 -2.4665  1.8880
   33CHL1  H26B 2437   4.879   2.475   3.748  0.8214 -0.1837 -0.4930
   33CHL1  H26C 2438   4.953   2.629   3.704  0.6135 -2.3212 -1.4631
   33CHL1   C27 2439   4.882   2.781   3.909 -0.2734 -0.1456 -0.3783
   33CHL1  H27A 2440   4.868   2.835   3.813  0.9202 -0.1405 -0.5568
   33CHL1  H27B 2441   4.810   2.822   3.983  1.7341 -0.1388  1.6760
   33CHL1  H27C 2442   4.988   2.793   3.939 -0.4097  3.0996 -0.8851
   34CHL1    C3 2443   2.127   2.979   2.657  0.9903 -0.7575  0.3876
   34CHL1    H3 2444   2.017   2.993   2.665  0.8987 -0.0792 -1.5271
   34CHL1    O3 2445   2.154   2.947   2.520  0.1428 -0.1738 -0.3295
   34CHL1   H3' 2446   2.241   2.906   2.524 -0.3451 -1.2597 -0.4838
   34CHL1    C4 2447   2.188   3.119   2.691  0.7035  0.6144  1.0580
   34CHL1   H4A 2448   2.295   3.105   2.665 -0.1481 -1.6352 -1.8338
   34CHL1   H4B 2449   2.140   3.194   2.625 -1.1140  1.2045  2.9401
   34CHL1    C5 2450   2.182   3.153   2.840  0.4174 -0.5838 -0.2825
   34CHL1    C6 2451   2.114   3.261   2.880 -0.9314 -0.1745 -0.3024
   34CHL1    H6 2452   2.082   3.327   2.798 -0.5284 -1.5810 -1.6476
   34CHL1    C7 2453   2.103   3.291   3.025  0.3633  0.7919 -0.3796
   34CHL1   H7A 2454   2.132   3.398   3.036 -4.0005  2.2229 -0.8801
   34CHL1   H7B 2455   1.996   3.284   3.055  0.1703 -1.2777 -1.3734
   34CHL1    C8 2456   2.184   3.199   3.120 -1.0166 -0.7995  0.1336
   34CHL1    H8 2457   2.291   3.231   3.119 -1.0930 -0.3829  1.9270
   34CHL1   C14 2458   2.139   3.220   3.263 -0.2329  0.2908 -0.8323
   34CHL1   H14 2459   2.036   3.178   3.270 -0.5268  1.1648  0.3746
   34CHL1   C15 2460   2.127   3.362   3.312 -0.2241  0.1078 -0.5615
   34CHL1  H15A 2461   2.218   3.422   3.291 -1.4522  2.0635 -0.5874
   34CHL1  H15B 2462   2.040   3.415   3.266 -0.7689  0.2831  0.6243
   34CHL1   C16 2463   2.106   3.340   3.469 -0.2836 -0.8120 -0.4428
   34CHL1  H16A 2464   2.155   3.427   3.518 -0.7941 -1.3018  0.9906
   34CHL1  H16B 2465   1.999   3.344   3.497 -0.1311 -0.3696  0.0934
   34CHL1   C17 2466   2.159   3.201   3.500  0.4168  0.4396  0.1720
   34CHL1   H17 2467   2.073   3.135   3.525 -0.0534  0.8345 -0.3879
   34CHL1   C13 2468   2.222   3.146   3.368 -0.0023  0.3818 -0.9627
   34CHL1   C18 2469   2.365   3.201   3.364 -0.1475 -0.8883  0.3362
   34CHL1  H18A 2470   2.411   3.222   3.265  0.1129 -0.9141  0.4493
   34CHL1  H18B 2471   2.370   3.301   3.412 -0.6911 -1.4073  1.5044
   34CHL1  H18C 2472   2.426   3.131   3.425 -0.7110 -0.1912  1.7378
   34CHL1   C12 2473   2.201   3.003   3.330 -0.0857 -0.1939  0.3928
   34CHL1  H12A 2474   2.260   2.941   3.401  0.8102 -1.8886 -1.7090
   34CHL1  H12B 2475   2.095   2.974   3.341 -0.4569  1.6383  2.1663
   34CHL1   C11 2476   2.251   2.966   3.192  0.6653  0.3177  0.5206
   34CHL1  H11A 2477   2.359   2.994   3.196  0.5667  0.5948  1.6074
   34CHL1  H11B 2478   2.236   2.858   3.173  1.2213  0.4962 -1.0929
   34CHL1    C9 2479   2.175   3.054   3.085  0.2047  0.2632  0.0106
   34CHL1    H9 2480   2.070   3.021   3.082  0.2844 -0.2083 -4.9056
   34CHL1   C10 2481   2.225   3.030   2.937  0.3705 -1.7452 -0.0230
   34CHL1   C19 2482   2.385   3.019   2.940  0.1783  0.1982  0.7411
   34CHL1  H19A 2483   2.440   3.079   3.016 -0.2494  2.9084 -0.9394
   34CHL1  H19B 2484   2.404   2.910   2.944 -0.9083  0.0231  1.3680
   34CHL1  H19C 2485   2.430   3.048   2.843 -1.2207  0.0299  0.0186
   34CHL1    C1 2486   2.167   2.898   2.889  0.4747 -0.4427 -0.2548
   34CHL1   H1A 2487   2.207   2.820   2.958 -1.1447 -1.1340 -0.0487
   34CHL1   H1B 2488   2.058   2.906   2.910  0.3310 -0.4452 -0.9917
   34CHL1    C2 2489   2.186   2.867   2.740  0.2137  0.3154  0.0255
   34CHL1   H2A 2490   2.132   2.771   2.721  2.1921 -1.2445  1.8562
   34CHL1   H2B 2491   2.294   2.846   2.725  0.1676 -0.3302  0.5485
   34CHL1   C20 2492   2.237   3.196   3.629  0.3164  0.1773 -0.0261
   34CHL1   H20 2493   2.328   3.259   3.620  0.1711  0.2655 -0.9574
   34CHL1   C21 2494   2.285   3.056   3.672 -0.2268 -0.6373 -0.1243
   34CHL1  H21A 2495   2.207   2.977   3.666 -1.2435  0.2941  0.4467
   34CHL1  H21B 2496   2.325   3.063   3.775  1.1383 -1.6096 -0.5665
   34CHL1  H21C 2497   2.356   3.024   3.593 -1.7208  0.4829 -2.0096
   34CHL1   C22 2498   2.158   3.268   3.744 -0.3723 -0.2484  0.4486
   34CHL1  H22A 2499   2.087   3.345   3.707 -0.3627  0.0819  1.1131
   34CHL1  H22B 2500   2.094   3.184   3.779 -1.5912  0.1478 -0.7483
   34CHL1   C23 2501   2.247   3.329   3.844  0.1048 -0.2993 -0.3403
   34CHL1  H23A 2502   2.310   3.248   3.888  1.6981  1.1764  0.2354
   34CHL1  H23B 2503   2.319   3.398   3.795  0.6703 -0.3324  0.4173
   34CHL1   C24 2504   2.173   3.396   3.963 -0.5632 -0.3947  0.2223
   34CHL1  H24A 2505   2.137   3.492   3.920  0.5613 -0.2845 -0.5226
   34CHL1  H24B 2506   2.080   3.349   4.001  0.0341 -0.2575  1.9575
   34CHL1   C25 2507   2.266   3.423   4.079 -0.4379 -0.0941 -0.3461
   34CHL1   H25 2508   2.294   3.322   4.115 -0.8998 -0.9428 -2.2470
   34CHL1   C26 2509   2.393   3.499   4.040 -0.2884  0.3905  0.1997
   34CHL1  H26A 2510   2.455   3.426   3.984 -0.6085 -1.9900  2.7579
   34CHL1  H26B 2511   2.373   3.598   3.994  0.1336  1.8157  2.8477
   34CHL1  H26C 2512   2.451   3.521   4.132 -0.8857 -0.0097  0.6828
   34CHL1   C27 2513   2.188   3.493   4.191  0.2728  0.4025 -0.2677
   34CHL1  H27A 2514   2.159   3.426   4.275  0.7711  2.0053  1.2519
   34CHL1  H27B 2515   2.247   3.572   4.243  2.5663 -0.8584 -0.8046
   34CHL1  H27C 2516   2.096   3.547   4.161  2.2896  2.5584 -3.0844
   35CHL1    C3 2517   4.433   1.717   2.518 -0.3205  0.4132 -0.4672
   35CHL1    H3 2518   4.445   1.609   2.539 -1.6765  0.1851 -0.7321
   35CHL1    O3 2519   4.372   1.728   2.392  0.6550 -0.3006  0.5115
   35CHL1   H3' 2520   4.279   1.714   2.410  0.0883  2.1464 -0.0701
   35CHL1    C4 2521   4.335   1.777   2.619  0.1318 -0.3042 -0.7516
   35CHL1   H4A 2522   4.322   1.879   2.578 -1.6339 -0.8312 -1.5652
   35CHL1   H4B 2523   4.237   1.726   2.623  0.8139 -1.7970 -1.9760
   35CHL1    C5 2524   4.412   1.783   2.756 -0.0705 -0.2264 -0.1380
   35CHL1    C6 2525   4.354   1.735   2.870 -0.0889  0.3889 -0.1183
   35CHL1    H6 2526   4.252   1.696   2.877 -0.1655  0.7002  0.5982
   35CHL1    C7 2527   4.435   1.714   2.996 -0.5182  1.2988 -0.4373
   35CHL1   H7A 2528   4.381   1.693   3.090  0.0450  0.6200 -0.2603
   35CHL1   H7B 2529   4.479   1.612   2.993 -2.4718  0.3334  1.4578
   35CHL1    C8 2530   4.555   1.807   3.018 -0.1534  0.2500  0.3222
   35CHL1    H8 2531   4.518   1.911   3.027  2.0222  1.1143 -0.1400
   35CHL1   C14 2532   4.630   1.757   3.137 -0.6317  0.5182 -0.1062
   35CHL1   H14 2533   4.642   1.647   3.130 -1.9557  0.3631 -0.1930
   35CHL1   C15 2534   4.563   1.775   3.278  0.0127  0.0404 -0.2623
   35CHL1  H15A 2535   4.503   1.868   3.290 -0.0534 -0.0615  0.2333
   35CHL1  H15B 2536   4.494   1.689   3.294  0.1835  0.3671  2.7350
   35CHL1   C16 2537   4.686   1.760   3.370 -0.2921 -0.7418  0.2657
   35CHL1  H16A 2538   4.697   1.848   3.437  1.5937 -0.7797  0.0668
   35CHL1  H16B 2539   4.681   1.665   3.428  0.2982 -3.2486 -3.4219
   35CHL1   C17 2540   4.816   1.765   3.276 -0.1309  0.3511 -0.4032
   35CHL1   H17 2541   4.843   1.659   3.256  1.3077 -0.0249  2.8694
   35CHL1   C13 2542   4.762   1.824   3.150 -0.0267 -0.2093 -0.2306
   35CHL1   C18 2543   4.743   1.977   3.178 -0.6029 -0.1187  0.3314
   35CHL1  H18A 2544   4.676   2.006   3.263 -0.3094 -0.4438  0.6771
   35CHL1  H18B 2545   4.843   2.020   3.199  0.4686 -2.0794 -0.5231
   35CHL1  H18C 2546   4.696   2.025   3.090 -0.6477 -0.6604  0.0556
   35CHL1   C12 2547   4.842   1.807   3.026  0.0758  0.1139  0.8349
   35CHL1  H12A 2548   4.943   1.851   3.029  1.2189 -1.9471 -2.0041
   35CHL1  H12B 2549   4.868   1.699   3.014 -3.3626 -0.6361 -1.2402
   35CHL1   C11 2550   4.779   1.867   2.900  0.0309 -0.6053 -0.2102
   35CHL1  H11A 2551   4.771   1.977   2.909  1.2147 -0.4926 -0.3925
   35CHL1  H11B 2552   4.842   1.831   2.817  0.4247  0.1620 -0.2421
   35CHL1    C9 2553   4.641   1.796   2.889  0.1592 -0.1276  0.8926
   35CHL1    H9 2554   4.670   1.689   2.881 -0.1194 -0.1579  0.2390
   35CHL1   C10 2555   4.558   1.831   2.758 -0.0098 -0.0892  0.8614
   35CHL1   C19 2556   4.553   1.987   2.749  0.5036  0.0545 -0.4722
   35CHL1  H19A 2557   4.497   2.028   2.836 -0.3120  0.9768 -1.4110
   35CHL1  H19B 2558   4.651   2.039   2.736  1.4279 -1.5915 -0.4350
   35CHL1  H19C 2559   4.488   2.009   2.662  1.0547 -1.7150 -1.3760
   35CHL1    C1 2560   4.643   1.769   2.638  0.0426  0.2333  0.1933
   35CHL1   H1A 2561   4.738   1.826   2.632  0.1650  0.1117  0.8185
   35CHL1   H1B 2562   4.669   1.664   2.667 -1.4254 -0.7915 -1.9614
   35CHL1    C2 2563   4.577   1.769   2.513 -0.3902 -0.1648  0.9036
   35CHL1   H2A 2564   4.629   1.713   2.432 -0.0113  2.1852 -0.5808
   35CHL1   H2B 2565   4.566   1.875   2.482 -2.2813 -1.0879 -1.9924
   35CHL1   C20 2566   4.931   1.822   3.355 -0.5457 -0.2395 -0.2821
   35CHL1   H20 2567   4.902   1.919   3.401  0.7096  0.4308 -0.8667
   35CHL1   C21 2568   5.068   1.830   3.282  0.1976  0.2061  0.4017
   35CHL1  H21A 2569   5.147   1.857   3.356  1.8434  0.8349 -1.4874
   35CHL1  H21B 2570   5.072   1.923   3.221 -0.0438  0.6722  1.0861
   35CHL1  H21C 2571   5.101   1.745   3.219 -0.5956  0.1417  0.0714
   35CHL1   C22 2572   4.952   1.743   3.484 -1.0083 -0.2389 -1.1429
   35CHL1  H22A 2573   4.855   1.722   3.534 -0.0522  0.1063  0.9696
   35CHL1  H22B 2574   5.000   1.643   3.477 -0.6021 -0.1962  0.5767
   35CHL1   C23 2575   5.033   1.816   3.600  0.2434  0.3754  0.5761
   35CHL1  H23A 2576   5.139   1.840   3.577  0.0020  1.5434  0.6479
   35CHL1  H23B 2577   4.978   1.911   3.613 -2.7118 -1.4775  3.0427
   35CHL1   C24 2578   5.035   1.743   3.735 -0.3448 -1.3150 -0.1108
   35CHL1  H24A 2579   4.931   1.744   3.773 -1.0061  0.5435 -1.7786
   35CHL1  H24B 2580   5.088   1.646   3.722  1.6380 -0.1515 -1.1985
   35CHL1   C25 2581   5.112   1.811   3.842 -0.4263  0.0571  0.1678
   35CHL1   H25 2582   5.212   1.849   3.811  0.9039 -0.3957  3.4570
   35CHL1   C26 2583   5.040   1.942   3.873  0.2897  0.2822  0.3496
   35CHL1  H26A 2584   5.026   2.005   3.783 -0.7684 -0.3468  0.0696
   35CHL1  H26B 2585   4.941   1.912   3.913  0.9987 -1.2213  1.0281
   35CHL1  H26C 2586   5.091   2.005   3.950  0.9845  0.8975 -0.5936
   35CHL1   C27 2587   5.138   1.723   3.973  0.0213  0.0039  0.6578
   35CHL1  H27A 2588   5.215   1.775   4.035  1.0742 -0.2567 -0.3907
   35CHL1  H27B 2589   5.042   1.731   4.029  0.7223  0.2337  1.8821
   35CHL1  H27C 2590   5.167   1.620   3.945  0.8199  0.6615 -1.1016
   36CHL1    C3 2591   2.676   6.140   2.313  0.1278  0.0140 -0.0590
   36CHL1    H3 2592   2.670   6.241   2.360 -0.2750  0.2076 -0.5186
   36CHL1    O3 2593   2.718   6.158   2.179 -0.1352  0.3927  0.2372
   36CHL1   H3' 2594   2.665   6.103   2.122 -0.3669  2.5356 -1.7517
   36CHL1    C4 2595   2.786   6.060   2.388  0.2596 -0.5211  0.7390
   36CHL1   H4A 2596   2.818   5.976   2.322  0.7907 -1.6475  2.3728
   36CHL1   H4B 2597   2.878   6.121   2.400 -0.4853  1.1180 -1.3603
   36CHL1    C5 2598   2.732   6.006   2.516 -0.3928  0.6112 -0.2901
   36CHL1    C6 2599   2.805   6.000   2.637 -0.1078  0.1517  1.1253
   36CHL1    H6 2600   2.904   6.049   2.638 -0.4756  0.8884  2.1464
   36CHL1    C7 2601   2.765   5.941   2.768 -0.9632 -0.7390 -0.1030
   36CHL1   H7A 2602   2.855   5.890   2.807  0.2911  0.6634 -1.0855
   36CHL1   H7B 2603   2.741   6.022   2.840  0.2904  1.7005 -2.2650
   36CHL1    C8 2604   2.646   5.848   2.756  0.1441  0.1940 -0.4077
   36CHL1    H8 2605   2.678   5.757   2.702 -0.8777 -0.0587 -0.6110
   36CHL1   C14 2606   2.586   5.806   2.890  0.3359 -0.3828 -0.3912
   36CHL1   H14 2607   2.561   5.907   2.927  2.8083  0.8965 -1.9342
   36CHL1   C15 2608   2.677   5.746   2.993 -0.7192  0.2342 -0.0683
   36CHL1  H15A 2609   2.743   5.667   2.953  0.4660  1.6719 -1.0794
   36CHL1  H15B 2610   2.737   5.828   3.037 -0.4813 -0.0156  0.0724
   36CHL1   C16 2611   2.577   5.680   3.093 -0.1065  0.5228  0.7520
   36CHL1  H16A 2612   2.617   5.578   3.108  0.7681  0.6816 -0.3944
   36CHL1  H16B 2613   2.585   5.729   3.193  0.4251  2.4473 -0.1971
   36CHL1   C17 2614   2.436   5.699   3.029  0.1360 -0.5101 -0.1417
   36CHL1   H17 2615   2.400   5.799   3.060 -1.4895 -1.0929 -0.0831
   36CHL1   C13 2616   2.458   5.719   2.879  0.2153 -0.8960 -0.2895
   36CHL1   C18 2617   2.490   5.588   2.805  0.1965 -0.6005  0.1292
   36CHL1  H18A 2618   2.524   5.595   2.700  1.5118  0.3498  0.5947
   36CHL1  H18B 2619   2.573   5.543   2.863  2.0434  1.4043 -0.7915
   36CHL1  H18C 2620   2.403   5.520   2.820  0.5469 -0.4965  3.2427
   36CHL1   C12 2621   2.350   5.795   2.796 -0.0448 -0.8450 -0.7391
   36CHL1  H12A 2622   2.257   5.739   2.776 -0.2631 -1.0999  0.8777
   36CHL1  H12B 2623   2.323   5.881   2.861  0.8752 -0.4402 -0.8733
   36CHL1   C11 2624   2.401   5.845   2.661  0.1121 -0.9252  0.6612
   36CHL1  H11A 2625   2.399   5.756   2.595 -0.2892 -0.1286 -0.4196
   36CHL1  H11B 2626   2.322   5.914   2.626 -1.0351 -1.8925  1.2711
   36CHL1    C9 2627   2.543   5.912   2.660 -0.4840 -0.0513 -0.5688
   36CHL1    H9 2628   2.526   6.012   2.707 -0.4620  0.1556 -0.9912
   36CHL1   C10 2629   2.593   5.938   2.520  0.3004  0.4131  0.0366
   36CHL1   C19 2630   2.611   5.802   2.443  0.6313  0.4518  0.8606
   36CHL1  H19A 2631   2.633   5.840   2.340  1.8542 -0.7314  0.6588
   36CHL1  H19B 2632   2.685   5.734   2.489  1.7248 -1.3746 -3.0948
   36CHL1  H19C 2633   2.518   5.743   2.429  0.8652 -0.2357  2.0979
   36CHL1    C1 2634   2.493   6.031   2.444  0.0373  0.0220 -0.6000
   36CHL1   H1A 2635   2.391   5.987   2.443  0.0410  0.0120 -0.9741
   36CHL1   H1B 2636   2.476   6.126   2.498 -1.9464 -0.9245  0.5256
   36CHL1    C2 2637   2.536   6.073   2.305  0.7741 -0.1296  0.3111
   36CHL1   H2A 2638   2.467   6.142   2.252  0.9720  0.9475  1.4073
   36CHL1   H2B 2639   2.535   5.984   2.239  0.9090 -0.9153  1.3413
   36CHL1   C20 2640   2.333   5.602   3.076 -0.4483  0.0892  0.2098
   36CHL1   H20 2641   2.361   5.498   3.047 -0.0918 -0.7938  3.3385
   36CHL1   C21 2642   2.197   5.629   3.014  0.7701 -0.1383  0.2084
   36CHL1  H21A 2643   2.204   5.617   2.904 -2.2025 -0.2259 -0.0523
   36CHL1  H21B 2644   2.161   5.732   3.036  1.2696  0.0638  0.0967
   36CHL1  H21C 2645   2.117   5.558   3.043 -0.4229  1.1064  0.1249
   36CHL1   C22 2646   2.315   5.596   3.234 -0.2210  0.6236 -0.1277
   36CHL1  H22A 2647   2.243   5.512   3.249 -0.5622  0.5984 -1.7145
   36CHL1  H22B 2648   2.412   5.562   3.276 -0.6970 -1.4640 -0.5657
   36CHL1   C23 2649   2.269   5.723   3.301 -0.0627  0.1318  0.6959
   36CHL1  H23A 2650   2.333   5.808   3.268 -1.3585  2.0207  2.7364
   36CHL1  H23B 2651   2.167   5.756   3.270  0.1041  1.3005  1.3341
   36CHL1   C24 2652   2.280   5.736   3.452  0.6459 -0.3585 -0.3112
   36CHL1  H24A 2653   2.387   5.750   3.481  0.5355  0.2584 -0.1964
   36CHL1  H24B 2654   2.227   5.824   3.493 -0.7331  0.3423 -3.3747
   36CHL1   C25 2655   2.232   5.608   3.534 -0.4594  0.5237 -0.3314
   36CHL1   H25 2656   2.263   5.519   3.475  0.8218  1.6639 -1.4650
   36CHL1   C26 2657   2.302   5.598   3.680 -0.2674 -0.3882 -0.5601
   36CHL1  H26A 2658   2.412   5.584   3.679 -0.2006 -0.1740  1.0692
   36CHL1  H26B 2659   2.292   5.703   3.715 -0.6307 -1.1216  1.6301
   36CHL1  H26C 2660   2.262   5.523   3.751 -0.7692  0.8110  0.4619
   36CHL1   C27 2661   2.080   5.589   3.563  0.7788 -0.4627 -0.7666
   36CHL1  H27A 2662   2.048   5.674   3.626 -0.3874 -0.5588 -1.2005
   36CHL1  H27B 2663   2.033   5.594   3.462 -1.7151 -0.0479  0.3453
   36CHL1  H27C 2664   2.053   5.496   3.618  2.8907 -0.6776 -0.0346
   37CHL1    C3 2665   1.831   5.512   2.331  0.3691 -0.3021  0.6330
   37CHL1    H3 2666   1.722   5.500   2.316  0.2400 -0.3876  1.6161
   37CHL1    O3 2667   1.871   5.498   2.194 -0.2479  0.4925 -0.6399
   37CHL1   H3' 2668   1.958   5.539   2.192 -0.2412  0.5010 -0.2755
   37CHL1    C4 2669   1.874   5.656   2.381  0.4287 -0.3439  0.4164
   37CHL1   H4A 2670   1.984   5.671   2.378  0.3950  0.0964  1.1111
   37CHL1   H4B 2671   1.834   5.742   2.321  2.6190  1.0739  0.8877
   37CHL1    C5 2672   1.831   5.683   2.521 -0.2467 -0.3575  0.2019
   37CHL1    C6 2673   1.751   5.788   2.556  0.3896  0.7378  0.1616
   37CHL1    H6 2674   1.707   5.850   2.476 -1.8245 -0.7443  0.1419
   37CHL1    C7 2675   1.703   5.829   2.689  0.3012  0.2607 -0.5539
   37CHL1   H7A 2676   1.736   5.935   2.698 -1.7703  0.8139  1.6274
   37CHL1   H7B 2677   1.594   5.811   2.700  0.6342 -2.4947 -1.1195
   37CHL1    C8 2678   1.768   5.745   2.806  0.2755  0.1771  0.1778
   37CHL1    H8 2679   1.864   5.797   2.824  0.4901 -0.1805  0.0795
   37CHL1   C14 2680   1.677   5.742   2.927  0.2912 -0.5820  0.7871
   37CHL1   H14 2681   1.596   5.674   2.894  0.5443 -0.2084 -0.6637
   37CHL1   C15 2682   1.621   5.881   2.969  0.0344  0.1038 -0.1583
   37CHL1  H15A 2683   1.699   5.959   2.982 -3.0096  3.2690  0.3393
   37CHL1  H15B 2684   1.537   5.920   2.908  0.6965 -1.3271 -2.0620
   37CHL1   C16 2685   1.585   5.863   3.121  0.1555 -0.0937 -0.2444
   37CHL1  H16A 2686   1.644   5.939   3.177 -0.3685 -1.9219  2.9721
   37CHL1  H16B 2687   1.477   5.882   3.133 -0.4258 -0.5865 -3.5989
   37CHL1   C17 2688   1.635   5.720   3.159 -0.4721  0.5501  0.6777
   37CHL1   H17 2689   1.544   5.656   3.151  0.2619 -0.8817  2.9570
   37CHL1   C13 2690   1.737   5.684   3.047  0.3783  0.2121  0.6737
   37CHL1   C18 2691   1.881   5.736   3.081 -0.2984 -0.5469 -0.7699
   37CHL1  H18A 2692   1.952   5.740   2.996  0.7252  0.9555  0.1131
   37CHL1  H18B 2693   1.877   5.837   3.127 -0.7995 -0.9433  0.0789
   37CHL1  H18C 2694   1.928   5.668   3.156 -0.4867 -0.8840 -0.9528
   37CHL1   C12 2695   1.754   5.537   3.013  0.0262  0.1903  0.6564
   37CHL1  H12A 2696   1.818   5.485   3.088  0.9808  0.5294  0.0959
   37CHL1  H12B 2697   1.662   5.476   3.014  1.5265 -2.2036  0.0630
   37CHL1   C11 2698   1.828   5.508   2.880 -0.4374 -0.4609 -0.1317
   37CHL1  H11A 2699   1.937   5.502   2.899 -0.4774 -0.0208  0.2641
   37CHL1  H11B 2700   1.805   5.407   2.841  0.4518 -1.4063  1.6900
   37CHL1    C9 2701   1.794   5.604   2.763  0.0221  0.4859 -0.2372
   37CHL1    H9 2702   1.692   5.572   2.733  0.0022  0.0570  0.2646
   37CHL1   C10 2703   1.874   5.575   2.629  0.8904  0.0703  0.5412
   37CHL1   C19 2704   2.022   5.594   2.670 -0.3737  0.1416 -0.7188
   37CHL1  H19A 2705   2.096   5.577   2.589  0.1122 -1.1618 -0.0373
   37CHL1  H19B 2706   2.033   5.695   2.717 -0.9077 -0.4441  0.7325
   37CHL1  H19C 2707   2.043   5.508   2.736 -3.4626 -0.7799 -0.7891
   37CHL1    C1 2708   1.851   5.431   2.564 -0.3011 -0.0276  0.0400
   37CHL1   H1A 2709   1.902   5.353   2.624 -0.8573 -1.6051 -1.4455
   37CHL1   H1B 2710   1.746   5.399   2.582  0.1975 -1.1903  0.9893
   37CHL1    C2 2711   1.893   5.406   2.424 -0.0474  0.2356  0.6960
   37CHL1   H2A 2712   1.868   5.301   2.399 -0.9103  1.2936 -3.8356
   37CHL1   H2B 2713   2.003   5.424   2.417 -0.3040  2.3059  1.2834
   37CHL1   C20 2714   1.668   5.710   3.303  0.1110 -0.0043 -0.0048
   37CHL1   H20 2715   1.766   5.761   3.310  0.9036 -1.3006 -1.0640
   37CHL1   C21 2716   1.687   5.566   3.354  0.3319  0.3636 -0.0753
   37CHL1  H21A 2717   1.739   5.563   3.452 -0.2465 -0.2727  0.2212
   37CHL1  H21B 2718   1.758   5.510   3.289 -0.8306  0.3038 -1.3189
   37CHL1  H21C 2719   1.596   5.503   3.361  0.6769  0.0315  5.1459
   37CHL1   C22 2720   1.564   5.783   3.385 -0.5826  0.2040 -0.2178
   37CHL1  H22A 2721   1.564   5.894   3.382  0.2722  0.3484  2.5332
   37CHL1  H22B 2722   1.459   5.750   3.366  0.0305 -0.7660 -2.2807
   37CHL1   C23 2723   1.575   5.773   3.540 -0.6324  0.2114 -0.4358
   37CHL1  H23A 2724   1.568   5.668   3.575  2.1814 -0.3614 -1.3876
   37CHL1  H23B 2725   1.679   5.799   3.568 -0.4640 -1.9368  1.2065
   37CHL1   C24 2726   1.475   5.871   3.615 -0.1638 -0.5906  0.5688
   37CHL1  H24A 2727   1.519   5.971   3.596 -0.3956 -0.6773 -0.4666
   37CHL1  H24B 2728   1.372   5.868   3.574  0.0733  3.2141 -0.7080
   37CHL1   C25 2729   1.465   5.869   3.768  0.1317 -0.0575  0.1289
   37CHL1   H25 2730   1.410   5.774   3.786  0.9439 -1.1843 -2.7649
   37CHL1   C26 2731   1.602   5.869   3.839  0.4238 -0.1984  0.6867
   37CHL1  H26A 2732   1.659   5.960   3.811 -1.0287  0.6696  0.4245
   37CHL1  H26B 2733   1.603   5.875   3.950  0.3111  2.5697  0.6094
   37CHL1  H26C 2734   1.667   5.787   3.802  0.5165 -0.5825  1.6776
   37CHL1   C27 2735   1.381   5.993   3.803 -0.0040  0.3164  0.1112
   37CHL1  H27A 2736   1.336   6.004   3.904  0.5951  3.9736  0.1265
   37CHL1  H27B 2737   1.421   6.091   3.768 -0.5160  0.4510 -0.1099
   37CHL1  H27C 2738   1.288   5.994   3.742  0.6001  0.5654 -0.8220
   38CHL1    C3 2739   5.243   1.438   2.519 -0.9941 -0.0994 -0.2101
   38CHL1    H3 2740   5.300   1.533   2.510 -0.9553 -0.2186 -1.3631
   38CHL1    O3 2741   5.184   1.419   2.389 -0.6707  0.4366 -0.1993
   38CHL1   H3' 2742   5.155   1.327   2.384 -1.4925  0.6809  0.0216
   38CHL1    C4 2743   5.323   1.319   2.572  0.1175 -0.0985  0.0470
   38CHL1   H4A 2744   5.265   1.227   2.550  0.4412 -0.7532  1.7656
   38CHL1   H4B 2745   5.411   1.317   2.504  0.4865 -0.9697  0.5381
   38CHL1    C5 2746   5.361   1.321   2.717  0.1188 -0.5350 -0.5681
   38CHL1    C6 2747   5.490   1.307   2.754  0.2958  0.4644  0.2662
   38CHL1    H6 2748   5.557   1.264   2.678 -0.7553  0.9908 -0.9957
   38CHL1    C7 2749   5.547   1.323   2.890  0.1766 -1.0298 -0.0732
   38CHL1   H7A 2750   5.608   1.233   2.914 -0.5733 -1.3394  0.7424
   38CHL1   H7B 2751   5.610   1.415   2.896 -2.9017  1.1967  0.3448
   38CHL1    C8 2752   5.436   1.331   2.994 -0.3389 -0.1073  0.2453
   38CHL1    H8 2753   5.393   1.229   3.005 -1.9891  0.6618  1.4748
   38CHL1   C14 2754   5.498   1.381   3.131  0.0746 -0.0142  0.2148
   38CHL1   H14 2755   5.523   1.488   3.115 -1.2684  0.7058  2.4320
   38CHL1   C15 2756   5.632   1.317   3.183  0.5853  0.2390  0.4901
   38CHL1  H15A 2757   5.616   1.209   3.160 -2.3955  0.3616  1.4805
   38CHL1  H15B 2758   5.718   1.360   3.128  0.0272 -1.6421 -2.0343
   38CHL1   C16 2759   5.638   1.346   3.334  0.3712  1.2761 -0.4856
   38CHL1  H16A 2760   5.648   1.247   3.384 -0.2090  0.5148 -1.8133
   38CHL1  H16B 2761   5.720   1.419   3.348 -0.7327  2.8866 -1.9937
   38CHL1   C17 2762   5.499   1.414   3.368  0.4002  0.2446 -0.6328
   38CHL1   H17 2763   5.527   1.521   3.361  1.0004  0.1650  0.4510
   38CHL1   C13 2764   5.403   1.382   3.247 -0.0861  0.1296  0.0410
   38CHL1   C18 2765   5.342   1.239   3.268  0.0087 -0.4592  0.6040
   38CHL1  H18A 2766   5.278   1.242   3.358 -0.5772 -0.2157  0.1896
   38CHL1  H18B 2767   5.280   1.213   3.179 -2.2933  1.1816  1.6045
   38CHL1  H18C 2768   5.416   1.160   3.292 -0.1556 -0.7141  0.2829
   38CHL1   C12 2769   5.279   1.479   3.211 -0.4428 -0.3271 -0.2810
   38CHL1  H12A 2770   5.197   1.467   3.284 -0.3454  0.1905 -0.0829
   38CHL1  H12B 2771   5.302   1.586   3.195 -1.9355  0.0753  0.1199
   38CHL1   C11 2772   5.228   1.449   3.070 -0.3376 -0.7136 -0.2637
   38CHL1  H11A 2773   5.172   1.354   3.084 -1.2714  0.0823  1.7513
   38CHL1  H11B 2774   5.156   1.529   3.043  0.6975 -0.8482 -3.9731
   38CHL1    C9 2775   5.329   1.432   2.950  0.4106  0.0657  0.1698
   38CHL1    H9 2776   5.384   1.526   2.929 -0.8605  0.5977 -0.9256
   38CHL1   C10 2777   5.260   1.379   2.817  0.1062 -0.5168  0.3736
   38CHL1   C19 2778   5.150   1.269   2.846 -0.1434 -0.6742  0.0754
   38CHL1  H19A 2779   5.063   1.314   2.898  0.9683  0.7676  0.7670
   38CHL1  H19B 2780   5.105   1.232   2.751 -1.3406 -0.4246  0.5268
   38CHL1  H19C 2781   5.194   1.180   2.897 -1.4190 -1.0954  0.4868
   38CHL1    C1 2782   5.187   1.500   2.754 -0.2316 -0.3791 -0.5974
   38CHL1   H1A 2783   5.102   1.531   2.819 -0.3922 -2.6463  0.3817
   38CHL1   H1B 2784   5.265   1.579   2.756  1.0236 -1.5630  1.6779
   38CHL1    C2 2785   5.130   1.480   2.616 -0.0360 -0.4900  0.0077
   38CHL1   H2A 2786   5.079   1.570   2.574 -1.2483 -1.0127  0.3495
   38CHL1   H2B 2787   5.049   1.405   2.610 -1.9062  1.3572  0.9981
   38CHL1   C20 2788   5.453   1.381   3.512  0.3629  0.1264  0.1599
   38CHL1   H20 2789   5.407   1.281   3.515 -0.4485  0.5110  0.7760
   38CHL1   C21 2790   5.341   1.472   3.541  0.2779 -0.0691  0.0062
   38CHL1  H21A 2791   5.260   1.468   3.465  1.5297 -0.8273 -1.3492
   38CHL1  H21B 2792   5.387   1.573   3.536  0.7030 -0.2673 -0.1931
   38CHL1  H21C 2793   5.293   1.455   3.639  0.0230 -0.4161 -0.1744
   38CHL1   C22 2794   5.561   1.388   3.625 -0.6264 -0.5572 -0.2384
   38CHL1  H22A 2795   5.635   1.313   3.590  1.5407  0.6700  1.4162
   38CHL1  H22B 2796   5.607   1.489   3.612  0.6139 -1.1117 -0.3106
   38CHL1   C23 2797   5.519   1.373   3.769  0.4491  0.5336  0.5165
   38CHL1  H23A 2798   5.447   1.456   3.785 -0.4729 -0.5548  2.3094
   38CHL1  H23B 2799   5.462   1.279   3.791  0.5678 -0.0588 -1.4930
   38CHL1   C24 2800   5.627   1.377   3.871  0.1068 -0.4891  0.4509
   38CHL1  H24A 2801   5.700   1.295   3.858 -1.8523 -2.6740  2.2546
   38CHL1  H24B 2802   5.668   1.480   3.862  1.0114 -0.9544 -1.0322
   38CHL1   C25 2803   5.570   1.358   4.011  0.1004 -0.0996  0.1648
   38CHL1   H25 2804   5.517   1.261   4.003 -0.5936  0.2186  0.8006
   38CHL1   C26 2805   5.680   1.344   4.121  0.0090  0.4923 -0.5256
   38CHL1  H26A 2806   5.706   1.448   4.148  2.0599 -0.4313  1.4317
   38CHL1  H26B 2807   5.639   1.291   4.210 -1.8397  2.1907 -0.2959
   38CHL1  H26C 2808   5.770   1.289   4.086 -0.3751 -0.7198  0.2822
   38CHL1   C27 2809   5.456   1.455   4.047  0.2223  0.0137 -0.2714
   38CHL1  H27A 2810   5.434   1.441   4.155 -0.9696  0.8227 -0.3890
   38CHL1  H27B 2811   5.489   1.560   4.031  2.6405 -0.4978  0.8159
   38CHL1  H27C 2812   5.362   1.443   3.990  0.4428  1.3373 -0.9670
   39CHL1    C3 2813   0.880   1.855   2.507  0.6365  1.0425  0.1045
   39CHL1    H3 2814   0.800   1.778   2.504  1.8589 -0.2601 -0.3084
   39CHL1    O3 2815   0.903   1.886   2.365 -0.1404  0.5231 -0.5485
   39CHL1   H3' 2816   0.818   1.893   2.321  0.1574  2.2833 -0.9016
   39CHL1    C4 2817   0.843   1.976   2.588  0.1420  0.5543 -0.4834
   39CHL1   H4A 2818   0.912   2.056   2.555  1.2821 -0.8368 -1.6121
   39CHL1   H4B 2819   0.749   2.008   2.538  0.4867  1.5846 -0.4979
   39CHL1    C5 2820   0.829   1.948   2.735 -0.1029 -0.2250  0.1170
   39CHL1    C6 2821   0.718   1.972   2.803  0.0831 -0.1529 -0.7372
   39CHL1    H6 2822   0.627   2.006   2.751 -0.6415 -0.5617  0.2216
   39CHL1    C7 2823   0.707   1.949   2.954 -0.5490 -0.4649 -0.4182
   39CHL1   H7A 2824   0.650   2.035   2.995 -0.3568 -1.0585  1.1932
   39CHL1   H7B 2825   0.641   1.862   2.977 -1.4026  0.2304 -0.1827
   39CHL1    C8 2826   0.845   1.940   3.026 -0.3479  0.8105  0.0459
   39CHL1    H8 2827   0.885   2.043   3.016  1.2177  0.4916  2.1491
   39CHL1   C14 2828   0.823   1.896   3.170  0.4397  0.4799 -0.5006
   39CHL1   H14 2829   0.789   1.790   3.171 -0.1497  0.5354  3.4131
   39CHL1   C15 2830   0.728   1.977   3.258 -0.0170 -0.0492  0.6066
   39CHL1  H15A 2831   0.737   2.086   3.240  1.6125 -0.3144 -0.3360
   39CHL1  H15B 2832   0.621   1.958   3.234 -0.3776  1.9477  0.5119
   39CHL1   C16 2833   0.763   1.933   3.400  0.0737  0.5896  0.1145
   39CHL1  H16A 2834   0.767   2.033   3.447 -0.1354  0.2993  0.7487
   39CHL1  H16B 2835   0.684   1.871   3.447 -1.1879  0.0627 -2.4641
   39CHL1   C17 2836   0.900   1.855   3.395  0.5087  0.5980  0.2271
   39CHL1   H17 2837   0.875   1.747   3.398 -0.3389  0.7735 -0.2810
   39CHL1   C13 2838   0.954   1.883   3.255 -0.0304  0.5643  0.3853
   39CHL1   C18 2839   1.029   2.019   3.243  0.6949  0.5319 -0.7770
   39CHL1  H18A 2840   1.080   2.020   3.144  0.9108 -1.5218 -0.7257
   39CHL1  H18B 2841   0.962   2.108   3.246  1.5942  1.2309  2.3700
   39CHL1  H18C 2842   1.112   2.037   3.314 -0.9051  0.5986  1.1470
   39CHL1   C12 2843   1.036   1.769   3.188  0.2272 -0.4144  0.2271
   39CHL1  H12A 2844   1.133   1.775   3.242 -0.2928  0.1336  1.1210
   39CHL1  H12B 2845   0.984   1.672   3.199 -0.2029 -0.2647 -0.4832
   39CHL1   C11 2846   1.061   1.800   3.036  0.1358  0.6174  0.0828
   39CHL1  H11A 2847   1.136   1.881   3.023  0.7131  0.2590  1.0517
   39CHL1  H11B 2848   1.105   1.711   2.986 -0.1783 -0.4444  1.6027
   39CHL1    C9 2849   0.929   1.834   2.959  0.1178 -0.0401  0.1149
   39CHL1    H9 2850   0.872   1.741   2.940  0.8769 -0.2160 -1.5034
   39CHL1   C10 2851   0.953   1.886   2.804 -0.2078  0.3397  0.4350
   39CHL1   C19 2852   1.072   1.985   2.799 -0.8097  0.5827 -0.1511
   39CHL1  H19A 2853   1.078   2.048   2.708  0.0095 -0.1519 -0.6288
   39CHL1  H19B 2854   1.060   2.054   2.885 -4.1195  0.1179 -0.0820
   39CHL1  H19C 2855   1.166   1.927   2.809 -2.7628 -2.5586  2.1249
   39CHL1    C1 2856   0.994   1.759   2.724  0.1983 -0.0202  0.7366
   39CHL1   H1A 2857   1.085   1.705   2.760  0.3880 -0.2696 -0.0911
   39CHL1   H1B 2858   0.911   1.686   2.712  0.4947 -0.0318 -1.6689
   39CHL1    C2 2859   1.008   1.789   2.571 -0.8702 -0.4964  0.3386
   39CHL1   H2A 2860   1.034   1.697   2.514 -0.4272 -0.8324  1.0635
   39CHL1   H2B 2861   1.087   1.866   2.562 -1.9105  0.4287 -1.3875
   39CHL1   C20 2862   0.990   1.877   3.518 -0.3928  0.1670 -0.3278
   39CHL1   H20 2863   0.999   1.987   3.525  0.8688  0.1284 -0.9105
   39CHL1   C21 2864   1.128   1.807   3.518 -0.1445 -0.1829 -0.2906
   39CHL1  H21A 2865   1.167   1.817   3.622 -0.8218 -0.5371  0.0044
   39CHL1  H21B 2866   1.202   1.842   3.443 -1.5728 -2.2527 -2.8486
   39CHL1  H21C 2867   1.112   1.701   3.490 -1.1503 -0.1297  0.0138
   39CHL1   C22 2868   0.908   1.838   3.653  0.0641  0.1759  0.0634
   39CHL1  H22A 2869   0.974   1.876   3.734 -1.1049  0.2282  1.0083
   39CHL1  H22B 2870   0.810   1.889   3.660 -1.7521 -3.0275 -0.1277
   39CHL1   C23 2871   0.877   1.688   3.675  0.5403 -0.1037  0.8395
   39CHL1  H23A 2872   0.832   1.645   3.583  0.5279 -1.5605  1.4909
   39CHL1  H23B 2873   0.972   1.632   3.688 -0.0026 -1.6782 -1.4491
   39CHL1   C24 2874   0.794   1.682   3.806 -0.6869  0.1745 -0.6422
   39CHL1  H24A 2875   0.852   1.746   3.875  2.6104 -1.3076 -1.8445
   39CHL1  H24B 2876   0.688   1.711   3.785  0.1622  2.8006 -1.7301
   39CHL1   C25 2877   0.798   1.540   3.876  0.1315 -1.0235  0.2194
   39CHL1   H25 2878   0.901   1.524   3.916  0.9637  3.2758  0.2138
   39CHL1   C26 2879   0.699   1.531   3.988 -0.4325  0.0970 -0.2677
   39CHL1  H26A 2880   0.697   1.423   4.012 -0.9430 -0.0480 -0.9558
   39CHL1  H26B 2881   0.730   1.589   4.078  4.0912 -1.7308 -0.3722
   39CHL1  H26C 2882   0.598   1.564   3.954 -1.4254 -1.7935  0.6877
   39CHL1   C27 2883   0.750   1.431   3.778 -0.0332 -0.2995  0.0774
   39CHL1  H27A 2884   0.643   1.451   3.755  0.4354  1.7045 -0.5444
   39CHL1  H27B 2885   0.824   1.439   3.695  0.2557 -0.9650  0.2654
   39CHL1  H27C 2886   0.762   1.332   3.826  1.7738  0.3523  1.0647
   40CHL1    C3 2887   1.564   1.771   2.514  0.4627  0.1915  0.3252
   40CHL1    H3 2888   1.646   1.842   2.535  2.4932 -0.8393 -3.2906
   40CHL1    O3 2889   1.529   1.764   2.378 -0.4261 -0.0483  0.1451
   40CHL1   H3' 2890   1.596   1.715   2.329  0.7239 -0.4379  1.9981
   40CHL1    C4 2891   1.604   1.632   2.557  0.1481  0.0814 -0.2784
   40CHL1   H4A 2892   1.526   1.561   2.522  0.8766  0.6444 -3.3203
   40CHL1   H4B 2893   1.699   1.610   2.504  1.0625  1.1877  0.8509
   40CHL1    C5 2894   1.629   1.628   2.710  0.3029  0.1249 -0.6525
   40CHL1    C6 2895   1.743   1.580   2.758  0.1935  0.2005 -0.0895
   40CHL1    H6 2896   1.828   1.556   2.693  0.4799 -0.4838  0.5135
   40CHL1    C7 2897   1.762   1.544   2.904  1.2531 -0.1699 -0.0279
   40CHL1   H7A 2898   1.763   1.433   2.909 -0.5409 -0.2118 -0.2305
   40CHL1   H7B 2899   1.852   1.588   2.953 -0.0652  0.9441  1.4748
   40CHL1    C8 2900   1.638   1.577   2.998 -0.1694 -0.5387 -0.7534
   40CHL1    H8 2901   1.570   1.488   2.996  0.8518 -1.6011  3.0810
   40CHL1   C14 2902   1.674   1.599   3.149 -0.3081 -0.2189 -0.1518
   40CHL1   H14 2903   1.757   1.672   3.143 -0.4611 -0.0964 -0.8491
   40CHL1   C15 2904   1.747   1.488   3.230 -0.9642 -1.3375  0.2810
   40CHL1  H15A 2905   1.689   1.393   3.228 -0.7573 -1.4553 -0.5449
   40CHL1  H15B 2906   1.852   1.478   3.195 -0.7279 -2.0565  1.1488
   40CHL1   C16 2907   1.741   1.539   3.378 -0.3379  0.2526  0.8184
   40CHL1  H16A 2908   1.668   1.482   3.439  0.8752  0.5266  2.6361
   40CHL1  H16B 2909   1.832   1.531   3.443 -0.4220  1.6424  1.1376
   40CHL1   C17 2910   1.670   1.675   3.368  0.3661 -0.2269  0.6784
   40CHL1   H17 2911   1.746   1.746   3.331  0.1169 -1.0610 -1.5926
   40CHL1   C13 2912   1.574   1.657   3.244 -0.3626  0.1438 -0.7403
   40CHL1   C18 2913   1.459   1.554   3.266 -0.0822  0.1450 -0.0887
   40CHL1  H18A 2914   1.499   1.460   3.311  0.0919  0.0237 -0.4902
   40CHL1  H18B 2915   1.382   1.602   3.330  2.1825  1.9172  1.4570
   40CHL1  H18C 2916   1.407   1.526   3.172 -0.3492  0.8894 -0.1672
   40CHL1   C12 2917   1.514   1.787   3.187  0.6447 -0.3166 -0.7044
   40CHL1  H12A 2918   1.429   1.821   3.250  1.4683 -0.3345  0.4251
   40CHL1  H12B 2919   1.599   1.858   3.172  0.8971 -0.4501  0.0561
   40CHL1   C11 2920   1.453   1.762   3.047  0.5323 -0.2942 -0.2638
   40CHL1  H11A 2921   1.364   1.697   3.058 -0.2557  0.5066 -1.6613
   40CHL1  H11B 2922   1.420   1.859   3.003 -1.1700 -0.3995  0.7124
   40CHL1    C9 2923   1.557   1.702   2.949 -0.4736 -0.3261 -0.5537
   40CHL1    H9 2924   1.637   1.775   2.924 -1.1805  0.5176 -0.4176
   40CHL1   C10 2925   1.510   1.683   2.796  0.5187  0.1614  0.1378
   40CHL1   C19 2926   1.386   1.584   2.796  0.9977  0.0389 -0.0796
   40CHL1  H19A 2927   1.411   1.492   2.853  0.0366 -1.0265 -1.3038
   40CHL1  H19B 2928   1.299   1.638   2.838  1.3234  0.9749 -0.5723
   40CHL1  H19C 2929   1.344   1.552   2.698 -1.0297  2.4090 -0.0780
   40CHL1    C1 2930   1.463   1.828   2.738  0.1705  0.2929  0.5759
   40CHL1   H1A 2931   1.372   1.852   2.796  0.5054 -0.0519  1.2496
   40CHL1   H1B 2932   1.537   1.909   2.752 -0.3684  1.1534 -1.2014
   40CHL1    C2 2933   1.431   1.811   2.587 -0.1673  0.3140  0.3086
   40CHL1   H2A 2934   1.397   1.910   2.550  0.5842  0.0461 -1.1502
   40CHL1   H2B 2935   1.358   1.728   2.570  0.4765 -0.3731  0.8337
   40CHL1   C20 2936   1.612   1.745   3.491 -0.5679 -0.2598  0.4317
   40CHL1   H20 2937   1.555   1.833   3.454 -4.4806 -2.8554 -0.2025
   40CHL1   C21 2938   1.739   1.786   3.575 -0.1773 -0.5617 -0.7177
   40CHL1  H21A 2939   1.817   1.842   3.520  0.6714 -0.2821  0.7332
   40CHL1  H21B 2940   1.782   1.688   3.605  0.7371  0.5053  1.6408
   40CHL1  H21C 2941   1.709   1.842   3.666 -0.1140  0.0572 -1.0702
   40CHL1   C22 2942   1.509   1.659   3.574 -0.7121 -0.3399 -0.4497
   40CHL1  H22A 2943   1.420   1.630   3.513 -1.6413  1.5952 -0.1062
   40CHL1  H22B 2944   1.573   1.577   3.611  2.6996  2.7178  1.0675
   40CHL1   C23 2945   1.468   1.726   3.709 -0.2311  0.3625  0.5060
   40CHL1  H23A 2946   1.551   1.741   3.781  0.0774 -1.2619  0.5371
   40CHL1  H23B 2947   1.418   1.823   3.689  2.0528  1.1681 -2.1286
   40CHL1   C24 2948   1.368   1.630   3.784 -0.0488  0.1111 -0.4224
   40CHL1  H24A 2949   1.277   1.617   3.722 -0.4277  2.3629 -0.4379
   40CHL1  H24B 2950   1.424   1.537   3.806 -0.4682  0.6245  3.5320
   40CHL1   C25 2951   1.314   1.678   3.922 -0.7987  0.7497  0.2350
   40CHL1   H25 2952   1.407   1.686   3.983 -1.5394 -2.1292  1.9148
   40CHL1   C26 2953   1.251   1.817   3.912  0.2147  0.3428 -1.0170
   40CHL1  H26A 2954   1.159   1.818   3.851  1.1554  1.0648 -2.4687
   40CHL1  H26B 2955   1.219   1.837   4.017  0.6588 -1.0747 -0.5860
   40CHL1  H26C 2956   1.319   1.898   3.877  0.4114  0.2290 -0.9040
   40CHL1   C27 2957   1.211   1.576   3.968  0.1191 -0.3395  0.4723
   40CHL1  H27A 2958   1.259   1.483   4.002  1.7769  0.6074  0.8452
   40CHL1  H27B 2959   1.164   1.604   4.064 -1.9359 -1.7249 -0.0598
   40CHL1  H27C 2960   1.141   1.553   3.884  0.6401 -1.7924  0.4187
   41CHL1    C3 2961   2.049   0.987   2.552 -0.4538 -0.4232 -0.0738
   41CHL1    H3 2962   2.127   1.064   2.572  1.6925 -2.7165  0.8972
   41CHL1    O3 2963   2.025   0.986   2.410 -0.2460  0.3962  0.2288
   41CHL1   H3' 2964   2.104   1.014   2.363 -0.7177  1.5112  0.0600
   41CHL1    C4 2965   2.096   0.850   2.612  0.3311 -0.5308  0.3856
   41CHL1   H4A 2966   2.029   0.768   2.577 -1.5734  0.8581  0.6234
   41CHL1   H4B 2967   2.189   0.821   2.559  0.3189  1.0484 -0.5604
   41CHL1    C5 2968   2.116   0.862   2.757 -0.4493 -0.0633 -0.2409
   41CHL1    C6 2969   2.240   0.839   2.812  0.0936 -0.3773 -0.1414
   41CHL1    H6 2970   2.328   0.814   2.751  0.3245  0.6315 -0.2449
   41CHL1    C7 2971   2.270   0.849   2.957  0.1256  0.7496 -0.0261
   41CHL1   H7A 2972   2.335   0.767   2.996  0.5634  1.3337  0.4882
   41CHL1   H7B 2973   2.320   0.944   2.983  1.0634 -0.1662  1.7265
   41CHL1    C8 2974   2.137   0.838   3.041 -0.3739 -0.4896  0.5165
   41CHL1    H8 2975   2.098   0.733   3.037  1.5234 -1.2060 -0.7396
   41CHL1   C14 2976   2.168   0.868   3.187 -0.4399 -0.7412 -1.3800
   41CHL1   H14 2977   2.216   0.968   3.196  0.6618 -1.2429 -1.5621
   41CHL1   C15 2978   2.255   0.767   3.262  0.0496  0.1932  0.4311
   41CHL1  H15A 2979   2.238   0.664   3.224 -0.3696  0.8810 -1.3118
   41CHL1  H15B 2980   2.360   0.801   3.244  0.8092 -1.1787  1.9063
   41CHL1   C16 2981   2.226   0.788   3.411 -0.1065 -0.4524 -0.3840
   41CHL1  H16A 2982   2.205   0.690   3.459  0.1899  0.1415  1.0051
   41CHL1  H16B 2983   2.310   0.842   3.460 -0.7501 -0.2297  0.4990
   41CHL1   C17 2984   2.098   0.878   3.423  0.6245  0.1042  0.9023
   41CHL1   H17 2985   2.126   0.985   3.437  0.7780 -0.0493  1.8324
   41CHL1   C13 2986   2.040   0.861   3.274  0.4019  0.3601 -0.4864
   41CHL1   C18 2987   1.970   0.722   3.271 -0.1257  0.4043  0.5352
   41CHL1  H18A 2988   2.034   0.637   3.304  1.6114  0.5289 -2.2145
   41CHL1  H18B 2989   1.880   0.729   3.335 -0.8084 -0.5065 -0.2962
   41CHL1  H18C 2990   1.929   0.699   3.170 -0.6626  3.3188 -0.0166
   41CHL1   C12 2991   1.950   0.972   3.224  0.3280  0.0678  0.8528
   41CHL1  H12A 2992   1.853   0.970   3.279  0.0973 -0.8744  0.4361
   41CHL1  H12B 2993   1.994   1.072   3.245  2.8372 -0.6414 -0.7013
   41CHL1   C11 2994   1.919   0.959   3.074  0.0553  0.1105  0.2537
   41CHL1  H11A 2995   1.869   0.860   3.066  3.4015 -1.6336 -0.6885
   41CHL1  H11B 2996   1.859   1.044   3.034  1.6444 -0.0016 -2.6815
   41CHL1    C9 2997   2.033   0.934   2.979 -0.1967 -0.1150 -0.5791
   41CHL1    H9 2998   2.091   1.029   2.976 -1.6497  0.8031 -0.6434
   41CHL1   C10 2999   1.995   0.908   2.834 -0.4030 -0.4894  0.5180
   41CHL1   C19 3000   1.881   0.798   2.825  0.0406 -0.3228  0.0376
   41CHL1  H19A 3001   1.908   0.709   2.886 -1.6413 -0.4201  0.6803
   41CHL1  H19B 3002   1.782   0.833   2.861 -0.0073 -0.7199  0.3044
   41CHL1  H19C 3003   1.861   0.769   2.720  3.0182  0.5728 -0.8833
   41CHL1    C1 3004   1.936   1.039   2.776  0.4731  0.7804  0.0136
   41CHL1   H1A 3005   1.838   1.059   2.825 -0.5974 -1.6105 -1.0145
   41CHL1   H1B 3006   1.998   1.127   2.804  0.3761  0.3688  1.6123
   41CHL1    C2 3007   1.914   1.031   2.627  0.4784  0.8249  0.8023
   41CHL1   H2A 3008   1.886   1.129   2.584 -1.8746 -0.3979 -0.6808
   41CHL1   H2B 3009   1.833   0.959   2.604  0.8993 -0.8731  4.0641
   41CHL1   C20 3010   2.026   0.832   3.551  0.1170 -0.6352  0.1365
   41CHL1   H20 3011   2.006   0.723   3.541 -0.7812 -0.5703  0.9525
   41CHL1   C21 3012   1.905   0.934   3.563 -0.0428  1.2056  0.1629
   41CHL1  H21A 3013   1.837   0.916   3.649  1.4755  1.6177  1.4783
   41CHL1  H21B 3014   1.842   0.915   3.473 -0.9465 -1.1391  1.1961
   41CHL1  H21C 3015   1.945   1.037   3.558  1.3190  0.6538 -2.8875
   41CHL1   C22 3016   2.116   0.843   3.677 -0.4046  0.3617  0.8107
   41CHL1  H22A 3017   2.195   0.765   3.686 -0.2250  0.5133  0.5668
   41CHL1  H22B 3018   2.165   0.943   3.677  1.7895 -0.6227 -0.5816
   41CHL1   C23 3019   2.039   0.813   3.807 -0.4035 -0.6325 -0.2872
   41CHL1  H23A 3020   2.105   0.827   3.895  0.4266 -1.3386 -0.7779
   41CHL1  H23B 3021   1.971   0.900   3.806  1.4914  0.9120 -0.5438
   41CHL1   C24 3022   1.963   0.681   3.828  0.1245  0.1750  0.5536
   41CHL1  H24A 3023   1.904   0.668   3.735  1.1109  0.1452 -0.0855
   41CHL1  H24B 3024   2.026   0.590   3.816 -2.3977 -1.8979  1.9592
   41CHL1   C25 3025   1.867   0.676   3.947  0.1226  0.2240 -0.3124
   41CHL1   H25 3026   1.927   0.702   4.036 -0.9907 -1.2691  0.9335
   41CHL1   C26 3027   1.751   0.771   3.930  0.0123 -0.0127 -0.4339
   41CHL1  H26A 3028   1.694   0.775   4.025 -0.6927  0.8249 -0.8842
   41CHL1  H26B 3029   1.789   0.872   3.906 -0.6892  1.1435  2.7625
   41CHL1  H26C 3030   1.685   0.732   3.850 -2.8136 -0.1456  1.8283
   41CHL1   C27 3031   1.807   0.534   3.943 -0.2000  0.2711  0.0840
   41CHL1  H27A 3032   1.753   0.522   4.040  1.4473 -2.9474  0.7628
   41CHL1  H27B 3033   1.739   0.526   3.856 -0.3221 -2.8887  0.3405
   41CHL1  H27C 3034   1.885   0.455   3.953 -0.7534 -0.1720  1.0486
   42CHL1    C3 3035   4.478   0.999   2.613  1.0603  0.5824  0.0035
   42CHL1    H3 3036   4.495   1.106   2.636 -1.0666  0.7752  0.9088
   42CHL1    O3 3037   4.519   0.979   2.477 -0.2744  0.8344  0.1104
   42CHL1   H3' 3038   4.570   1.054   2.446 -1.4952  2.0831  0.9716
   42CHL1    C4 3039   4.565   0.905   2.702  0.1839  0.0028  0.1504
   42CHL1   H4A 3040   4.552   0.804   2.657 -2.0092  0.7274 -1.0050
   42CHL1   H4B 3041   4.670   0.941   2.691  0.4364 -0.3776  1.2558
   42CHL1    C5 3042   4.517   0.900   2.844 -0.9971 -0.6754 -0.1858
   42CHL1    C6 3043   4.605   0.934   2.941  0.1811  0.8055  0.0404
   42CHL1    H6 3044   4.709   0.959   2.913 -0.0145  1.5615 -0.0354
   42CHL1    C7 3045   4.575   0.927   3.090 -0.3941 -0.3088 -0.0564
   42CHL1   H7A 3046   4.651   0.870   3.149  0.8313 -0.6977 -1.9275
   42CHL1   H7B 3047   4.569   1.031   3.130  0.7683 -0.9273  1.8431
   42CHL1    C8 3048   4.435   0.861   3.114 -0.1178  0.7203  0.1958
   42CHL1    H8 3049   4.444   0.751   3.103  0.2517  0.9126 -1.9361
   42CHL1   C14 3050   4.382   0.887   3.255 -0.5307  0.7255 -0.8011
   42CHL1   H14 3051   4.370   0.997   3.256  3.9576  1.4102 -1.5992
   42CHL1   C15 3052   4.479   0.856   3.375  0.0341 -0.3951  0.6033
   42CHL1  H15A 3053   4.522   0.756   3.355 -0.3173 -0.5637  0.6771
   42CHL1  H15B 3054   4.560   0.931   3.379  2.2885 -2.6076 -0.7326
   42CHL1   C16 3055   4.391   0.855   3.501  0.3140 -0.3907 -0.1517
   42CHL1  H16A 3056   4.412   0.772   3.572  2.3089 -0.1603 -0.4133
   42CHL1  H16B 3057   4.407   0.945   3.564 -2.0684  1.3809 -1.9204
   42CHL1   C17 3058   4.241   0.862   3.451  0.3518 -0.3441 -0.2537
   42CHL1   H17 3059   4.213   0.968   3.468  3.6352  0.3695  1.4480
   42CHL1   C13 3060   4.248   0.828   3.298 -0.0366  0.1444  0.1177
   42CHL1   C18 3061   4.254   0.672   3.276 -0.6372 -0.0591  0.2238
   42CHL1  H18A 3062   4.347   0.626   3.317  0.5316 -1.5895 -3.5941
   42CHL1  H18B 3063   4.174   0.620   3.332 -2.1903 -0.6722 -2.3836
   42CHL1  H18C 3064   4.250   0.635   3.171 -0.0251 -0.3862  0.3069
   42CHL1   C12 3065   4.145   0.902   3.200 -0.0359 -0.5634  0.0875
   42CHL1  H12A 3066   4.040   0.869   3.217  0.1289 -0.3878  1.5349
   42CHL1  H12B 3067   4.148   1.012   3.213 -2.4380 -0.4491  0.0845
   42CHL1   C11 3068   4.185   0.869   3.060  0.2616  0.1292  0.2729
   42CHL1  H11A 3069   4.176   0.759   3.056 -0.1629  0.1733  0.0400
   42CHL1  H11B 3070   4.127   0.916   2.977  0.4968 -0.5284 -0.2755
   42CHL1    C9 3071   4.331   0.914   3.017 -0.0577  0.4069  0.4364
   42CHL1    H9 3072   4.324   1.025   3.021  1.2312  0.4996  0.6540
   42CHL1   C10 3073   4.373   0.880   2.867  0.2560 -0.2460 -0.3560
   42CHL1   C19 3074   4.336   0.734   2.846 -0.0470  0.0761 -0.1017
   42CHL1  H19A 3075   4.382   0.692   2.754  0.9058 -0.3335  0.5516
   42CHL1  H19B 3076   4.380   0.664   2.920 -0.0128 -0.2021 -0.3803
   42CHL1  H19C 3077   4.225   0.731   2.842 -0.2292  3.2423  0.2561
   42CHL1    C1 3078   4.282   0.969   2.771 -0.4082  0.9630  0.1067
   42CHL1   H1A 3079   4.173   0.950   2.787 -0.3650 -1.2283 -1.5790
   42CHL1   H1B 3080   4.290   1.076   2.797 -2.3926  1.2264 -0.1649
   42CHL1    C2 3081   4.327   0.966   2.622  0.2133  0.2521 -0.1145
   42CHL1   H2A 3082   4.260   1.041   2.576 -2.3904 -2.1032 -0.4029
   42CHL1   H2B 3083   4.304   0.869   2.574 -1.0354 -0.4252  1.7610
   42CHL1   C20 3084   4.154   0.791   3.557  0.4426 -0.1471  0.0307
   42CHL1   H20 3085   4.191   0.687   3.564 -0.9508 -0.6578  0.2420
   42CHL1   C21 3086   4.012   0.786   3.494 -0.4993 -0.5799 -0.0305
   42CHL1  H21A 3087   3.934   0.746   3.563  0.7444 -0.7818  1.3024
   42CHL1  H21B 3088   4.010   0.715   3.408 -1.4254  1.3830 -1.7187
   42CHL1  H21C 3089   3.986   0.888   3.461  0.5218 -1.2788 -3.3221
   42CHL1   C22 3090   4.150   0.857   3.699 -0.4541  0.3395  0.5077
   42CHL1  H22A 3091   4.258   0.872   3.720 -0.5146 -2.0233  3.1058
   42CHL1  H22B 3092   4.097   0.954   3.699  0.2368  0.7257  0.6332
   42CHL1   C23 3093   4.094   0.758   3.800 -1.0876 -0.6339 -0.8149
   42CHL1  H23A 3094   3.991   0.726   3.774 -2.0198  1.8573 -0.4207
   42CHL1  H23B 3095   4.153   0.664   3.804 -1.9136 -1.1633 -0.7812
   42CHL1   C24 3096   4.101   0.818   3.939 -0.3284  0.8404 -0.2111
   42CHL1  H24A 3097   4.208   0.841   3.952 -0.5880  2.6904 -1.0436
   42CHL1  H24B 3098   4.062   0.921   3.953 -1.7743  1.2085 -4.9768
   42CHL1   C25 3099   4.065   0.726   4.056  0.6314 -0.2638  0.1983
   42CHL1   H25 3100   4.134   0.640   4.050  0.9056 -0.0981  0.8650
   42CHL1   C26 3101   4.093   0.791   4.193 -0.0433  0.1241  0.4966
   42CHL1  H26A 3102   4.198   0.828   4.193 -0.2119  0.7206 -1.8087
   42CHL1  H26B 3103   4.033   0.884   4.208  1.0529  0.7645  0.9942
   42CHL1  H26C 3104   4.075   0.718   4.274  2.6306 -0.0955  0.9843
   42CHL1   C27 3105   3.919   0.684   4.038 -0.1942 -0.0938 -0.4876
   42CHL1  H27A 3106   3.883   0.637   4.132  0.8499  0.9577  0.4600
   42CHL1  H27B 3107   3.859   0.775   4.020 -0.7163  0.1182  1.9290
   42CHL1  H27C 3108   3.900   0.606   3.961 -1.9000  1.2124 -1.4546
   43CHL1    C3 3109   5.516   0.757   2.410  0.4384  0.3417 -0.1647
   43CHL1    H3 3110   5.517   0.868   2.414 -2.8649  0.5331 -1.6496
   43CHL1    O3 3111   5.521   0.714   2.279  0.0728  0.2644  0.2773
   43CHL1   H3' 3112   5.599   0.756   2.241 -0.8271  1.3654 -0.4372
   43CHL1    C4 3113   5.642   0.701   2.479 -0.2822  0.3536 -0.4471
   43CHL1   H4A 3114   5.650   0.590   2.471  0.1627 -0.0395  3.5369
   43CHL1   H4B 3115   5.733   0.745   2.433 -0.2144  0.9526  0.2427
   43CHL1    C5 3116   5.649   0.745   2.627  0.6698  0.5701 -0.1204
   43CHL1    C6 3117   5.737   0.834   2.664  0.6199  0.3271 -0.2761
   43CHL1    H6 3118   5.826   0.857   2.602  1.1532 -2.4889 -0.7339
   43CHL1    C7 3119   5.739   0.878   2.806 -0.0588 -0.2771  0.2256
   43CHL1   H7A 3120   5.841   0.894   2.847  0.1007  4.0225 -1.2851
   43CHL1   H7B 3121   5.706   0.984   2.807  1.4566  0.2297  1.4931
   43CHL1    C8 3122   5.652   0.801   2.903  0.0759  0.3767  0.0136
   43CHL1    H8 3123   5.696   0.701   2.924 -1.3603 -0.5484 -1.1717
   43CHL1   C14 3124   5.645   0.868   3.036 -0.1965 -0.5685  0.0967
   43CHL1   H14 3125   5.616   0.973   3.015  3.2248 -0.0083 -2.6757
   43CHL1   C15 3126   5.782   0.884   3.106 -0.0314 -0.3184  0.8463
   43CHL1  H15A 3127   5.845   0.793   3.108  1.4113  0.5379 -1.4766
   43CHL1  H15B 3128   5.843   0.968   3.064  1.2481 -1.9906 -0.7864
   43CHL1   C16 3129   5.731   0.930   3.251  0.1807 -0.1734 -0.1120
   43CHL1  H16A 3130   5.790   0.869   3.323  1.4298  2.1036  0.9018
   43CHL1  H16B 3131   5.741   1.040   3.268  0.6074 -0.0947 -0.8382
   43CHL1   C17 3132   5.574   0.903   3.255  0.2511 -0.0957  0.9016
   43CHL1   H17 3133   5.535   1.004   3.229 -0.2085  0.1644  2.4741
   43CHL1   C13 3134   5.544   0.811   3.137 -1.1829 -0.5061  0.3303
   43CHL1   C18 3135   5.589   0.674   3.178 -0.4283 -0.5253 -0.2536
   43CHL1  H18A 3136   5.533   0.627   3.261  1.1881  0.9294  1.7647
   43CHL1  H18B 3137   5.595   0.602   3.094  3.6372 -2.9275  1.7874
   43CHL1  H18C 3138   5.693   0.677   3.218  0.1174 -0.4206 -1.5933
   43CHL1   C12 3139   5.406   0.803   3.084 -0.3638  0.6763  1.0586
   43CHL1  H12A 3140   5.341   0.747   3.155 -1.0332 -2.7275 -1.9479
   43CHL1  H12B 3141   5.358   0.903   3.081 -0.3901  0.6500 -0.1293
   43CHL1   C11 3142   5.403   0.732   2.947  0.1409  0.3856 -0.0518
   43CHL1  H11A 3143   5.421   0.623   2.964 -0.8366  0.5439  2.5606
   43CHL1  H11B 3144   5.309   0.743   2.890 -1.5165  1.5028  2.7185
   43CHL1    C9 3145   5.514   0.787   2.847  0.6714 -0.2779  0.0887
   43CHL1    H9 3146   5.482   0.890   2.821  0.1843 -0.3373  0.4272
   43CHL1   C10 3147   5.517   0.715   2.712  0.0710  0.1051 -0.4813
   43CHL1   C19 3148   5.496   0.558   2.723 -0.1886  0.0833  0.4061
   43CHL1  H19A 3149   5.511   0.505   2.627  2.0805  0.2079  0.6491
   43CHL1  H19B 3150   5.587   0.529   2.780  0.5639  1.3386 -0.1113
   43CHL1  H19C 3151   5.403   0.529   2.776 -0.3530  1.6446  1.0314
   43CHL1    C1 3152   5.394   0.768   2.628  0.2076  0.2188 -0.1637
   43CHL1   H1A 3153   5.311   0.732   2.690  0.5895  1.2611  0.9967
   43CHL1   H1B 3154   5.378   0.877   2.610 -3.3391 -0.2192 -0.3366
   43CHL1    C2 3155   5.388   0.712   2.484 -0.2710 -0.5853 -0.1063
   43CHL1   H2A 3156   5.297   0.751   2.435 -0.2409 -2.1337 -1.5088
   43CHL1   H2B 3157   5.383   0.601   2.488  1.7734 -0.6904  2.7285
   43CHL1   C20 3158   5.526   0.867   3.399  0.0109  0.2012 -1.2090
   43CHL1   H20 3159   5.550   0.763   3.432 -2.3368  0.0293  0.1375
   43CHL1   C21 3160   5.368   0.874   3.393 -0.2084  0.8969  0.4135
   43CHL1  H21A 3161   5.337   0.952   3.320  0.6064  0.3435 -0.5286
   43CHL1  H21B 3162   5.327   0.894   3.495  1.0364  1.4613  0.8189
   43CHL1  H21C 3163   5.332   0.774   3.361  1.1289  0.5203  0.0341
   43CHL1   C22 3164   5.576   0.953   3.515 -0.3983  0.6058  0.4909
   43CHL1  H22A 3165   5.686   0.972   3.507  0.1517 -2.3801 -0.1387
   43CHL1  H22B 3166   5.523   1.050   3.504  0.6741  1.3701  1.7242
   43CHL1   C23 3167   5.540   0.899   3.652  0.7531  0.8846  0.2661
   43CHL1  H23A 3168   5.430   0.903   3.668  0.9213  1.8717  1.3314
   43CHL1  H23B 3169   5.567   0.796   3.683 -1.4780 -0.3741 -1.6560
   43CHL1   C24 3170   5.605   0.995   3.763  0.0262 -0.1713  0.4056
   43CHL1  H24A 3171   5.716   0.994   3.754  0.1949  2.9424  1.0400
   43CHL1  H24B 3172   5.580   1.102   3.750 -0.9840 -0.1072  2.6191
   43CHL1   C25 3173   5.574   0.955   3.905  0.2592  0.0648 -0.1792
   43CHL1   H25 3174   5.630   1.026   3.969 -0.3133 -0.6813  1.1783
   43CHL1   C26 3175   5.421   0.972   3.935 -0.1616  0.7035  0.4970
   43CHL1  H26A 3176   5.413   0.955   4.044  1.7584 -0.9042  0.4319
   43CHL1  H26B 3177   5.387   1.075   3.910  4.1855  2.4994  1.1151
   43CHL1  H26C 3178   5.352   0.896   3.893  0.6907  0.3975 -0.3813
   43CHL1   C27 3179   5.630   0.817   3.936 -0.1051  0.8105  0.1364
   43CHL1  H27A 3180   5.643   0.808   4.046  0.5835 -1.8945 -0.1136
   43CHL1  H27B 3181   5.563   0.732   3.910  1.1220 -0.8779  2.1709
   43CHL1  H27C 3182   5.729   0.821   3.886 -0.0839 -0.4799  0.0435
   44CHL1    C3 3183   0.018   5.611   2.702  0.1242 -0.1453  0.0850
   44CHL1    H3 3184   0.121   5.580   2.729 -0.9696 -1.8855  2.7593
   44CHL1    O3 3185   0.009   5.666   2.572  0.0366  0.1065 -0.0625
   44CHL1   H3' 3186  -0.082   5.698   2.562  0.0592  0.1014 -0.3110
   44CHL1    C4 3187  -0.085   5.501   2.719 -0.0933  0.1690 -0.4342
   44CHL1   H4A 3188  -0.177   5.558   2.696 -0.1165 -0.2737 -1.4735
   44CHL1   H4B 3189  -0.081   5.428   2.635  0.2484  0.8608 -1.0216
   44CHL1    C5 3190  -0.079   5.439   2.858 -0.0402  0.0968 -0.2802
   44CHL1    C6 3191  -0.055   5.307   2.867  0.3881  0.8492  0.6082
   44CHL1    H6 3192  -0.043   5.245   2.777  0.9496  1.6199  0.1407
   44CHL1    C7 3193  -0.045   5.229   2.995 -0.3153 -0.3633  0.0683
   44CHL1   H7A 3194  -0.098   5.131   2.987 -0.6791 -0.1826  0.2419
   44CHL1   H7B 3195   0.063   5.208   3.008 -0.7159 -1.9232  1.3088
   44CHL1    C8 3196  -0.091   5.307   3.116 -0.3393  0.1016 -0.6432
   44CHL1    H8 3197  -0.201   5.302   3.130 -0.5422  1.2693 -1.6422
   44CHL1   C14 3198  -0.028   5.264   3.249 -0.4406 -0.0086  0.6763
   44CHL1   H14 3199   0.083   5.267   3.240 -0.5356  1.8877 -0.5775
   44CHL1   C15 3200  -0.066   5.113   3.274 -0.3671 -0.4220  0.1094
   44CHL1  H15A 3201  -0.173   5.095   3.253  0.2047 -1.3567 -2.2967
   44CHL1  H15B 3202  -0.004   5.034   3.226  1.5642  1.4727 -0.6522
   44CHL1   C16 3203  -0.046   5.103   3.424 -0.2301  0.2502  0.8170
   44CHL1  H16A 3204  -0.137   5.066   3.478 -1.4175  1.2496 -0.4452
   44CHL1  H16B 3205   0.039   5.033   3.442  0.9835  1.6708  0.7553
   44CHL1   C17 3206  -0.025   5.247   3.483 -0.3417 -0.0300  0.3770
   44CHL1   H17 3207   0.083   5.271   3.486 -0.6122  1.5434 -1.0990
   44CHL1   C13 3208  -0.074   5.336   3.372 -0.7572 -0.0161  0.5160
   44CHL1   C18 3209  -0.228   5.334   3.374 -0.2736 -0.3363 -0.9870
   44CHL1  H18A 3210  -0.274   5.381   3.285  1.0591 -0.6174 -1.8479
   44CHL1  H18B 3211  -0.275   5.236   3.400 -1.1960  1.0125  3.3364
   44CHL1  H18C 3212  -0.252   5.407   3.454  1.5805 -2.6242  1.8705
   44CHL1   C12 3213  -0.016   5.476   3.359 -0.4952 -0.1102 -0.4598
   44CHL1  H12A 3214  -0.053   5.534   3.446  0.8819  0.6607 -0.3650
   44CHL1  H12B 3215   0.095   5.467   3.363 -0.4237 -2.3315 -3.5084
   44CHL1   C11 3216  -0.055   5.543   3.229 -0.2703  0.7302 -0.1017
   44CHL1  H11A 3217  -0.165   5.562   3.230 -0.2525  0.8293  0.2426
   44CHL1  H11B 3218   0.006   5.635   3.217 -1.4831  1.6332  0.4291
   44CHL1    C9 3219  -0.040   5.450   3.100  0.0033  0.2721 -0.6123
   44CHL1    H9 3220   0.072   5.450   3.096  0.0979  2.4851  0.4753
   44CHL1   C10 3221  -0.088   5.530   2.978 -0.0269  0.3145  0.5533
   44CHL1   C19 3222  -0.240   5.565   2.992  0.2457 -0.2447 -0.6118
   44CHL1  H19A 3223  -0.248   5.651   3.062 -0.7538  2.3454 -3.6157
   44CHL1  H19B 3224  -0.278   5.607   2.896  1.0306 -0.1546 -0.8888
   44CHL1  H19C 3225  -0.297   5.475   3.024  0.3830  0.0010  0.3351
   44CHL1    C1 3226  -0.002   5.653   2.950 -0.2936  0.2150 -0.0333
   44CHL1   H1A 3227  -0.029   5.733   3.023 -0.8143  1.0607 -1.1223
   44CHL1   H1B 3228   0.108   5.650   2.966 -0.6404  1.7399  3.8349
   44CHL1    C2 3229  -0.023   5.714   2.807  0.7413  0.2091 -0.5354
   44CHL1   H2A 3230   0.034   5.808   2.791  0.0489  0.6830 -0.2425
   44CHL1   H2B 3231  -0.129   5.743   2.797  0.8515  0.5849 -0.6187
   44CHL1   C20 3232  -0.070   5.257   3.623  0.1131  0.0100 -0.4371
   44CHL1   H20 3233  -0.181   5.263   3.610  0.3970  0.7903 -3.2362
   44CHL1   C21 3234  -0.037   5.389   3.677  0.1572  0.6953  0.2320
   44CHL1  H21A 3235   0.072   5.407   3.676  0.8886 -2.9220  0.8832
   44CHL1  H21B 3236  -0.087   5.469   3.618 -2.2786 -1.1935 -0.4280
   44CHL1  H21C 3237  -0.068   5.411   3.782  0.5359  2.0518  0.0791
   44CHL1   C22 3238  -0.030   5.140   3.720  0.2145 -0.3025 -0.0615
   44CHL1  H22A 3239  -0.076   5.042   3.695 -2.2937  0.5840  0.8278
   44CHL1  H22B 3240   0.081   5.132   3.719  0.3545  0.7528  2.0782
   44CHL1   C23 3241  -0.070   5.150   3.874 -0.1015  0.8518 -0.4202
   44CHL1  H23A 3242  -0.025   5.234   3.932 -2.7228  1.6306  0.6843
   44CHL1  H23B 3243  -0.179   5.171   3.887 -0.2595 -0.0049 -0.3014
   44CHL1   C24 3244  -0.028   5.026   3.957 -0.3456 -0.7132  0.0384
   44CHL1  H24A 3245  -0.046   4.929   3.906  0.3125  0.2305 -2.0960
   44CHL1  H24B 3246   0.083   5.031   3.967  0.2004 -3.5592 -3.0883
   44CHL1   C25 3247  -0.074   5.014   4.107 -0.6136 -0.8511 -0.1734
   44CHL1   H25 3248  -0.071   5.120   4.139  3.3563 -1.5286  2.4484
   44CHL1   C26 3249  -0.217   4.978   4.098  0.5262  0.4212  0.1811
   44CHL1  H26A 3250  -0.262   4.952   4.196  0.6681 -2.6055 -0.4664
   44CHL1  H26B 3251  -0.291   5.043   4.046  0.0315 -0.0431  0.2960
   44CHL1  H26C 3252  -0.220   4.878   4.050  1.0943  0.6510 -0.3478
   44CHL1   C27 3253   0.013   4.927   4.200 -0.3318 -0.7807  0.4824
   44CHL1  H27A 3254   0.114   4.973   4.201 -0.7594  0.2231 -0.4901
   44CHL1  H27B 3255  -0.036   4.932   4.299 -1.0199  1.4324  0.0820
   44CHL1  H27C 3256   0.010   4.823   4.160 -3.5438 -1.6566  2.5867
   45CHL1    C3 3257   4.372   0.110   2.321  0.4346 -0.3972  0.1990
   45CHL1    H3 3258   4.264   0.130   2.307  0.4379 -0.8713 -0.5912
   45CHL1    O3 3259   4.435   0.098   2.194  0.0530 -0.3968 -0.7400
   45CHL1   H3' 3260   4.377   0.149   2.137  0.0577  0.5246  0.0543
   45CHL1    C4 3261   4.426   0.236   2.395 -0.2169  0.2273 -0.4202
   45CHL1   H4A 3262   4.535   0.239   2.414 -0.3937 -2.6625  1.7072
   45CHL1   H4B 3263   4.415   0.324   2.328 -0.2250  0.0814 -0.6091
   45CHL1    C5 3264   4.374   0.256   2.537  0.2977 -0.6465 -0.0525
   45CHL1    C6 3265   4.324   0.377   2.581  0.2020  0.3019 -0.0497
   45CHL1    H6 3266   4.335   0.466   2.517  0.8502  0.4639  0.2783
   45CHL1    C7 3267   4.270   0.388   2.718  0.7246  0.2510 -0.1859
   45CHL1   H7A 3268   4.303   0.477   2.776  1.1093 -0.7405  1.1721
   45CHL1   H7B 3269   4.160   0.391   2.701  0.6419  0.3395  0.3464
   45CHL1    C8 3270   4.294   0.265   2.817  0.6522  0.0036  0.4505
   45CHL1    H8 3271   4.398   0.289   2.847  1.5011 -0.3262 -2.0078
   45CHL1   C14 3272   4.208   0.266   2.946 -0.3146 -0.4894  0.1853
   45CHL1   H14 3273   4.107   0.230   2.916  0.2494 -1.8864 -0.1440
   45CHL1   C15 3274   4.197   0.406   3.014  0.0501  0.2785  0.8494
   45CHL1  H15A 3275   4.295   0.459   3.009 -0.7777  1.7624 -1.9246
   45CHL1  H15B 3276   4.132   0.473   2.954 -0.3711  0.4578  1.4952
   45CHL1   C16 3277   4.145   0.372   3.154 -0.0091  0.5049  0.6629
   45CHL1  H16A 3278   4.200   0.426   3.234 -1.0606  2.3233  0.2085
   45CHL1  H16B 3279   4.038   0.401   3.160  0.0137  0.4968  1.1980
   45CHL1   C17 3280   4.158   0.212   3.169  0.1190  0.2591  0.1341
   45CHL1   H17 3281   4.061   0.180   3.126 -0.9443  0.0750  2.5266
   45CHL1   C13 3282   4.247   0.165   3.054 -0.6035  0.1038  0.0889
   45CHL1   C18 3283   4.402   0.178   3.088 -0.0437 -0.5324 -0.4567
   45CHL1  H18A 3284   4.469   0.179   2.999 -0.9441  1.6363 -1.1951
   45CHL1  H18B 3285   4.419   0.281   3.126 -1.7264  0.3816 -2.0175
   45CHL1  H18C 3286   4.427   0.099   3.161 -1.1890  0.6641  1.3152
   45CHL1   C12 3287   4.227   0.032   2.988  0.0146  0.4546 -0.5209
   45CHL1  H12A 3288   4.273  -0.042   3.057  2.1857 -0.8991 -3.2216
   45CHL1  H12B 3289   4.118   0.012   2.972  0.0592  0.6207 -1.0474
   45CHL1   C11 3290   4.297   0.010   2.849  0.1101  0.3784  0.4910
   45CHL1  H11A 3291   4.396  -0.040   2.855  0.6999  1.2410 -1.4009
   45CHL1  H11B 3292   4.230  -0.064   2.799 -1.7264  1.8205  0.7166
   45CHL1    C9 3293   4.285   0.133   2.745 -0.0155  0.2699 -0.9787
   45CHL1    H9 3294   4.181   0.114   2.714 -0.4951 -1.3246  1.3171
   45CHL1   C10 3295   4.378   0.128   2.624  0.6251  0.1286  0.4971
   45CHL1   C19 3296   4.528   0.102   2.663 -0.1897 -0.3513 -0.4110
   45CHL1  H19A 3297   4.535   0.005   2.719 -2.1846 -1.4511 -1.9364
   45CHL1  H19B 3298   4.603   0.099   2.582  1.8213  1.5032  1.2562
   45CHL1  H19C 3299   4.558   0.188   2.726 -0.8642  0.6453 -1.4252
   45CHL1    C1 3300   4.337  -0.005   2.545 -0.6174 -0.3287  0.6275
   45CHL1   H1A 3301   4.379  -0.097   2.590 -0.3212 -1.8972 -2.5931
   45CHL1   H1B 3302   4.229  -0.020   2.563 -0.9817  2.5282  1.4116
   45CHL1    C2 3303   4.388  -0.022   2.400  0.0592 -0.4402  0.4331
   45CHL1   H2A 3304   4.330  -0.105   2.354  0.4199 -1.5666  1.9287
   45CHL1   H2B 3305   4.494  -0.053   2.399 -0.1090 -1.0423 -0.5918
   45CHL1   C20 3306   4.186   0.153   3.309  0.1608  0.1616  0.8264
   45CHL1   H20 3307   4.296   0.145   3.323 -0.1604  0.0344  3.7711
   45CHL1   C21 3308   4.121   0.013   3.310  0.5563 -0.3528 -0.7639
   45CHL1  H21A 3309   4.011   0.026   3.310  0.1433 -2.6554  2.6743
   45CHL1  H21B 3310   4.156  -0.054   3.392  2.2405 -0.7304 -1.7335
   45CHL1  H21C 3311   4.139  -0.041   3.214 -0.2268  1.9784 -2.2896
   45CHL1   C22 3312   4.146   0.236   3.427 -0.7216 -0.3844  0.6208
   45CHL1  H22A 3313   4.193   0.335   3.412 -2.4327  0.1262 -1.9464
   45CHL1  H22B 3314   4.035   0.245   3.432 -0.9440 -2.0873 -0.3845
   45CHL1   C23 3315   4.209   0.181   3.558  0.1903 -0.4340  0.2109
   45CHL1  H23A 3316   4.160   0.085   3.584 -0.0465 -0.7107 -1.1651
   45CHL1  H23B 3317   4.314   0.149   3.540  0.3997 -0.4539  1.4188
   45CHL1   C24 3318   4.196   0.283   3.670 -0.6581 -0.4384 -0.0141
   45CHL1  H24A 3319   4.240   0.382   3.643  0.8656 -1.3697 -1.1280
   45CHL1  H24B 3320   4.090   0.310   3.691 -0.3995  2.0673 -1.4701
   45CHL1   C25 3321   4.273   0.231   3.797  0.7481  0.2335 -0.1758
   45CHL1   H25 3322   4.377   0.214   3.760  0.7900  0.5701 -0.2219
   45CHL1   C26 3323   4.262   0.345   3.901 -0.0942 -0.1705 -0.6833
   45CHL1  H26A 3324   4.303   0.321   4.002 -1.7644 -0.2037  0.0139
   45CHL1  H26B 3325   4.327   0.424   3.857 -0.4973 -0.3118 -1.5535
   45CHL1  H26C 3326   4.160   0.387   3.910  0.1174  0.0820  0.9321
   45CHL1   C27 3327   4.210   0.099   3.846 -0.3366  0.4006  0.3401
   45CHL1  H27A 3328   4.224   0.015   3.774 -3.0485 -0.1742  0.3389
   45CHL1  H27B 3329   4.251   0.058   3.940  1.0030 -1.2512 -0.8983
   45CHL1  H27C 3330   4.100   0.113   3.851 -0.2780  0.3630  2.2409
   46CHL1    C3 3331   4.820   0.342   2.500 -0.2276 -0.7680  0.5908
   46CHL1    H3 3332   4.737   0.270   2.513  0.0973 -1.2732 -0.0547
   46CHL1    O3 3333   4.825   0.375   2.364 -0.2643 -0.4596 -0.6189
   46CHL1   H3' 3334   4.882   0.306   2.329  0.0796 -1.6538  2.0527
   46CHL1    C4 3335   4.780   0.476   2.566 -0.5443  0.5372 -0.1044
   46CHL1   H4A 3336   4.859   0.546   2.531  1.1913 -1.6165 -0.7197
   46CHL1   H4B 3337   4.692   0.521   2.515 -0.6189  1.0267  0.4576
   46CHL1    C5 3338   4.771   0.466   2.716  0.5260 -0.1187  0.0883
   46CHL1    C6 3339   4.657   0.509   2.775 -0.3020  1.0356  0.4761
   46CHL1    H6 3340   4.585   0.548   2.701  0.2756  0.7616 -0.2432
   46CHL1    C7 3341   4.637   0.504   2.922  0.4026 -0.1937  0.0665
   46CHL1   H7A 3342   4.595   0.599   2.960 -0.3055 -0.1593 -0.7611
   46CHL1   H7B 3343   4.560   0.428   2.948  0.8400 -0.2716  1.1822
   46CHL1    C8 3344   4.771   0.470   2.999  0.2785  0.3607 -0.0061
   46CHL1    H8 3345   4.835   0.560   3.004  0.2308  0.3670  0.6635
   46CHL1   C14 3346   4.739   0.422   3.140  0.7838  0.4519 -0.1300
   46CHL1   H14 3347   4.676   0.332   3.121 -0.0684  1.1305 -0.5796
   46CHL1   C15 3348   4.642   0.514   3.227  0.1883 -0.1999 -0.0486
   46CHL1  H15A 3349   4.696   0.610   3.212  2.4607 -1.5024 -0.6440
   46CHL1  H15B 3350   4.536   0.516   3.192  0.2812 -1.0336 -0.4047
   46CHL1   C16 3351   4.664   0.465   3.370 -0.0364 -0.6412 -0.2009
   46CHL1  H16A 3352   4.697   0.545   3.440 -0.5017 -1.4602  0.9973
   46CHL1  H16B 3353   4.572   0.430   3.420  0.8356  0.1671  2.0930
   46CHL1   C17 3354   4.768   0.350   3.357  0.4880  0.1788 -0.2847
   46CHL1   H17 3355   4.709   0.258   3.336  0.1771 -0.4282  2.8514
   46CHL1   C13 3356   4.848   0.389   3.231 -0.7120  0.7115 -0.5994
   46CHL1   C18 3357   4.945   0.512   3.262 -0.2963  0.6019 -0.0085
   46CHL1  H18A 3358   5.037   0.476   3.313 -1.0854 -0.1462  0.9461
   46CHL1  H18B 3359   4.964   0.561   3.165  0.1263 -1.4127 -0.9995
   46CHL1  H18C 3360   4.904   0.582   3.339  2.1299  0.4801  1.4801
   46CHL1   C12 3361   4.923   0.276   3.155  0.2461  0.1652  0.0243
   46CHL1  H12A 3362   5.009   0.246   3.219  1.0685  0.0693 -1.0842
   46CHL1  H12B 3363   4.849   0.194   3.140 -2.1860  2.2544 -0.1687
   46CHL1   C11 3364   4.969   0.312   3.014 -0.1860 -0.5389  0.0928
   46CHL1  H11A 3365   5.047   0.390   3.025 -0.3421 -0.5124  1.0216
   46CHL1  H11B 3366   5.025   0.222   2.979  0.6593 -1.2950  3.1067
   46CHL1    C9 3367   4.851   0.358   2.929 -0.5293  0.0426  0.1063
   46CHL1    H9 3368   4.787   0.268   2.920  1.6688 -1.4439 -1.8894
   46CHL1   C10 3369   4.893   0.406   2.791 -0.3866 -0.0411  0.4136
   46CHL1   C19 3370   5.013   0.508   2.773  0.4172  0.1718 -0.8436
   46CHL1  H19A 3371   5.021   0.555   2.673 -1.0683  1.7352 -0.2859
   46CHL1  H19B 3372   4.991   0.589   2.846 -2.6529  1.0982 -2.6033
   46CHL1  H19C 3373   5.109   0.456   2.792 -0.2081 -0.1721  1.8970
   46CHL1    C1 3374   4.936   0.281   2.709 -0.1948 -0.4539 -0.2445
   46CHL1   H1A 3375   5.029   0.243   2.756 -0.1905  0.5352  0.5817
   46CHL1   H1B 3376   4.867   0.194   2.721  0.4563 -0.8375  0.9238
   46CHL1    C2 3377   4.950   0.296   2.558  0.7071  0.3579  0.5428
   46CHL1   H2A 3378   4.982   0.201   2.510 -0.9669 -0.2496  0.5704
   46CHL1   H2B 3379   5.012   0.381   2.524 -0.0673  0.9307  0.5565
   46CHL1   C20 3380   4.849   0.325   3.487  0.8612 -0.8317  0.3437
   46CHL1   H20 3381   4.903   0.421   3.505 -0.5273  0.4634 -1.8754
   46CHL1   C21 3382   4.967   0.225   3.471 -0.2113  0.4002  0.1388
   46CHL1  H21A 3383   5.009   0.203   3.572 -0.4112  0.3458  0.2093
   46CHL1  H21B 3384   5.038   0.286   3.411  0.0415 -0.4839 -0.4849
   46CHL1  H21C 3385   4.941   0.133   3.414  0.4683  1.8560 -2.7194
   46CHL1   C22 3386   4.759   0.289   3.612  0.1171 -0.2665  0.2175
   46CHL1  H22A 3387   4.669   0.354   3.622  2.1640  2.5795  1.9065
   46CHL1  H22B 3388   4.727   0.184   3.595  2.4981 -1.1987  1.1364
   46CHL1   C23 3389   4.821   0.280   3.755  0.7238 -0.3170  0.4723
   46CHL1  H23A 3390   4.861   0.178   3.769 -1.5799 -1.4679 -0.7878
   46CHL1  H23B 3391   4.899   0.357   3.775  0.2210  0.7401 -1.3232
   46CHL1   C24 3392   4.717   0.296   3.870  0.0468 -0.0109  0.6124
   46CHL1  H24A 3393   4.675   0.397   3.892  0.3020 -0.2912  2.5765
   46CHL1  H24B 3394   4.626   0.238   3.845 -0.4684  1.2116 -0.5035
   46CHL1   C25 3395   4.773   0.251   4.001 -0.1924 -0.2477  0.1179
   46CHL1   H25 3396   4.851   0.172   3.997 -0.2185 -0.3541  1.2703
   46CHL1   C26 3397   4.840   0.375   4.068 -0.3865 -0.0069  0.4536
   46CHL1  H26A 3398   4.771   0.462   4.074  1.3269  1.6152 -1.4415
   46CHL1  H26B 3399   4.875   0.349   4.170  1.6902  1.6882  0.2271
   46CHL1  H26C 3400   4.917   0.409   3.996 -0.6844 -0.0266  0.1223
   46CHL1   C27 3401   4.665   0.194   4.092  0.0886  0.2156 -0.7306
   46CHL1  H27A 3402   4.612   0.115   4.034 -2.1267 -0.3288  1.8288
   46CHL1  H27B 3403   4.700   0.142   4.184 -1.6078  0.4154  0.0596
   46CHL1  H27C 3404   4.591   0.273   4.116 -3.1502 -2.8028  0.0925
   47CHL1    C3 3405   1.111   1.270   2.551  0.0832  0.3339  0.0053
   47CHL1    H3 3406   1.217   1.240   2.570  0.3678 -0.0013 -1.9300
   47CHL1    O3 3407   1.106   1.287   2.410 -0.2132 -0.0339 -0.2346
   47CHL1   H3' 3408   1.169   1.358   2.393 -0.6955  0.9483  1.8229
   47CHL1    C4 3409   1.000   1.172   2.606 -0.1148  0.4478 -0.2710
   47CHL1   H4A 3410   0.905   1.196   2.554 -1.3903 -0.9218  1.3448
   47CHL1   H4B 3411   1.027   1.075   2.559  0.6491  0.6357 -0.2357
   47CHL1    C5 3412   0.988   1.157   2.758 -0.1108  0.6149  0.2803
   47CHL1    C6 3413   0.997   1.040   2.822  0.4856  0.3029 -0.1848
   47CHL1    H6 3414   1.016   0.945   2.769  0.1470  0.1623 -0.0572
   47CHL1    C7 3415   0.987   1.021   2.972  0.0495  0.3280  0.0601
   47CHL1   H7A 3416   0.909   0.948   3.004 -0.9880  1.8808  1.1954
   47CHL1   H7B 3417   1.081   0.984   3.019 -0.4648  0.1188  0.9468
   47CHL1    C8 3418   0.943   1.154   3.038  0.1904  0.2504  0.7243
   47CHL1    H8 3419   0.832   1.161   3.032  0.2281  0.1629 -0.1897
   47CHL1   C14 3420   0.982   1.139   3.185 -0.0474 -0.4428  0.7422
   47CHL1   H14 3421   1.092   1.126   3.177 -0.1144  0.2167 -2.3161
   47CHL1   C15 3422   0.927   1.028   3.266 -0.0234  0.6239  0.1969
   47CHL1  H15A 3423   0.816   1.029   3.257  0.0195  2.6647 -0.6185
   47CHL1  H15B 3424   0.946   0.922   3.237  0.7958  0.8127  0.0102
   47CHL1   C16 3425   0.965   1.047   3.414  0.0959  0.4695  0.7914
   47CHL1  H16A 3426   0.880   1.035   3.485 -0.5830 -0.5073 -0.1459
   47CHL1  H16B 3427   1.047   0.979   3.444  1.2862 -0.0438 -3.0349
   47CHL1   C17 3428   1.021   1.195   3.411  0.2566  0.3080  0.1236
   47CHL1   H17 3429   1.128   1.188   3.382  0.0502 -2.6714 -0.2469
   47CHL1   C13 3430   0.962   1.254   3.283  0.5516 -0.0209  0.7170
   47CHL1   C18 3431   0.811   1.288   3.305  0.0149  0.4583 -0.7897
   47CHL1  H18A 3432   0.762   1.206   3.362  0.7391  0.0949 -0.6864
   47CHL1  H18B 3433   0.802   1.384   3.361  0.7810  0.3848 -0.5271
   47CHL1  H18C 3434   0.759   1.304   3.208 -0.3532  2.7013 -0.2782
   47CHL1   C12 3435   1.024   1.378   3.220  0.0683  1.0578 -0.5692
   47CHL1  H12A 3436   1.014   1.471   3.280 -0.2934  0.7121 -0.0917
   47CHL1  H12B 3437   1.134   1.360   3.231  0.1452  1.2517 -1.0137
   47CHL1   C11 3438   0.997   1.402   3.069 -0.3981  0.0541  0.4586
   47CHL1  H11A 3439   0.899   1.453   3.074  0.3799  1.4294  3.2241
   47CHL1  H11B 3440   1.060   1.481   3.024 -0.7425 -0.8357 -1.7567
   47CHL1    C9 3441   1.016   1.274   2.976  0.6369  0.4608  0.2475
   47CHL1    H9 3442   1.123   1.247   2.966  0.3659 -0.2922 -0.8312
   47CHL1   C10 3443   0.980   1.295   2.830  0.5716 -0.3652  0.2920
   47CHL1   C19 3444   0.834   1.355   2.807  1.1593  0.4785  0.0363
   47CHL1  H19A 3445   0.754   1.285   2.841  0.3669  0.7915 -1.1073
   47CHL1  H19B 3446   0.825   1.454   2.856  2.3896  1.3046 -1.3130
   47CHL1  H19C 3447   0.818   1.370   2.698  1.0734  0.0358 -0.0149
   47CHL1    C1 3448   1.091   1.387   2.774  0.5761 -0.3355  0.1834
   47CHL1   H1A 3449   1.064   1.485   2.820  0.7613  1.0640 -2.5074
   47CHL1   H1B 3450   1.192   1.344   2.794  0.5564 -1.2636 -1.5379
   47CHL1    C2 3451   1.090   1.405   2.618  0.0809 -0.1960  0.2860
   47CHL1   H2A 3452   1.172   1.473   2.587  0.2355 -1.0795 -1.3041
   47CHL1   H2B 3453   0.995   1.445   2.576 -0.5985 -1.0409  0.9695
   47CHL1   C20 3454   1.022   1.265   3.547  0.6398  0.4918  0.1895
   47CHL1   H20 3455   0.921   1.311   3.553  0.7064  0.5097  1.4865
   47CHL1   C21 3456   1.121   1.384   3.547  0.0319  0.0828 -0.2406
   47CHL1  H21A 3457   1.226   1.351   3.533  0.4004  0.0735  2.1139
   47CHL1  H21B 3458   1.118   1.429   3.649 -1.6667 -2.7980  1.1189
   47CHL1  H21C 3459   1.104   1.460   3.468  1.1916  1.8025  1.1033
   47CHL1   C22 3460   1.043   1.162   3.670  0.3384 -0.3333  0.1929
   47CHL1  H22A 3461   0.946   1.109   3.685  0.8934 -1.4454 -0.0280
   47CHL1  H22B 3462   1.122   1.087   3.646 -0.2103 -0.8001 -0.1856
   47CHL1   C23 3463   1.090   1.223   3.800 -0.6993  0.0456  0.6257
   47CHL1  H23A 3464   1.196   1.256   3.803  0.0008 -2.0017 -0.2570
   47CHL1  H23B 3465   1.026   1.314   3.809 -1.4154 -0.0767 -2.2942
   47CHL1   C24 3466   1.081   1.122   3.907  0.1540 -0.1700 -0.4936
   47CHL1  H24A 3467   0.984   1.067   3.915  0.2482 -0.0188  3.1331
   47CHL1  H24B 3468   1.160   1.046   3.891  1.5391  0.9527  0.7559
   47CHL1   C25 3469   1.112   1.171   4.042  0.1545 -0.3874 -0.2834
   47CHL1   H25 3470   1.204   1.233   4.033  0.1889 -0.7243 -3.0287
   47CHL1   C26 3471   1.003   1.264   4.107  0.3523  0.1933  0.1705
   47CHL1  H26A 3472   0.998   1.355   4.043 -0.1084  1.1309  1.4958
   47CHL1  H26B 3473   0.907   1.207   4.110  0.5494 -0.2575 -1.3414
   47CHL1  H26C 3474   1.033   1.289   4.211 -1.3015 -1.3495  1.0842
   47CHL1   C27 3475   1.143   1.054   4.140  0.4131  1.2086 -0.4712
   47CHL1  H27A 3476   1.219   0.985   4.098 -1.0493  0.6163 -2.2821
   47CHL1  H27B 3477   1.189   1.085   4.236  1.6505  1.1317 -1.0184
   47CHL1  H27C 3478   1.054   0.989   4.155  0.4307  1.4143  0.6225
   48CHL1    C3 3479   2.184   6.960   2.432 -0.5527 -0.2519  0.6345
   48CHL1    H3 3480   2.118   6.877   2.467  0.3574 -1.0439  0.5229
   48CHL1    O3 3481   2.137   7.010   2.307 -0.4036 -0.2293  0.2464
   48CHL1   H3' 3482   2.049   7.045   2.318  0.7802  3.3447 -0.3130
   48CHL1    C4 3483   2.196   7.068   2.534  0.3549  0.9493  0.5264
   48CHL1   H4A 3484   2.261   7.149   2.495  0.8612  0.1155 -0.4058
   48CHL1   H4B 3485   2.101   7.124   2.546 -0.7155 -0.8451  0.8246
   48CHL1    C5 3486   2.263   7.019   2.662 -0.8919  0.2768 -0.5971
   48CHL1    C6 3487   2.195   7.021   2.781 -0.1482  0.2075 -0.0045
   48CHL1    H6 3488   2.101   7.077   2.783 -0.9911 -1.1335 -0.5923
   48CHL1    C7 3489   2.259   6.983   2.912 -0.5743 -0.6949  0.3784
   48CHL1   H7A 3490   2.254   7.070   2.981 -0.9733  0.0981 -0.6258
   48CHL1   H7B 3491   2.202   6.898   2.955 -0.3487 -0.7589  0.5593
   48CHL1    C8 3492   2.407   6.946   2.902 -0.9288  1.1101  0.0306
   48CHL1    H8 3493   2.474   7.034   2.913  0.2584  0.1673  0.6097
   48CHL1   C14 3494   2.450   6.863   3.028 -0.0577  0.1753 -0.9939
   48CHL1   H14 3495   2.389   6.770   3.027  2.4080 -1.5315 -1.1728
   48CHL1   C15 3496   2.410   6.919   3.169  0.0297 -0.3393 -0.8874
   48CHL1  H15A 3497   2.430   7.026   3.194  1.0977 -0.9543  1.1539
   48CHL1  H15B 3498   2.302   6.899   3.182  0.3673 -1.4173  0.4733
   48CHL1   C16 3499   2.497   6.832   3.262 -0.0410 -0.3567  0.2097
   48CHL1  H16A 3500   2.561   6.895   3.328  2.6660  0.1709 -2.6926
   48CHL1  H16B 3501   2.435   6.758   3.317 -1.9595  0.6617 -0.4774
   48CHL1   C17 3502   2.586   6.742   3.172 -0.9873 -0.4569 -0.6291
   48CHL1   H17 3503   2.533   6.645   3.164  0.7994 -1.5151 -0.2589
   48CHL1   C13 3504   2.592   6.816   3.035  0.5806 -0.0251 -0.4168
   48CHL1   C18 3505   2.692   6.928   3.041  0.5530 -0.2836 -0.4181
   48CHL1  H18A 3506   2.799   6.899   3.047  0.4779 -0.5901 -0.5348
   48CHL1  H18B 3507   2.685   6.989   2.948  0.5633 -1.0074 -0.9056
   48CHL1  H18C 3508   2.669   7.006   3.116 -1.5955 -0.5508 -0.7459
   48CHL1   C12 3509   2.616   6.732   2.906  0.2115 -0.2192  0.2875
   48CHL1  H12A 3510   2.716   6.686   2.901  0.3245  0.0637 -0.0408
   48CHL1  H12B 3511   2.538   6.653   2.906 -1.3158  1.1929 -1.3728
   48CHL1   C11 3512   2.585   6.815   2.775  0.1995 -0.6527  0.4377
   48CHL1  H11A 3513   2.665   6.890   2.759 -0.1464 -0.1884  0.8560
   48CHL1  H11B 3514   2.601   6.746   2.690 -1.3887  1.2398 -1.4818
   48CHL1    C9 3515   2.440   6.873   2.775  0.5524  0.9950 -0.3312
   48CHL1    H9 3516   2.379   6.780   2.781  1.0357  0.4399 -2.7954
   48CHL1   C10 3517   2.399   6.947   2.643  0.0449  0.8144 -0.0916
   48CHL1   C19 3518   2.499   7.053   2.606 -1.3837 -0.1839  0.3233
   48CHL1  H19A 3519   2.599   7.007   2.586 -0.2689  1.6716  1.2827
   48CHL1  H19B 3520   2.474   7.115   2.518 -1.4860  2.0517  1.8464
   48CHL1  H19C 3521   2.494   7.129   2.686  0.6518 -0.4145  0.7337
   48CHL1    C1 3522   2.386   6.842   2.534 -0.3768  0.5422  0.4854
   48CHL1   H1A 3523   2.488   6.802   2.515  0.6145  1.3203  3.5627
   48CHL1   H1B 3524   2.319   6.762   2.573  2.4626 -2.8554 -1.0620
   48CHL1    C2 3525   2.320   6.895   2.404 -0.5672  0.4148 -0.4660
   48CHL1   H2A 3526   2.313   6.807   2.336 -0.3738  1.5771 -2.0298
   48CHL1   H2B 3527   2.393   6.966   2.360 -0.3536  0.6963  0.3315
   48CHL1   C20 3528   2.718   6.705   3.247  0.1813  0.5010  0.3118
   48CHL1   H20 3529   2.771   6.802   3.257  1.3452  0.0633 -1.1679
   48CHL1   C21 3530   2.808   6.614   3.162  0.2427 -0.3682  0.0176
   48CHL1  H21A 3531   2.842   6.662   3.067 -2.0771 -1.4037 -1.4230
   48CHL1  H21B 3532   2.753   6.522   3.134 -2.2096  1.0880 -0.1951
   48CHL1  H21C 3533   2.900   6.589   3.219  2.1602 -0.3315 -2.8496
   48CHL1   C22 3534   2.705   6.635   3.380 -0.2588  0.9302 -0.1940
   48CHL1  H22A 3535   2.599   6.634   3.413 -0.2899  0.7582 -0.2935
   48CHL1  H22B 3536   2.733   6.528   3.365 -0.3381  0.8910 -0.0609
   48CHL1   C23 3537   2.786   6.701   3.491 -0.3449 -0.1001 -0.3790
   48CHL1  H23A 3538   2.893   6.698   3.461 -0.1649 -0.9486  0.2997
   48CHL1  H23B 3539   2.765   6.809   3.505  0.1669 -0.1781  1.1248
   48CHL1   C24 3540   2.784   6.628   3.628  0.3291  0.0274  1.6258
   48CHL1  H24A 3541   2.686   6.583   3.655 -1.4763  3.2436  0.9269
   48CHL1  H24B 3542   2.862   6.549   3.619 -1.8924 -2.0543 -1.7034
   48CHL1   C25 3543   2.824   6.717   3.745 -0.0878  0.1034  0.8828
   48CHL1   H25 3544   2.923   6.762   3.722 -0.1535 -0.1693  0.0348
   48CHL1   C26 3545   2.718   6.826   3.778  0.4124 -0.2519 -0.5137
   48CHL1  H26A 3546   2.729   6.902   3.698  0.5725 -0.3990 -0.6336
   48CHL1  H26B 3547   2.619   6.777   3.770 -0.1238  0.5359  1.0427
   48CHL1  H26C 3548   2.727   6.867   3.880  3.1722 -0.8485 -0.4316
   48CHL1   C27 3549   2.843   6.615   3.857 -0.3415 -0.7938  0.1385
   48CHL1  H27A 3550   2.929   6.548   3.836  0.9341  0.1720  2.0235
   48CHL1  H27B 3551   2.851   6.670   3.953  0.6141 -0.5730 -0.0599
   48CHL1  H27C 3552   2.749   6.555   3.857 -0.1737 -1.1138 -1.5283
   49CHL1    C3 3553   0.870   4.162   2.500  0.1034  0.3159  0.7267
   49CHL1    H3 3554   0.824   4.061   2.488  3.5335 -1.1333 -1.9858
   49CHL1    O3 3555   0.963   4.162   2.395  0.2960  0.3736  0.0001
   49CHL1   H3' 3556   0.995   4.253   2.394  1.5321 -0.0457  0.1095
   49CHL1    C4 3557   0.761   4.264   2.475 -0.6728  0.0983  0.5513
   49CHL1   H4A 3558   0.814   4.360   2.462 -1.6304  0.6510  0.6802
   49CHL1   H4B 3559   0.724   4.238   2.373 -0.8767 -2.5001  1.2128
   49CHL1    C5 3560   0.661   4.271   2.583 -0.4964 -0.4207 -0.2241
   49CHL1    C6 3561   0.527   4.267   2.548  0.5529  0.8304  0.0804
   49CHL1    H6 3562   0.517   4.261   2.439  0.7641 -0.9355  0.1385
   49CHL1    C7 3563   0.411   4.290   2.639  0.0112  0.4439 -0.2096
   49CHL1   H7A 3564   0.335   4.360   2.599 -0.7255 -0.4391 -0.3989
   49CHL1   H7B 3565   0.356   4.195   2.656 -0.1929  0.5730 -0.1380
   49CHL1    C8 3566   0.455   4.343   2.781 -0.4799  0.2022 -0.0752
   49CHL1    H8 3567   0.465   4.452   2.768  3.9837 -0.0407 -0.2480
   49CHL1   C14 3568   0.352   4.299   2.886  0.8883  0.4469 -0.8095
   49CHL1   H14 3569   0.372   4.193   2.913  0.5215  0.6196  0.2137
   49CHL1   C15 3570   0.203   4.326   2.868  0.1455  0.0273  0.0827
   49CHL1  H15A 3571   0.188   4.433   2.844 -0.2536  0.1168  0.7145
   49CHL1  H15B 3572   0.154   4.266   2.788 -0.0000  0.1165  0.1041
   49CHL1   C16 3573   0.137   4.307   3.003  0.3989  0.3875  0.2929
   49CHL1  H16A 3574   0.076   4.397   3.028 -0.6126 -0.4157  0.8202
   49CHL1  H16B 3575   0.069   4.219   3.001  0.4605  0.3449 -0.8197
   49CHL1   C17 3576   0.256   4.296   3.103 -0.1249 -0.6540 -0.2875
   49CHL1   H17 3577   0.286   4.190   3.107 -0.7747 -0.8105  0.7383
   49CHL1   C13 3578   0.381   4.354   3.030 -0.3134 -0.1373 -0.7281
   49CHL1   C18 3579   0.375   4.510   3.042  0.0176 -0.1569 -0.0971
   49CHL1  H18A 3580   0.393   4.535   3.149 -0.4807  1.3136 -0.3416
   49CHL1  H18B 3581   0.466   4.557   2.999  1.1940 -0.4727  1.9060
   49CHL1  H18C 3582   0.279   4.558   3.013  0.4167 -0.4890 -2.0991
   49CHL1   C12 3583   0.517   4.293   3.071  0.1950  0.2981 -0.0787
   49CHL1  H12A 3584   0.539   4.336   3.171  1.8107 -1.0571  0.1995
   49CHL1  H12B 3585   0.504   4.183   3.082  2.4127 -0.1601 -1.4146
   49CHL1   C11 3586   0.625   4.316   2.972  0.3981 -0.3290 -0.8443
   49CHL1  H11A 3587   0.647   4.425   2.973 -2.4961  0.3183  0.4284
   49CHL1  H11B 3588   0.717   4.263   3.006  1.2244  1.8454  0.5433
   49CHL1    C9 3589   0.587   4.273   2.828 -0.6538  1.0017 -0.9732
   49CHL1    H9 3590   0.576   4.163   2.839  2.1668  0.6332 -0.9706
   49CHL1   C10 3591   0.709   4.288   2.726  0.1265  0.5556 -0.3018
   49CHL1   C19 3592   0.769   4.431   2.729 -0.4033  0.3580 -0.8092
   49CHL1  H19A 3593   0.842   4.447   2.647  0.1051  0.5426 -0.3281
   49CHL1  H19B 3594   0.693   4.508   2.704 -0.1388  0.9040  0.0333
   49CHL1  H19C 3595   0.807   4.456   2.831 -1.4070  0.3156 -0.4146
   49CHL1    C1 3596   0.822   4.175   2.746 -0.2408  0.3143 -0.1316
   49CHL1   H1A 3597   0.868   4.176   2.847  0.2612  0.7740 -0.3610
   49CHL1   H1B 3598   0.768   4.079   2.728 -0.4459  0.7195 -1.8804
   49CHL1    C2 3599   0.933   4.167   2.638 -0.0615 -0.2071  0.2375
   49CHL1   H2A 3600   0.982   4.070   2.660 -0.9844 -0.5177  0.9619
   49CHL1   H2B 3601   0.993   4.261   2.648 -1.4359  1.0427 -2.2258
   49CHL1   C20 3602   0.227   4.339   3.246  0.8282  0.4196 -0.9679
   49CHL1   H20 3603   0.319   4.324   3.306 -0.0663 -1.4489  0.0364
   49CHL1   C21 3604   0.131   4.228   3.289  0.0915  0.9994 -0.2282
   49CHL1  H21A 3605   0.084   4.233   3.390  0.2202 -2.4424  0.1364
   49CHL1  H21B 3606   0.177   4.127   3.300  0.8871  1.0098 -2.8144
   49CHL1  H21C 3607   0.042   4.220   3.223 -0.6589 -1.8906  0.9708
   49CHL1   C22 3608   0.164   4.473   3.283 -0.1153 -0.9829 -0.5445
   49CHL1  H22A 3609   0.181   4.551   3.206 -0.0192 -2.2572 -1.8623
   49CHL1  H22B 3610   0.055   4.454   3.276  0.1409 -2.0975 -2.1110
   49CHL1   C23 3611   0.195   4.507   3.433  0.3327 -0.4013  0.2044
   49CHL1  H23A 3612   0.175   4.418   3.497 -1.5828  1.2614  2.0792
   49CHL1  H23B 3613   0.305   4.515   3.435  0.3102 -0.2212  1.0336
   49CHL1   C24 3614   0.140   4.632   3.499  0.1735  0.3021  0.0972
   49CHL1  H24A 3615   0.192   4.651   3.596 -0.3152  1.3280  0.1736
   49CHL1  H24B 3616   0.173   4.716   3.435  0.2132 -0.3902 -0.8096
   49CHL1   C25 3617  -0.008   4.648   3.528 -0.5521 -0.4540 -0.2070
   49CHL1   H25 3618  -0.061   4.664   3.431 -2.2739 -0.6138  0.6563
   49CHL1   C26 3619  -0.083   4.542   3.605 -0.1708  0.1799  0.4883
   49CHL1  H26A 3620  -0.041   4.509   3.702  0.0113 -1.3315 -0.0743
   49CHL1  H26B 3621  -0.190   4.560   3.629 -0.2543 -0.0088  0.2626
   49CHL1  H26C 3622  -0.077   4.448   3.545 -0.1615  1.4153 -1.5506
   49CHL1   C27 3623  -0.033   4.778   3.601 -0.4877 -0.4424  0.2600
   49CHL1  H27A 3624  -0.013   4.874   3.549  0.0776 -1.5791 -1.7036
   49CHL1  H27B 3625  -0.136   4.783   3.643  0.2543 -0.5283  2.1871
   49CHL1  H27C 3626   0.022   4.777   3.697 -0.7013 -1.4317  0.3777
   50CHL1    C3 3627   5.763   6.032   2.569 -0.3975 -0.1679 -0.0636
   50CHL1    H3 3628   5.786   6.129   2.617  0.7042  0.3335 -1.5314
   50CHL1    O3 3629   5.795   6.024   2.432 -0.2427 -0.2032  0.4920
   50CHL1   H3' 3630   5.727   5.964   2.400  0.5884 -0.3126 -1.1515
   50CHL1    C4 3631   5.836   5.919   2.649  1.2124 -1.0692  0.0480
   50CHL1   H4A 3632   5.808   5.819   2.609  0.5745 -0.9470  0.1832
   50CHL1   H4B 3633   5.944   5.939   2.632  1.1273 -0.8453 -0.2161
   50CHL1    C5 3634   5.796   5.926   2.795  0.3688  0.9786 -0.2665
   50CHL1    C6 3635   5.888   5.935   2.891  0.2868  0.3308  0.3197
   50CHL1    H6 3636   5.995   5.927   2.868  0.8560  1.3587  2.3572
   50CHL1    C7 3637   5.855   5.923   3.033  0.8668 -0.1195 -0.3760
   50CHL1   H7A 3638   5.921   5.847   3.081 -2.7932 -3.4934 -0.2123
   50CHL1   H7B 3639   5.879   6.020   3.081  0.3759 -1.3000  2.5146
   50CHL1    C8 3640   5.706   5.882   3.064  0.1442  0.5262 -0.3491
   50CHL1    H8 3641   5.678   5.774   3.059  0.2290  0.5056 -0.3782
   50CHL1   C14 3642   5.677   5.948   3.200  0.2515  0.2411 -0.1693
   50CHL1   H14 3643   5.686   6.058   3.186 -1.9304  0.4033 -0.6136
   50CHL1   C15 3644   5.769   5.912   3.318 -0.2575  0.0367 -0.9278
   50CHL1  H15A 3645   5.767   5.802   3.327 -3.7618  0.0753  0.4984
   50CHL1  H15B 3646   5.873   5.949   3.323  0.6019 -1.3612 -4.8511
   50CHL1   C16 3647   5.691   5.961   3.449  0.1906  0.2427  0.4742
   50CHL1  H16A 3648   5.689   5.872   3.516  2.8807 -0.9510 -0.8257
   50CHL1  H16B 3649   5.748   6.042   3.499  1.7080 -1.8286  2.3387
   50CHL1   C17 3650   5.554   6.002   3.390  0.4835 -0.3301 -0.2317
   50CHL1   H17 3651   5.565   6.110   3.366  0.2746 -0.5801 -1.5415
   50CHL1   C13 3652   5.534   5.933   3.255  0.0778 -0.3480 -0.8934
   50CHL1   C18 3653   5.493   5.791   3.281 -0.3933  0.3212  0.4646
   50CHL1  H18A 3654   5.459   5.728   3.196 -1.7864 -2.0122  2.6029
   50CHL1  H18B 3655   5.573   5.731   3.330  0.0061 -0.1632 -0.7569
   50CHL1  H18C 3656   5.414   5.779   3.358 -0.3733  0.8417  0.5714
   50CHL1   C12 3657   5.444   6.003   3.147 -0.2363  0.0198  0.6975
   50CHL1  H12A 3658   5.341   5.968   3.169  0.4160 -1.9669  0.7995
   50CHL1  H12B 3659   5.460   6.112   3.163  1.7435 -0.0546 -0.4564
   50CHL1   C11 3660   5.466   5.964   3.005 -0.2036 -0.1518  0.2529
   50CHL1  H11A 3661   5.419   5.866   2.981 -0.2907  0.2021 -1.1289
   50CHL1  H11B 3662   5.426   6.045   2.940 -0.7180 -1.1307 -0.6943
   50CHL1    C9 3663   5.620   5.953   2.967  0.2356 -0.5966 -0.6581
   50CHL1    H9 3664   5.650   6.059   2.977  1.1399 -1.0187  1.7714
   50CHL1   C10 3665   5.646   5.921   2.819  0.0750  0.3941 -0.4897
   50CHL1   C19 3666   5.594   5.783   2.796 -0.2904  0.3549 -0.1945
   50CHL1  H19A 3667   5.484   5.800   2.785 -0.3913  1.7455  2.2430
   50CHL1  H19B 3668   5.625   5.732   2.702 -2.1366 -3.7542  1.1376
   50CHL1  H19C 3669   5.613   5.710   2.878  0.5454  0.3175 -0.4163
   50CHL1    C1 3670   5.570   6.022   2.720  0.7285 -0.5785  0.0020
   50CHL1   H1A 3671   5.460   6.010   2.734  0.4643  1.9371  0.6373
   50CHL1   H1B 3672   5.579   6.128   2.751  0.9596 -0.6885  0.3183
   50CHL1    C2 3673   5.607   6.009   2.576  0.5006 -0.5572 -1.2636
   50CHL1   H2A 3674   5.551   6.074   2.505 -2.5963 -1.7596 -0.1026
   50CHL1   H2B 3675   5.583   5.912   2.528  0.8416 -0.1551 -2.2770
   50CHL1   C20 3676   5.443   6.000   3.499  0.0459 -0.5887 -0.4940
   50CHL1   H20 3677   5.412   5.894   3.507 -0.7985 -0.2609  0.8852
   50CHL1   C21 3678   5.318   6.064   3.446  0.2869 -0.4421 -0.2827
   50CHL1  H21A 3679   5.276   6.000   3.366 -1.3075 -0.9063  0.8803
   50CHL1  H21B 3680   5.341   6.166   3.406 -3.0127 -0.2131 -1.8833
   50CHL1  H21C 3681   5.240   6.066   3.525  0.6900 -2.5340  0.2273
   50CHL1   C22 3682   5.473   6.053   3.637 -0.1528  0.3162 -0.5623
   50CHL1  H22A 3683   5.579   6.029   3.657 -0.8908 -1.6719  1.2536
   50CHL1  H22B 3684   5.472   6.164   3.632 -2.8291  0.4760  1.3873
   50CHL1   C23 3685   5.393   6.007   3.755  0.5411  0.4319  0.2014
   50CHL1  H23A 3686   5.289   6.045   3.746  1.1620  1.9981 -0.7371
   50CHL1  H23B 3687   5.396   5.896   3.749 -1.1867  0.2859  1.1864
   50CHL1   C24 3688   5.450   6.045   3.887  0.2292 -0.0948 -0.6572
   50CHL1  H24A 3689   5.560   6.034   3.886  0.2151 -0.8967  1.5095
   50CHL1  H24B 3690   5.439   6.155   3.903  1.3484  0.0147 -0.5992
   50CHL1   C25 3691   5.385   5.971   4.008  0.0714  0.4617  0.1117
   50CHL1   H25 3692   5.293   5.923   3.970  1.1824  0.6758 -3.1836
   50CHL1   C26 3693   5.477   5.860   4.052 -0.7388 -0.5349  0.4020
   50CHL1  H26A 3694   5.576   5.904   4.077  0.0686 -1.2674 -1.3226
   50CHL1  H26B 3695   5.426   5.810   4.138  0.2535  0.6421  1.7053
   50CHL1  H26C 3696   5.492   5.794   3.963  0.8684  0.2189  0.0794
   50CHL1   C27 3697   5.349   6.067   4.129  0.3317 -0.1688  1.1025
   50CHL1  H27A 3698   5.337   6.011   4.224 -2.1249 -2.1770 -0.2585
   50CHL1  H27B 3699   5.419   6.154   4.132  1.3121 -0.6784 -2.5766
   50CHL1  H27C 3700   5.249   6.114   4.119  1.9015  3.2764 -0.0890
   51CHL1    C3 3701   4.874   6.797   2.642  0.2172  0.0452  0.2462
   51CHL1    H3 3702   4.766   6.778   2.628  0.1697 -0.5004  1.2566
   51CHL1    O3 3703   4.941   6.813   2.515  0.1372  0.6084 -0.2131
   51CHL1   H3' 3704   5.022   6.859   2.538  1.1736 -0.3289 -1.7797
   51CHL1    C4 3705   4.887   6.927   2.729  0.4106 -0.5461 -0.5235
   51CHL1   H4A 3706   4.996   6.945   2.739  0.3358 -0.8804  1.2053
   51CHL1   H4B 3707   4.831   7.006   2.675  0.0989 -0.8747 -0.6929
   51CHL1    C5 3708   4.838   6.905   2.874 -0.1483  0.5445 -0.7726
   51CHL1    C6 3709   4.747   6.988   2.927  0.3049 -0.7671 -0.2084
   51CHL1    H6 3710   4.712   7.076   2.873  1.7833  0.1548  0.2725
   51CHL1    C7 3711   4.683   6.969   3.066 -0.0419  0.4708 -0.1984
   51CHL1   H7A 3712   4.664   7.069   3.111 -0.0343  0.3506  0.0784
   51CHL1   H7B 3713   4.590   6.909   3.060  1.4775 -1.8286 -2.5756
   51CHL1    C8 3714   4.769   6.887   3.162 -0.2719  0.6806  0.5344
   51CHL1    H8 3715   4.862   6.943   3.185  1.1185 -0.5647 -1.6350
   51CHL1   C14 3716   4.701   6.850   3.294 -0.1142  0.4129 -0.3398
   51CHL1   H14 3717   4.607   6.799   3.265  0.6949 -0.6618 -1.1741
   51CHL1   C15 3718   4.651   6.958   3.386 -0.3362 -0.2136  0.8420
   51CHL1  H15A 3719   4.722   7.042   3.366 -1.4879  0.2971 -1.4690
   51CHL1  H15B 3720   4.546   6.990   3.365 -0.7378 -1.7135  0.4755
   51CHL1   C16 3721   4.643   6.894   3.524 -0.1761  0.3902  0.0218
   51CHL1  H16A 3722   4.670   6.960   3.608 -1.5172 -2.3208  2.7913
   51CHL1  H16B 3723   4.535   6.876   3.539  0.3057 -0.5917  2.9581
   51CHL1   C17 3724   4.703   6.750   3.523  0.2359 -0.2443  0.2588
   51CHL1   H17 3725   4.622   6.683   3.487 -1.0642  0.4771  1.7387
   51CHL1   C13 3726   4.786   6.755   3.386  0.3815  0.6462  0.2570
   51CHL1   C18 3727   4.924   6.806   3.427  0.9378 -0.0275 -1.3005
   51CHL1  H18A 3728   4.923   6.875   3.514 -0.6858 -1.3449 -0.2052
   51CHL1  H18B 3729   4.981   6.718   3.464 -0.0526 -0.7716 -1.5022
   51CHL1  H18C 3730   4.977   6.857   3.344  0.1270  0.1801 -1.6991
   51CHL1   C12 3731   4.808   6.628   3.309  0.1808  0.5419  0.5083
   51CHL1  H12A 3732   4.854   6.544   3.364 -2.2979  0.1413  2.1311
   51CHL1  H12B 3733   4.711   6.578   3.289  2.2585 -3.9627  0.5874
   51CHL1   C11 3734   4.879   6.650   3.172  0.1033 -1.6847 -0.2170
   51CHL1  H11A 3735   4.983   6.683   3.196 -0.4787  0.0557  0.0870
   51CHL1  H11B 3736   4.880   6.551   3.123  2.8052 -1.2955 -1.1217
   51CHL1    C9 3737   4.808   6.761   3.084  0.4285  0.4101  0.5692
   51CHL1    H9 3738   4.707   6.723   3.057  0.3386  2.5373 -2.6768
   51CHL1   C10 3739   4.888   6.786   2.948  0.0502  0.1768 -0.0955
   51CHL1   C19 3740   5.038   6.802   2.982  0.0224 -0.4926  0.1908
   51CHL1  H19A 3741   5.079   6.702   3.009  1.6770  0.0808 -0.1061
   51CHL1  H19B 3742   5.091   6.819   2.886  0.4821 -1.7393  0.2003
   51CHL1  H19C 3743   5.066   6.882   3.053  0.4985  0.5079 -1.0831
   51CHL1    C1 3744   4.868   6.664   2.857  0.5166 -0.7356  0.1272
   51CHL1   H1A 3745   4.918   6.578   2.908  1.6463  0.2702  0.7498
   51CHL1   H1B 3746   4.759   6.644   2.843  0.1227  0.7058  0.9831
   51CHL1    C2 3747   4.924   6.676   2.715 -0.4112  0.2814  0.1914
   51CHL1   H2A 3748   4.915   6.576   2.668  0.2074  0.5837 -0.5951
   51CHL1   H2B 3749   5.032   6.693   2.732 -0.1701 -0.8985 -0.0923
   51CHL1   C20 3750   4.767   6.706   3.651  0.3242 -0.0456  0.2501
   51CHL1   H20 3751   4.853   6.772   3.679  0.8632 -0.3556 -0.6449
   51CHL1   C21 3752   4.803   6.557   3.630 -0.2743 -1.0947 -0.5710
   51CHL1  H21A 3753   4.898   6.535   3.575 -0.3693  1.5723 -1.9420
   51CHL1  H21B 3754   4.714   6.516   3.578 -0.7156  1.2149 -1.7477
   51CHL1  H21C 3755   4.814   6.509   3.730  0.5304  2.2970  1.1243
   51CHL1   C22 3756   4.662   6.703   3.766 -0.2187  0.4640  0.2160
   51CHL1  H22A 3757   4.622   6.807   3.772 -0.3547  0.4671 -0.6963
   51CHL1  H22B 3758   4.578   6.633   3.744 -0.3070  0.2516  1.1690
   51CHL1   C23 3759   4.724   6.672   3.903  0.0086  0.3139  0.5456
   51CHL1  H23A 3760   4.637   6.647   3.967 -0.7303  0.0788 -0.5135
   51CHL1  H23B 3761   4.805   6.595   3.901 -0.2112 -0.0178  2.7011
   51CHL1   C24 3762   4.788   6.801   3.957  0.4231  0.6082 -0.0252
   51CHL1  H24A 3763   4.888   6.820   3.914  0.2314 -0.0154 -0.7545
   51CHL1  H24B 3764   4.725   6.892   3.951 -0.3544  0.0664 -0.2384
   51CHL1   C25 3765   4.805   6.794   4.112 -0.1487  0.5945  0.5207
   51CHL1   H25 3766   4.708   6.797   4.165 -0.0364 -1.2243  0.8855
   51CHL1   C26 3767   4.843   6.650   4.160 -0.2106 -0.1862 -0.2936
   51CHL1  H26A 3768   4.941   6.629   4.111  0.0965  1.6673 -0.5337
   51CHL1  H26B 3769   4.866   6.656   4.269  0.9900  0.3848 -0.5616
   51CHL1  H26C 3770   4.763   6.580   4.130 -1.3454  1.1750 -0.5048
   51CHL1   C27 3771   4.896   6.903   4.167  0.5116 -0.1756 -0.6716
   51CHL1  H27A 3772   4.852   7.005   4.165 -0.8453 -0.6953  0.7770
   51CHL1  H27B 3773   4.927   6.888   4.273  0.0673  0.1433 -0.4944
   51CHL1  H27C 3774   4.990   6.915   4.108  0.5794 -0.0108 -0.5327
   52CHL1    C3 3775   0.687   6.208   2.733  0.0416 -0.5213  0.7231
   52CHL1    H3 3776   0.599   6.142   2.721  0.4208 -0.7468 -1.0591
   52CHL1    O3 3777   0.734   6.218   2.600 -0.3161 -0.5932  0.0699
   52CHL1   H3' 3778   0.676   6.178   2.535 -0.8324  0.6588 -0.2830
   52CHL1    C4 3779   0.640   6.347   2.780 -0.1738 -0.3305  0.3026
   52CHL1   H4A 3780   0.734   6.407   2.782 -0.4397  0.1015 -0.0676
   52CHL1   H4B 3781   0.572   6.394   2.706 -2.2165 -1.6720  1.2291
   52CHL1    C5 3782   0.593   6.341   2.921  0.3431 -0.7657  0.1561
   52CHL1    C6 3783   0.470   6.393   2.949 -0.5955 -0.3489 -0.0669
   52CHL1    H6 3784   0.403   6.430   2.870  0.9639 -0.9497 -1.7414
   52CHL1    C7 3785   0.427   6.383   3.091  0.3058 -0.5903 -0.4418
   52CHL1   H7A 3786   0.354   6.459   3.128 -0.3220 -1.8358  0.9803
   52CHL1   H7B 3787   0.376   6.287   3.114 -0.7230  0.2180  0.8018
   52CHL1    C8 3788   0.537   6.374   3.192 -0.1704  0.3770 -0.1831
   52CHL1    H8 3789   0.596   6.468   3.202  0.7029 -0.2993  1.4895
   52CHL1   C14 3790   0.475   6.343   3.329  0.3708 -0.4542  0.2502
   52CHL1   H14 3791   0.419   6.248   3.315  0.7029 -0.7074  0.6257
   52CHL1   C15 3792   0.372   6.447   3.386  0.7597 -0.6192 -0.0571
   52CHL1  H15A 3793   0.407   6.551   3.371 -2.8004  0.8463  0.6852
   52CHL1  H15B 3794   0.279   6.433   3.327  0.3315  1.7574 -0.0536
   52CHL1   C16 3795   0.355   6.415   3.534 -0.0074 -0.1297  0.3854
   52CHL1  H16A 3796   0.358   6.501   3.604  2.6123  1.9647 -2.0529
   52CHL1  H16B 3797   0.258   6.363   3.546 -0.0755  0.0443  0.5944
   52CHL1   C17 3798   0.474   6.309   3.557  0.0251  0.6672  0.1192
   52CHL1   H17 3799   0.427   6.212   3.532  1.8089 -0.6489  1.6379
   52CHL1   C13 3800   0.569   6.322   3.438  0.1882 -0.3385 -0.1154
   52CHL1   C18 3801   0.662   6.445   3.468  0.0457  0.6320  0.8794
   52CHL1  H18A 3802   0.702   6.477   3.369  0.2641 -2.4553 -0.1442
   52CHL1  H18B 3803   0.605   6.527   3.518 -0.6896  0.2980  0.6017
   52CHL1  H18C 3804   0.754   6.423   3.525  0.5287 -2.1084 -0.8107
   52CHL1   C12 3805   0.646   6.192   3.403 -0.3830 -0.0536 -0.0393
   52CHL1  H12A 3806   0.726   6.165   3.475 -0.5901 -3.8005 -0.9996
   52CHL1  H12B 3807   0.570   6.112   3.415 -0.1942 -0.0370  1.4536
   52CHL1   C11 3808   0.717   6.195   3.263 -0.7656  0.3573 -0.1106
   52CHL1  H11A 3809   0.800   6.266   3.283  0.1380 -0.8693  0.6535
   52CHL1  H11B 3810   0.761   6.097   3.234 -2.7127 -0.4219 -0.6126
   52CHL1    C9 3811   0.624   6.253   3.156 -0.1074 -0.2702  0.4316
   52CHL1    H9 3812   0.555   6.168   3.138  0.3871 -0.6748  0.4271
   52CHL1   C10 3813   0.695   6.285   3.023 -0.0568 -0.1198 -0.0375
   52CHL1   C19 3814   0.803   6.395   3.050 -0.0466  0.0222  0.5321
   52CHL1  H19A 3815   0.846   6.422   2.951 -1.3855  0.9891  0.1869
   52CHL1  H19B 3816   0.774   6.489   3.102 -2.8732 -0.5992  0.2662
   52CHL1  H19C 3817   0.887   6.360   3.113  0.5467  0.9986  0.3090
   52CHL1    C1 3818   0.755   6.154   2.972  0.6846 -0.2173  0.4068
   52CHL1   H1A 3819   0.842   6.126   3.035  2.6377 -1.2589 -2.5038
   52CHL1   H1B 3820   0.676   6.076   2.978 -1.0019  1.5190  1.5221
   52CHL1    C2 3821   0.789   6.151   2.822 -0.8394  0.3596 -0.1592
   52CHL1   H2A 3822   0.826   6.050   2.792  0.0633  0.3464  0.9324
   52CHL1   H2B 3823   0.873   6.219   2.798  0.0868 -1.2212 -1.5999
   52CHL1   C20 3824   0.519   6.298   3.707 -0.4218  0.1633  0.4811
   52CHL1   H20 3825   0.623   6.258   3.697  0.0117  1.0299  1.3538
   52CHL1   C21 3826   0.428   6.189   3.778 -0.0497 -0.6989 -0.6168
   52CHL1  H21A 3827   0.323   6.215   3.757  0.2135  0.0840 -0.9975
   52CHL1  H21B 3828   0.446   6.199   3.888  0.4660  1.3887 -0.8438
   52CHL1  H21C 3829   0.440   6.085   3.741 -0.5899 -0.2324 -2.1462
   52CHL1   C22 3830   0.510   6.428   3.792  0.3404 -1.4138 -0.8021
   52CHL1  H22A 3831   0.568   6.500   3.730 -0.9130  1.1309  0.8216
   52CHL1  H22B 3832   0.402   6.453   3.796  0.6943  0.2747 -0.9978
   52CHL1   C23 3833   0.574   6.422   3.936  0.5130 -1.1156  0.1275
   52CHL1  H23A 3834   0.586   6.524   3.978  1.9704 -1.5380  0.7859
   52CHL1  H23B 3835   0.496   6.375   3.999  3.4452 -2.4793  2.9631
   52CHL1   C24 3836   0.693   6.334   3.959 -0.3958  0.2769  0.1845
   52CHL1  H24A 3837   0.681   6.224   3.970  2.2916 -0.0335  0.7257
   52CHL1  H24B 3838   0.768   6.345   3.878  0.6244 -1.5425  0.8303
   52CHL1   C25 3839   0.758   6.366   4.097 -0.3541  0.0694  0.5807
   52CHL1   H25 3840   0.776   6.475   4.097 -2.7329  0.5154  0.7340
   52CHL1   C26 3841   0.660   6.338   4.215  0.0868 -0.1273  0.2126
   52CHL1  H26A 3842   0.567   6.397   4.197  0.1548  0.0377  0.3907
   52CHL1  H26B 3843   0.622   6.235   4.228 -1.2851  0.1314 -1.4330
   52CHL1  H26C 3844   0.707   6.362   4.313  0.8012 -0.8464  0.0479
   52CHL1   C27 3845   0.891   6.288   4.120  0.0636 -0.1746 -0.2104
   52CHL1  H27A 3846   0.858   6.183   4.134 -1.4421  0.3155  0.1699
   52CHL1  H27B 3847   0.952   6.291   4.028  0.3512  1.3333 -0.0028
   52CHL1  H27C 3848   0.945   6.322   4.211  1.8467 -1.2705 -0.8264
   53CHL1    C3 3849   0.914   6.993   2.354  1.0321  0.6389  0.6925
   53CHL1    H3 3850   0.809   7.005   2.323  0.5949 -0.7879  1.5204
   53CHL1    O3 3851   1.002   6.990   2.247 -0.2452 -0.0164  0.2001
   53CHL1   H3' 3852   1.000   7.079   2.212  2.5559 -0.9746 -2.9976
   53CHL1    C4 3853   0.960   7.095   2.455 -0.7768 -0.2803  0.2852
   53CHL1   H4A 3854   1.063   7.060   2.480  0.4046  3.2520  0.9312
   53CHL1   H4B 3855   0.972   7.194   2.406 -0.2729 -0.8125 -0.7081
   53CHL1    C5 3856   0.875   7.099   2.581 -0.6484  0.1108  0.3483
   53CHL1    C6 3857   0.810   7.208   2.614  0.0325  0.2933 -0.7776
   53CHL1    H6 3858   0.825   7.301   2.556 -1.5945 -0.2804 -2.2035
   53CHL1    C7 3859   0.730   7.225   2.740 -0.6778  0.0990 -0.5583
   53CHL1   H7A 3860   0.752   7.323   2.787 -1.1170 -1.4860  3.3604
   53CHL1   H7B 3861   0.623   7.235   2.712 -1.2445 -0.4744  1.2250
   53CHL1    C8 3862   0.750   7.106   2.842  0.2419  0.2161 -0.3433
   53CHL1    H8 3863   0.844   7.132   2.896  0.5389  0.4189 -0.9486
   53CHL1   C14 3864   0.640   7.102   2.950 -0.5529  1.1814  0.4342
   53CHL1   H14 3865   0.543   7.093   2.895 -0.2951  1.7229 -0.1176
   53CHL1   C15 3866   0.626   7.222   3.039 -0.5336  0.0724 -0.0544
   53CHL1  H15A 3867   0.731   7.249   3.063 -1.0721  0.5745  1.9731
   53CHL1  H15B 3868   0.590   7.309   2.980  1.4660  0.6657 -0.4907
   53CHL1   C16 3869   0.549   7.177   3.164 -0.4503 -0.0763 -0.5567
   53CHL1  H16A 3870   0.610   7.203   3.253  3.0438 -2.9796 -1.8703
   53CHL1  H16B 3871   0.451   7.228   3.175 -0.0906  0.0645  3.4373
   53CHL1   C17 3872   0.542   7.022   3.150 -0.2810 -0.5019 -0.0170
   53CHL1   H17 3873   0.441   7.012   3.105 -0.3902 -0.3907  0.2028
   53CHL1   C13 3874   0.650   6.983   3.045 -1.0855 -0.3860 -0.9879
   53CHL1   C18 3875   0.786   6.975   3.121 -0.1604 -0.3402  0.2350
   53CHL1  H18A 3876   0.861   6.986   3.040 -1.7957  1.0334 -1.2016
   53CHL1  H18B 3877   0.807   7.056   3.193 -3.1865  2.3382 -1.5705
   53CHL1  H18C 3878   0.801   6.878   3.173 -1.1337 -0.0212  1.1436
   53CHL1   C12 3879   0.624   6.861   2.958 -0.2583  0.7290 -0.4566
   53CHL1  H12A 3880   0.636   6.776   3.028  0.6882  0.1812 -1.2608
   53CHL1  H12B 3881   0.519   6.869   2.921 -0.9868  2.1113  1.7534
   53CHL1   C11 3882   0.737   6.846   2.858  0.0094 -0.3448 -1.1110
   53CHL1  H11A 3883   0.826   6.804   2.909  0.2472  0.8550 -0.5151
   53CHL1  H11B 3884   0.693   6.762   2.799  2.0474 -2.6010  0.3734
   53CHL1    C9 3885   0.755   6.972   2.768  0.4095 -0.2000  0.0030
   53CHL1    H9 3886   0.659   6.980   2.711 -0.6637 -0.1144  1.7556
   53CHL1   C10 3887   0.862   6.970   2.661 -0.3894  0.5934 -0.2804
   53CHL1   C19 3888   0.998   6.957   2.737 -0.2977  0.0288 -0.2678
   53CHL1  H19A 3889   1.083   6.976   2.668  0.2203 -0.1481  0.3180
   53CHL1  H19B 3890   1.003   7.022   2.828 -2.0641 -0.1411 -0.0117
   53CHL1  H19C 3891   1.001   6.854   2.777 -0.0473  0.5837  1.2498
   53CHL1    C1 3892   0.828   6.855   2.552  0.7126 -0.3805  0.2320
   53CHL1   H1A 3893   0.840   6.749   2.585 -0.3804 -1.5738 -2.8498
   53CHL1   H1B 3894   0.727   6.879   2.512  0.6019 -0.5601  0.4002
   53CHL1    C2 3895   0.912   6.852   2.420 -0.4751 -0.5560  0.3747
   53CHL1   H2A 3896   0.864   6.777   2.353 -1.0594  0.1603 -0.0257
   53CHL1   H2B 3897   1.015   6.824   2.449 -0.5430  0.5190  1.7528
   53CHL1   C20 3898   0.526   6.956   3.284 -0.1641 -0.5619  0.3849
   53CHL1   H20 3899   0.622   6.954   3.339 -0.7307  0.9992  1.5176
   53CHL1   C21 3900   0.496   6.804   3.252 -0.2634 -0.5891 -0.1768
   53CHL1  H21A 3901   0.413   6.800   3.178 -0.0244  0.5274 -0.5273
   53CHL1  H21B 3902   0.467   6.748   3.344  1.7179 -2.1567 -0.4390
   53CHL1  H21C 3903   0.589   6.751   3.221  0.2700  0.0850  0.2436
   53CHL1   C22 3904   0.409   7.013   3.376  0.3533  0.4655  0.3077
   53CHL1  H22A 3905   0.413   7.124   3.370  0.4069  0.3782 -1.8405
   53CHL1  H22B 3906   0.311   6.984   3.332 -0.4169 -0.9875  2.7659
   53CHL1   C23 3907   0.421   6.991   3.533  0.7622  0.3572 -0.4940
   53CHL1  H23A 3908   0.422   6.881   3.549  0.2336  0.6510  1.9348
   53CHL1  H23B 3909   0.515   7.041   3.566  0.0339  1.1950  0.3492
   53CHL1   C24 3910   0.317   7.071   3.616  0.8121  0.0189 -0.3656
   53CHL1  H24A 3911   0.338   7.177   3.591  0.0346 -0.0458 -1.3609
   53CHL1  H24B 3912   0.213   7.040   3.590  0.1353  1.6796  0.2335
   53CHL1   C25 3913   0.342   7.057   3.769 -0.1254 -0.4607 -0.0252
   53CHL1   H25 3914   0.269   7.123   3.819  0.0274  1.5613 -2.2743
   53CHL1   C26 3915   0.322   6.913   3.812  0.2492 -0.0265 -0.2700
   53CHL1  H26A 3916   0.356   6.903   3.917  0.0446 -0.1897 -0.2198
   53CHL1  H26B 3917   0.215   6.885   3.812 -0.1583  1.3950 -1.2986
   53CHL1  H26C 3918   0.375   6.834   3.753 -1.0049 -1.7618  0.8310
   53CHL1   C27 3919   0.482   7.107   3.813 -0.2021  0.0566  0.4207
   53CHL1  H27A 3920   0.497   7.204   3.761 -0.7942  0.5369  1.1237
   53CHL1  H27B 3921   0.488   7.114   3.924 -1.2482  1.7751  0.4052
   53CHL1  H27C 3922   0.554   7.034   3.770  0.4526  1.7982 -1.6222
   54CHL1    C3 3923   5.732   0.298   2.547  0.1974  0.9875 -0.3511
   54CHL1    H3 3924   5.626   0.330   2.561  0.0038  0.9395 -1.6286
   54CHL1    O3 3925   5.766   0.338   2.417  0.7393  0.1138 -0.0944
   54CHL1   H3' 3926   5.836   0.402   2.431  0.7491  0.1026 -0.0922
   54CHL1    C4 3927   5.835   0.372   2.640  0.2766 -0.5286  0.2402
   54CHL1   H4A 3928   5.932   0.342   2.594  1.2025  1.3002  0.9056
   54CHL1   H4B 3929   5.826   0.482   2.628  0.1665 -0.6466 -0.9498
   54CHL1    C5 3930   5.818   0.331   2.781 -0.2466  0.0193 -0.4862
   54CHL1    C6 3931   5.804   0.417   2.879 -0.2647  0.1754  0.5135
   54CHL1    H6 3932   5.812   0.524   2.857 -0.7180 -0.0513 -0.8472
   54CHL1    C7 3933   5.784   0.383   3.023  0.1710  0.5385  0.0633
   54CHL1   H7A 3934   5.840   0.456   3.085  1.3616  0.0387 -0.4027
   54CHL1   H7B 3935   5.674   0.384   3.042  0.3505 -0.9283  1.3953
   54CHL1    C8 3936   5.830   0.241   3.052 -0.4440  0.3241  0.3939
   54CHL1    H8 3937   5.941   0.243   3.060 -0.5678  0.3103  2.9347
   54CHL1   C14 3938   5.776   0.194   3.184 -0.1796  0.4761 -0.4806
   54CHL1   H14 3939   5.666   0.189   3.176 -0.2212  0.5126  0.0584
   54CHL1   C15 3940   5.795   0.284   3.305  1.0856 -0.3396  0.1610
   54CHL1  H15A 3941   5.905   0.297   3.307  1.7767 -1.8226 -6.1163
   54CHL1  H15B 3942   5.741   0.381   3.313  0.3684 -0.6442 -0.7084
   54CHL1   C16 3943   5.752   0.194   3.424  0.2030 -0.5330  0.0737
   54CHL1  H16A 3944   5.824   0.210   3.507 -0.7612  1.4924  0.5953
   54CHL1  H16B 3945   5.653   0.217   3.467  0.1688 -1.6742  0.6420
   54CHL1   C17 3946   5.746   0.051   3.362 -0.5616  0.9656 -0.7093
   54CHL1   H17 3947   5.643   0.020   3.334  0.4164 -2.7656 -0.6979
   54CHL1   C13 3948   5.820   0.049   3.228 -0.2344 -0.1383  0.5540
   54CHL1   C18 3949   5.975   0.051   3.247  0.3582  0.5901  1.1606
   54CHL1  H18A 3950   6.008   0.131   3.316 -0.5979 -0.4809  2.9288
   54CHL1  H18B 3951   6.006  -0.051   3.279  1.3677  0.7325  0.6727
   54CHL1  H18C 3952   6.014   0.067   3.144 -0.5582 -1.3119  0.4676
   54CHL1   C12 3953   5.771  -0.047   3.119  1.1694 -0.3143  0.0327
   54CHL1  H12A 3954   5.798  -0.151   3.149  1.2319 -0.7922 -1.5898
   54CHL1  H12B 3955   5.663  -0.038   3.142  0.9754  1.9640 -1.4994
   54CHL1   C11 3956   5.803  -0.004   2.978 -0.0268  1.5367  0.0032
   54CHL1  H11A 3957   5.912  -0.029   2.975 -0.1113  1.1374  0.1444
   54CHL1  H11B 3958   5.764  -0.070   2.898  3.1037  0.4096 -0.7687
   54CHL1    C9 3959   5.780   0.144   2.945  0.1823 -0.5151 -0.2788
   54CHL1    H9 3960   5.670   0.163   2.948 -0.0095 -1.6775  0.3926
   54CHL1   C10 3961   5.824   0.176   2.802 -0.2070 -0.0995  0.1510
   54CHL1   C19 3962   5.975   0.128   2.782  0.2335  0.1946 -0.2437
   54CHL1  H19A 3963   5.980   0.018   2.791  1.8620  0.2548 -0.1901
   54CHL1  H19B 3964   6.021   0.171   2.690  1.2219  0.9255  0.5801
   54CHL1  H19C 3965   6.036   0.166   2.866 -1.4576 -0.7227  1.4648
   54CHL1    C1 3966   5.734   0.098   2.700 -1.2145  0.1114  0.5892
   54CHL1   H1A 3967   5.747  -0.012   2.698 -0.9457  0.0876  2.2479
   54CHL1   H1B 3968   5.627   0.117   2.725 -1.5796 -0.9816 -0.0473
   54CHL1    C2 3969   5.743   0.145   2.554 -0.1729  0.1846  0.1229
   54CHL1   H2A 3970   5.683   0.089   2.480 -1.1016 -0.2502  1.1822
   54CHL1   H2B 3971   5.849   0.127   2.526 -0.1075 -1.6549  1.3606
   54CHL1   C20 3972   5.785  -0.055   3.476 -0.1180 -0.7101  0.6858
   54CHL1   H20 3973   5.895  -0.044   3.488 -0.0735  2.6717 -1.4263
   54CHL1   C21 3974   5.756  -0.199   3.435 -0.1453  0.2518  0.0183
   54CHL1  H21A 3975   5.647  -0.211   3.416  0.0889 -0.8943 -0.7646
   54CHL1  H21B 3976   5.795  -0.266   3.515 -1.3788 -0.2340  0.2522
   54CHL1  H21C 3977   5.804  -0.228   3.339  0.5588 -0.1802  0.4860
   54CHL1   C22 3978   5.716  -0.025   3.603 -0.2672  0.0110  0.1526
   54CHL1  H22A 3979   5.765   0.068   3.638  2.8670 -0.5614 -2.2746
   54CHL1  H22B 3980   5.607  -0.017   3.584 -0.5087  0.3219  1.5132
   54CHL1   C23 3981   5.736  -0.128   3.717 -0.8256  0.3255 -0.4273
   54CHL1  H23A 3982   5.693  -0.228   3.698 -1.3171  0.8260 -2.1292
   54CHL1  H23B 3983   5.846  -0.138   3.718 -0.6506  1.8471 -0.9728
   54CHL1   C24 3984   5.674  -0.081   3.849  0.3674  0.4205  0.4871
   54CHL1  H24A 3985   5.729   0.005   3.893  1.2949  0.8201 -1.3473
   54CHL1  H24B 3986   5.570  -0.045   3.833 -0.0278 -0.8188  0.2129
   54CHL1   C25 3987   5.664  -0.189   3.959 -0.4615  0.0873  0.6340
   54CHL1   H25 3988   5.767  -0.221   3.984  0.8700  3.9781  0.9162
   54CHL1   C26 3989   5.627  -0.122   4.092  0.8688  1.0497  0.0887
   54CHL1  H26A 3990   5.644  -0.197   4.172  0.7127  1.3706  0.4198
   54CHL1  H26B 3991   5.697  -0.036   4.102  0.6506  0.9681  2.8716
   54CHL1  H26C 3992   5.524  -0.081   4.092  1.5675  2.9021  1.3364
   54CHL1   C27 3993   5.561  -0.296   3.921  0.6314  0.6743 -0.3322
   54CHL1  H27A 3994   5.601  -0.389   3.876  0.9433  0.7236 -0.1599
   54CHL1  H27B 3995   5.509  -0.324   4.015 -0.4263  2.0483 -0.4870
   54CHL1  H27C 3996   5.480  -0.255   3.858  0.3440  2.6087  1.1883
   55CHL1    C3 3997   6.424   1.235   2.485  0.7963 -0.8818  0.0160
   55CHL1    H3 3998   6.315   1.247   2.502  0.6857  1.2869 -1.7915
   55CHL1    O3 3999   6.443   1.242   2.346 -0.0713 -0.0262 -0.1319
   55CHL1   H3' 4000   6.529   1.200   2.333 -0.2213 -0.3520 -0.0811
   55CHL1    C4 4001   6.496   1.355   2.553 -0.2099  0.4536  0.4093
   55CHL1   H4A 4002   6.606   1.348   2.540 -0.0534  1.1222  1.2959
   55CHL1   H4B 4003   6.456   1.444   2.500 -1.4386 -0.3555 -0.0687
   55CHL1    C5 4004   6.477   1.352   2.703  0.1392  0.0000 -0.9221
   55CHL1    C6 4005   6.423   1.463   2.760 -0.1861 -0.1332 -0.0803
   55CHL1    H6 4006   6.398   1.551   2.699  1.1309  1.4238  1.5051
   55CHL1    C7 4007   6.401   1.476   2.908 -0.2895 -0.1505 -0.0644
   55CHL1   H7A 4008   6.451   1.563   2.956  0.4232 -2.1421  3.0544
   55CHL1   H7B 4009   6.294   1.473   2.939  0.7914  0.3217  4.3691
   55CHL1    C8 4010   6.482   1.366   2.989 -0.1419 -0.4574  0.1300
   55CHL1    H8 4011   6.590   1.387   2.998 -0.0702 -0.5733 -0.4320
   55CHL1   C14 4012   6.435   1.356   3.134 -0.2446 -0.1488 -0.6477
   55CHL1   H14 4013   6.328   1.325   3.133 -0.4067 -0.7594  4.5840
   55CHL1   C15 4014   6.436   1.490   3.210  0.3814 -0.3971 -0.9341
   55CHL1  H15A 4015   6.532   1.538   3.178 -0.1790  0.1947 -1.7667
   55CHL1  H15B 4016   6.345   1.545   3.180  0.4217  1.1545  1.5221
   55CHL1   C16 4017   6.421   1.464   3.358  0.0196 -0.2012  0.4175
   55CHL1  H16A 4018   6.493   1.517   3.423 -1.3185  1.5427  0.5497
   55CHL1  H16B 4019   6.317   1.493   3.384  0.1594  0.0476  0.6879
   55CHL1   C17 4020   6.432   1.307   3.364  0.8981 -0.0679  0.0813
   55CHL1   H17 4021   6.326   1.274   3.356 -0.1268  2.7719  0.8270
   55CHL1   C13 4022   6.498   1.254   3.229  0.6805 -0.1565  0.4041
   55CHL1   C18 4023   6.651   1.285   3.253  0.0754 -0.4346 -0.0560
   55CHL1  H18A 4024   6.701   1.294   3.155 -0.6432  1.0405 -0.3160
   55CHL1  H18B 4025   6.667   1.385   3.300 -1.4861 -0.5774  0.8577
   55CHL1  H18C 4026   6.697   1.210   3.321  3.8866 -0.0405 -1.9254
   55CHL1   C12 4027   6.457   1.112   3.174 -0.0765 -0.0363 -0.0678
   55CHL1  H12A 4028   6.522   1.034   3.218  0.9746  1.6146  1.4523
   55CHL1  H12B 4029   6.350   1.081   3.171 -0.4472  1.0983  0.9003
   55CHL1   C11 4030   6.497   1.102   3.023 -0.1041  0.4187 -0.5637
   55CHL1  H11A 4031   6.608   1.095   3.023 -0.1344 -0.7658  1.2902
   55CHL1  H11B 4032   6.459   1.009   2.977 -0.7364 -0.6524  1.9331
   55CHL1    C9 4033   6.460   1.225   2.933 -0.0347  1.1211  0.3201
   55CHL1    H9 4034   6.349   1.218   2.927 -0.2451  3.1558  1.0941
   55CHL1   C10 4035   6.498   1.216   2.782 -0.0561  0.3448 -0.1355
   55CHL1   C19 4036   6.656   1.194   2.778  0.1250  0.2223 -0.3876
   55CHL1  H19A 4037   6.694   1.194   2.674  0.1560  0.4056 -0.3763
   55CHL1  H19B 4038   6.708   1.272   2.838 -0.5570  1.2759 -1.1373
   55CHL1  H19C 4039   6.674   1.092   2.820  0.1867  1.5093  3.0326
   55CHL1    C1 4040   6.430   1.098   2.707  0.3543 -0.0371  0.7239
   55CHL1   H1A 4041   6.460   0.997   2.744  3.9608  0.2221 -1.0144
   55CHL1   H1B 4042   6.320   1.108   2.720  0.3313 -0.8735  1.2712
   55CHL1    C2 4043   6.467   1.098   2.555 -0.5168  0.1547  0.3594
   55CHL1   H2A 4044   6.423   1.007   2.508 -0.3428  0.0663  0.3695
   55CHL1   H2B 4045   6.577   1.089   2.553 -0.4085  1.4952 -0.7256
   55CHL1   C20 4046   6.479   1.252   3.499 -0.2475  0.2052  0.4436
   55CHL1   H20 4047   6.582   1.287   3.517  0.2929 -1.7194  1.3829
   55CHL1   C21 4048   6.481   1.098   3.494 -0.1930 -0.0841  0.2610
   55CHL1  H21A 4049   6.563   1.067   3.426 -1.9688 -0.7794 -1.6850
   55CHL1  H21B 4050   6.386   1.062   3.449 -0.4340  3.5227 -2.5224
   55CHL1  H21C 4051   6.495   1.062   3.598  0.8581  0.8831  0.4663
   55CHL1   C22 4052   6.392   1.305   3.620  0.0087  0.0407 -0.1868
   55CHL1  H22A 4053   6.391   1.416   3.612  0.1738  0.0657  0.1055
   55CHL1  H22B 4054   6.285   1.280   3.606  0.5097 -2.0256 -0.6530
   55CHL1   C23 4055   6.442   1.259   3.759 -0.0142 -0.1239 -0.4846
   55CHL1  H23A 4056   6.430   1.148   3.764 -2.6467  0.0436 -1.3929
   55CHL1  H23B 4057   6.551   1.277   3.771 -0.2233  1.0943 -0.2719
   55CHL1   C24 4058   6.373   1.321   3.874  0.5373  0.1570  0.0887
   55CHL1  H24A 4059   6.376   1.431   3.866  2.8908  0.3192  1.9401
   55CHL1  H24B 4060   6.264   1.299   3.878  0.4015  0.9284  1.1238
   55CHL1   C25 4061   6.435   1.260   4.005 -0.1584  0.1458  0.3673
   55CHL1   H25 4062   6.544   1.272   3.986 -0.4491  1.5700 -0.5385
   55CHL1   C26 4063   6.387   1.342   4.130 -0.1059 -0.2403  0.6928
   55CHL1  H26A 4064   6.277   1.352   4.133 -0.1337 -0.6443  3.0624
   55CHL1  H26B 4065   6.411   1.293   4.227 -0.3926 -1.2106  0.2809
   55CHL1  H26C 4066   6.447   1.434   4.113  1.2696 -1.1214  0.5909
   55CHL1   C27 4067   6.394   1.115   4.034  0.0553 -0.0973 -0.4077
   55CHL1  H27A 4068   6.286   1.119   4.059 -0.1242 -1.6473 -0.8388
   55CHL1  H27B 4069   6.409   1.043   3.951  2.0312 -2.0818  1.5042
   55CHL1  H27C 4070   6.452   1.069   4.118  0.1293 -0.1270 -0.4744
   56CHL1    C3 4071   6.932   0.642   2.433  0.3000  0.6101 -0.4983
   56CHL1    H3 4072   7.036   0.612   2.459  0.0873  0.1969 -0.1121
   56CHL1    O3 4073   6.929   0.646   2.291 -0.7355  0.3002  0.7489
   56CHL1   H3' 4074   6.855   0.705   2.277  0.9052  2.5586  1.0029
   56CHL1    C4 4075   6.829   0.541   2.496 -0.7172  0.4283 -0.1944
   56CHL1   H4A 4076   6.729   0.549   2.448 -0.2028 -0.8834 -1.5685
   56CHL1   H4B 4077   6.850   0.437   2.463 -0.9649  0.3666 -0.1616
   56CHL1    C5 4078   6.816   0.539   2.649  0.3071 -0.0473 -0.3970
   56CHL1    C6 4079   6.838   0.427   2.725  0.8205 -0.1696  0.2937
   56CHL1    H6 4080   6.878   0.339   2.672 -0.8203 -0.9145  0.2155
   56CHL1    C7 4081   6.825   0.424   2.871  0.0477 -0.2024 -0.0887
   56CHL1   H7A 4082   6.787   0.322   2.895 -0.9139 -0.4439 -2.3998
   56CHL1   H7B 4083   6.930   0.422   2.908  0.1107  0.2148 -0.2449
   56CHL1    C8 4084   6.742   0.543   2.929  0.6200  0.7632 -0.0256
   56CHL1    H8 4085   6.637   0.519   2.901  0.7714  1.3450 -1.1449
   56CHL1   C14 4086   6.758   0.543   3.081  0.2755 -0.2877 -0.5102
   56CHL1   H14 4087   6.868   0.545   3.097 -0.1110 -1.2748  3.1520
   56CHL1   C15 4088   6.735   0.412   3.162  0.1541 -0.4376  0.7102
   56CHL1  H15A 4089   6.653   0.350   3.119  2.3945 -1.7332 -2.0210
   56CHL1  H15B 4090   6.829   0.354   3.151  1.3687  1.2618  1.6801
   56CHL1   C16 4091   6.713   0.470   3.302  0.8422  0.4640  0.4039
   56CHL1  H16A 4092   6.607   0.453   3.333  0.6932  0.7415  0.0441
   56CHL1  H16B 4093   6.779   0.428   3.381  1.5954  0.1884 -0.3670
   56CHL1   C17 4094   6.732   0.626   3.287  0.0533 -0.7249  0.5937
   56CHL1   H17 4095   6.842   0.640   3.295  0.1752 -0.8088 -0.7780
   56CHL1   C13 4096   6.693   0.663   3.146  0.0855 -0.0554 -0.2828
   56CHL1   C18 4097   6.542   0.652   3.135 -0.1348 -0.4810 -0.1795
   56CHL1  H18A 4098   6.498   0.552   3.152 -1.7949 -0.6577 -4.3063
   56CHL1  H18B 4099   6.480   0.732   3.181  0.1066  1.2520 -2.6867
   56CHL1  H18C 4100   6.528   0.667   3.026  1.8666 -0.6583 -0.4854
   56CHL1   C12 4101   6.738   0.797   3.082 -0.7012 -0.1279 -0.1917
   56CHL1  H12A 4102   6.681   0.884   3.121  1.7770  1.0932  0.9207
   56CHL1  H12B 4103   6.844   0.820   3.105 -0.4433  0.7578 -2.0308
   56CHL1   C11 4104   6.733   0.802   2.933  0.3942  0.7443  0.3573
   56CHL1  H11A 4105   6.625   0.805   2.906  0.6941  0.6957 -0.9121
   56CHL1  H11B 4106   6.777   0.895   2.892  2.0756 -0.0351  0.3198
   56CHL1    C9 4107   6.788   0.676   2.866 -0.7817  0.0697 -0.2629
   56CHL1    H9 4108   6.894   0.680   2.898 -1.5833  2.9706  2.6083
   56CHL1   C10 4109   6.778   0.677   2.708 -0.5686 -0.3142  0.6235
   56CHL1   C19 4110   6.630   0.710   2.660 -0.5275 -0.0920 -0.0797
   56CHL1  H19A 4111   6.632   0.708   2.549 -1.8307  1.5415 -0.1699
   56CHL1  H19B 4112   6.556   0.636   2.695  0.1608 -0.6115  0.2923
   56CHL1  H19C 4113   6.602   0.812   2.694  0.7955  0.0061  0.8074
   56CHL1    C1 4114   6.880   0.781   2.647 -0.1038  0.1638 -0.8627
   56CHL1   H1A 4115   6.862   0.888   2.672  1.5585  0.0486  1.1037
   56CHL1   H1B 4116   6.980   0.752   2.686 -0.8284  0.9134  1.7645
   56CHL1    C2 4117   6.894   0.774   2.491  0.5212 -0.0999  0.2712
   56CHL1   H2A 4118   6.976   0.844   2.467  1.0410 -1.1701 -1.1560
   56CHL1   H2B 4119   6.796   0.802   2.447 -0.2388 -0.6580  1.5441
   56CHL1   C20 4120   6.670   0.714   3.401 -0.1801  0.5172 -0.2033
   56CHL1   H20 4121   6.574   0.761   3.371 -0.4503 -0.8917 -1.7131
   56CHL1   C21 4122   6.773   0.826   3.422 -0.1090 -0.3958  0.8324
   56CHL1  H21A 4123   6.805   0.874   3.326  0.1810 -0.3576  0.9479
   56CHL1  H21B 4124   6.862   0.783   3.473  1.1046  0.2910 -0.6019
   56CHL1  H21C 4125   6.725   0.909   3.477 -1.8751 -0.6747 -0.2310
   56CHL1   C22 4126   6.647   0.634   3.524 -0.4142 -0.6317 -0.0291
   56CHL1  H22A 4127   6.563   0.562   3.514 -1.1235  0.3447 -1.4847
   56CHL1  H22B 4128   6.734   0.576   3.561  0.0746  0.3377  0.4003
   56CHL1   C23 4129   6.618   0.711   3.661  0.4615 -0.6153 -0.0280
   56CHL1  H23A 4130   6.712   0.759   3.698  0.6707 -0.8178 -0.2897
   56CHL1  H23B 4131   6.543   0.792   3.654 -1.2800 -2.0083  1.3676
   56CHL1   C24 4132   6.566   0.611   3.764 -0.0317 -0.2596 -0.7465
   56CHL1  H24A 4133   6.497   0.530   3.732 -1.0958  0.4807 -0.3882
   56CHL1  H24B 4134   6.657   0.555   3.797  0.4890  0.6283 -0.6617
   56CHL1   C25 4135   6.505   0.684   3.884  0.3565  0.0037 -0.4183
   56CHL1   H25 4136   6.581   0.763   3.903 -0.6710  0.8360  0.3745
   56CHL1   C26 4137   6.367   0.734   3.846  0.3487 -0.2131 -0.4667
   56CHL1  H26A 4138   6.322   0.789   3.932 -0.3537  0.4085 -1.2212
   56CHL1  H26B 4139   6.377   0.809   3.765  0.9763  1.4569  1.0878
   56CHL1  H26C 4140   6.304   0.648   3.812 -1.0053 -1.0993  3.6761
   56CHL1   C27 4141   6.496   0.585   3.996  0.2650 -0.0313  0.3103
   56CHL1  H27A 4142   6.420   0.627   4.066  1.4984  1.0359  1.0337
   56CHL1  H27B 4143   6.476   0.483   3.957 -2.7783  1.1755 -1.7088
   56CHL1  H27C 4144   6.595   0.572   4.043  0.0760 -1.3671  0.3789
   57OSM      N 4145   3.775   3.512   6.233  0.4459 -0.1405  0.2405
   57OSM    C15 4146   3.790   3.463   6.089  0.3098  0.2582  0.3907
   57OSM   H15A 4147   3.860   3.382   6.071 -0.7124 -0.7124  0.6590
   57OSM   H15B 4148   3.826   3.540   6.023 -0.3072 -0.0032 -0.2704
   57OSM   H15C 4149   3.695   3.430   6.050  1.6688 -1.7419 -1.4686
   57OSM    C14 4150   3.758   3.392   6.318 -0.2481 -0.1979  0.0698
   57OSM   H14A 4151   3.661   3.345   6.312 -0.5670  0.6272 -2.7998
   57OSM   H14B 4152   3.767   3.420   6.421  0.8253  0.3527 -0.1609
   57OSM   H14C 4153   3.835   3.317   6.306  0.0083  0.2608 -1.3841
   57OSM    C13 4154   3.901   3.586   6.269  0.3281  0.0302 -0.0180
   57OSM   H13A 4155   3.881   3.632   6.365  0.0510 -0.7154  0.2863
   57OSM   H13B 4156   3.933   3.662   6.199  1.5732 -0.7276 -0.3067
   57OSM   H13C 4157   3.981   3.514   6.276 -0.6000 -1.1644 -1.1833
   57OSM    C12 4158   3.661   3.610   6.230  0.3821 -0.2322  0.8093
   57OSM   H12A 4159   3.569   3.565   6.194 -0.5630  0.1574  2.6103
   57OSM   H12B 4160   3.688   3.692   6.166  1.2482 -0.8116  0.4240
   57OSM    C11 4161   3.622   3.676   6.368  0.0125 -0.6301 -0.9222
   57OSM   H11A 4162   3.596   3.595   6.440 -1.1593  0.0724 -0.5121
   57OSM   H11B 4163   3.521   3.724   6.367  0.3781  0.5684  2.7668
   57OSM      P 4164   3.739   3.913   6.390  0.1760 -0.1354 -0.1843
   57OSM    O13 4165   3.624   3.979   6.457  0.4593 -0.5764  0.3832
   57OSM    O14 4166   3.871   3.974   6.423  0.6143 -0.1278  0.1092
   57OSM    O11 4167   3.712   3.932   6.229  0.0955 -0.2838  0.1563
   57OSM    O12 4168   3.726   3.764   6.422 -0.3505  0.6424 -0.3231
   57OSM    C1S 4169   3.830   3.937   6.150  0.1948 -0.0579 -0.0620
   57OSM    H1S 4170   3.891   3.848   6.176 -0.9279 -0.6849  0.4851
   57OSM    H1T 4171   3.896   4.024   6.173  0.2828 -0.2625  0.4584
   57OSM     NF 4172   3.926   3.942   5.923  1.3499 -0.3337 -0.8168
   57OSM    HNF 4173   3.959   4.025   5.879 -0.3172  1.2030  0.6357
   57OSM    C2S 4174   3.803   3.950   6.003 -0.3668  0.2881  0.3826
   57OSM    H2S 4175   3.735   3.871   5.964 -0.0681  0.6188 -0.8679
   57OSM    C3S 4176   3.723   4.079   5.962 -0.4095  0.0418  0.3014
   57OSM    H3S 4177   3.788   4.165   5.988 -0.3224 -0.1607  0.7477
   57OSM     O3 4178   3.596   4.098   6.019  0.3258  0.3832  0.2750
   57OSM    HO3 4179   3.579   4.026   6.081 -1.3674 -2.2749 -2.9597
   57OSM    C4S 4180   3.705   4.085   5.811  0.2936  0.4604 -1.1139
   57OSM    H4S 4181   3.656   3.996   5.769  2.2671 -0.1720 -2.2489
   57OSM    C5S 4182   3.759   4.180   5.733 -0.1388  0.1056 -0.0891
   57OSM    H5S 4183   3.819   4.261   5.776 -0.6859  0.0771  0.7530
   57OSM    C6S 4184   3.742   4.182   5.585  0.0130 -1.0695  0.3960
   57OSM    H6S 4185   3.810   4.117   5.527  1.3602  2.3213 -2.1958
   57OSM    H6T 4186   3.758   4.288   5.554  0.9447 -1.7702 -1.6586
   57OSM    C7S 4187   3.591   4.155   5.554  0.0714  0.1506  0.3584
   57OSM    H7S 4188   3.534   4.247   5.579  1.1930  0.6932  0.9947
   57OSM    H7T 4189   3.550   4.066   5.604 -1.6457  0.3606 -0.5973
   57OSM    C8S 4190   3.551   4.130   5.409 -0.3268 -0.6794 -0.1999
   57OSM    H8S 4191   3.444   4.155   5.391 -0.0905  1.6440  1.1886
   57OSM    H8T 4192   3.568   4.027   5.374 -1.9508 -0.2493 -2.4472
   57OSM    C9S 4193   3.631   4.227   5.321 -0.1293 -0.0717  0.6623
   57OSM    H9S 4194   3.738   4.201   5.309 -0.4400 -0.6693 -1.0570
   57OSM    H9T 4195   3.620   4.326   5.370  2.2064 -1.1082  3.6037
   57OSM   C10S 4196   3.584   4.229   5.171 -0.4535  0.3636  0.0654
   57OSM   H10S 4197   3.481   4.270   5.169 -0.5700  0.0620 -1.4415
   57OSM   H10T 4198   3.586   4.125   5.132  3.5752  0.5667 -0.7039
   57OSM   C11S 4199   3.670   4.322   5.084  0.2369 -0.0091  0.3950
   57OSM   H11S 4200   3.767   4.272   5.065  0.2688  0.5967 -1.1061
   57OSM   H11T 4201   3.689   4.421   5.132 -0.9209  1.0946 -1.3122
   57OSM   C12S 4202   3.615   4.356   4.942 -0.2556  0.2211 -0.3496
   57OSM   H12S 4203   3.669   4.435   4.886 -0.1494 -0.1656 -0.8031
   57OSM   H12T 4204   3.509   4.381   4.965 -1.5472 -2.4899 -2.7942
   57OSM   C13S 4205   3.608   4.235   4.852  0.0516  0.3561 -0.6639
   57OSM   H13S 4206   3.544   4.168   4.914 -0.0011  0.1149 -0.9789
   57OSM   H13T 4207   3.709   4.195   4.832  0.6157  0.7473  1.2251
   57OSM   C14S 4208   3.557   4.273   4.715 -0.5992  0.6335  0.0756
   57OSM   H14S 4209   3.621   4.350   4.666  2.5321  0.3309  3.3343
   57OSM   H14T 4210   3.461   4.327   4.730 -0.1719  1.3691  0.2266
   57OSM   C15S 4211   3.526   4.160   4.623  0.2123 -0.5251 -0.6193
   57OSM   H15S 4212   3.424   4.122   4.650 -0.1217  1.3065  0.9357
   57OSM   H15T 4213   3.585   4.069   4.646 -0.1481 -0.7224 -0.4480
   57OSM   C16S 4214   3.524   4.193   4.466 -0.6568 -0.3479 -0.2094
   57OSM   H16S 4215   3.630   4.207   4.438 -0.9772  1.8723 -0.4524
   57OSM   H16T 4216   3.468   4.287   4.445  0.2329  0.2025 -0.1560
   57OSM   C17S 4217   3.463   4.084   4.376 -0.3206  0.3378  0.1110
   57OSM   H17S 4218   3.356   4.080   4.403  0.0100 -3.3920  1.3735
   57OSM   H17T 4219   3.508   3.986   4.402  1.4805  0.4143 -2.3270
   57OSM   C18S 4220   3.462   4.126   4.223  0.2109 -0.4095  0.0077
   57OSM   H18S 4221   3.565   4.101   4.187  1.0257  2.3025  0.2353
   57OSM   H18T 4222   3.432   4.232   4.209  0.0138 -0.5081 -0.3111
   57OSM   H18U 4223   3.378   4.070   4.177  0.5594  0.1794 -1.3900
   57OSM    C1F 4224   3.993   3.831   5.924 -0.1092 -0.5715  0.7081
   57OSM     OF 4225   3.959   3.729   5.982  0.3999 -0.8358 -0.0485
   57OSM    C2F 4226   4.123   3.841   5.855  0.0450  0.8522  0.2642
   57OSM    H2F 4227   4.211   3.796   5.907 -1.0263  0.8928  2.1781
   57OSM    H2G 4228   4.143   3.948   5.836 -1.3574  1.1293  0.2566
   57OSM    C3F 4229   4.119   3.773   5.718  0.4050 -0.2081  0.6902
   57OSM    H3F 4230   4.222   3.777   5.674  0.5101  1.3882  1.0506
   57OSM    H3G 4231   4.066   3.840   5.648  1.8895  0.4786  0.1643
   57OSM    C4F 4232   4.084   3.625   5.723 -0.3329 -0.2277 -0.4928
   57OSM    H4F 4233   3.979   3.610   5.756  0.2242 -2.1169  0.5795
   57OSM    H4G 4234   4.143   3.582   5.807  0.8894 -0.2651 -1.3543
   57OSM    C5F 4235   4.119   3.552   5.593 -0.1437 -0.0385 -0.4435
   57OSM    H5F 4236   4.069   3.452   5.586 -0.5996  0.0494  1.1765
   57OSM    H5G 4237   4.229   3.536   5.591 -0.1082 -0.0837  0.8611
   57OSM    C6F 4238   4.093   3.620   5.461  0.0273  0.2930 -0.7300
   57OSM    H6F 4239   4.147   3.718   5.459  0.3334  0.1981  1.2997
   57OSM    H6G 4240   3.983   3.619   5.443 -0.1057 -0.7296  0.0785
   57OSM    C7F 4241   4.147   3.536   5.341 -0.0277  0.8342  0.2718
   57OSM    H7F 4242   4.124   3.431   5.371  2.9040  0.8934  3.3261
   57OSM    H7G 4243   4.258   3.540   5.337  0.0208  1.2231  1.5810
   57OSM    C8F 4244   4.080   3.569   5.209 -0.4846  0.2917 -0.8915
   57OSM    H8F 4245   4.070   3.679   5.197  1.4019  0.5637 -0.3356
   57OSM    H8G 4246   3.976   3.535   5.232  0.7786 -2.0425  2.1062
   57OSM    C9F 4247   4.147   3.488   5.099 -0.8057 -0.6921 -0.1625
   57OSM    H9F 4248   4.172   3.385   5.129 -2.2421 -1.1167 -0.3595
   57OSM   C10F 4249   4.191   3.534   4.979 -0.3570  0.1415 -0.5973
   57OSM   H10F 4250   4.224   3.469   4.897  0.9685  0.9333 -0.7194
   57OSM   C11F 4251   4.174   3.670   4.928 -0.4576 -0.1399 -0.8751
   57OSM   H11F 4252   4.095   3.724   4.984 -0.1544 -1.8249  1.3155
   57OSM   H11G 4253   4.146   3.666   4.821  0.0286  1.7873 -1.1147
   57OSM   C12F 4254   4.309   3.744   4.948  0.2063 -0.5256 -0.4563
   57OSM   H12F 4255   4.394   3.709   4.885 -0.3123 -2.2422 -0.2577
   57OSM   H12G 4256   4.348   3.729   5.050  1.1473  0.5721 -0.6278
   57OSM   C13F 4257   4.285   3.895   4.934  0.3265  0.2108  0.1487
   57OSM   H13F 4258   4.371   3.952   4.975 -0.3734  0.6083  1.0759
   57OSM   H13G 4259   4.201   3.934   4.995 -0.1932 -1.1330  0.3449
   57OSM   C14F 4260   4.261   3.924   4.787  0.4513  0.4133  0.2977
   57OSM   H14F 4261   4.170   3.870   4.753 -0.2445 -0.9998  3.9656
   57OSM   H14G 4262   4.345   3.886   4.724  2.0814  3.5971  0.3245
   57OSM   C15F 4263   4.254   4.076   4.756  0.8254 -0.4832  0.1691
   57OSM   H15F 4264   4.356   4.121   4.756  0.9837 -0.8175  0.8849
   57OSM   H15G 4265   4.194   4.130   4.833 -0.7648 -0.7736 -0.8291
   57OSM   C16F 4266   4.205   4.103   4.612  0.3999  0.1709 -0.0769
   57OSM   H16F 4267   4.260   4.036   4.542 -1.0902  2.5231 -3.7964
   57OSM   H16G 4268   4.231   4.205   4.578  1.0852 -1.0878 -3.8968
   57OSM   C17F 4269   4.059   4.098   4.581 -0.0315  0.1044 -0.0700
   57OSM   H17F 4270   4.002   4.124   4.673  0.6474 -3.2573  1.4643
   57OSM   H17G 4271   4.028   3.997   4.547  0.0483 -1.0626  3.0194
   57OSM   C18F 4272   4.022   4.197   4.467 -0.4584 -0.2680 -0.3463
   57OSM   H18F 4273   4.038   4.303   4.497 -0.2722 -0.5080  0.4371
   57OSM   H18G 4274   3.918   4.172   4.436  0.1700 -2.0197 -1.1558
   57OSM   H18H 4275   4.091   4.168   4.385 -1.5113 -0.9077 -1.0282
   58OSM      N 4276   4.301   3.135   6.676 -0.3644 -0.1456 -0.3156
   58OSM    C15 4277   4.412   3.127   6.777 -0.0743  0.0086 -0.3578
   58OSM   H15A 4278   4.472   3.044   6.744 -2.9131 -1.0202 -3.5896
   58OSM   H15B 4279   4.366   3.102   6.871 -0.9831  0.2671 -0.7108
   58OSM   H15C 4280   4.470   3.217   6.791  0.3534 -0.2809 -0.2627
   58OSM    C14 4281   4.235   3.259   6.687  0.1807 -0.0224  0.6995
   58OSM   H14A 4282   4.281   3.345   6.642 -2.4408  0.8359 -0.6001
   58OSM   H14B 4283   4.206   3.280   6.789  0.9838  0.8656  0.7594
   58OSM   H14C 4284   4.139   3.249   6.637  0.4466 -0.9284  0.3536
   58OSM    C13 4285   4.364   3.113   6.541 -0.4023  0.6529  0.1795
   58OSM   H13A 4286   4.391   3.009   6.528  0.1966  0.7181  0.8671
   58OSM   H13B 4287   4.440   3.187   6.524 -2.3995  2.7113 -0.2631
   58OSM   H13C 4288   4.275   3.125   6.481 -0.4013 -1.3506 -0.3013
   58OSM    C12 4289   4.200   3.016   6.693  0.0289  0.0804  0.1998
   58OSM   H12A 4290   4.139   3.042   6.778 -1.7995 -0.5552 -0.8745
   58OSM   H12B 4291   4.248   2.922   6.714  1.4743  1.1446  2.0590
   58OSM    C11 4292   4.103   2.988   6.575 -0.4649 -0.2624  0.7806
   58OSM   H11A 4293   4.041   2.901   6.604 -0.0429 -0.6520  0.5407
   58OSM   H11B 4294   4.154   2.942   6.487  1.7651  1.4374  1.0995
   58OSM      P 4295   3.887   3.126   6.582 -0.2384 -0.0308  0.0645
   58OSM    O13 4296   3.846   3.034   6.691 -0.2447 -0.2106 -0.0232
   58OSM    O14 4297   3.884   3.273   6.605  0.4055 -0.1871 -0.4326
   58OSM    O11 4298   3.794   3.092   6.453  0.0611 -0.5868 -0.3636
   58OSM    O12 4299   4.031   3.098   6.528 -0.5874  0.3381  0.0890
   58OSM    C1S 4300   3.859   3.018   6.347 -0.0969  0.6693 -0.3410
   58OSM    H1S 4301   3.916   2.929   6.381  0.7813  1.2773 -0.1674
   58OSM    H1T 4302   3.935   3.083   6.298  1.4093  0.4757  1.6253
   58OSM     NF 4303   3.816   2.926   6.115  0.3710 -0.2679 -0.3762
   58OSM    HNF 4304   3.818   2.981   6.031  0.0205 -1.7131 -1.3800
   58OSM    C2S 4305   3.753   2.981   6.234 -0.2626 -0.1151 -0.7338
   58OSM    H2S 4306   3.706   2.887   6.269 -1.3969  0.7337  0.1173
   58OSM    C3S 4307   3.653   3.091   6.200  0.5457  0.8119 -0.5565
   58OSM    H3S 4308   3.704   3.182   6.161 -1.0594  0.9869 -2.4538
   58OSM     O3 4309   3.581   3.137   6.315 -0.1189  0.6159 -0.1953
   58OSM    HO3 4310   3.643   3.132   6.388  0.5425  1.0187 -0.7270
   58OSM    C4S 4311   3.556   3.039   6.101 -0.0016 -0.2618 -0.0114
   58OSM    H4S 4312   3.492   2.958   6.141  2.4937 -2.5731 -0.4244
   58OSM    C5S 4313   3.522   3.082   5.976 -0.7959  0.5318 -0.8250
   58OSM    H5S 4314   3.578   3.160   5.924 -0.9877  0.0915 -1.7193
   58OSM    C6S 4315   3.412   3.016   5.895  0.4392 -0.6641 -0.9091
   58OSM    H6S 4316   3.448   3.039   5.792  3.4203 -1.3710 -0.1306
   58OSM    H6T 4317   3.312   3.062   5.906  1.0934  0.5682  0.1363
   58OSM    C7S 4318   3.384   2.864   5.910  0.3203  0.2434  0.6557
   58OSM    H7S 4319   3.302   2.855   5.985 -0.0450 -1.7689  0.0865
   58OSM    H7T 4320   3.466   2.810   5.960 -0.9857  0.1347  2.7986
   58OSM    C8S 4321   3.332   2.789   5.783  0.9725  0.3663  0.0226
   58OSM    H8S 4322   3.272   2.865   5.729 -0.7294 -2.9386 -3.1818
   58OSM    H8T 4323   3.271   2.697   5.792  1.7187  0.0551  2.7918
   58OSM    C9S 4324   3.451   2.758   5.692  0.0581  0.4710  0.1703
   58OSM    H9S 4325   3.512   2.677   5.736 -0.0015  0.0170 -0.5723
   58OSM    H9T 4326   3.518   2.846   5.685  0.6339  0.1097  1.0682
   58OSM   C10S 4327   3.389   2.705   5.555 -0.0580  0.4501  0.0502
   58OSM   H10S 4328   3.315   2.779   5.517  0.8077  1.8955  1.0370
   58OSM   H10T 4329   3.339   2.608   5.577  1.1718 -0.2542 -0.1550
   58OSM   C11S 4330   3.487   2.691   5.440 -0.0064 -0.0507 -0.9170
   58OSM   H11S 4331   3.570   2.625   5.473 -0.4876 -0.7186 -1.0151
   58OSM   H11T 4332   3.538   2.789   5.431 -1.1706  0.8147  1.1564
   58OSM   C12S 4333   3.437   2.660   5.300 -0.2059 -0.3143  1.1796
   58OSM   H12S 4334   3.378   2.747   5.263  3.1337  1.3493 -0.6901
   58OSM   H12T 4335   3.381   2.565   5.311  0.7254 -0.9026  0.9421
   58OSM   C13S 4336   3.553   2.637   5.200 -0.5391  0.0114 -0.2032
   58OSM   H13S 4337   3.630   2.577   5.253  0.7427  0.2817 -1.6706
   58OSM   H13T 4338   3.609   2.732   5.186  0.5391 -0.3351  1.4984
   58OSM   C14S 4339   3.506   2.597   5.064 -0.4187  0.1162 -0.1254
   58OSM   H14S 4340   3.419   2.661   5.038 -0.3255  1.1187  1.8456
   58OSM   H14T 4341   3.470   2.492   5.064  1.3436 -0.6199  2.7513
   58OSM   C15S 4342   3.623   2.605   4.971  0.2151  0.5079  0.8588
   58OSM   H15S 4343   3.709   2.547   5.011  0.5301 -0.5067 -1.1704
   58OSM   H15T 4344   3.653   2.711   4.978  1.0918  0.4591 -1.3895
   58OSM   C16S 4345   3.571   2.574   4.822 -0.3995 -0.5602  0.0425
   58OSM   H16S 4346   3.475   2.621   4.792 -0.3449  0.4014  1.2843
   58OSM   H16T 4347   3.563   2.464   4.813  1.3084 -0.6930 -0.2550
   58OSM   C17S 4348   3.678   2.607   4.718 -0.1271 -0.3496 -0.0424
   58OSM   H17S 4349   3.694   2.715   4.735  0.8932 -0.1501 -2.0290
   58OSM   H17T 4350   3.658   2.584   4.611  0.9047 -2.5710  0.1820
   58OSM   C18S 4351   3.808   2.534   4.730  0.2047 -0.2759 -0.1715
   58OSM   H18S 4352   3.803   2.435   4.679  3.0511  0.2569 -1.7188
   58OSM   H18T 4353   3.836   2.530   4.837 -2.9622  0.4700  0.7866
   58OSM   H18U 4354   3.884   2.586   4.668  0.1139 -0.8279 -0.7604
   58OSM    C1F 4355   3.880   2.815   6.107 -0.3430 -0.0057 -0.6005
   58OSM     OF 4356   3.897   2.740   6.207  0.3323 -0.8522  0.1026
   58OSM    C2F 4357   3.942   2.773   5.987 -1.0764 -0.4668 -0.2902
   58OSM    H2F 4358   3.915   2.846   5.909 -0.0803  1.4652  1.0754
   58OSM    H2G 4359   3.917   2.667   5.967 -1.4913 -0.1986 -1.2062
   58OSM    C3F 4360   4.107   2.768   6.001  0.0054 -0.4235  0.2439
   58OSM    H3F 4361   4.141   2.705   6.086 -0.0553 -0.1238  0.4928
   58OSM    H3G 4362   4.142   2.870   6.025 -1.7958 -0.1316  1.8858
   58OSM    C4F 4363   4.182   2.714   5.875 -0.4922  0.0748 -0.0077
   58OSM    H4F 4364   4.127   2.625   5.837  0.6442 -1.6702  2.1803
   58OSM    H4G 4365   4.279   2.673   5.909 -1.7957 -2.9150  0.4103
   58OSM    C5F 4366   4.212   2.825   5.772 -0.1299  0.2387  0.4699
   58OSM    H5F 4367   4.281   2.902   5.813 -0.7777  1.2225 -0.2412
   58OSM    H5G 4368   4.113   2.870   5.749 -0.8324 -0.4718  1.9943
   58OSM    C6F 4369   4.277   2.762   5.642 -0.0059  0.1332  0.3021
   58OSM    H6F 4370   4.266   2.834   5.558  0.6446  0.0307  0.1242
   58OSM    H6G 4371   4.215   2.671   5.627  0.7204 -0.3413  0.1561
   58OSM    C7F 4372   4.420   2.716   5.659 -0.4240  0.0541  0.2315
   58OSM    H7F 4373   4.419   2.631   5.730  1.4457 -0.4460 -0.2787
   58OSM    H7G 4374   4.475   2.804   5.698  1.6371 -1.3480  0.6117
   58OSM    C8F 4375   4.487   2.659   5.530  1.1899  0.4166 -0.4418
   58OSM    H8F 4376   4.403   2.603   5.485  1.9690 -0.6704 -0.5901
   58OSM    H8G 4377   4.559   2.577   5.551  1.7752  0.4918 -1.9965
   58OSM    C9F 4378   4.537   2.770   5.438 -0.4608 -0.3944  0.2353
   58OSM    H9F 4379   4.634   2.812   5.469 -0.9350  0.2599  0.8602
   58OSM   C10F 4380   4.470   2.821   5.339  0.2924  0.8480  0.7840
   58OSM   H10F 4381   4.509   2.905   5.280  0.9452 -0.3753 -0.6189
   58OSM   C11F 4382   4.331   2.782   5.285  0.4324 -0.0711 -0.4934
   58OSM   H11F 4383   4.263   2.836   5.355  0.4218  0.4934 -0.9388
   58OSM   H11G 4384   4.314   2.673   5.297  0.5126 -0.0149  0.2210
   58OSM   C12F 4385   4.291   2.822   5.139  0.1408  0.2755 -0.1031
   58OSM   H12F 4386   4.293   2.932   5.126  4.0901  0.5679  1.6745
   58OSM   H12G 4387   4.185   2.789   5.135  0.0543  0.4234  0.7811
   58OSM   C13F 4388   4.371   2.767   5.022 -0.3363  0.3541  0.0422
   58OSM   H13F 4389   4.341   2.661   5.008  0.2342  0.0953  0.6820
   58OSM   H13G 4390   4.481   2.780   5.029 -0.5321  2.5663 -0.3141
   58OSM   C14F 4391   4.343   2.853   4.899  0.2631  0.2750  0.6968
   58OSM   H14F 4392   4.380   2.956   4.918  0.7242 -0.1353  2.2324
   58OSM   H14G 4393   4.234   2.864   4.884  0.2569 -1.3279 -0.7553
   58OSM   C15F 4394   4.399   2.792   4.770  0.0511  0.0291 -0.0831
   58OSM   H15F 4395   4.339   2.703   4.742  0.0966 -0.0457  0.0592
   58OSM   H15G 4396   4.503   2.757   4.788 -0.5957 -1.7605  0.3362
   58OSM   C16F 4397   4.400   2.893   4.659  0.0824  0.2603  0.1803
   58OSM   H16F 4398   4.427   2.847   4.562 -2.6327  0.6583 -0.8651
   58OSM   H16G 4399   4.476   2.969   4.686  0.7098  0.1477 -1.2200
   58OSM   C17F 4400   4.264   2.956   4.632  0.2226 -0.1922 -0.5723
   58OSM   H17F 4401   4.238   3.042   4.697 -0.5538  0.8333 -2.1751
   58OSM   H17G 4402   4.181   2.884   4.643  0.0772  0.0968  0.2340
   58OSM   C18F 4403   4.255   3.011   4.491 -0.2338 -0.7032 -0.5632
   58OSM   H18F 4404   4.165   3.075   4.476  0.1420  0.1554  0.6815
   58OSM   H18G 4405   4.254   2.921   4.426 -1.5359  1.0664 -3.1504
   58OSM   H18H 4406   4.343   3.071   4.461 -1.0748 -0.3818 -2.5846
   59OSM      N 4407   3.832   4.335   6.509 -0.2355 -0.3650  0.2357
   59OSM    C15 4408   3.953   4.264   6.565  0.8937  0.1314 -0.4527
   59OSM   H15A 4409   3.970   4.162   6.535  1.2522  0.9508 -3.3343
   59OSM   H15B 4410   3.948   4.266   6.673  2.1305 -0.9850 -0.3488
   59OSM   H15C 4411   4.048   4.307   6.536  2.0104 -1.1910  1.0727
   59OSM    C14 4412   3.713   4.259   6.568  0.1037 -0.6104  0.3444
   59OSM   H14A 4413   3.704   4.161   6.524  2.0283  0.4073 -2.5926
   59OSM   H14B 4414   3.621   4.311   6.547  0.2493 -0.2057  0.7000
   59OSM   H14C 4415   3.727   4.240   6.674 -0.8911 -1.6506  0.3098
   59OSM    C13 4416   3.821   4.479   6.546  0.4678 -1.4064  0.1274
   59OSM   H13A 4417   3.760   4.530   6.473  1.6170 -0.4604 -0.1992
   59OSM   H13B 4418   3.918   4.526   6.542 -0.6239  1.3869  2.6788
   59OSM   H13C 4419   3.781   4.486   6.646  0.8861  0.4243  0.2016
   59OSM    C12 4420   3.838   4.315   6.358  0.0739 -0.7547  0.4644
   59OSM   H12A 4421   3.829   4.214   6.320 -1.2323 -0.7537  0.7434
   59OSM   H12B 4422   3.935   4.338   6.316  0.7259 -3.3075  0.3841
   59OSM    C11 4423   3.728   4.397   6.280 -0.2207  0.3004 -0.3555
   59OSM   H11A 4424   3.627   4.373   6.319 -1.2435  2.6888 -1.2942
   59OSM   H11B 4425   3.726   4.362   6.175  0.9886  0.5810 -0.4877
   59OSM      P 4426   3.855   4.606   6.208  0.0313 -0.1252  0.0121
   59OSM    O13 4427   3.865   4.751   6.230  0.4369 -0.3398  0.0815
   59OSM    O14 4428   3.992   4.549   6.234  0.4554 -0.3033  0.3132
   59OSM    O11 4429   3.810   4.575   6.052  0.3559  0.3138 -0.4707
   59OSM    O12 4430   3.738   4.535   6.283 -0.7340 -0.3805 -0.2304
   59OSM    C1S 4431   3.754   4.686   5.982 -0.4223  0.9093  0.2929
   59OSM    H1S 4432   3.842   4.750   5.960  1.7358 -2.1103 -0.6330
   59OSM    H1T 4433   3.684   4.748   6.041  0.5900  1.0546  1.3793
   59OSM     NF 4434   3.667   4.780   5.766 -0.1437 -0.0832  0.4044
   59OSM    HNF 4435   3.574   4.814   5.754  0.4937  1.1969 -1.4595
   59OSM    C2S 4436   3.690   4.657   5.837 -0.6606  0.1080  0.0364
   59OSM    H2S 4437   3.767   4.597   5.784 -1.6523 -0.2501 -1.0479
   59OSM    C3S 4438   3.564   4.563   5.840 -0.0602  1.0865  0.7693
   59OSM    H3S 4439   3.492   4.608   5.912 -1.0147  1.1217 -0.1783
   59OSM     O3 4440   3.593   4.434   5.890 -0.9759 -0.1251 -0.3545
   59OSM    HO3 4441   3.681   4.439   5.930 -0.8452 -2.8190 -0.1421
   59OSM    C4S 4442   3.510   4.541   5.698 -0.4525  0.4213  0.0480
   59OSM    H4S 4443   3.546   4.458   5.636 -0.5345  0.4234 -0.0017
   59OSM    C5S 4444   3.405   4.609   5.642 -0.1751 -0.2300  0.3079
   59OSM    H5S 4445   3.351   4.689   5.695 -0.1328  1.2086 -1.7356
   59OSM    C6S 4446   3.353   4.574   5.507  0.0850 -0.1589  0.0323
   59OSM    H6S 4447   3.242   4.571   5.516  0.1557  1.1010  2.2660
   59OSM    H6T 4448   3.385   4.473   5.475  0.3435  0.4318 -1.6760
   59OSM    C7S 4449   3.385   4.679   5.398  0.4523  0.6280  0.7451
   59OSM    H7S 4450   3.496   4.678   5.408  0.4849  0.3510  0.3958
   59OSM    H7T 4451   3.355   4.782   5.428  0.1283  0.7614 -0.0291
   59OSM    C8S 4452   3.341   4.626   5.267  0.1912  0.1771  0.6939
   59OSM    H8S 4453   3.234   4.617   5.239  0.2680  1.8875 -0.3334
   59OSM    H8T 4454   3.379   4.523   5.250 -0.9201  0.2383 -3.1907
   59OSM    C9S 4455   3.406   4.702   5.148  0.3186 -0.1875 -0.1765
   59OSM    H9S 4456   3.515   4.709   5.170  0.7588  0.6294 -2.3492
   59OSM    H9T 4457   3.361   4.802   5.158 -0.7393 -0.7706  1.2462
   59OSM   C10S 4458   3.372   4.644   5.003  0.1005  0.5876 -0.1985
   59OSM   H10S 4459   3.264   4.666   4.990 -0.3066  0.2298  2.1798
   59OSM   H10T 4460   3.379   4.533   5.007 -0.7158  0.5407  3.0800
   59OSM   C11S 4461   3.446   4.704   4.889 -0.1849 -0.1634  0.3327
   59OSM   H11S 4462   3.554   4.684   4.907 -0.2605  1.1298  2.5469
   59OSM   H11T 4463   3.434   4.814   4.891 -1.9814 -0.3356  2.4032
   59OSM   C12S 4464   3.405   4.649   4.755  0.4441  0.1941  0.1101
   59OSM   H12S 4465   3.298   4.674   4.739  0.0485 -1.4595 -0.0288
   59OSM   H12T 4466   3.406   4.538   4.746 -0.7821  0.1117  0.7713
   59OSM   C13S 4467   3.488   4.713   4.646 -0.0087  0.0712 -0.5037
   59OSM   H13S 4468   3.596   4.695   4.662  0.0968  1.3538  0.3221
   59OSM   H13T 4469   3.480   4.823   4.653  0.7748  0.1212 -0.2772
   59OSM   C14S 4470   3.470   4.648   4.507 -0.6592 -0.5306 -0.2921
   59OSM   H14S 4471   3.362   4.658   4.484 -0.1769  2.2661 -1.8070
   59OSM   H14T 4472   3.478   4.540   4.532 -2.4911 -0.1940  2.0233
   59OSM   C15S 4473   3.562   4.702   4.403 -0.0396  0.0916 -0.8693
   59OSM   H15S 4474   3.667   4.705   4.441 -0.8133 -1.4546  1.5930
   59OSM   H15T 4475   3.542   4.811   4.409 -1.8831 -0.3043  2.4389
   59OSM   C16S 4476   3.545   4.637   4.263  0.2726  0.0619 -0.3564
   59OSM   H16S 4477   3.447   4.672   4.224 -2.1235 -3.4575  1.8659
   59OSM   H16T 4478   3.533   4.528   4.283  0.4979  0.1428  0.2155
   59OSM   C17S 4479   3.668   4.657   4.177  0.3263  0.4107 -0.5837
   59OSM   H17S 4480   3.642   4.621   4.075  3.0132  0.5704 -1.4042
   59OSM   H17T 4481   3.756   4.602   4.216  1.4261  1.0664 -2.0333
   59OSM   C18S 4482   3.707   4.800   4.158 -0.1620  0.4348  0.0020
   59OSM   H18S 4483   3.622   4.871   4.158  0.6533  1.5073 -2.0599
   59OSM   H18T 4484   3.756   4.822   4.060  0.3551 -0.7573 -0.0297
   59OSM   H18U 4485   3.780   4.836   4.234 -0.0887 -0.3191  0.3001
   59OSM    C1F 4486   3.766   4.866   5.738 -0.2030  1.2167 -0.3790
   59OSM     OF 4487   3.880   4.814   5.725  0.5049  0.0184  0.0237
   59OSM    C2F 4488   3.736   5.011   5.727 -0.0696 -0.4437  1.5366
   59OSM    H2F 4489   3.688   5.051   5.818  1.2041  4.1884  0.4058
   59OSM    H2G 4490   3.660   5.008   5.645  2.2242 -1.5921 -0.6848
   59OSM    C3F 4491   3.867   5.088   5.682  0.1348 -0.1844  0.0941
   59OSM    H3F 4492   3.895   5.044   5.584 -0.0486 -0.1971  0.0475
   59OSM    H3G 4493   3.945   5.057   5.755 -0.6628  0.2593  1.1609
   59OSM    C4F 4494   3.833   5.237   5.668 -0.2728  0.2041 -0.5421
   59OSM    H4F 4495   3.924   5.298   5.652 -0.4581  0.7587  0.4410
   59OSM    H4G 4496   3.788   5.268   5.765 -2.1687  1.1550 -1.6643
   59OSM    C5F 4497   3.748   5.269   5.547 -0.4602  0.0532  0.0075
   59OSM    H5F 4498   3.647   5.225   5.558 -0.8696  0.6540 -1.1439
   59OSM    H5G 4499   3.804   5.225   5.462  0.4362  1.0920  0.0337
   59OSM    C6F 4500   3.736   5.421   5.516  0.4550  0.3022  0.3623
   59OSM    H6F 4501   3.834   5.474   5.512 -0.4350  2.0910  1.1311
   59OSM    H6G 4502   3.669   5.457   5.596  0.3116  2.7870 -0.7821
   59OSM    C7F 4503   3.651   5.448   5.382 -0.1967 -0.4796  0.1399
   59OSM    H7F 4504   3.656   5.552   5.346  0.2627 -0.7359 -0.5440
   59OSM    H7G 4505   3.545   5.432   5.410  0.1175  1.1113  2.5756
   59OSM    C8F 4506   3.686   5.356   5.261  0.1325  0.0392  0.3571
   59OSM    H8F 4507   3.658   5.249   5.265 -0.6873  0.0639 -2.2626
   59OSM    H8G 4508   3.797   5.364   5.253  0.1051 -0.7455 -1.2480
   59OSM    C9F 4509   3.636   5.409   5.127 -0.0129  0.3798  0.3226
   59OSM    H9F 4510   3.532   5.442   5.119 -0.6046 -1.6279 -0.6102
   59OSM   C10F 4511   3.719   5.446   5.025  0.4999  0.1851  0.2402
   59OSM   H10F 4512   3.681   5.490   4.932  1.7319  2.5651  0.7833
   59OSM   C11F 4513   3.868   5.414   5.019 -0.4939 -0.3238 -0.1254
   59OSM   H11F 4514   3.896   5.312   5.052  1.1792  0.6828  1.7568
   59OSM   H11G 4515   3.920   5.486   5.085  0.2573  0.5355 -1.6130
   59OSM   C12F 4516   3.927   5.425   4.871 -0.3108 -0.1489  0.1203
   59OSM   H12F 4517   3.881   5.351   4.802  1.5073 -0.6372 -0.6131
   59OSM   H12G 4518   4.036   5.407   4.875 -0.0308  1.4118  0.2327
   59OSM   C13F 4519   3.925   5.567   4.811  0.7047  0.1766 -0.1252
   59OSM   H13F 4520   3.974   5.641   4.878  0.3540 -1.5569  2.1671
   59OSM   H13G 4521   3.821   5.600   4.790 -0.1512 -2.5918 -0.6783
   59OSM   C14F 4522   3.990   5.575   4.671 -0.3785  0.7626 -0.6210
   59OSM   H14F 4523   4.081   5.511   4.672  1.1590  2.8147 -2.0057
   59OSM   H14G 4524   4.020   5.680   4.653  2.3244  0.4186  1.2157
   59OSM   C15F 4525   3.893   5.532   4.562  0.3722  0.1115  0.8383
   59OSM   H15F 4526   3.816   5.610   4.548 -0.8190 -0.9062  1.5094
   59OSM   H15G 4527   3.843   5.434   4.576  0.9091 -0.3107 -0.1058
   59OSM   C16F 4528   3.964   5.523   4.431  0.0955 -0.1288 -0.3210
   59OSM   H16F 4529   4.053   5.456   4.439  1.4362  1.4445 -1.2849
   59OSM   H16G 4530   4.017   5.618   4.409  1.7626 -1.5315 -3.0074
   59OSM   C17F 4531   3.882   5.482   4.306  0.7897  0.1711 -0.2437
   59OSM   H17F 4532   3.849   5.379   4.330  1.0045 -0.0458 -0.8722
   59OSM   H17G 4533   3.937   5.489   4.210 -1.3284  0.0336 -1.5342
   59OSM   C18F 4534   3.761   5.586   4.286  0.0277  0.9069 -0.0968
   59OSM   H18F 4535   3.698   5.598   4.376 -3.1196  0.8684 -2.1571
   59OSM   H18G 4536   3.703   5.557   4.196  0.7829 -1.5176  0.1218
   59OSM   H18H 4537   3.790   5.692   4.272 -1.0633  1.2503  0.1938
   60OSM      N 4538   5.325   3.612   6.288 -0.1804  0.2299  0.1627
   60OSM    C15 4539   5.454   3.688   6.305  0.0169 -0.1919 -0.1412
   60OSM   H15A 4540   5.512   3.640   6.382 -0.1153  0.1856  0.1992
   60OSM   H15B 4541   5.437   3.785   6.349  2.0458 -0.6674  1.8255
   60OSM   H15C 4542   5.517   3.700   6.218 -0.5432 -0.2838 -0.5677
   60OSM    C14 4543   5.330   3.486   6.215 -0.4626  0.5371  0.2267
   60OSM   H14A 4544   5.231   3.450   6.190 -0.5706  2.4201 -2.6064
   60OSM   H14B 4545   5.388   3.415   6.271  2.9687  3.8984  1.4166
   60OSM   H14C 4546   5.373   3.483   6.116  1.3676 -2.0410  1.0040
   60OSM    C13 4547   5.263   3.587   6.419 -0.3075 -0.1568 -0.1442
   60OSM   H13A 4548   5.227   3.674   6.472  1.4927  0.3955  0.2499
   60OSM   H13B 4549   5.328   3.538   6.491 -1.1385  0.4774  1.0719
   60OSM   H13C 4550   5.179   3.520   6.407 -1.3034  0.9810  0.2360
   60OSM    C12 4551   5.222   3.704   6.220 -0.7196  0.3398  0.7180
   60OSM   H12A 4552   5.127   3.653   6.226 -0.1260 -1.1418 -1.4859
   60OSM   H12B 4553   5.244   3.714   6.115  1.3975  0.6172  1.1432
   60OSM    C11 4554   5.196   3.853   6.279 -0.6013  0.7906 -0.0952
   60OSM   H11A 4555   5.131   3.909   6.209 -1.4576 -0.5241 -0.4013
   60OSM   H11B 4556   5.292   3.906   6.294 -0.6570  1.4812 -1.9638
   60OSM      P 4557   4.978   3.800   6.416 -0.0377  0.3086 -0.0724
   60OSM    O13 4558   4.962   3.712   6.536 -0.1809  1.0334  0.8281
   60OSM    O14 4559   4.894   3.919   6.404  0.4695  0.5889 -0.0334
   60OSM    O11 4560   4.955   3.718   6.289 -0.5926 -0.1647 -0.5166
   60OSM    O12 4561   5.129   3.839   6.407  0.0472  0.5804 -0.0509
   60OSM    C1S 4562   4.826   3.699   6.235  1.3334  0.5693  0.4318
   60OSM    H1S 4563   4.786   3.792   6.190 -1.0880 -0.3948  0.4132
   60OSM    H1T 4564   4.765   3.651   6.315  1.7221  0.3577  0.6051
   60OSM     NF 4565   4.698   3.598   6.042 -0.8799  0.2683  0.1508
   60OSM    HNF 4566   4.656   3.509   6.058  0.1505  0.0786  2.0793
   60OSM    C2S 4567   4.827   3.601   6.113 -0.3911  0.0341 -0.2812
   60OSM    H2S 4568   4.902   3.649   6.046 -0.1289  0.1064  0.0596
   60OSM    C3S 4569   4.874   3.459   6.157  1.0087  0.1553  0.1291
   60OSM    H3S 4570   4.783   3.418   6.207 -1.0039  3.6725 -0.2792
   60OSM     O3 4571   4.981   3.455   6.245 -0.2531  1.0029 -0.6568
   60OSM    HO3 4572   4.991   3.547   6.273  1.1669  0.9472 -0.9157
   60OSM    C4S 4573   4.904   3.374   6.032 -0.1236  0.0368 -0.1092
   60OSM    H4S 4574   4.817   3.339   5.973  0.7541 -4.1345  0.7166
   60OSM    C5S 4575   5.029   3.328   5.992 -0.7288  0.2341 -0.3453
   60OSM    H5S 4576   5.113   3.343   6.061 -0.3221  0.2805 -0.8451
   60OSM    C6S 4577   5.061   3.253   5.863  0.1418  0.1739  0.1774
   60OSM    H6S 4578   5.047   3.144   5.877  0.0088 -0.0439 -1.5083
   60OSM    H6T 4579   5.168   3.262   5.836 -0.3222 -0.3109 -1.9371
   60OSM    C7S 4580   4.978   3.302   5.741 -0.0664  0.2715  0.0594
   60OSM    H7S 4581   4.872   3.311   5.772 -1.2633 -2.8940 -2.5743
   60OSM    H7T 4582   4.975   3.221   5.666 -0.9561 -1.0613  1.4749
   60OSM    C8S 4583   5.044   3.431   5.685 -0.0733 -0.4567 -0.0457
   60OSM    H8S 4584   5.143   3.392   5.651 -0.0725 -2.4630  2.0338
   60OSM    H8T 4585   5.063   3.495   5.774  1.2196 -0.6826 -0.1356
   60OSM    C9S 4586   4.963   3.495   5.570  0.5282  0.0388 -0.0129
   60OSM    H9S 4587   4.982   3.604   5.561  0.6007  0.2312  2.0821
   60OSM    H9T 4588   4.859   3.496   5.609  0.9653  0.6355  1.1830
   60OSM   C10S 4589   4.969   3.415   5.434  0.4990  0.1699 -0.2181
   60OSM   H10S 4590   4.929   3.314   5.454 -0.0217 -0.1034 -2.3851
   60OSM   H10T 4591   5.076   3.399   5.409  0.4863 -0.2494 -0.0067
   60OSM   C11S 4592   4.897   3.480   5.317 -0.2502  0.1893  0.2218
   60OSM   H11S 4593   4.940   3.580   5.295  3.3338 -1.7633 -2.8609
   60OSM   H11T 4594   4.788   3.499   5.326  0.3136  3.3115  1.9503
   60OSM   C12S 4595   4.903   3.387   5.193 -0.2006 -0.2693 -0.2936
   60OSM   H12S 4596   4.827   3.308   5.210  2.3191 -2.9213 -0.6299
   60OSM   H12T 4597   5.003   3.338   5.193  0.3307  0.7695  0.7055
   60OSM   C13S 4598   4.894   3.447   5.056 -0.9427 -0.3342  0.4758
   60OSM   H13S 4599   4.793   3.494   5.051 -0.9896 -0.0492  2.7366
   60OSM   H13T 4600   4.899   3.363   4.984 -1.4785 -0.6520  0.8017
   60OSM   C14S 4601   5.001   3.562   5.028  0.3551 -0.5626  0.1126
   60OSM   H14S 4602   5.102   3.518   5.040  0.2143 -0.9039  0.0578
   60OSM   H14T 4603   4.975   3.624   5.116 -2.1504 -1.6321  0.2282
   60OSM   C15S 4604   4.980   3.627   4.888 -0.0140 -0.2688  0.2498
   60OSM   H15S 4605   4.908   3.710   4.897  0.6047  0.8589 -3.5321
   60OSM   H15T 4606   4.933   3.549   4.825  0.0342 -1.6042  1.8015
   60OSM   C16S 4607   5.101   3.680   4.820  0.1936 -0.3833  0.6499
   60OSM   H16S 4608   5.067   3.716   4.721  0.9927 -1.3139  0.0157
   60OSM   H16T 4609   5.173   3.598   4.799  0.8586  0.8572 -2.3509
   60OSM   C17S 4610   5.173   3.791   4.903 -0.3214 -0.0391 -0.1196
   60OSM   H17S 4611   5.179   3.747   5.004 -0.3665  0.5735  0.1523
   60OSM   H17T 4612   5.108   3.880   4.915 -0.5591  0.3316 -3.2299
   60OSM   C18S 4613   5.316   3.832   4.858  0.5589 -0.7966 -0.0231
   60OSM   H18S 4614   5.327   3.935   4.897 -0.0037 -0.2139 -1.3523
   60OSM   H18T 4615   5.327   3.826   4.748  2.8490  0.6861  0.0740
   60OSM   H18U 4616   5.383   3.760   4.910 -1.3753 -2.0551  0.8672
   60OSM    C1F 4617   4.643   3.698   5.978  0.2584 -0.4110 -0.0232
   60OSM     OF 4618   4.697   3.810   5.972  0.1313 -0.1543 -0.3382
   60OSM    C2F 4619   4.509   3.667   5.925 -0.1323  0.2160  0.3092
   60OSM    H2F 4620   4.430   3.744   5.934  0.5451  0.8198  1.2433
   60OSM    H2G 4621   4.470   3.584   5.987  0.6398  0.1710  0.7490
   60OSM    C3F 4622   4.518   3.638   5.773  0.2713  0.1783 -0.7588
   60OSM    H3F 4623   4.412   3.625   5.740  0.2803 -1.4903 -0.2103
   60OSM    H3G 4624   4.580   3.547   5.758  1.8726  0.7913  1.6250
   60OSM    C4F 4625   4.551   3.750   5.685 -0.4814 -0.1637  0.4501
   60OSM    H4F 4626   4.655   3.789   5.676 -0.9458  0.7287 -1.7636
   60OSM    H4G 4627   4.484   3.837   5.699 -0.4945  0.6330 -3.3964
   60OSM    C5F 4628   4.517   3.723   5.535  0.5102  0.7071 -0.5932
   60OSM    H5F 4629   4.407   3.730   5.521  0.4498 -1.8884 -2.1682
   60OSM    H5G 4630   4.535   3.615   5.515 -1.0198 -0.0941  1.7928
   60OSM    C6F 4631   4.604   3.788   5.422 -0.3126 -0.4389 -0.5784
   60OSM    H6F 4632   4.713   3.776   5.442 -0.4055 -0.2407  0.0817
   60OSM    H6G 4633   4.586   3.897   5.412  0.9066 -0.3580 -2.2808
   60OSM    C7F 4634   4.586   3.728   5.278 -0.6023 -0.7381 -0.5723
   60OSM    H7F 4635   4.485   3.744   5.234  0.7520  2.3285 -2.8945
   60OSM    H7G 4636   4.597   3.617   5.284 -1.9466 -0.8354  1.1147
   60OSM    C8F 4637   4.687   3.796   5.182  0.0176 -0.7196  0.5222
   60OSM    H8F 4638   4.789   3.757   5.202  0.3057 -0.5005 -0.4349
   60OSM    H8G 4639   4.676   3.906   5.196 -4.3363 -0.5459 -2.1391
   60OSM    C9F 4640   4.647   3.777   5.038  0.4432  0.3852  0.2365
   60OSM    H9F 4641   4.641   3.675   4.999 -2.2042  0.5169  0.0938
   60OSM   C10F 4642   4.642   3.872   4.939  0.5120 -0.6700  0.4169
   60OSM   H10F 4643   4.615   3.833   4.839  1.6346  0.3369 -0.3112
   60OSM   C11F 4644   4.642   4.030   4.947 -0.4929  0.4340 -0.1450
   60OSM   H11F 4645   4.661   4.065   5.050  0.0467  0.1519 -0.1423
   60OSM   H11G 4646   4.545   4.069   4.909 -0.5481  0.7791  0.3432
   60OSM   C12F 4647   4.763   4.092   4.866 -0.7568 -0.1528 -0.3942
   60OSM   H12F 4648   4.855   4.037   4.897 -0.4527 -0.2235 -1.3763
   60OSM   H12G 4649   4.764   4.198   4.899  0.1735  0.0861 -1.1526
   60OSM   C13F 4650   4.742   4.078   4.715 -0.9722  0.3326 -0.0817
   60OSM   H13F 4651   4.641   4.117   4.689 -1.8040 -1.1780  0.6760
   60OSM   H13G 4652   4.756   3.971   4.688 -0.6479  0.2205  0.5054
   60OSM   C14F 4653   4.851   4.141   4.627 -0.1053 -0.1977 -0.0667
   60OSM   H14F 4654   4.847   4.252   4.642  1.3783 -0.2980  1.4870
   60OSM   H14G 4655   4.830   4.124   4.519  0.4926 -0.1322 -0.1971
   60OSM   C15F 4656   4.992   4.084   4.660 -0.2365  0.1464  0.2010
   60OSM   H15F 4657   4.983   3.976   4.637 -2.7002 -0.3441  2.9512
   60OSM   H15G 4658   5.024   4.091   4.766  0.2894  0.9594  0.0072
   60OSM   C16F 4659   5.104   4.141   4.575 -0.3148 -0.1987  0.1613
   60OSM   H16F 4660   5.106   4.251   4.592 -3.0829  0.0165 -0.4469
   60OSM   H16G 4661   5.080   4.115   4.470 -0.2888 -1.4590  0.4531
   60OSM   C17F 4662   5.243   4.080   4.607  0.3212 -0.3876 -0.0350
   60OSM   H17F 4663   5.235   3.970   4.622  0.6521 -0.3442  0.4973
   60OSM   H17G 4664   5.278   4.124   4.702 -1.0958  0.7195 -0.0012
   60OSM   C18F 4665   5.358   4.109   4.503  0.4548 -0.2754  0.6120
   60OSM   H18F 4666   5.322   4.071   4.405 -1.5635  1.1681  0.7136
   60OSM   H18G 4667   5.451   4.059   4.536  0.0465 -1.5719 -0.1284
   60OSM   H18H 4668   5.374   4.219   4.496 -1.1577  0.0968  2.0050
   61OSM      N 4669   1.916   3.478   6.318 -0.0985  0.1408  0.5672
   61OSM    C15 4670   2.046   3.552   6.335  0.5161 -0.8542  0.3762
   61OSM   H15A 4671   2.131   3.512   6.281  1.9587  2.6145 -0.1387
   61OSM   H15B 4672   2.068   3.550   6.441 -1.8140  0.8422  0.9681
   61OSM   H15C 4673   2.028   3.656   6.312 -0.4176 -0.8066  1.2675
   61OSM    C14 4674   1.891   3.449   6.170  0.0644  0.3240 -0.2490
   61OSM   H14A 4675   1.805   3.386   6.150  0.0188  1.2353 -3.5891
   61OSM   H14B 4676   1.978   3.395   6.138  0.6348 -0.2366  2.0996
   61OSM   H14C 4677   1.866   3.537   6.112  0.8455  1.2185  0.7322
   61OSM    C13 4678   1.921   3.343   6.380 -0.3424  0.1609 -0.4618
   61OSM   H13A 4679   1.982   3.273   6.325  0.4239  1.5934 -1.5369
   61OSM   H13B 4680   1.823   3.300   6.387 -0.4678  0.4782 -0.2641
   61OSM   H13C 4681   1.969   3.355   6.476  0.8603 -2.2625 -0.7058
   61OSM    C12 4682   1.799   3.555   6.369  0.5001 -0.1149 -0.0395
   61OSM   H12A 4683   1.785   3.648   6.315 -3.5726 -0.7893 -0.4691
   61OSM   H12B 4684   1.832   3.586   6.467 -1.0711  1.0941  0.1614
   61OSM    C11 4685   1.659   3.484   6.369  0.4120 -0.1848  0.5454
   61OSM   H11A 4686   1.596   3.548   6.435  0.3849 -0.2626  0.5955
   61OSM   H11B 4687   1.664   3.397   6.438  0.6743 -0.6286 -0.0222
   61OSM      P 4688   1.534   3.542   6.148  0.1014 -0.4167 -0.3115
   61OSM    O13 4689   1.388   3.555   6.175 -0.1861  0.5184 -0.0091
   61OSM    O14 4690   1.612   3.666   6.148  0.1453  0.0208  0.3620
   61OSM    O11 4691   1.559   3.465   6.012  0.0032  0.2249 -0.3330
   61OSM    O12 4692   1.597   3.439   6.246 -0.3688 -0.1854 -0.4536
   61OSM    C1S 4693   1.465   3.380   5.935  0.2132 -0.8221 -0.3089
   61OSM    H1S 4694   1.382   3.449   5.910 -0.2938 -0.4227  2.2663
   61OSM    H1T 4695   1.421   3.296   5.993 -2.8054 -0.0748 -1.3326
   61OSM     NF 4696   1.435   3.299   5.709  0.5969  0.2645 -0.0825
   61OSM    HNF 4697   1.403   3.204   5.702  2.4781 -0.5074  0.9813
   61OSM    C2S 4698   1.537   3.320   5.805  0.8393 -0.1860 -0.4848
   61OSM    H2S 4699   1.608   3.401   5.775  2.9458 -0.8227  2.3601
   61OSM    C3S 4700   1.620   3.200   5.846 -0.0836 -0.5854  0.3829
   61OSM    H3S 4701   1.556   3.121   5.892  0.0375 -0.1639  1.3106
   61OSM     O3 4702   1.698   3.230   5.960 -0.5119  0.3423  0.6070
   61OSM    HO3 4703   1.667   3.316   5.989  0.4636  0.5927  0.9468
   61OSM    C4S 4704   1.701   3.158   5.731 -0.5786  0.2348  0.7280
   61OSM    H4S 4705   1.747   3.246   5.683 -2.5171  1.4423  0.9877
   61OSM    C5S 4706   1.727   3.033   5.695  0.7274  0.1228  0.0766
   61OSM    H5S 4707   1.681   2.955   5.758  3.0974  0.3965  2.2704
   61OSM    C6S 4708   1.814   2.987   5.581 -0.6793 -0.3127  1.0411
   61OSM    H6S 4709   1.897   2.925   5.622 -0.7119 -2.0275 -1.3085
   61OSM    H6T 4710   1.866   3.076   5.539  1.0987 -0.3953  2.8885
   61OSM    C7S 4711   1.747   2.888   5.490 -0.6601 -0.3395  0.8051
   61OSM    H7S 4712   1.678   2.936   5.417 -0.5741 -1.6079 -0.1473
   61OSM    H7T 4713   1.691   2.811   5.548  2.3065 -2.8914  0.5567
   61OSM    C8S 4714   1.841   2.804   5.405  0.2872 -0.5699 -0.6610
   61OSM    H8S 4715   1.775   2.754   5.330 -2.0173 -1.7043  1.9402
   61OSM    H8T 4716   1.895   2.733   5.470 -0.8971 -0.9345 -0.0523
   61OSM    C9S 4717   1.946   2.899   5.335 -0.2258  1.0996  0.3653
   61OSM    H9S 4718   2.020   2.929   5.412 -0.4143  0.1459  0.9266
   61OSM    H9T 4719   1.890   2.990   5.303 -0.1044  1.1526  0.3050
   61OSM   C10S 4720   2.009   2.820   5.226 -0.4147 -0.4388 -0.4801
   61OSM   H10S 4721   1.932   2.794   5.150  1.5124  0.3491 -2.8553
   61OSM   H10T 4722   2.048   2.725   5.268  1.0101 -0.2228 -1.2476
   61OSM   C11S 4723   2.121   2.895   5.159 -0.5761 -1.0271 -0.4798
   61OSM   H11S 4724   2.173   2.823   5.093  1.9372  0.7488 -0.5856
   61OSM   H11T 4725   2.201   2.929   5.227  0.5604  0.0257 -2.2525
   61OSM   C12S 4726   2.075   3.019   5.069 -0.2598 -0.6270  0.4663
   61OSM   H12S 4727   2.045   3.093   5.147  0.2924 -1.0551  1.0980
   61OSM   H12T 4728   1.986   3.005   5.004  0.7556 -0.4885 -1.0165
   61OSM   C13S 4729   2.184   3.046   4.969 -0.7408 -0.4738  0.1928
   61OSM   H13S 4730   2.174   2.973   4.887  1.4906  1.5246 -2.0059
   61OSM   H13T 4731   2.281   3.036   5.022 -0.4423 -1.5568 -0.5419
   61OSM   C14S 4732   2.170   3.178   4.899  0.1459 -0.3649  0.3152
   61OSM   H14S 4733   2.142   3.243   4.984  0.8312 -2.2331  2.0500
   61OSM   H14T 4734   2.087   3.174   4.826  0.7795  0.8809 -0.5040
   61OSM   C15S 4735   2.293   3.238   4.826  0.4743  0.2389  0.2906
   61OSM   H15S 4736   2.389   3.212   4.875  0.5325 -3.1220 -1.3416
   61OSM   H15T 4737   2.288   3.349   4.823  0.3979  0.2375 -2.6149
   61OSM   C16S 4738   2.296   3.186   4.678  0.1785 -1.0065  0.6712
   61OSM   H16S 4739   2.198   3.194   4.628 -0.5735 -1.3307  2.0577
   61OSM   H16T 4740   2.330   3.081   4.693 -0.0463 -1.0470  0.9018
   61OSM   C17S 4741   2.397   3.257   4.581 -0.0658  0.1635  1.0068
   61OSM   H17S 4742   2.500   3.226   4.611 -0.7635 -1.9081  1.4849
   61OSM   H17T 4743   2.389   3.367   4.591  0.5235  0.1530  1.7504
   61OSM   C18S 4744   2.381   3.200   4.443  0.0931  0.2827  0.6494
   61OSM   H18S 4745   2.284   3.233   4.399 -0.6419 -1.2400  1.0686
   61OSM   H18T 4746   2.377   3.090   4.450  0.4322  0.0593 -1.7814
   61OSM   H18U 4747   2.467   3.223   4.376 -0.4754 -1.4839 -0.7849
   61OSM    C1F 4748   1.370   3.389   5.641  0.0300 -0.1358  0.2565
   61OSM     OF 4749   1.398   3.506   5.636 -0.8539  0.1286 -0.0166
   61OSM    C2F 4750   1.252   3.344   5.559 -0.5631 -0.3094  0.0856
   61OSM    H2F 4751   1.160   3.395   5.593 -1.2278 -2.2495  1.3698
   61OSM    H2G 4752   1.227   3.238   5.579  1.8764 -0.5443  2.4380
   61OSM    C3F 4753   1.274   3.366   5.405 -0.2178 -0.1322 -0.0929
   61OSM    H3F 4754   1.303   3.473   5.389  0.3697 -0.2636  0.0607
   61OSM    H3G 4755   1.173   3.370   5.360  0.8240  1.2191 -2.5136
   61OSM    C4F 4756   1.373   3.269   5.335 -0.2714 -0.5570 -0.0751
   61OSM    H4F 4757   1.359   3.166   5.372  1.2496 -1.3237 -1.5054
   61OSM    H4G 4758   1.479   3.293   5.359  0.0224  0.1878 -1.9474
   61OSM    C5F 4759   1.348   3.261   5.184 -0.1538  0.5489 -0.1564
   61OSM    H5F 4760   1.351   3.365   5.144  0.1811  0.2926 -0.8123
   61OSM    H5G 4761   1.250   3.211   5.171  0.1423 -0.4669  1.2872
   61OSM    C6F 4762   1.464   3.181   5.113 -0.2398  0.0789  0.4653
   61OSM    H6F 4763   1.485   3.078   5.148 -0.0179 -0.2217 -0.5167
   61OSM    H6G 4764   1.559   3.235   5.133 -0.1081  0.3543 -0.7880
   61OSM    C7F 4765   1.432   3.168   4.956 -0.0144 -0.3724  0.1948
   61OSM    H7F 4766   1.329   3.149   4.918 -0.4586  0.4712  0.9331
   61OSM    H7G 4767   1.500   3.083   4.933  1.2299  0.7222 -0.2537
   61OSM    C8F 4768   1.492   3.288   4.873  0.3038  1.0209  0.0624
   61OSM    H8F 4769   1.576   3.333   4.929  0.9016 -0.9033  0.8048
   61OSM    H8G 4770   1.408   3.358   4.852 -0.4091 -0.1528 -1.2100
   61OSM    C9F 4771   1.557   3.240   4.747 -0.1414  0.7169  0.5630
   61OSM    H9F 4772   1.623   3.152   4.744  2.4631  2.5705 -0.2424
   61OSM   C10F 4773   1.561   3.316   4.634 -0.0747  0.4779 -0.6231
   61OSM   H10F 4774   1.590   3.270   4.539  1.1352 -0.9000  0.3573
   61OSM   C11F 4775   1.492   3.455   4.621 -0.4288  0.4580 -0.1062
   61OSM   H11F 4776   1.562   3.522   4.567  2.2911 -1.9016  0.2367
   61OSM   H11G 4777   1.476   3.501   4.721  0.9011  1.8602 -0.4865
   61OSM   C12F 4778   1.364   3.460   4.541 -0.2742 -0.0092  0.7597
   61OSM   H12F 4779   1.338   3.568   4.532  0.2474 -0.0483 -2.1477
   61OSM   H12G 4780   1.284   3.401   4.592 -0.7299  1.3058  1.6151
   61OSM   C13F 4781   1.365   3.431   4.385 -0.1274 -0.4211 -0.2717
   61OSM   H13F 4782   1.259   3.438   4.351 -0.0921  0.7196 -0.1917
   61OSM   H13G 4783   1.395   3.324   4.381 -0.7010 -0.5721 -0.7644
   61OSM   C14F 4784   1.462   3.523   4.304  0.5355  0.1352  1.1086
   61OSM   H14F 4785   1.566   3.520   4.343  1.6350 -0.3947 -1.6312
   61OSM   H14G 4786   1.429   3.629   4.308 -1.9830 -0.5316  0.1248
   61OSM   C15F 4787   1.448   3.494   4.154  0.0523  0.7255 -0.0607
   61OSM   H15F 4788   1.350   3.533   4.119 -0.1755 -0.2110 -0.4957
   61OSM   H15G 4789   1.460   3.385   4.139 -1.2757  0.5190  0.2035
   61OSM   C16F 4790   1.551   3.565   4.060 -0.0198  0.5638 -0.3227
   61OSM   H16F 4791   1.652   3.537   4.097  0.1716 -0.1229 -1.3603
   61OSM   H16G 4792   1.549   3.674   4.084 -0.2666 -0.0892  3.1622
   61OSM   C17F 4793   1.534   3.512   3.917  0.8478 -0.0436 -0.5115
   61OSM   H17F 4794   1.546   3.403   3.902 -0.2340 -0.1052 -1.0315
   61OSM   H17G 4795   1.617   3.561   3.862  1.4210  0.4852  0.7806
   61OSM   C18F 4796   1.414   3.553   3.834  0.8710 -0.5299  0.4412
   61OSM   H18F 4797   1.314   3.518   3.869  0.5757 -0.0124  0.1318
   61OSM   H18G 4798   1.411   3.506   3.733 -0.0359 -0.9573  0.6537
   61OSM   H18H 4799   1.408   3.664   3.827 -1.0982 -0.5226  1.5081
   62OSM      N 4800   5.483   2.392   6.313  0.9199 -0.0213  1.2317
   62OSM    C15 4801   5.476   2.502   6.216 -0.0301  0.0040 -0.6980
   62OSM   H15A 4802   5.531   2.594   6.231  0.1111 -0.2271  0.2634
   62OSM   H15B 4803   5.375   2.535   6.198  0.4811  1.0435 -1.8229
   62OSM   H15C 4804   5.503   2.461   6.119 -0.6156  1.9300 -1.7321
   62OSM    C14 4805   5.625   2.341   6.307  0.6504 -0.0261  0.3801
   62OSM   H14A 4806   5.645   2.258   6.374 -1.1365 -1.2351 -0.5190
   62OSM   H14B 4807   5.690   2.420   6.342 -0.0837 -0.5284  3.0970
   62OSM   H14C 4808   5.674   2.326   6.212  1.2866  2.1125  0.3087
   62OSM    C13 4809   5.461   2.436   6.456  0.0682 -0.7318 -0.4648
   62OSM   H13A 4810   5.357   2.467   6.462  0.7621  1.8199 -0.3773
   62OSM   H13B 4811   5.520   2.524   6.479 -2.8004  1.2871 -0.2302
   62OSM   H13C 4812   5.482   2.357   6.527  0.5544  0.5789  0.9099
   62OSM    C12 4813   5.379   2.285   6.279 -0.3257 -0.2051  0.0242
   62OSM   H12A 4814   5.394   2.195   6.337  1.2318 -0.2960 -0.4607
   62OSM   H12B 4815   5.396   2.258   6.175 -0.6752  0.4389 -0.2065
   62OSM    C11 4816   5.228   2.325   6.296  0.1263 -0.0468 -0.9495
   62OSM   H11A 4817   5.208   2.364   6.398 -0.8231  1.5018 -1.6780
   62OSM   H11B 4818   5.183   2.223   6.294  2.5988 -1.2648  0.7731
   62OSM      P 4819   5.043   2.408   6.135 -0.0996 -0.2080  0.0831
   62OSM    O13 4820   4.948   2.321   6.214 -0.2441  0.4073  0.0353
   62OSM    O14 4821   5.004   2.549   6.112 -0.5595  0.2765  0.1986
   62OSM    O11 4822   5.074   2.332   6.002 -0.0822 -0.3496  0.1515
   62OSM    O12 4823   5.181   2.417   6.203  0.2198  0.1652 -0.1553
   62OSM    C1S 4824   5.196   2.341   5.918 -0.0598 -0.4165 -0.6840
   62OSM    H1S 4825   5.288   2.291   5.954  1.4876  0.7114 -2.8821
   62OSM    H1T 4826   5.236   2.445   5.918 -1.9294  0.3553 -0.4505
   62OSM     NF 4827   5.302   2.361   5.701  0.5159 -0.7855 -0.2710
   62OSM    HNF 4828   5.303   2.452   5.661  0.1179 -1.4418 -1.8313
   62OSM    C2S 4829   5.178   2.318   5.766 -0.1314 -0.4961  0.0722
   62OSM    H2S 4830   5.177   2.210   5.743  3.2137 -0.9016  1.2283
   62OSM    C3S 4831   5.053   2.385   5.712  0.3326  0.6597  0.5792
   62OSM    H3S 4832   5.067   2.495   5.718  1.7510  0.5067  0.3349
   62OSM     O3 4833   4.927   2.351   5.785  0.1647 -0.2151 -0.4748
   62OSM    HO3 4834   4.957   2.303   5.862  1.7607  0.5837 -0.5750
   62OSM    C4S 4835   5.029   2.350   5.570  0.1893  0.3013  0.0372
   62OSM    H4S 4836   5.041   2.242   5.556  1.1939  0.4544 -0.3405
   62OSM    C5S 4837   5.010   2.437   5.469  0.0821  0.1617  0.2378
   62OSM    H5S 4838   4.989   2.541   5.495  0.3565 -0.2837  2.4228
   62OSM    C6S 4839   4.992   2.412   5.324 -0.3865  0.0721 -0.2763
   62OSM    H6S 4840   5.029   2.309   5.304  1.8483  0.7017  0.2730
   62OSM    H6T 4841   5.061   2.474   5.262  0.2493 -1.1689 -0.8578
   62OSM    C7S 4842   4.854   2.434   5.276  0.7398  0.1043 -0.0780
   62OSM    H7S 4843   4.813   2.534   5.303  0.3629 -0.2447  0.6868
   62OSM    H7T 4844   4.796   2.355   5.328  1.5454  0.5711  1.6117
   62OSM    C8S 4845   4.831   2.426   5.131 -0.1276  0.1391  0.0137
   62OSM    H8S 4846   4.854   2.324   5.095 -0.2388  0.5273 -1.2140
   62OSM    H8T 4847   4.898   2.499   5.080 -0.8007  1.5976  1.1223
   62OSM    C9S 4848   4.694   2.475   5.093  0.5225 -0.6214  0.0360
   62OSM    H9S 4849   4.677   2.584   5.105  0.8270 -0.4248 -1.1382
   62OSM    H9T 4850   4.626   2.423   5.164  1.7244  0.6048  2.1783
   62OSM   C10S 4851   4.653   2.456   4.948  0.4101  0.5650  0.2982
   62OSM   H10S 4852   4.543   2.469   4.938  0.2678 -0.5123  0.3973
   62OSM   H10T 4853   4.681   2.357   4.907 -1.6827  0.4191 -0.8813
   62OSM   C11S 4854   4.732   2.539   4.850  0.1449 -0.2309 -0.1017
   62OSM   H11S 4855   4.837   2.521   4.883 -0.2659  1.9749  2.7788
   62OSM   H11T 4856   4.721   2.649   4.860  0.2632 -0.1283 -0.9690
   62OSM   C12S 4857   4.701   2.503   4.702 -0.0696 -0.8244  0.0526
   62OSM   H12S 4858   4.592   2.517   4.690 -0.3356 -2.1534  0.7634
   62OSM   H12T 4859   4.735   2.402   4.673  2.7645  0.0379  0.0294
   62OSM   C13S 4860   4.769   2.600   4.602  0.2411 -0.0395  0.2909
   62OSM   H13S 4861   4.879   2.592   4.613 -0.0356  0.0452  4.3897
   62OSM   H13T 4862   4.735   2.704   4.617  1.2683  0.7433 -2.2488
   62OSM   C14S 4863   4.717   2.573   4.456  0.5860  0.6748  0.2885
   62OSM   H14S 4864   4.606   2.566   4.462  0.6639 -1.2070  0.0599
   62OSM   H14T 4865   4.748   2.471   4.423  0.3578  1.3661 -2.2506
   62OSM   C15S 4866   4.760   2.670   4.341 -0.3593  0.3553 -0.1748
   62OSM   H15S 4867   4.861   2.646   4.302 -1.0429 -0.2523 -1.6737
   62OSM   H15T 4868   4.769   2.778   4.365  0.1141  0.4129 -0.6023
   62OSM   C16S 4869   4.665   2.669   4.220  0.2863 -0.3641  0.0117
   62OSM   H16S 4870   4.644   2.562   4.201 -2.8709  0.3015 -0.9886
   62OSM   H16T 4871   4.719   2.722   4.138 -0.6115 -0.2687 -0.5304
   62OSM   C17S 4872   4.530   2.739   4.251  0.4097  0.7700 -0.0850
   62OSM   H17S 4873   4.556   2.837   4.296 -1.4432  1.1557  0.2321
   62OSM   H17T 4874   4.479   2.691   4.337  1.2852 -3.5963 -1.6948
   62OSM   C18S 4875   4.440   2.749   4.129  0.2687  0.2581 -0.4361
   62OSM   H18S 4876   4.342   2.779   4.171  0.3469 -1.1934  0.9025
   62OSM   H18T 4877   4.424   2.648   4.085 -0.1648  0.8144 -1.5818
   62OSM   H18U 4878   4.473   2.822   4.053 -0.2182  1.2601  0.2982
   62OSM    C1F 4879   5.412   2.297   5.714  0.1154 -0.2309 -0.1802
   62OSM     OF 4880   5.411   2.187   5.765  0.0300 -0.0276  0.1459
   62OSM    C2F 4881   5.546   2.361   5.670 -0.0514  0.0494  0.0749
   62OSM    H2F 4882   5.615   2.324   5.749 -1.0278 -2.9775 -0.3671
   62OSM    H2G 4883   5.535   2.471   5.670 -2.3960 -0.1004 -2.3113
   62OSM    C3F 4884   5.592   2.297   5.539  0.0439  0.0146 -0.1184
   62OSM    H3F 4885   5.613   2.191   5.565  0.1286  0.1451  0.3737
   62OSM    H3G 4886   5.691   2.338   5.511 -0.3674  0.9855 -0.2083
   62OSM    C4F 4887   5.501   2.312   5.417 -0.9360  0.1959  0.2384
   62OSM    H4F 4888   5.482   2.420   5.401 -1.1708 -0.0785 -1.5871
   62OSM    H4G 4889   5.405   2.269   5.454 -0.5630 -0.3871  0.5549
   62OSM    C5F 4890   5.569   2.256   5.292  0.5549 -0.3118 -0.1317
   62OSM    H5F 4891   5.576   2.146   5.306  0.3092 -0.0102  3.3206
   62OSM    H5G 4892   5.668   2.305   5.276  0.5069  0.4704  1.6831
   62OSM    C6F 4893   5.477   2.270   5.170 -0.1303  0.0943 -0.6604
   62OSM    H6F 4894   5.443   2.375   5.160 -1.8366 -0.4128 -0.4417
   62OSM    H6G 4895   5.387   2.209   5.187 -0.0121  0.5350  1.9582
   62OSM    C7F 4896   5.552   2.226   5.039  0.4750  0.2648  0.6798
   62OSM    H7F 4897   5.594   2.123   5.042  0.1396 -0.2746 -4.3529
   62OSM    H7G 4898   5.632   2.302   5.027 -0.6278  1.4149  0.4445
   62OSM    C8F 4899   5.453   2.226   4.915  0.6804 -0.2750 -0.6479
   62OSM    H8F 4900   5.510   2.214   4.821  0.1715  0.9648 -1.1403
   62OSM    H8G 4901   5.412   2.329   4.909 -0.0607 -0.5239 -0.0280
   62OSM    C9F 4902   5.356   2.117   4.928 -0.3377 -0.0981  1.4511
   62OSM    H9F 4903   5.394   2.016   4.911  0.8754  0.3425  1.4644
   62OSM   C10F 4904   5.223   2.140   4.929 -0.3733 -0.7086  0.0686
   62OSM   H10F 4905   5.152   2.056   4.937 -0.1867 -0.8064  0.7488
   62OSM   C11F 4906   5.143   2.267   4.925  0.2342 -0.6372  0.2511
   62OSM   H11F 4907   5.210   2.354   4.909  1.3405 -1.5161 -0.0916
   62OSM   H11G 4908   5.091   2.275   5.023 -0.9737 -0.9150 -0.3475
   62OSM   C12F 4909   5.049   2.271   4.810  0.1271 -0.5674  0.3279
   62OSM   H12F 4910   5.019   2.377   4.801 -1.6691 -0.8654  2.1070
   62OSM   H12G 4911   4.963   2.206   4.837  0.9248 -0.8861  2.2844
   62OSM   C13F 4912   5.098   2.226   4.677 -0.2306 -0.0848  0.0583
   62OSM   H13F 4913   5.107   2.115   4.672 -1.1790 -0.1164 -3.2522
   62OSM   H13G 4914   5.195   2.276   4.657 -1.2037  2.5451  1.5575
   62OSM   C14F 4915   5.010   2.262   4.553  0.5137 -0.6597  0.4599
   62OSM   H14F 4916   5.007   2.369   4.523 -1.5643 -1.4247 -2.5613
   62OSM   H14G 4917   4.904   2.235   4.570  0.1303 -0.0738 -0.8827
   62OSM   C15F 4918   5.061   2.201   4.423  0.1251  0.2242  0.3326
   62OSM   H15F 4919   5.084   2.092   4.429  2.2642  0.6277 -0.0322
   62OSM   H15G 4920   5.163   2.235   4.397  1.1978 -3.2497 -0.4899
   62OSM   C16F 4921   4.961   2.230   4.316 -0.1453  0.2287 -0.3211
   62OSM   H16F 4922   4.927   2.335   4.322 -2.0016 -0.4204  1.7681
   62OSM   H16G 4923   4.872   2.165   4.331  0.0045  0.0373 -0.2526
   62OSM   C17F 4924   5.019   2.187   4.182 -0.0869  0.1581  0.5308
   62OSM   H17F 4925   4.998   2.078   4.183 -0.8331  0.3013  1.0789
   62OSM   H17G 4926   5.129   2.206   4.179  0.4354 -2.3838  1.2490
   62OSM   C18F 4927   4.946   2.251   4.066  0.3391  0.6735  0.1396
   62OSM   H18F 4928   4.983   2.356   4.056  0.1677  0.5714 -1.8370
   62OSM   H18G 4929   4.837   2.255   4.090 -0.3872  0.4097 -2.8025
   62OSM   H18H 4930   4.968   2.195   3.974 -1.2331 -2.6148  1.6103
   63OSM      N 4931   5.480   2.904   6.645  0.6512 -0.4723 -0.8207
   63OSM    C15 4932   5.458   3.013   6.733 -0.9598 -0.7865  0.0543
   63OSM   H15A 4933   5.530   3.093   6.728 -1.7141 -0.1313 -0.7216
   63OSM   H15B 4934   5.449   2.977   6.834  1.7843 -0.2421  0.5624
   63OSM   H15C 4935   5.359   3.056   6.722 -0.1972  0.9639 -0.2805
   63OSM    C14 4936   5.604   2.833   6.687  0.4202  0.3888 -0.1393
   63OSM   H14A 4937   5.588   2.793   6.786  0.5254  3.4631  1.2235
   63OSM   H14B 4938   5.685   2.904   6.692  0.7670 -0.0352  0.3444
   63OSM   H14C 4939   5.636   2.760   6.614  0.5810 -1.0239  1.3019
   63OSM    C13 4940   5.369   2.798   6.664  0.6440 -0.6602 -0.2399
   63OSM   H13A 4941   5.277   2.854   6.649  1.8894  1.2003 -1.2687
   63OSM   H13B 4942   5.366   2.752   6.762 -0.5799 -3.1176 -1.3371
   63OSM   H13C 4943   5.378   2.724   6.586 -0.4790  0.5491 -1.5877
   63OSM    C12 4944   5.492   2.937   6.496 -0.6674  0.5126 -0.0577
   63OSM   H12A 4945   5.583   2.995   6.493 -0.5540  0.6032  2.5378
   63OSM   H12B 4946   5.409   3.000   6.468 -0.4748  0.8978  0.2247
   63OSM    C11 4947   5.510   2.819   6.398 -0.5277  0.6143 -0.2993
   63OSM   H11A 4948   5.510   2.861   6.295 -0.5791  2.0017  0.2413
   63OSM   H11B 4949   5.425   2.748   6.408 -0.5657  0.9040  1.8132
   63OSM      P 4950   5.757   2.752   6.323 -0.7191  0.1881 -0.1170
   63OSM    O13 4951   5.820   2.884   6.329 -0.9553  0.5802 -0.8252
   63OSM    O14 4952   5.841   2.635   6.357  0.0228  0.6007  0.4497
   63OSM    O11 4953   5.693   2.718   6.177  0.1508  0.5967 -0.8191
   63OSM    O12 4954   5.630   2.746   6.410  0.0061  0.3436  0.3049
   63OSM    C1S 4955   5.788   2.691   6.067  0.1056  0.3279  0.4612
   63OSM    H1S 4956   5.818   2.584   6.074  1.7815  0.8174  1.0596
   63OSM    H1T 4957   5.880   2.753   6.069  2.9858 -3.4622 -1.3941
   63OSM     NF 4958   5.829   2.699   5.821  0.1145 -0.0105 -0.2499
   63OSM    HNF 4959   5.887   2.778   5.804 -0.2856 -0.0140 -1.7111
   63OSM    C2S 4960   5.725   2.716   5.921  0.3713 -0.1660  0.0974
   63OSM    H2S 4961   5.645   2.641   5.908 -1.1838  1.2495  1.0896
   63OSM    C3S 4962   5.653   2.851   5.900  0.4528  0.0326 -0.1657
   63OSM    H3S 4963   5.738   2.918   5.875  1.6711 -1.5064 -0.2894
   63OSM     O3 4964   5.585   2.908   6.014 -0.1447  0.7840 -0.1989
   63OSM    HO3 4965   5.604   2.846   6.084  1.5074  0.6358 -0.7219
   63OSM    C4S 4966   5.561   2.843   5.780 -0.7518  0.4092 -0.0428
   63OSM    H4S 4967   5.617   2.857   5.687  0.3100 -0.7811  0.3966
   63OSM    C5S 4968   5.428   2.808   5.768  0.5027  0.1065 -0.6481
   63OSM    H5S 4969   5.364   2.792   5.856 -0.0274 -0.3162 -1.1059
   63OSM    C6S 4970   5.344   2.809   5.646  0.4000  0.4335  0.0003
   63OSM    H6S 4971   5.289   2.906   5.646  0.7047  0.6088  0.5274
   63OSM    H6T 4972   5.253   2.748   5.666 -0.9757  2.4011  0.1382
   63OSM    C7S 4973   5.405   2.782   5.505 -0.1847  0.4099 -0.0396
   63OSM    H7S 4974   5.452   2.682   5.510 -0.9144 -0.0226 -1.5394
   63OSM    H7T 4975   5.470   2.868   5.477  0.9608 -0.4398 -0.0788
   63OSM    C8S 4976   5.298   2.776   5.398  0.5378  0.4091 -0.2816
   63OSM    H8S 4977   5.258   2.880   5.396  0.4252  0.3602 -0.9097
   63OSM    H8T 4978   5.206   2.717   5.418 -0.1598  1.7674  0.7065
   63OSM    C9S 4979   5.362   2.743   5.261 -0.6454 -0.3703 -0.4973
   63OSM    H9S 4980   5.439   2.663   5.266  1.8804  1.9030 -0.3561
   63OSM    H9T 4981   5.427   2.831   5.239  0.7026 -0.9245  1.0834
   63OSM   C10S 4982   5.262   2.719   5.144  0.5416  0.5240 -0.2260
   63OSM   H10S 4983   5.215   2.818   5.125 -1.4575 -0.5721 -1.3372
   63OSM   H10T 4984   5.192   2.637   5.168  1.2476 -0.5787 -1.7345
   63OSM   C11S 4985   5.326   2.679   5.008 -0.1458 -0.3263  0.4004
   63OSM   H11S 4986   5.372   2.579   5.015 -1.5835 -1.0101  0.4037
   63OSM   H11T 4987   5.406   2.749   4.974 -1.2807  0.3336 -1.0289
   63OSM   C12S 4988   5.217   2.674   4.888  0.4403  0.2216  0.4311
   63OSM   H12S 4989   5.173   2.775   4.871  0.9037  0.5512  1.1256
   63OSM   H12T 4990   5.137   2.609   4.928  0.1432 -0.2485 -0.8926
   63OSM   C13S 4991   5.271   2.616   4.760  0.5984 -0.3007  0.5287
   63OSM   H13S 4992   5.311   2.516   4.788  0.1611 -0.9904 -1.2081
   63OSM   H13T 4993   5.355   2.683   4.731 -0.0761  0.5603  0.5270
   63OSM   C14S 4994   5.168   2.605   4.643  0.3566 -0.4371 -0.4449
   63OSM   H14S 4995   5.112   2.700   4.631  2.0911  0.7044  0.2102
   63OSM   H14T 4996   5.091   2.528   4.667  0.5906 -0.2265  1.0773
   63OSM   C15S 4997   5.242   2.578   4.514 -0.2020  0.0199 -0.5130
   63OSM   H15S 4998   5.283   2.474   4.518  0.9768  0.4872 -0.1486
   63OSM   H15T 4999   5.335   2.636   4.501  0.2961 -0.3999  1.0045
   63OSM   C16S 5000   5.159   2.614   4.385 -0.2777  0.0962 -0.1347
   63OSM   H16S 5001   5.135   2.722   4.381 -0.6073  0.0917  1.2538
   63OSM   H16T 5002   5.063   2.559   4.394 -0.0964  0.1007  2.3918
   63OSM   C17S 5003   5.231   2.575   4.254  0.2196  0.0286 -0.3084
   63OSM   H17S 5004   5.256   2.467   4.264 -0.2635 -0.1024 -0.5040
   63OSM   H17T 5005   5.324   2.635   4.238  1.2885 -1.4395  0.1551
   63OSM   C18S 5006   5.131   2.592   4.132 -0.4368 -0.4142 -0.5363
   63OSM   H18S 5007   5.032   2.544   4.147  0.4550 -2.1321  0.0155
   63OSM   H18T 5008   5.183   2.543   4.047  2.2678 -1.3112  1.4881
   63OSM   H18U 5009   5.121   2.701   4.112  1.3415 -0.3472 -1.2529
   63OSM    C1F 5010   5.877   2.577   5.798  0.2347  0.6451  0.1413
   63OSM     OF 5011   5.825   2.468   5.831 -0.0033  0.0284 -0.2135
   63OSM    C2F 5012   6.010   2.579   5.740  0.6200 -0.9117 -0.3876
   63OSM    H2F 5013   6.080   2.519   5.802 -2.8056 -4.1802  0.6953
   63OSM    H2G 5014   6.054   2.681   5.742  1.6955 -1.3488  2.0409
   63OSM    C3F 5015   6.006   2.540   5.587 -0.1114  0.0341 -0.0765
   63OSM    H3F 5016   5.984   2.432   5.581 -0.5570  0.0549  0.9921
   63OSM    H3G 5017   6.102   2.570   5.539 -0.4926  0.5736 -0.5145
   63OSM    C4F 5018   5.894   2.612   5.505  0.1376 -0.0952 -0.2504
   63OSM    H4F 5019   5.899   2.722   5.519 -0.8373  0.1820 -1.8648
   63OSM    H4G 5020   5.796   2.589   5.552  0.1036  0.7669  0.1199
   63OSM    C5F 5021   5.899   2.565   5.362 -0.4153 -0.1360  0.5637
   63OSM    H5F 5022   5.886   2.455   5.367  1.3877 -0.4164  0.0785
   63OSM    H5G 5023   6.005   2.576   5.330  0.2154 -2.3726  1.6699
   63OSM    C6F 5024   5.799   2.639   5.272  0.1753  0.8364 -0.5306
   63OSM    H6F 5025   5.829   2.745   5.266  0.3066  0.7939 -0.6150
   63OSM    H6G 5026   5.697   2.631   5.317  0.0828 -3.2628 -1.0175
   63OSM    C7F 5027   5.798   2.582   5.136  0.0496  0.3358  0.2124
   63OSM    H7F 5028   5.768   2.475   5.142 -4.8276  1.5413  0.9684
   63OSM    H7G 5029   5.905   2.596   5.109  0.1665 -0.0142  0.4839
   63OSM    C8F 5030   5.719   2.676   5.042  0.3830 -0.2140 -0.6799
   63OSM    H8F 5031   5.758   2.780   5.040  1.5674 -0.6065  0.6323
   63OSM    H8G 5032   5.623   2.688   5.095  0.5770 -1.0944 -0.0978
   63OSM    C9F 5033   5.691   2.595   4.913 -0.1570  0.6606 -0.1516
   63OSM    H9F 5034   5.712   2.489   4.930  0.3894  0.5890 -1.1777
   63OSM   C10F 5035   5.665   2.634   4.785  0.1293 -0.2781 -0.1002
   63OSM   H10F 5036   5.638   2.546   4.725 -1.7167 -0.4406  0.8742
   63OSM   C11F 5037   5.646   2.781   4.744  0.1224  0.2185  0.6756
   63OSM   H11F 5038   5.636   2.841   4.837  0.6554  0.9651  0.2587
   63OSM   H11G 5039   5.558   2.806   4.680  0.6044 -0.1831 -0.1634
   63OSM   C12F 5040   5.777   2.828   4.673  0.1606 -0.3291  0.0354
   63OSM   H12F 5041   5.865   2.798   4.733  0.8046 -3.0813 -2.0672
   63OSM   H12G 5042   5.769   2.938   4.676 -2.0079 -0.4411  1.3037
   63OSM   C13F 5043   5.792   2.765   4.536 -1.3549  0.0847 -0.5287
   63OSM   H13F 5044   5.692   2.766   4.487 -1.1835  0.1376 -0.8779
   63OSM   H13G 5045   5.818   2.658   4.548  2.5590  0.7995 -1.4078
   63OSM   C14F 5046   5.902   2.839   4.453  0.1204 -0.3125 -0.0025
   63OSM   H14F 5047   5.992   2.813   4.513  0.5264 -1.3636 -1.0105
   63OSM   H14G 5048   5.881   2.943   4.485 -2.2450 -1.3332  2.0929
   63OSM   C15F 5049   5.911   2.823   4.304 -0.8052 -0.0821 -0.3807
   63OSM   H15F 5050   5.816   2.846   4.252 -1.6104 -1.5030  0.3951
   63OSM   H15G 5051   5.937   2.717   4.285 -1.3556 -0.1749 -0.6473
   63OSM   C16F 5052   6.022   2.911   4.250 -0.0376 -0.6470  0.7899
   63OSM   H16F 5053   6.051   2.869   4.152  1.1813  3.0438 -0.6086
   63OSM   H16G 5054   6.112   2.917   4.315 -0.4070 -0.5423  1.3011
   63OSM   C17F 5055   5.975   3.057   4.228  0.6778  0.0171  0.8701
   63OSM   H17F 5056   5.979   3.122   4.319  0.0999  1.0530  0.1691
   63OSM   H17G 5057   5.872   3.062   4.187  0.7001  1.9285  0.9677
   63OSM   C18F 5058   6.069   3.140   4.142 -0.1188 -0.3174  0.1732
   63OSM   H18F 5059   6.056   3.109   4.036 -3.5821 -0.8049  0.6196
   63OSM   H18G 5060   6.168   3.118   4.186  0.2899  1.9371  0.4924
   63OSM   H18H 5061   6.053   3.250   4.145  1.3824 -0.0754  0.1435
   64OSM      N 5062   1.407   4.458   6.500 -0.3296 -0.7985  0.1311
   64OSM    C15 5063   1.533   4.503   6.431  0.1403 -0.1010 -0.0561
   64OSM   H15A 5064   1.598   4.566   6.490 -0.8439  0.1278  0.8234
   64OSM   H15B 5065   1.500   4.566   6.349  0.2504 -0.2364 -0.2031
   64OSM   H15C 5066   1.570   4.410   6.391 -1.0581  0.2881 -2.1996
   64OSM    C14 5067   1.438   4.343   6.589 -0.3311  0.7354 -0.2306
   64OSM   H14A 5068   1.477   4.260   6.531  1.3346  0.8856  0.6288
   64OSM   H14B 5069   1.358   4.304   6.651  0.0857  1.6246  0.8837
   64OSM   H14C 5070   1.529   4.363   6.643  0.1221 -0.8875 -0.3267
   64OSM    C13 5071   1.336   4.572   6.574 -0.0065  0.7447 -0.1099
   64OSM   H13A 5072   1.400   4.601   6.656  0.1929 -1.6882  0.6786
   64OSM   H13B 5073   1.253   4.526   6.625  0.4181  0.4886  0.3495
   64OSM   H13C 5074   1.316   4.663   6.519 -0.5627  1.1175  0.7000
   64OSM    C12 5075   1.315   4.410   6.390 -0.0697 -0.2692  0.4104
   64OSM   H12A 5076   1.299   4.490   6.319  0.8201 -1.0871 -0.7492
   64OSM   H12B 5077   1.226   4.378   6.441 -0.4233 -0.2439 -0.1868
   64OSM    C11 5078   1.377   4.292   6.297 -0.1475 -0.2855 -0.0037
   64OSM   H11A 5079   1.470   4.330   6.249 -0.1975 -0.5865 -0.3461
   64OSM   H11B 5080   1.293   4.278   6.225  2.2955 -1.6844 -2.7969
   64OSM      P 5081   1.417   4.035   6.322 -0.3160  0.1770  0.2419
   64OSM    O13 5082   1.563   4.037   6.294  0.4718  1.0824  0.1188
   64OSM    O14 5083   1.356   3.939   6.420 -0.3398 -0.3779  0.1879
   64OSM    O11 5084   1.332   4.039   6.188  0.0440  0.1475 -0.0170
   64OSM    O12 5085   1.379   4.178   6.379  0.1466  0.1861 -0.1100
   64OSM    C1S 5086   1.366   3.930   6.107 -0.1357 -0.7171 -0.9187
   64OSM    H1S 5087   1.305   3.843   6.140 -1.3050  1.4899  3.6638
   64OSM    H1T 5088   1.474   3.902   6.100  0.1067  0.4179 -1.9988
   64OSM     NF 5089   1.304   3.852   5.881 -0.3404  0.4397 -0.4297
   64OSM    HNF 5090   1.366   3.825   5.808  1.1847  0.6052  0.7450
   64OSM    C2S 5091   1.327   3.967   5.962 -0.4888 -0.0069 -0.3407
   64OSM    H2S 5092   1.240   4.036   5.962  1.5972  2.8154 -0.1491
   64OSM    C3S 5093   1.447   4.049   5.906 -0.3660  0.3420 -0.5289
   64OSM    H3S 5094   1.539   3.987   5.893 -2.8282 -3.6051 -0.8249
   64OSM     O3 5095   1.471   4.159   5.992  0.4542 -0.1952  0.1243
   64OSM    HO3 5096   1.410   4.162   6.066  0.7019 -0.3822  0.3360
   64OSM    C4S 5097   1.404   4.108   5.774  0.1227 -0.2460 -0.3489
   64OSM    H4S 5098   1.318   4.176   5.782  0.1019  0.7161 -5.3869
   64OSM    C5S 5099   1.452   4.073   5.655 -0.1029 -0.0903  0.0216
   64OSM    H5S 5100   1.524   3.990   5.661  1.4909  1.3253  1.9462
   64OSM    C6S 5101   1.393   4.122   5.523  0.0210 -0.0136  0.3716
   64OSM    H6S 5102   1.468   4.178   5.464  0.5608 -0.3623  0.7183
   64OSM    H6T 5103   1.311   4.194   5.541 -0.2498 -0.5980  1.5676
   64OSM    C7S 5104   1.351   4.001   5.445  0.3349  0.9457  0.4337
   64OSM    H7S 5105   1.272   3.945   5.499  1.3372  0.5538  1.5473
   64OSM    H7T 5106   1.427   3.923   5.427 -0.0091  1.1305 -2.0784
   64OSM    C8S 5107   1.296   4.031   5.303  0.2029  0.3064  0.2913
   64OSM    H8S 5108   1.200   4.083   5.326 -0.4485 -1.4731  1.8040
   64OSM    H8T 5109   1.268   3.937   5.250 -2.3455  2.6781 -3.0564
   64OSM    C9S 5110   1.374   4.107   5.200 -0.1635 -0.2778  0.0300
   64OSM    H9S 5111   1.408   4.202   5.248 -1.6680  0.4030 -0.1725
   64OSM    H9T 5112   1.309   4.136   5.114  1.3215  2.2108 -0.3711
   64OSM   C10S 5113   1.492   4.035   5.132  0.1290 -0.4266  0.0511
   64OSM   H10S 5114   1.456   3.943   5.080 -1.7405  1.8669 -3.0755
   64OSM   H10T 5115   1.550   4.019   5.225  0.2005  1.7684  0.4335
   64OSM   C11S 5116   1.572   4.125   5.038  0.0550  0.0319 -0.5348
   64OSM   H11S 5117   1.675   4.086   5.050 -0.8357 -3.0017 -1.8179
   64OSM   H11T 5118   1.577   4.229   5.077  1.4448 -0.7172  1.4408
   64OSM   C12S 5119   1.518   4.112   4.895 -0.0236  0.3215  1.0476
   64OSM   H12S 5120   1.409   4.133   4.900 -0.6203 -2.1346 -0.0145
   64OSM   H12T 5121   1.525   4.013   4.845  1.2932  1.5891 -1.4695
   64OSM   C13S 5122   1.586   4.211   4.801  0.3069  0.1857  0.2906
   64OSM   H13S 5123   1.690   4.173   4.786  0.3286  0.6201 -0.7676
   64OSM   H13T 5124   1.588   4.309   4.853 -2.1802 -0.7698  2.3685
   64OSM   C14S 5125   1.507   4.235   4.675  0.5738  0.5961  0.3236
   64OSM   H14S 5126   1.408   4.275   4.705 -1.8771 -6.0311  2.9311
   64OSM   H14T 5127   1.490   4.137   4.627  2.2683  2.1702 -4.0009
   64OSM   C15S 5128   1.584   4.318   4.574  0.1604  0.2834  0.6078
   64OSM   H15S 5129   1.684   4.279   4.544  0.2674 -1.2675  2.7384
   64OSM   H15T 5130   1.600   4.421   4.612  1.5530  0.7717 -1.1805
   64OSM   C16S 5131   1.512   4.323   4.426 -0.9157  0.9376  0.0107
   64OSM   H16S 5132   1.413   4.368   4.447 -1.5534 -0.9743  1.3321
   64OSM   H16T 5133   1.496   4.220   4.388  0.9880 -0.2811  2.2969
   64OSM   C17S 5134   1.591   4.390   4.310  0.2288  0.1658 -0.3145
   64OSM   H17S 5135   1.693   4.347   4.307  0.0617 -0.4684  1.5872
   64OSM   H17T 5136   1.591   4.500   4.326 -1.1409  0.5945 -2.7492
   64OSM   C18S 5137   1.527   4.364   4.175 -0.2049  0.0987  0.4292
   64OSM   H18S 5138   1.582   4.405   4.087 -1.4751 -2.3442 -1.6413
   64OSM   H18T 5139   1.425   4.406   4.168 -1.3452 -2.4595  0.3084
   64OSM   H18U 5140   1.529   4.254   4.159  3.0871  0.2618 -1.3099
   64OSM    C1F 5141   1.189   3.788   5.899 -0.2655 -0.7264 -0.3962
   64OSM     OF 5142   1.109   3.832   5.982  0.1610  0.4413  0.7941
   64OSM    C2F 5143   1.168   3.672   5.812 -0.0014  0.0599  0.4041
   64OSM    H2F 5144   1.078   3.613   5.840 -0.2097  0.2036  0.0501
   64OSM    H2G 5145   1.253   3.602   5.802 -1.5435 -1.8954  0.4186
   64OSM    C3F 5146   1.144   3.728   5.667 -0.7851  0.2160  0.3559
   64OSM    H3F 5147   1.161   3.637   5.605  1.1880 -0.7709  2.2082
   64OSM    H3G 5148   1.215   3.807   5.636 -1.1385 -0.4596 -2.4576
   64OSM    C4F 5149   1.003   3.779   5.636  0.2565  0.0463 -0.3174
   64OSM    H4F 5150   0.980   3.864   5.705  1.7975  0.4857 -0.3058
   64OSM    H4G 5151   0.933   3.697   5.659 -1.7896  0.7645 -3.3696
   64OSM    C5F 5152   1.007   3.827   5.491 -0.1412 -0.2079 -0.2693
   64OSM    H5F 5153   1.073   3.915   5.482 -0.3821 -0.1850 -2.2034
   64OSM    H5G 5154   0.903   3.860   5.469  0.2806  0.9330 -0.6246
   64OSM    C6F 5155   1.058   3.719   5.390 -0.2735  0.4607  0.4786
   64OSM    H6F 5156   1.011   3.621   5.410 -1.9623  0.9973 -0.6206
   64OSM    H6G 5157   1.167   3.701   5.397 -0.2061  0.6770  0.0524
   64OSM    C7F 5158   1.014   3.764   5.243  0.0075 -0.0184 -0.6695
   64OSM    H7F 5159   1.042   3.871   5.230 -0.7938  0.1230 -1.3164
   64OSM    H7G 5160   0.904   3.749   5.244 -0.1539  0.9593 -1.6637
   64OSM    C8F 5161   1.061   3.675   5.125 -0.1474 -0.0888 -1.1022
   64OSM    H8F 5162   0.992   3.688   5.039 -0.6009 -0.9281 -0.8731
   64OSM    H8G 5163   1.038   3.572   5.160 -1.9239  1.0004  1.2088
   64OSM    C9F 5164   1.201   3.696   5.075 -0.1761 -0.7257 -0.2397
   64OSM    H9F 5165   1.276   3.672   5.152 -0.7615 -1.6772  0.0630
   64OSM   C10F 5166   1.239   3.733   4.948  0.0687  0.3070  0.1256
   64OSM   H10F 5167   1.343   3.722   4.915 -0.3233 -0.0198 -1.0789
   64OSM   C11F 5168   1.134   3.748   4.839 -0.1074 -0.1017  0.0449
   64OSM   H11F 5169   1.049   3.807   4.879 -2.0592 -2.8504  0.2200
   64OSM   H11G 5170   1.088   3.654   4.804  1.6985 -0.0287 -2.8328
   64OSM   C12F 5171   1.195   3.831   4.720  0.5929  0.9997 -0.2124
   64OSM   H12F 5172   1.274   3.781   4.660  1.6539  2.4447 -0.0749
   64OSM   H12G 5173   1.261   3.910   4.762  1.2223  0.3159  0.1070
   64OSM   C13F 5174   1.086   3.905   4.640  0.3195  0.5076  0.6031
   64OSM   H13F 5175   1.039   3.976   4.712  1.8138 -1.3454  3.5984
   64OSM   H13G 5176   1.015   3.835   4.590 -0.7804  0.8371  1.6418
   64OSM   C14F 5177   1.142   3.997   4.525  0.1664  0.0161  0.4269
   64OSM   H14F 5178   1.213   4.073   4.565  1.6013 -2.6075  3.3216
   64OSM   H14G 5179   1.053   4.047   4.482 -1.1036 -0.1507  2.7364
   64OSM   C15F 5180   1.217   3.925   4.409  0.5760  0.3097  0.1752
   64OSM   H15F 5181   1.183   3.819   4.403  1.9210 -0.1555  0.4269
   64OSM   H15G 5182   1.327   3.924   4.419  0.7036 -0.3646 -1.1563
   64OSM   C16F 5183   1.178   3.998   4.275 -0.4666 -0.3273 -0.3392
   64OSM   H16F 5184   1.201   4.107   4.279  0.9830 -0.6460  2.5777
   64OSM   H16G 5185   1.068   4.001   4.257 -0.3831 -1.6335 -1.2331
   64OSM   C17F 5186   1.249   3.932   4.155  0.5434  0.5625  0.7837
   64OSM   H17F 5187   1.359   3.938   4.171  0.5682 -0.2529  1.0000
   64OSM   H17G 5188   1.238   3.997   4.066  0.9398 -0.0744  0.2544
   64OSM   C18F 5189   1.199   3.785   4.128 -0.1206  0.6913 -0.4800
   64OSM   H18F 5190   1.251   3.737   4.042 -0.0178 -0.6653  0.3031
   64OSM   H18G 5191   1.092   3.788   4.098  0.0253 -3.0324 -1.8516
   64OSM   H18H 5192   1.201   3.705   4.205 -0.3899  2.6646  1.6640
   65OSM      N 5193   3.882   0.778   6.379 -0.5118  0.0097  0.3119
   65OSM    C15 5194   3.809   0.915   6.385  0.3112  0.3672  0.3848
   65OSM   H15A 5195   3.802   0.949   6.487 -1.2646 -2.3702  1.3118
   65OSM   H15B 5196   3.711   0.911   6.339  1.2446  4.8422 -2.6102
   65OSM   H15C 5197   3.860   0.990   6.327  0.1909 -0.3940 -0.7350
   65OSM    C14 5198   3.907   0.754   6.235  0.5690  0.3166 -0.0729
   65OSM   H14A 5199   3.825   0.780   6.171  1.1234  4.2207  0.5370
   65OSM   H14B 5200   3.937   0.650   6.227  1.2711  0.4143  0.9418
   65OSM   H14C 5201   3.994   0.813   6.208  2.0826 -1.3313  0.9505
   65OSM    C13 5202   4.005   0.796   6.459  1.1105  0.1080 -0.7596
   65OSM   H13A 5203   4.080   0.718   6.449  1.8802  0.3792  1.9169
   65OSM   H13B 5204   3.976   0.805   6.563 -1.6700 -1.2464 -1.3322
   65OSM   H13C 5205   4.052   0.885   6.421  1.3598 -0.0194 -0.7528
   65OSM    C12 5206   3.794   0.669   6.444  0.1640 -0.7916 -0.2622
   65OSM   H12A 5207   3.799   0.686   6.550  0.3080 -0.3971 -0.3317
   65OSM   H12B 5208   3.842   0.574   6.426 -0.4504 -0.9678 -1.0663
   65OSM    C11 5209   3.654   0.655   6.395  0.2394  0.0376 -0.2357
   65OSM   H11A 5210   3.611   0.755   6.418  1.0017  0.4176 -0.4459
   65OSM   H11B 5211   3.602   0.585   6.463 -1.3099  0.6451 -0.7387
   65OSM      P 5212   3.658   0.463   6.218  0.4072  0.2035  0.2959
   65OSM    O13 5213   3.750   0.452   6.101 -0.1247  0.2051  0.4354
   65OSM    O14 5214   3.698   0.394   6.345  0.1553  0.0265  0.3266
   65OSM    O11 5215   3.515   0.427   6.179  0.4888  0.2005  0.3180
   65OSM    O12 5216   3.638   0.620   6.261 -0.2816 -0.0608  0.0084
   65OSM    C1S 5217   3.445   0.496   6.070 -0.0026  0.0839  0.2763
   65OSM    H1S 5218   3.458   0.606   6.082  1.6185  0.0626 -0.9249
   65OSM    H1T 5219   3.339   0.472   6.094  0.1063  2.4193  3.8132
   65OSM     NF 5220   3.369   0.508   5.837 -0.6104 -0.2561  0.1056
   65OSM    HNF 5221   3.292   0.452   5.810 -2.7957  0.8787  3.4209
   65OSM    C2S 5222   3.460   0.446   5.920  0.1084  0.6948 -0.8285
   65OSM    H2S 5223   3.559   0.473   5.878 -0.5605  2.0004 -1.6240
   65OSM    C3S 5224   3.466   0.294   5.911 -0.4250  0.2238 -0.5328
   65OSM    H3S 5225   3.362   0.266   5.941 -1.4666  3.8454 -0.2708
   65OSM     O3 5226   3.558   0.222   6.001  0.8378 -0.4138  0.4120
   65OSM    HO3 5227   3.571   0.292   6.066  0.7980 -2.0261  2.2620
   65OSM    C4S 5228   3.483   0.240   5.776  0.5870  0.3509 -0.2512
   65OSM    H4S 5229   3.389   0.225   5.721  1.2845  2.2573 -2.0906
   65OSM    C5S 5230   3.597   0.199   5.719 -0.5208  0.1080  0.0758
   65OSM    H5S 5231   3.690   0.228   5.770 -0.4406  0.9240 -0.5087
   65OSM    C6S 5232   3.610   0.133   5.581 -0.1517 -0.2763  0.2650
   65OSM    H6S 5233   3.665   0.038   5.594  1.6903  0.2143 -2.8808
   65OSM    H6T 5234   3.672   0.200   5.518 -0.2866  0.5819  1.0175
   65OSM    C7S 5235   3.472   0.101   5.513 -0.0070  0.1904 -0.7198
   65OSM    H7S 5236   3.432   0.199   5.480  0.2829  0.6586  0.2623
   65OSM    H7T 5237   3.405   0.043   5.580  2.0301 -1.5002 -0.0264
   65OSM    C8S 5238   3.492   0.001   5.408 -0.1296  0.3747 -0.0175
   65OSM    H8S 5239   3.394  -0.027   5.365 -1.2146  0.0612  2.4709
   65OSM    H8T 5240   3.544  -0.089   5.448  1.0379  0.5827 -0.9914
   65OSM    C9S 5241   3.583   0.043   5.292 -0.1160  0.0112  0.0591
   65OSM    H9S 5242   3.684   0.066   5.334  0.2986  0.1136 -0.9555
   65OSM    H9T 5243   3.542   0.141   5.258  1.6625  0.3110 -1.3898
   65OSM   C10S 5244   3.589  -0.055   5.173  0.2777  0.0709  0.1496
   65OSM   H10S 5245   3.489  -0.099   5.151 -0.1473 -0.0021  2.0401
   65OSM   H10T 5246   3.647  -0.146   5.198 -0.5551 -0.2222  1.0787
   65OSM   C11S 5247   3.651  -0.005   5.044 -0.2428  0.0146  0.0702
   65OSM   H11S 5248   3.762   0.009   5.048 -0.4332  2.0102 -0.2500
   65OSM   H11T 5249   3.604   0.095   5.028 -0.9985 -0.5028 -1.0949
   65OSM   C12S 5250   3.623  -0.092   4.915 -0.4535 -0.0614 -0.9981
   65OSM   H12S 5251   3.520  -0.134   4.915 -0.1618 -0.8199  0.1767
   65OSM   H12T 5252   3.693  -0.178   4.909 -0.5713 -0.5525  2.5168
   65OSM   C13S 5253   3.645  -0.004   4.795 -0.3676  0.5363  0.0729
   65OSM   H13S 5254   3.746   0.041   4.804 -1.3468  2.7378  0.5402
   65OSM   H13T 5255   3.572   0.079   4.797 -0.4655  0.5753  4.3264
   65OSM   C14S 5256   3.621  -0.074   4.659 -0.3431  0.4798 -0.0635
   65OSM   H14S 5257   3.512  -0.096   4.659 -0.0021 -1.9734  2.8071
   65OSM   H14T 5258   3.676  -0.171   4.654 -0.8638  0.0742  1.4520
   65OSM   C15S 5259   3.658   0.013   4.536  0.1180 -0.6929  0.4337
   65OSM   H15S 5260   3.767   0.032   4.533 -0.0168  0.6590  2.3813
   65OSM   H15T 5261   3.589   0.100   4.551 -2.2742 -2.6994  1.8445
   65OSM   C16S 5262   3.635  -0.065   4.407  0.5258  0.6770  0.0184
   65OSM   H16S 5263   3.528  -0.097   4.403  0.9695 -0.8745  0.0021
   65OSM   H16T 5264   3.699  -0.155   4.403 -1.1994 -0.6445  0.7989
   65OSM   C17S 5265   3.666   0.014   4.280 -0.4912  0.4794 -0.0852
   65OSM   H17S 5266   3.775   0.019   4.260 -0.6972  1.4026 -1.0433
   65OSM   H17T 5267   3.647   0.123   4.291 -0.9952  0.3886 -0.0669
   65OSM   C18S 5268   3.581  -0.046   4.164  0.2973 -0.3681  0.6627
   65OSM   H18S 5269   3.602  -0.154   4.149  2.2308 -0.0687  0.9599
   65OSM   H18T 5270   3.601  -0.003   4.064 -2.9377  1.2286  0.5669
   65OSM   H18U 5271   3.472  -0.022   4.172  0.5980  1.1151  0.5345
   65OSM    C1F 5272   3.385   0.634   5.801 -0.0740 -0.6311  0.4147
   65OSM     OF 5273   3.465   0.707   5.860  0.3793  0.5488 -0.4395
   65OSM    C2F 5274   3.303   0.683   5.688 -0.3252  0.7368  0.4097
   65OSM    H2F 5275   3.206   0.718   5.730 -0.6956  0.5742 -0.2918
   65OSM    H2G 5276   3.272   0.603   5.618  2.1590 -1.4892  1.6971
   65OSM    C3F 5277   3.360   0.790   5.592  0.6927 -0.3541  0.1646
   65OSM    H3F 5278   3.467   0.761   5.594  0.4730 -1.2903  2.4744
   65OSM    H3G 5279   3.353   0.896   5.623 -2.4523  0.3962 -2.4823
   65OSM    C4F 5280   3.314   0.781   5.452 -0.0192 -0.3937 -0.2247
   65OSM    H4F 5281   3.346   0.685   5.406 -0.0406 -1.2191  1.4283
   65OSM    H4G 5282   3.376   0.850   5.390 -0.2810  1.4549  1.4423
   65OSM    C5F 5283   3.166   0.821   5.425  0.0636 -0.5210  0.0709
   65OSM    H5F 5284   3.150   0.921   5.471 -0.9236 -0.9158  0.6215
   65OSM    H5G 5285   3.105   0.749   5.483  2.2748 -1.9097  0.7950
   65OSM    C6F 5286   3.127   0.815   5.273  0.1910  0.9083 -0.2748
   65OSM    H6F 5287   3.207   0.877   5.228  0.1962  0.7378 -0.5022
   65OSM    H6G 5288   3.029   0.863   5.252 -0.6223 -0.9817 -1.0470
   65OSM    C7F 5289   3.117   0.667   5.222 -0.7035 -0.1184  0.5112
   65OSM    H7F 5290   3.034   0.608   5.266 -1.4474 -0.1276 -0.8521
   65OSM    H7G 5291   3.210   0.617   5.255  0.0343  1.2425  0.5567
   65OSM    C8F 5292   3.119   0.649   5.067 -0.0518 -0.1209  1.0616
   65OSM    H8F 5293   3.034   0.707   5.024  1.8452  1.5670 -0.6066
   65OSM    H8G 5294   3.098   0.543   5.042 -0.3785  0.0120  0.7576
   65OSM    C9F 5295   3.237   0.702   5.002 -0.3900 -0.4876 -0.6535
   65OSM    H9F 5296   3.234   0.811   4.989  0.4636 -0.3386  0.2429
   65OSM   C10F 5297   3.349   0.630   4.971 -0.5986 -0.3208 -0.1640
   65OSM   H10F 5298   3.430   0.687   4.923 -2.1506 -0.5913 -3.3738
   65OSM   C11F 5299   3.378   0.488   4.993  0.3850 -0.0852  0.2559
   65OSM   H11F 5300   3.376   0.425   4.902 -0.1999  0.5792 -0.1918
   65OSM   H11G 5301   3.306   0.438   5.062  0.0228 -1.1344 -0.8589
   65OSM   C12F 5302   3.519   0.463   5.062  0.3031 -0.1512 -0.3332
   65OSM   H12F 5303   3.607   0.486   4.998  0.6947 -0.6881  0.0038
   65OSM   H12G 5304   3.522   0.354   5.081  1.4236 -0.2373 -0.9497
   65OSM   C13F 5305   3.547   0.542   5.189 -0.0736 -0.4358 -0.8351
   65OSM   H13F 5306   3.459   0.541   5.257  0.6304  2.6365  0.2920
   65OSM   H13G 5307   3.573   0.649   5.169  0.2472 -0.4714 -0.6078
   65OSM   C14F 5308   3.669   0.487   5.264 -0.2922  0.0376  0.2676
   65OSM   H14F 5309   3.761   0.504   5.203  0.1813  0.2130  1.0098
   65OSM   H14G 5310   3.651   0.378   5.278 -0.8424  0.1039  0.0669
   65OSM   C15F 5311   3.688   0.548   5.405 -0.5310  0.5147  0.5483
   65OSM   H15F 5312   3.593   0.539   5.462 -0.3637 -1.3203  0.5803
   65OSM   H15G 5313   3.713   0.656   5.397 -0.1707  0.2746 -2.6445
   65OSM   C16F 5314   3.811   0.488   5.488 -0.5848 -0.4027  0.8226
   65OSM   H16F 5315   3.901   0.484   5.423 -0.9986 -0.2813  0.2327
   65OSM   H16G 5316   3.785   0.388   5.529  1.5820 -1.0900  0.6490
   65OSM   C17F 5317   3.838   0.573   5.612 -0.4899  0.2065 -0.3068
   65OSM   H17F 5318   3.743   0.599   5.664  0.0144 -1.1390  1.3887
   65OSM   H17G 5319   3.905   0.657   5.584  0.0711  0.2990  1.1881
   65OSM   C18F 5320   3.918   0.498   5.722 -0.2055 -0.1704 -0.7707
   65OSM   H18F 5321   3.864   0.411   5.766 -0.2096  0.0701 -0.2915
   65OSM   H18G 5322   3.943   0.570   5.803  0.2881 -0.7267 -0.4251
   65OSM   H18H 5323   4.012   0.463   5.675 -0.0526 -0.7933 -0.0168
   66OSM      N 5324   1.598   0.997   6.442 -0.5875  0.4899  0.6836
   66OSM    C15 5325   1.702   0.933   6.518 -0.9316 -0.8279 -0.5290
   66OSM   H15A 5326   1.795   0.938   6.463 -1.1366  1.3515 -0.7820
   66OSM   H15B 5327   1.688   0.828   6.537  2.6334 -1.4001 -0.2575
   66OSM   H15C 5328   1.709   0.983   6.614  0.4258 -0.6129 -0.7178
   66OSM    C14 5329   1.581   0.929   6.306  0.4861  0.2298  0.1942
   66OSM   H14A 5330   1.531   0.834   6.317  0.7290  0.1863  1.0305
   66OSM   H14B 5331   1.676   0.923   6.257  0.2149  2.3944 -0.7333
   66OSM   H14C 5332   1.505   0.979   6.247  0.1106 -1.0623 -0.4506
   66OSM    C13 5333   1.468   0.980   6.513 -0.2678 -0.1526 -0.3620
   66OSM   H13A 5334   1.387   1.026   6.458 -0.5358  0.5060  0.5600
   66OSM   H13B 5335   1.473   1.014   6.615  1.2874  0.1725 -0.5225
   66OSM   H13C 5336   1.436   0.877   6.521  0.8148 -0.3256  3.7589
   66OSM    C12 5337   1.624   1.152   6.421 -0.1034  0.2320 -0.4963
   66OSM   H12A 5338   1.612   1.198   6.518 -0.1222 -0.5581 -0.1162
   66OSM   H12B 5339   1.547   1.196   6.359 -0.7035 -1.1917 -0.7958
   66OSM    C11 5340   1.755   1.189   6.359 -0.0107  0.5470  0.1883
   66OSM   H11A 5341   1.835   1.132   6.410 -2.8321 -1.3821  2.8055
   66OSM   H11B 5342   1.762   1.299   6.376 -2.4532  0.6617  0.8528
   66OSM      P 5343   1.888   1.192   6.142 -0.1978 -0.0233  0.0837
   66OSM    O13 5344   1.861   1.301   6.048  0.1184  0.2470 -0.1055
   66OSM    O14 5345   2.000   1.214   6.238  0.3061 -0.5278 -0.4754
   66OSM    O11 5346   1.917   1.053   6.065  0.2182  0.5854 -0.6087
   66OSM    O12 5347   1.755   1.157   6.222 -0.2180  0.0294  0.5565
   66OSM    C1S 5348   1.857   0.996   5.950  0.0569 -0.4936  0.1960
   66OSM    H1S 5349   1.763   1.051   5.929  1.8267  1.3581 -4.1148
   66OSM    H1T 5350   1.835   0.888   5.967 -0.7023 -0.1840  1.2385
   66OSM     NF 5351   1.874   0.995   5.701  0.6098  0.3449 -0.0748
   66OSM    HNF 5352   1.866   0.900   5.672 -1.6852 -0.3069  2.1972
   66OSM    C2S 5353   1.944   1.022   5.824 -0.8191  0.4843 -0.2768
   66OSM    H2S 5354   1.973   1.129   5.828 -0.9880  0.5553 -0.8579
   66OSM    C3S 5355   2.070   0.937   5.830  0.6633 -0.0143 -0.7535
   66OSM    H3S 5356   2.029   0.834   5.835 -0.1652  0.3538  0.6841
   66OSM     O3 5357   2.136   0.964   5.955  0.7109 -0.5001 -0.1088
   66OSM    HO3 5358   2.070   1.010   6.007 -2.3998 -0.6578 -3.5015
   66OSM    C4S 5359   2.165   0.956   5.719  0.8295  0.3195  0.1274
   66OSM    H4S 5360   2.210   1.056   5.717 -0.6606  1.0144 -2.2108
   66OSM    C5S 5361   2.190   0.864   5.630  0.6294  0.4448  0.0949
   66OSM    H5S 5362   2.136   0.768   5.642  0.8692  0.5642  2.4637
   66OSM    C6S 5363   2.287   0.879   5.523 -0.6466  0.9189  0.5690
   66OSM    H6S 5364   2.335   0.781   5.499  1.9568  1.9668  1.2357
   66OSM    H6T 5365   2.360   0.958   5.550 -2.1099  2.7381 -0.5178
   66OSM    C7S 5366   2.222   0.931   5.389  1.0182 -0.1776  0.0722
   66OSM    H7S 5367   2.210   1.038   5.415  0.7529 -0.3128  0.5069
   66OSM    H7T 5368   2.126   0.877   5.377  1.2397 -0.4632 -0.4416
   66OSM    C8S 5369   2.316   0.913   5.267 -0.6233 -0.3585  0.1246
   66OSM    H8S 5370   2.334   0.803   5.263  0.4324 -0.2801  1.7124
   66OSM    H8T 5371   2.406   0.968   5.302 -0.6522 -0.2622  0.0476
   66OSM    C9S 5372   2.256   0.973   5.136 -0.3069  0.7279  0.1383
   66OSM    H9S 5373   2.347   1.022   5.096 -0.4918  2.6965  1.9119
   66OSM    H9T 5374   2.177   1.046   5.162 -0.9025 -0.1792  0.9458
   66OSM   C10S 5375   2.197   0.861   5.045  0.2751  0.0723 -0.1341
   66OSM   H10S 5376   2.128   0.793   5.100  0.9039 -1.1134 -0.7584
   66OSM   H10T 5377   2.282   0.790   5.032  1.0806  0.3614  2.9102
   66OSM   C11S 5378   2.135   0.911   4.911  0.2298 -0.4584 -0.0802
   66OSM   H11S 5379   2.203   0.986   4.866  0.8735  0.1052  1.7517
   66OSM   H11T 5380   2.038   0.963   4.926 -0.1561 -1.3130  0.5082
   66OSM   C12S 5381   2.123   0.811   4.799  0.1081  0.6582 -0.1332
   66OSM   H12S 5382   2.021   0.767   4.795  0.6323 -0.5445 -1.0847
   66OSM   H12T 5383   2.196   0.729   4.815 -0.9195 -0.7410 -2.0999
   66OSM   C13S 5384   2.152   0.872   4.661 -0.4489 -0.0985 -0.1096
   66OSM   H13S 5385   2.244   0.934   4.656 -1.1853  1.7617  4.3302
   66OSM   H13T 5386   2.073   0.942   4.628  1.4272  2.1675 -0.0375
   66OSM   C14S 5387   2.177   0.764   4.552  0.2266  0.1494 -0.4959
   66OSM   H14S 5388   2.246   0.695   4.605  0.4750  2.1728  1.9696
   66OSM   H14T 5389   2.224   0.810   4.463 -0.8567 -0.6012 -1.4943
   66OSM   C15S 5390   2.049   0.696   4.502 -0.4731  1.2176  0.1094
   66OSM   H15S 5391   2.067   0.676   4.394 -2.9148 -2.1226  0.1517
   66OSM   H15T 5392   1.959   0.761   4.499 -1.6827 -0.3949  0.2317
   66OSM   C16S 5393   2.013   0.561   4.561  0.1132 -0.2599 -0.1609
   66OSM   H16S 5394   2.009   0.563   4.673 -1.1852 -2.3486 -0.1108
   66OSM   H16T 5395   2.105   0.503   4.539  0.6657  0.2048  0.8585
   66OSM   C17S 5396   1.884   0.511   4.483 -0.0168  0.2531  0.5917
   66OSM   H17S 5397   1.802   0.581   4.507  1.4657  1.9564  0.9342
   66OSM   H17T 5398   1.860   0.415   4.533  1.0634  0.6869  2.0072
   66OSM   C18S 5399   1.909   0.493   4.330  0.3649  0.1943  0.4877
   66OSM   H18S 5400   1.832   0.425   4.288  0.8982 -0.0815 -0.0469
   66OSM   H18T 5401   2.007   0.448   4.305  0.0956  0.5304 -1.3154
   66OSM   H18U 5402   1.891   0.596   4.292 -1.2397 -0.4602 -0.6313
   66OSM    C1F 5403   1.814   1.094   5.634  0.6563  0.1250 -0.9946
   66OSM     OF 5404   1.802   1.216   5.671 -0.3462  0.3755 -0.6449
   66OSM    C2F 5405   1.770   1.068   5.496 -0.3804  0.0631  0.2073
   66OSM    H2F 5406   1.711   0.974   5.486 -0.6129  0.1857  0.4121
   66OSM    H2G 5407   1.870   1.045   5.452  0.0827 -1.1834  1.8211
   66OSM    C3F 5408   1.684   1.186   5.441 -0.1231  0.6200  0.1890
   66OSM    H3F 5409   1.741   1.281   5.453 -0.0901  0.4023  1.9579
   66OSM    H3G 5410   1.594   1.199   5.504 -0.1652 -2.3900  0.9012
   66OSM    C4F 5411   1.646   1.161   5.294  0.3576 -0.4893 -0.5100
   66OSM    H4F 5412   1.560   1.226   5.268 -1.5810 -2.2082  1.2463
   66OSM    H4G 5413   1.606   1.057   5.292 -1.0210  0.0224 -2.1623
   66OSM    C5F 5414   1.755   1.176   5.195  0.6137  0.8320 -0.0015
   66OSM    H5F 5415   1.828   1.094   5.206 -0.1442  0.1415 -0.0523
   66OSM    H5G 5416   1.810   1.272   5.210 -1.8577  2.3323  0.0810
   66OSM    C6F 5417   1.708   1.154   5.046  0.3077  0.1256 -0.0766
   66OSM    H6F 5418   1.658   1.056   5.031 -1.1091  1.0344 -1.6924
   66OSM    H6G 5419   1.806   1.142   4.994  1.3345  1.3384  1.4748
   66OSM    C7F 5420   1.612   1.257   4.986 -0.0912  0.0874 -1.4184
   66OSM    H7F 5421   1.667   1.353   4.978 -0.9786  0.6205 -1.3232
   66OSM    H7G 5422   1.532   1.277   5.061 -0.0027 -1.8244 -0.7552
   66OSM    C8F 5423   1.548   1.213   4.860  0.2689  0.6150 -0.3715
   66OSM    H8F 5424   1.476   1.293   4.833 -0.6951 -0.9174 -2.5312
   66OSM    H8G 5425   1.490   1.120   4.875 -0.5649  1.3530  1.2268
   66OSM    C9F 5426   1.643   1.198   4.746  0.2225  0.4379  0.7243
   66OSM    H9F 5427   1.731   1.133   4.757  0.6160  1.1275  1.8442
   66OSM   C10F 5428   1.608   1.251   4.626 -0.0292  0.1997  0.0672
   66OSM   H10F 5429   1.684   1.242   4.547 -0.4965  2.1418 -0.6689
   66OSM   C11F 5430   1.490   1.333   4.584  0.1053  0.0412 -0.2366
   66OSM   H11F 5431   1.530   1.437   4.588  1.4458 -0.4411 -0.4977
   66OSM   H11G 5432   1.403   1.312   4.649 -0.2823 -0.0477 -0.7773
   66OSM   C12F 5433   1.440   1.308   4.442  0.3434  0.5337 -0.1402
   66OSM   H12F 5434   1.369   1.384   4.403  1.3023  0.1722 -2.8512
   66OSM   H12G 5435   1.391   1.208   4.431 -1.1126  1.0956  0.9779
   66OSM   C13F 5436   1.546   1.325   4.340 -0.3630 -0.2573 -0.4409
   66OSM   H13F 5437   1.641   1.269   4.351 -1.3281 -1.7328  0.8661
   66OSM   H13G 5438   1.582   1.430   4.344  0.6500 -0.6319  0.6655
   66OSM   C14F 5439   1.494   1.310   4.194 -0.3469 -0.5978 -0.1288
   66OSM   H14F 5440   1.403   1.368   4.167 -0.9237 -2.1144 -1.5816
   66OSM   H14G 5441   1.450   1.209   4.187  0.2268 -0.8057 -0.7935
   66OSM   C15F 5442   1.601   1.329   4.082  0.2038 -0.2729  0.0920
   66OSM   H15F 5443   1.691   1.265   4.096  1.7208  0.1338 -5.5616
   66OSM   H15G 5444   1.627   1.436   4.093  0.2140 -0.4413  2.1657
   66OSM   C16F 5445   1.545   1.301   3.938  0.7053  0.0013 -0.1340
   66OSM   H16F 5446   1.639   1.318   3.882  1.1148  1.8757  1.0400
   66OSM   H16G 5447   1.459   1.366   3.912 -0.1384 -0.3361  1.6296
   66OSM   C17F 5448   1.513   1.146   3.922 -0.3654  0.7647  0.7907
   66OSM   H17F 5449   1.430   1.119   3.991 -2.1010  0.7770 -1.2271
   66OSM   H17G 5450   1.603   1.086   3.951 -0.6959 -0.3446 -0.3671
   66OSM   C18F 5451   1.470   1.092   3.777  0.2972 -0.7483 -1.3317
   66OSM   H18F 5452   1.522   1.149   3.696 -0.4967  1.5936 -0.2821
   66OSM   H18G 5453   1.361   1.101   3.763  0.3317 -0.5486 -1.4743
   66OSM   H18H 5454   1.499   0.985   3.778  2.7334 -0.2131  1.9907
   67OSM      N 5455   2.580   5.428   6.591  0.5522  0.1975  0.6461
   67OSM    C15 5456   2.559   5.280   6.617  0.1710  0.1100 -0.5983
   67OSM   H15A 5457   2.642   5.235   6.668 -1.1353  1.4596  3.0298
   67OSM   H15B 5458   2.541   5.237   6.520 -0.8142  1.1699 -0.9125
   67OSM   H15C 5459   2.477   5.269   6.687  0.8593  0.3545  0.2654
   67OSM    C14 5460   2.454   5.477   6.517 -0.3500  0.3661 -0.4345
   67OSM   H14A 5461   2.493   5.559   6.459  1.7990 -1.4462 -1.7248
   67OSM   H14B 5462   2.368   5.505   6.576  0.3797 -0.2081  0.9339
   67OSM   H14C 5463   2.416   5.404   6.447 -1.0507 -0.9273  1.2258
   67OSM    C13 5464   2.596   5.501   6.719  0.1429 -0.2414  0.1615
   67OSM   H13A 5465   2.663   5.453   6.790 -0.4652 -1.2207  0.0893
   67OSM   H13B 5466   2.501   5.489   6.770  0.0168 -2.0880 -0.4334
   67OSM   H13C 5467   2.613   5.604   6.693  1.4763 -0.9185 -1.8387
   67OSM    C12 5468   2.695   5.447   6.498  0.5835 -0.5823  0.8522
   67OSM   H12A 5469   2.673   5.390   6.409  0.5823  0.2798  0.2915
   67OSM   H12B 5470   2.787   5.418   6.546  1.3755  0.9148  0.3110
   67OSM    C11 5471   2.737   5.587   6.452  0.2257  0.8642 -0.5729
   67OSM   H11A 5472   2.644   5.631   6.412 -1.1823 -1.8215 -0.4760
   67OSM   H11B 5473   2.808   5.579   6.367 -2.1540  2.7774 -2.8839
   67OSM      P 5474   2.814   5.816   6.545 -0.1639 -0.1023  0.0205
   67OSM    O13 5475   2.700   5.888   6.607 -0.2093 -0.1856  0.3143
   67OSM    O14 5476   2.949   5.856   6.584  0.3438 -0.2085 -0.2743
   67OSM    O11 5477   2.796   5.846   6.394  0.2673  0.4525  0.3995
   67OSM    O12 5478   2.796   5.662   6.559  0.5828 -0.1361  0.1844
   67OSM    C1S 5479   2.878   5.942   6.326  0.0693 -0.1479 -0.2791
   67OSM    H1S 5480   2.985   5.927   6.351 -0.4470 -1.3810  1.3796
   67OSM    H1T 5481   2.857   6.046   6.361  0.9358  0.1998 -0.7737
   67OSM     NF 5482   2.945   6.050   6.107  0.0688 -0.3862 -0.2013
   67OSM    HNF 5483   2.905   6.132   6.067  0.2178 -0.5820 -0.7504
   67OSM    C2S 5484   2.856   5.953   6.167  0.2428 -0.0875 -0.6036
   67OSM    H2S 5485   2.874   5.854   6.120 -2.5307 -0.5534 -0.8687
   67OSM    C3S 5486   2.711   5.992   6.130  0.1504  0.7059  0.0585
   67OSM    H3S 5487   2.684   6.088   6.178 -1.5932 -0.2174  1.0497
   67OSM     O3 5488   2.606   5.920   6.199  0.1098  0.6097 -0.7222
   67OSM    HO3 5489   2.644   5.895   6.283 -1.0212 -0.7668 -0.5843
   67OSM    C4S 5490   2.685   5.991   5.982  0.3462 -0.2786  0.3124
   67OSM    H4S 5491   2.730   5.903   5.933  0.4350  0.6865 -1.4081
   67OSM    C5S 5492   2.603   6.083   5.924 -0.3509 -0.3514  0.3082
   67OSM    H5S 5493   2.548   6.154   5.988 -0.4419  1.2509 -1.4268
   67OSM    C6S 5494   2.559   6.088   5.778 -0.3069  0.4674 -1.1125
   67OSM    H6S 5495   2.450   6.109   5.785 -0.0511  1.9714 -1.3541
   67OSM    H6T 5496   2.574   6.001   5.710 -0.9664  1.4321 -2.5469
   67OSM    C7S 5497   2.625   6.207   5.707  1.0389  0.0119  0.2807
   67OSM    H7S 5498   2.713   6.258   5.752  0.1218  3.1135 -1.1131
   67OSM    H7T 5499   2.548   6.288   5.711  0.5129 -0.3822 -1.1757
   67OSM    C8S 5500   2.644   6.178   5.558  0.4013  0.1130  0.5033
   67OSM    H8S 5501   2.552   6.127   5.523 -1.9255  2.1406  3.1431
   67OSM    H8T 5502   2.730   6.112   5.535  0.3762 -0.0105  0.7620
   67OSM    C9S 5503   2.643   6.309   5.477  0.3426  1.0297 -0.1869
   67OSM    H9S 5504   2.731   6.364   5.517  2.4688 -2.1910 -0.0720
   67OSM    H9T 5505   2.550   6.363   5.503  0.3051 -0.2357  2.6701
   67OSM   C10S 5506   2.645   6.297   5.321 -0.6357 -0.1656 -0.5561
   67OSM   H10S 5507   2.544   6.257   5.296 -2.0298  0.4473  3.3601
   67OSM   H10T 5508   2.726   6.226   5.297 -0.1109  0.0916  0.4104
   67OSM   C11S 5509   2.670   6.432   5.243  0.6671  0.1116 -0.1811
   67OSM   H11S 5510   2.768   6.464   5.285  2.0273 -3.2277 -0.5416
   67OSM   H11T 5511   2.588   6.488   5.292 -0.3894 -0.8683 -0.7978
   67OSM   C12S 5512   2.640   6.432   5.097 -0.1563 -0.2571 -0.2074
   67OSM   H12S 5513   2.595   6.526   5.059  1.3000  0.0750 -1.2102
   67OSM   H12T 5514   2.566   6.350   5.084 -1.4339  0.5934  1.3168
   67OSM   C13S 5515   2.758   6.378   5.011  0.6136 -0.0266 -0.6242
   67OSM   H13S 5516   2.789   6.277   5.044 -0.5975 -0.8218 -1.8303
   67OSM   H13T 5517   2.840   6.451   5.026 -0.6208  1.1521  0.6565
   67OSM   C14S 5518   2.728   6.387   4.867  0.0429  0.3161  0.0686
   67OSM   H14S 5519   2.699   6.488   4.831  2.7682  0.9187 -0.6606
   67OSM   H14T 5520   2.650   6.309   4.849  0.4162 -0.2293  0.7580
   67OSM   C15S 5521   2.857   6.343   4.784  0.5450 -0.0495 -0.2342
   67OSM   H15S 5522   2.878   6.237   4.810  1.6956  0.3838  0.6310
   67OSM   H15T 5523   2.940   6.405   4.823  1.3039  0.7224 -2.8289
   67OSM   C16S 5524   2.858   6.347   4.633  0.3173 -0.0363 -0.6060
   67OSM   H16S 5525   2.761   6.325   4.584  0.2232  1.4589 -1.1568
   67OSM   H16T 5526   2.942   6.279   4.607  0.4628 -0.0879 -0.0272
   67OSM   C17S 5527   2.895   6.482   4.588 -0.4810  0.0934  0.3640
   67OSM   H17S 5528   2.988   6.509   4.642  0.4259 -1.3993 -0.3904
   67OSM   H17T 5529   2.818   6.552   4.625  1.4955  2.5061  0.1482
   67OSM   C18S 5530   2.913   6.498   4.438 -0.1144  0.2899  0.2645
   67OSM   H18S 5531   2.977   6.422   4.388  2.0118  2.2962 -0.2138
   67OSM   H18T 5532   2.955   6.598   4.414  4.2685 -1.1454  1.0617
   67OSM   H18U 5533   2.814   6.481   4.390  0.1697 -1.8669  0.3246
   67OSM    C1F 5534   3.083   6.041   6.100  0.3601 -0.5209 -0.2097
   67OSM     OF 5535   3.146   5.947   6.147  0.0317 -0.1229  0.1285
   67OSM    C2F 5536   3.150   6.152   6.022  0.3243 -0.1053 -0.1276
   67OSM    H2F 5537   3.189   6.219   6.102 -3.5466  0.0625  1.8787
   67OSM    H2G 5538   3.074   6.214   5.969 -1.3754 -1.7505  0.2597
   67OSM    C3F 5539   3.240   6.088   5.924 -0.2295 -0.9123  0.1823
   67OSM    H3F 5540   3.310   6.021   5.978 -1.4506 -1.1644  1.5093
   67OSM    H3G 5541   3.301   6.169   5.879  0.7770 -1.6842  0.1118
   67OSM    C4F 5542   3.171   6.014   5.814 -0.1197  0.1657 -0.8815
   67OSM    H4F 5543   3.141   5.924   5.871 -1.8983  0.8359 -0.7010
   67OSM    H4G 5544   3.237   5.974   5.734  1.4228  1.6976 -0.4518
   67OSM    C5F 5545   3.054   6.070   5.743 -0.0692 -0.4721 -0.4396
   67OSM    H5F 5546   2.977   6.108   5.813  0.3711 -0.7732  0.2226
   67OSM    H5G 5547   2.995   5.992   5.691  0.1268 -0.7170 -0.3007
   67OSM    C6F 5548   3.094   6.183   5.639 -0.8108 -0.3399  0.9312
   67OSM    H6F 5549   3.168   6.254   5.684  1.2515 -1.3640 -0.6597
   67OSM    H6G 5550   3.002   6.242   5.621 -0.0612  0.5654 -0.1063
   67OSM    C7F 5551   3.150   6.123   5.511 -0.5256  0.1361 -0.6110
   67OSM    H7F 5552   3.079   6.048   5.468 -0.7542 -0.2607  0.4381
   67OSM    H7G 5553   3.232   6.060   5.549  0.0087  2.0343  1.5509
   67OSM    C8F 5554   3.214   6.212   5.402 -0.1300  0.3161 -0.5091
   67OSM    H8F 5555   3.246   6.140   5.325  1.4956 -0.4762  0.8579
   67OSM    H8G 5556   3.305   6.262   5.439  0.8082 -2.3315  1.0242
   67OSM    C9F 5557   3.126   6.318   5.339  0.4591  0.0310 -0.3725
   67OSM    H9F 5558   3.089   6.393   5.410  1.2245  2.1337 -2.0825
   67OSM   C10F 5559   3.074   6.307   5.210 -0.3800  0.5506  0.9977
   67OSM   H10F 5560   3.007   6.389   5.179 -0.0767  1.2263  2.0776
   67OSM   C11F 5561   3.088   6.196   5.107  0.2907  0.7716  0.2273
   67OSM   H11F 5562   2.985   6.164   5.080  0.8342 -1.4809  0.5909
   67OSM   H11G 5563   3.145   6.104   5.132  1.7708  1.0783 -1.7407
   67OSM   C12F 5564   3.170   6.240   4.983  0.4904 -0.2131  0.0526
   67OSM   H12F 5565   3.266   6.292   4.999  2.3559 -2.4839 -2.7021
   67OSM   H12G 5566   3.112   6.315   4.924  1.5520  1.9318  1.5944
   67OSM   C13F 5567   3.195   6.120   4.890  0.2075 -0.7506 -0.5618
   67OSM   H13F 5568   3.107   6.052   4.887 -2.5092  2.4585  0.1319
   67OSM   H13G 5569   3.284   6.066   4.928  1.1530  0.6842 -0.6798
   67OSM   C14F 5570   3.245   6.176   4.756  0.1764  0.9533  0.4018
   67OSM   H14F 5571   3.339   6.235   4.767  1.2677 -0.8068  0.8944
   67OSM   H14G 5572   3.167   6.245   4.717 -0.3013 -1.6275 -3.8245
   67OSM   C15F 5573   3.272   6.059   4.659  0.1350  0.4674 -0.8282
   67OSM   H15F 5574   3.191   5.984   4.657  1.2622 -1.0829  2.7380
   67OSM   H15G 5575   3.356   6.006   4.709 -0.6522 -1.3975 -1.3860
   67OSM   C16F 5576   3.332   6.109   4.524 -0.5419  0.4405  0.1298
   67OSM   H16F 5577   3.331   6.023   4.453 -0.0911  1.1877 -0.7887
   67OSM   H16G 5578   3.438   6.136   4.540 -0.6632  0.5484  0.7915
   67OSM   C17F 5579   3.256   6.216   4.445  0.3312  0.3726 -1.2861
   67OSM   H17F 5580   3.286   6.313   4.489  2.5541 -1.1074  0.6950
   67OSM   H17G 5581   3.147   6.199   4.461  0.6454  1.3579  3.3398
   67OSM   C18F 5582   3.298   6.213   4.297 -0.2706 -0.1650 -0.4148
   67OSM   H18F 5583   3.407   6.231   4.282 -0.0585 -0.3403  0.7895
   67OSM   H18G 5584   3.261   6.303   4.243 -0.6125 -1.8645 -3.2044
   67OSM   H18H 5585   3.256   6.125   4.244 -0.1865  0.7005 -1.9752
   68OSM      N 5586   1.763   2.247   6.651 -0.4456 -0.3308 -0.1698
   68OSM    C15 5587   1.792   2.108   6.607 -0.9260 -0.4234 -0.3628
   68OSM   H15A 5588   1.891   2.093   6.649 -0.5147 -0.6990 -1.4044
   68OSM   H15B 5589   1.792   2.103   6.499  0.3953  0.1960 -0.4098
   68OSM   H15C 5590   1.722   2.037   6.651 -0.9674 -2.1417 -2.9945
   68OSM    C14 5591   1.770   2.251   6.800 -0.5330  0.3830 -0.3796
   68OSM   H14A 5592   1.867   2.217   6.833 -0.2061  3.3485  2.1470
   68OSM   H14B 5593   1.687   2.198   6.845 -0.7240  2.0671  1.3718
   68OSM   H14C 5594   1.769   2.353   6.836 -0.9289  0.7101 -1.2794
   68OSM    C13 5595   1.868   2.342   6.603  0.1745  0.0114 -0.4717
   68OSM   H13A 5596   1.850   2.438   6.649 -0.4305  0.0474 -0.7759
   68OSM   H13B 5597   1.854   2.352   6.496 -0.8623  0.6770 -0.2914
   68OSM   H13C 5598   1.968   2.308   6.624  0.8726  2.1468 -0.0750
   68OSM    C12 5599   1.631   2.309   6.606  0.1690  0.3612 -0.0042
   68OSM   H12A 5600   1.640   2.413   6.634  0.5922  0.0856  0.9183
   68OSM   H12B 5601   1.554   2.271   6.671 -2.9832  2.4954 -2.2227
   68OSM    C11 5602   1.569   2.282   6.468 -0.6782  0.2254 -0.2796
   68OSM   H11A 5603   1.648   2.298   6.392 -1.6923  0.2873 -1.3487
   68OSM   H11B 5604   1.486   2.349   6.437 -1.1116 -0.1001  0.1486
   68OSM      P 5605   1.388   2.103   6.525  0.0858  0.0874  0.0920
   68OSM    O13 5606   1.379   1.953   6.529 -0.7269 -0.0554  0.0077
   68OSM    O14 5607   1.372   2.175   6.656 -0.2601  0.0246 -0.4743
   68OSM    O11 5608   1.285   2.169   6.422  0.2324  0.3858 -0.0346
   68OSM    O12 5609   1.523   2.151   6.467 -0.1898 -0.0471  0.1749
   68OSM    C1S 5610   1.282   2.108   6.292 -0.1541  0.4432 -0.1318
   68OSM    H1S 5611   1.237   2.007   6.302 -2.0580  1.1832 -0.7053
   68OSM    H1T 5612   1.382   2.103   6.244 -0.6671 -1.4821 -1.0996
   68OSM     NF 5613   1.172   2.092   6.061 -0.2016 -0.4108  0.0165
   68OSM    HNF 5614   1.245   2.097   5.994  0.4676  0.3099  0.7764
   68OSM    C2S 5615   1.181   2.170   6.188  0.1663 -0.5864  0.6492
   68OSM    H2S 5616   1.086   2.162   6.246 -0.5414 -0.3287 -0.4410
   68OSM    C3S 5617   1.224   2.321   6.166 -0.2000  0.1270  0.4352
   68OSM    H3S 5618   1.326   2.323   6.123 -1.3727  0.9460 -2.6001
   68OSM     O3 5619   1.231   2.403   6.281  0.3096  0.2991 -0.9136
   68OSM    HO3 5620   1.244   2.337   6.350  1.2420 -0.2302 -1.5754
   68OSM    C4S 5621   1.134   2.394   6.067  0.1105  0.0989 -0.1716
   68OSM    H4S 5622   1.028   2.391   6.095  0.1395  2.0202  0.2422
   68OSM    C5S 5623   1.159   2.451   5.951 -0.0021  0.3181 -0.1918
   68OSM    H5S 5624   1.263   2.445   5.915  0.3823 -1.0548  1.0511
   68OSM    C6S 5625   1.047   2.526   5.873  0.6443  0.4679 -0.7328
   68OSM    H6S 5626   1.089   2.615   5.823 -0.9903  2.8042  1.7535
   68OSM    H6T 5627   0.967   2.559   5.943 -0.8247 -0.5129 -1.8713
   68OSM    C7S 5628   0.968   2.440   5.771  0.0092  0.9518  0.0173
   68OSM    H7S 5629   0.929   2.346   5.815 -0.3786  1.6835  1.2685
   68OSM    H7T 5630   1.044   2.407   5.697 -0.5884 -0.1762 -0.1276
   68OSM    C8S 5631   0.860   2.521   5.688 -1.0498 -0.3291 -0.4506
   68OSM    H8S 5632   0.922   2.608   5.656  1.6312 -1.7004  0.7486
   68OSM    H8T 5633   0.780   2.559   5.754  0.2754  3.1573 -0.6129
   68OSM    C9S 5634   0.799   2.446   5.572  0.7498 -0.5341 -0.0101
   68OSM    H9S 5635   0.731   2.520   5.524  0.7267 -1.7637 -1.9613
   68OSM    H9T 5636   0.733   2.370   5.617 -1.4546  1.9073  1.1545
   68OSM   C10S 5637   0.893   2.389   5.468 -0.0836 -0.3343 -0.0706
   68OSM   H10S 5638   0.942   2.305   5.521  2.8047  0.2114 -1.6771
   68OSM   H10T 5639   0.970   2.463   5.439  0.6088 -0.2528  1.8172
   68OSM   C11S 5640   0.833   2.333   5.338 -0.1937  0.0682 -1.2150
   68OSM   H11S 5641   0.767   2.247   5.363 -1.4589  1.2625 -0.2659
   68OSM   H11T 5642   0.919   2.292   5.281 -1.2837 -0.0978 -2.8301
   68OSM   C12S 5643   0.759   2.435   5.256 -0.4432 -0.4204  0.0734
   68OSM   H12S 5644   0.801   2.537   5.272  1.2414 -1.2430  1.1721
   68OSM   H12T 5645   0.661   2.441   5.310  0.4853  0.7343  1.7295
   68OSM   C13S 5646   0.741   2.402   5.109 -0.6486  0.1721  0.6365
   68OSM   H13S 5647   0.699   2.302   5.084 -1.5056  0.1601  2.0393
   68OSM   H13T 5648   0.844   2.401   5.069 -1.0529 -0.5529 -0.4351
   68OSM   C14S 5649   0.660   2.498   5.018  0.4514 -0.1339 -0.2462
   68OSM   H14S 5650   0.720   2.590   5.001 -0.2155 -0.0787 -2.6964
   68OSM   H14T 5651   0.560   2.508   5.065  1.2763  0.3284  1.4629
   68OSM   C15S 5652   0.651   2.429   4.882  0.6713  1.0738 -0.5140
   68OSM   H15S 5653   0.590   2.339   4.906  2.6921  0.0740  1.2092
   68OSM   H15T 5654   0.741   2.374   4.849 -0.9373 -2.0516 -0.0820
   68OSM   C16S 5655   0.598   2.528   4.780  0.0150  0.0411 -0.0412
   68OSM   H16S 5656   0.675   2.606   4.759 -1.2821  1.4525  0.2043
   68OSM   H16T 5657   0.511   2.586   4.818  1.4651  2.7237 -0.5561
   68OSM   C17S 5658   0.560   2.467   4.654  0.1559 -1.0237  0.5832
   68OSM   H17S 5659   0.490   2.535   4.601  1.3492 -1.5227 -1.7981
   68OSM   H17T 5660   0.499   2.376   4.674 -0.2333 -0.5419  1.6445
   68OSM   C18S 5661   0.682   2.433   4.574  0.0510  0.6006 -0.6085
   68OSM   H18S 5662   0.736   2.519   4.531  1.9520  0.0487  0.5377
   68OSM   H18T 5663   0.646   2.369   4.491  0.8525 -1.1345  0.3137
   68OSM   H18U 5664   0.763   2.380   4.629 -0.6212 -0.5204 -0.6622
   68OSM    C1F 5665   1.086   1.998   6.054 -0.7918 -0.2675 -0.3103
   68OSM     OF 5666   1.017   1.964   6.150 -0.3090 -0.2794  0.2271
   68OSM    C2F 5667   1.076   1.941   5.912 -0.6728  0.3830 -0.2974
   68OSM    H2F 5668   1.025   1.842   5.913 -4.5217  2.1700 -1.3972
   68OSM    H2G 5669   1.181   1.922   5.878 -0.1351  0.0575  1.4693
   68OSM    C3F 5670   0.994   2.029   5.820  0.1210 -0.2295  0.4139
   68OSM    H3F 5671   1.033   2.132   5.833  2.7586 -1.2139  1.0578
   68OSM    H3G 5672   0.889   2.032   5.854  0.5345  1.8702  1.6996
   68OSM    C4F 5673   0.973   1.984   5.677  0.2489  0.8226  0.3074
   68OSM    H4F 5674   1.069   1.965   5.625 -0.4297  0.6890 -0.9277
   68OSM    H4G 5675   0.914   2.059   5.621 -1.7687 -0.0076  1.2359
   68OSM    C5F 5676   0.910   1.847   5.648  0.4544 -0.8245  0.4820
   68OSM    H5F 5677   0.832   1.826   5.724 -0.4073  0.5186 -0.0031
   68OSM    H5G 5678   0.988   1.767   5.650 -0.5020 -1.8843 -1.3624
   68OSM    C6F 5679   0.848   1.841   5.507  0.5547  0.4663 -0.5456
   68OSM    H6F 5680   0.759   1.907   5.502  0.0318 -0.2702 -1.2123
   68OSM    H6G 5681   0.817   1.734   5.508 -0.7303  0.8127  1.7761
   68OSM    C7F 5682   0.940   1.883   5.396  0.2712 -0.1102  0.6702
   68OSM    H7F 5683   1.042   1.843   5.414  1.4669  2.9165  1.2915
   68OSM    H7G 5684   0.969   1.991   5.394  0.2800 -0.1122 -0.6875
   68OSM    C8F 5685   0.895   1.841   5.246  0.4901  0.3106  0.2449
   68OSM    H8F 5686   0.895   1.730   5.246  0.1179  0.2718 -1.7858
   68OSM    H8G 5687   0.968   1.877   5.170  1.8280  0.3628  1.5146
   68OSM    C9F 5688   0.749   1.878   5.222 -0.7721 -0.2572  0.1166
   68OSM    H9F 5689   0.670   1.818   5.270 -0.8659 -0.1660  0.0761
   68OSM   C10F 5690   0.708   1.964   5.123  0.0865 -0.5180  0.2035
   68OSM   H10F 5691   0.600   1.965   5.102 -0.1754  3.2522  0.9289
   68OSM   C11F 5692   0.805   2.012   5.014  0.5469  0.4943  0.7018
   68OSM   H11F 5693   0.866   1.924   4.985 -0.7855  0.6584 -3.1919
   68OSM   H11G 5694   0.883   2.085   5.042  0.0530  0.7871  1.3576
   68OSM   C12F 5695   0.741   2.035   4.875 -0.2010 -0.1429 -0.0687
   68OSM   H12F 5696   0.829   2.044   4.807  0.8155  1.4393  1.3666
   68OSM   H12G 5697   0.695   2.135   4.883  1.6533  0.7063  0.6949
   68OSM   C13F 5698   0.643   1.929   4.824  0.4521  0.4995  0.3120
   68OSM   H13F 5699   0.551   1.907   4.882 -0.9756  1.8797 -1.3180
   68OSM   H13G 5700   0.699   1.834   4.838 -1.5090 -0.7018  0.3712
   68OSM   C14F 5701   0.594   1.947   4.683  0.0227 -0.9238  0.3371
   68OSM   H14F 5702   0.557   1.858   4.627 -1.9846 -1.2591  2.0887
   68OSM   H14G 5703   0.670   1.991   4.614  0.3259 -0.1960  1.1191
   68OSM   C15F 5704   0.481   2.053   4.684  0.2113  0.7273 -0.0379
   68OSM   H15F 5705   0.514   2.145   4.736  2.1654  0.4979 -0.8026
   68OSM   H15G 5706   0.393   2.009   4.735  1.3337 -2.6109 -0.7624
   68OSM   C16F 5707   0.449   2.081   4.542  0.1203 -0.1639 -0.0835
   68OSM   H16F 5708   0.438   1.983   4.493  1.6860 -0.9970  1.1167
   68OSM   H16G 5709   0.539   2.127   4.496 -0.4460 -0.0252 -1.0737
   68OSM   C17F 5710   0.332   2.176   4.525  0.5909 -0.1171  0.6662
   68OSM   H17F 5711   0.345   2.258   4.599  0.0043  1.6115 -1.0719
   68OSM   H17G 5712   0.238   2.124   4.553 -0.1902  0.4659 -0.7679
   68OSM   C18F 5713   0.315   2.231   4.383 -0.4192 -0.3637 -0.4064
   68OSM   H18F 5714   0.409   2.277   4.347  0.4170 -2.1474 -0.6029
   68OSM   H18G 5715   0.233   2.306   4.385  0.2547  0.3700  1.2161
   68OSM   H18H 5716   0.281   2.153   4.311 -1.6089 -1.1214  0.9254
   69OSM      N 5717   1.011   0.103   6.600 -0.0487 -0.1484 -0.5997
   69OSM    C15 5718   1.022   0.150   6.739  0.2665  0.2553  0.0455
   69OSM   H15A 5719   1.123   0.178   6.764  0.0035 -0.6061  2.3879
   69OSM   H15B 5720   1.003   0.073   6.813  0.3365  0.8353  0.6711
   69OSM   H15C 5721   0.953   0.230   6.763 -0.9474 -0.3569 -1.2349
   69OSM    C14 5722   1.101  -0.012   6.579  0.0344  0.8496  0.2325
   69OSM   H14A 5723   1.045  -0.100   6.605  1.1735 -0.0864 -0.4097
   69OSM   H14B 5724   1.195  -0.005   6.632 -0.1480  1.5123  0.4771
   69OSM   H14C 5725   1.131  -0.016   6.475  1.9109 -1.0985  0.7760
   69OSM    C13 5726   0.872   0.066   6.573 -0.1943 -0.4903 -0.2925
   69OSM   H13A 5727   0.799   0.146   6.570 -1.8245 -1.9388 -1.8833
   69OSM   H13B 5728   0.830  -0.009   6.638 -3.2454  0.3853 -1.0767
   69OSM   H13C 5729   0.869   0.036   6.469  1.7519 -1.8919  0.0077
   69OSM    C12 5730   1.051   0.220   6.502 -0.1373  0.0545 -0.1242
   69OSM   H12A 5731   1.143   0.264   6.540  0.6571 -0.5852 -1.2598
   69OSM   H12B 5732   0.978   0.298   6.519 -0.3835 -0.3940  0.9756
   69OSM    C11 5733   1.057   0.178   6.352 -0.8884 -0.3357  0.2376
   69OSM   H11A 5734   1.063   0.274   6.297  0.7736  0.5639  1.8705
   69OSM   H11B 5735   0.967   0.118   6.326 -0.4045 -0.7789 -0.4776
   69OSM      P 5736   1.325   0.148   6.358  0.2622 -0.3315 -0.2772
   69OSM    O13 5737   1.344   0.286   6.412 -0.0812  0.5267 -0.5065
   69OSM    O14 5738   1.391   0.043   6.430 -0.2078  0.1141  0.0428
   69OSM    O11 5739   1.369   0.138   6.211 -0.2000 -0.1447  0.1552
   69OSM    O12 5740   1.172   0.104   6.332 -0.0953 -0.1304 -0.5760
   69OSM    C1S 5741   1.301   0.200   6.102  0.3862  0.0868 -0.0523
   69OSM    H1S 5742   1.305   0.309   6.124  0.9040 -0.0224  0.4238
   69OSM    H1T 5743   1.201   0.152   6.099  0.5766 -0.3995  0.8682
   69OSM     NF 5744   1.269   0.168   5.859 -0.0303 -0.3803  0.5044
   69OSM    HNF 5745   1.266   0.077   5.817  1.3377 -0.0249 -0.4319
   69OSM    C2S 5746   1.370   0.187   5.963  0.5130 -0.5102  0.4698
   69OSM    H2S 5747   1.415   0.287   5.946  0.5079 -0.5572  0.1798
   69OSM    C3S 5748   1.483   0.086   5.957 -0.1404 -0.1331  0.5089
   69OSM    H3S 5749   1.435  -0.005   5.997  0.8593  0.2490  2.7593
   69OSM     O3 5750   1.596   0.117   6.039  0.4514  0.4591  0.1253
   69OSM    HO3 5751   1.559   0.173   6.108  1.3864  0.7107  0.4363
   69OSM    C4S 5752   1.531   0.079   5.816 -0.5218  0.0500 -0.1907
   69OSM    H4S 5753   1.567   0.178   5.784 -0.3847  0.3501  0.8488
   69OSM    C5S 5754   1.552  -0.040   5.749 -0.6990 -0.4744  0.6209
   69OSM    H5S 5755   1.527  -0.140   5.787 -2.0769 -0.4630 -0.1827
   69OSM    C6S 5756   1.602  -0.041   5.609  0.4779  0.6626  0.0937
   69OSM    H6S 5757   1.519  -0.103   5.568 -0.1084  1.0087  0.7343
   69OSM    H6T 5758   1.701  -0.090   5.605  0.1748  0.0578 -0.1026
   69OSM    C7S 5759   1.600   0.089   5.528 -0.1844 -0.5995  0.0622
   69OSM    H7S 5760   1.678   0.156   5.572 -1.0652  1.9136 -1.9596
   69OSM    H7T 5761   1.498   0.131   5.532  1.0439  2.8165 -0.9025
   69OSM    C8S 5762   1.623   0.064   5.385  0.3123  0.2478  0.7356
   69OSM    H8S 5763   1.536   0.005   5.348  0.3739  0.5905  0.0322
   69OSM    H8T 5764   1.714   0.004   5.365  0.1078  0.3763 -0.6967
   69OSM    C9S 5765   1.635   0.181   5.290 -0.1709  0.1847  0.5717
   69OSM    H9S 5766   1.726   0.240   5.318 -1.0042  1.7304  0.1531
   69OSM    H9T 5767   1.548   0.250   5.294 -1.3019 -1.1527  0.0146
   69OSM   C10S 5768   1.647   0.128   5.148  0.3614 -0.4012  0.1385
   69OSM   H10S 5769   1.549   0.084   5.122  0.1962 -0.1297  0.2962
   69OSM   H10T 5770   1.711   0.037   5.147  0.4099 -0.3654 -1.3717
   69OSM   C11S 5771   1.675   0.236   5.039 -0.0988  0.2890 -0.4834
   69OSM   H11S 5772   1.702   0.329   5.094  0.8848  1.4001 -2.7054
   69OSM   H11T 5773   1.576   0.260   4.994 -0.3647 -3.1063 -1.9893
   69OSM   C12S 5774   1.775   0.215   4.931 -0.4633  0.4261 -1.0543
   69OSM   H12S 5775   1.868   0.185   4.984 -1.2000  0.0722  0.0581
   69OSM   H12T 5776   1.797   0.315   4.888 -1.4082  0.2575 -1.9585
   69OSM   C13S 5777   1.738   0.108   4.823 -0.0501  0.4008  0.8036
   69OSM   H13S 5778   1.629   0.096   4.804  0.3140  0.4920 -1.7228
   69OSM   H13T 5779   1.771   0.011   4.864 -1.4949 -0.3570  0.2352
   69OSM   C14S 5780   1.792   0.123   4.677  0.1593 -0.2862  0.7143
   69OSM   H14S 5781   1.903   0.121   4.681  0.1841 -0.1258  0.1414
   69OSM   H14T 5782   1.766   0.223   4.636  0.9709 -0.3462  0.0484
   69OSM   C15S 5783   1.744   0.011   4.590  0.5180 -0.2892 -0.1237
   69OSM   H15S 5784   1.637   0.031   4.569  0.7442  1.5129  0.2793
   69OSM   H15T 5785   1.752  -0.078   4.656 -0.9465 -0.3930 -0.0571
   69OSM   C16S 5786   1.826  -0.007   4.463  0.7603 -0.5673  0.1192
   69OSM   H16S 5787   1.819  -0.110   4.423 -0.9486 -1.1190  1.6834
   69OSM   H16T 5788   1.932   0.018   4.486  0.8837 -1.1033  0.1464
   69OSM   C17S 5789   1.790   0.098   4.358 -0.7256  0.4598 -0.0747
   69OSM   H17S 5790   1.753   0.191   4.407  0.2377  2.6756 -3.2351
   69OSM   H17T 5791   1.714   0.054   4.290 -0.0072 -2.6237  0.9523
   69OSM   C18S 5792   1.904   0.135   4.264  0.6515  0.1793  0.1174
   69OSM   H18S 5793   1.862   0.175   4.169 -1.1751 -0.2842  0.6797
   69OSM   H18T 5794   1.965   0.047   4.236  2.1437  0.8148  1.2649
   69OSM   H18U 5795   1.981   0.203   4.306 -0.5310  1.6668 -0.0351
   69OSM    C1F 5796   1.178   0.256   5.843 -0.1376 -0.7463 -0.2606
   69OSM     OF 5797   1.203   0.366   5.893  0.2650 -0.2184  0.1312
   69OSM    C2F 5798   1.051   0.212   5.779 -0.5016  0.4667  0.2531
   69OSM    H2F 5799   0.971   0.236   5.853 -0.2493  1.1459  0.3103
   69OSM    H2G 5800   1.049   0.102   5.762 -0.1333  0.5220 -0.1452
   69OSM    C3F 5801   1.016   0.283   5.648 -0.0948  0.0500  0.2646
   69OSM    H3F 5802   1.015   0.394   5.651  3.4102  0.2407 -0.9927
   69OSM    H3G 5803   0.911   0.252   5.630 -0.1579 -1.1461  2.4781
   69OSM    C4F 5804   1.101   0.237   5.529 -0.1504 -0.0516 -1.0636
   69OSM    H4F 5805   1.110   0.126   5.527  0.8185  0.0237 -1.6389
   69OSM    H4G 5806   1.205   0.276   5.541  0.3483 -1.0776 -1.8498
   69OSM    C5F 5807   1.032   0.276   5.393 -0.4272  0.7467  0.1781
   69OSM    H5F 5808   1.013   0.386   5.390 -0.5146  0.7208 -0.5584
   69OSM    H5G 5809   0.931   0.231   5.400 -1.1399  2.3019  0.4282
   69OSM    C6F 5810   1.096   0.231   5.263 -1.7061  0.0408 -0.8483
   69OSM    H6F 5811   1.020   0.221   5.182 -2.2574 -1.2527 -0.1893
   69OSM    H6G 5812   1.129   0.127   5.282  0.8843  0.8567 -0.4859
   69OSM    C7F 5813   1.223   0.305   5.219  0.1882 -0.1396 -0.0021
   69OSM    H7F 5814   1.299   0.303   5.300 -0.4627 -1.8940  0.6252
   69OSM    H7G 5815   1.202   0.409   5.187 -0.8617 -0.3269  0.0328
   69OSM    C8F 5816   1.292   0.229   5.106  0.4012 -0.3554  1.0097
   69OSM    H8F 5817   1.329   0.132   5.146  2.1730  0.0333  0.3904
   69OSM    H8G 5818   1.386   0.281   5.078 -0.9551  2.9735  2.1890
   69OSM    C9F 5819   1.212   0.200   4.977 -0.1318 -1.0100  0.3099
   69OSM    H9F 5820   1.113   0.157   4.995 -0.3267 -0.9189 -0.5444
   69OSM   C10F 5821   1.239   0.247   4.852 -0.2087 -0.4145 -0.3147
   69OSM   H10F 5822   1.161   0.257   4.776  0.1506  2.1828 -0.4457
   69OSM   C11F 5823   1.367   0.317   4.800  0.6564  0.6762 -1.0132
   69OSM   H11F 5824   1.449   0.242   4.797  1.1127  1.1396 -0.4710
   69OSM   H11G 5825   1.395   0.397   4.873 -3.1834  0.1350  1.3306
   69OSM   C12F 5826   1.354   0.388   4.658 -0.5456  0.5435  0.2800
   69OSM   H12F 5827   1.283   0.471   4.680 -0.2283  0.4623  1.7449
   69OSM   H12G 5828   1.312   0.305   4.597 -0.0707 -1.3700  2.3986
   69OSM   C13F 5829   1.492   0.425   4.600 -0.8895 -0.0144  0.0724
   69OSM   H13F 5830   1.551   0.331   4.606  0.8970  1.0661  0.1417
   69OSM   H13G 5831   1.548   0.503   4.656 -0.5510  0.2754 -0.6583
   69OSM   C14F 5832   1.492   0.459   4.446 -0.3787  0.0908 -0.0885
   69OSM   H14F 5833   1.427   0.393   4.386  0.5650 -0.8308 -0.1275
   69OSM   H14G 5834   1.598   0.442   4.415 -0.5187 -0.5392 -0.2319
   69OSM   C15F 5835   1.464   0.605   4.422  0.5424 -0.0127  0.0100
   69OSM   H15F 5836   1.535   0.661   4.486 -0.2648  0.5763  0.4059
   69OSM   H15G 5837   1.361   0.622   4.461  1.3196  1.2845  1.6218
   69OSM   C16F 5838   1.483   0.639   4.280  0.0276 -0.7928  0.4992
   69OSM   H16F 5839   1.418   0.569   4.223  0.4709 -0.4215 -0.4955
   69OSM   H16G 5840   1.587   0.611   4.251  0.2292 -0.5458  0.9779
   69OSM   C17F 5841   1.473   0.790   4.240 -0.1984 -0.6733  1.1403
   69OSM   H17F 5842   1.373   0.820   4.277  0.3549 -0.9370  2.9663
   69OSM   H17G 5843   1.477   0.786   4.129 -0.6926  2.8329  0.9037
   69OSM   C18F 5844   1.590   0.878   4.297 -0.7253  0.3506  0.3674
   69OSM   H18F 5845   1.581   0.981   4.256 -1.4604 -0.0346 -0.4764
   69OSM   H18G 5846   1.690   0.834   4.276 -1.2224 -1.8862  2.3373
   69OSM   H18H 5847   1.584   0.879   4.407 -2.1593  0.2591  0.3050
   70OSM      N 5848   7.018   1.771   6.791  0.0679 -0.4936 -0.1916
   70OSM    C15 5849   6.883   1.838   6.759 -0.2464  0.4882  0.3303
   70OSM   H15A 5850   6.880   1.942   6.789 -1.1652  0.3799  0.6548
   70OSM   H15B 5851   6.799   1.787   6.805  1.5327 -0.1926  3.0588
   70OSM   H15C 5852   6.851   1.838   6.656 -0.6005 -0.3567  0.4367
   70OSM    C14 5853   7.036   1.788   6.946  1.2587 -0.1573 -0.4966
   70OSM   H14A 5854   7.032   1.890   6.982  0.2456 -0.6892  0.9368
   70OSM   H14B 5855   7.118   1.725   6.976  0.0110 -3.0106 -2.6418
   70OSM   H14C 5856   6.944   1.762   6.997  0.0961  1.9920 -1.3600
   70OSM    C13 5857   7.016   1.634   6.752 -0.1157  0.3184  0.2861
   70OSM   H13A 5858   6.930   1.579   6.786  0.0590 -1.5764 -2.0320
   70OSM   H13B 5859   7.103   1.583   6.792  2.6886  3.2571 -1.5500
   70OSM   H13C 5860   7.028   1.635   6.645 -0.9179  1.0716  0.1977
   70OSM    C12 5861   7.130   1.844   6.726 -0.4526  0.0141 -0.2261
   70OSM   H12A 5862   7.223   1.798   6.756  0.1927  0.0237 -2.0727
   70OSM   H12B 5863   7.130   1.944   6.768 -3.0931 -0.3812  0.8980
   70OSM    C11 5864   7.125   1.850   6.571  0.4052 -0.5907  0.6366
   70OSM   H11A 5865   7.209   1.915   6.540  0.3795 -0.6793  0.3795
   70OSM   H11B 5866   7.037   1.906   6.532  0.5093 -0.8269  0.0533
   70OSM      P 5867   7.071   1.681   6.382  0.0376  0.1192  0.1270
   70OSM    O13 5868   7.132   1.565   6.316  0.0469  0.5840 -0.1549
   70OSM    O14 5869   6.931   1.665   6.428  0.6210 -1.1962 -0.1666
   70OSM    O11 5870   7.085   1.805   6.289  0.2665  0.4429 -0.2312
   70OSM    O12 5871   7.148   1.725   6.512  0.2562 -0.1065  0.4094
   70OSM    C1S 5872   7.214   1.848   6.241 -0.4005  0.3017  0.0935
   70OSM    H1S 5873   7.282   1.765   6.212 -0.0375  0.0817  1.5078
   70OSM    H1T 5874   7.270   1.895   6.324  1.0569 -1.6582  0.2911
   70OSM     NF 5875   7.327   2.005   6.086  0.4860 -0.6785  0.1315
   70OSM    HNF 5876   7.333   2.097   6.123 -1.2532 -2.1320  4.7056
   70OSM    C2S 5877   7.200   1.941   6.116 -0.4989 -0.2852 -0.6872
   70OSM    H2S 5878   7.163   1.878   6.033 -1.1650 -3.1698  1.6237
   70OSM    C3S 5879   7.101   2.055   6.144  0.3807 -0.0442 -0.4922
   70OSM    H3S 5880   7.141   2.119   6.225 -1.3783  0.7741 -0.2410
   70OSM     O3 5881   6.971   2.025   6.181 -0.1806 -0.2964 -0.2535
   70OSM    HO3 5882   6.972   1.929   6.184  1.8583 -0.3387 -0.8918
   70OSM    C4S 5883   7.075   2.138   6.022  0.2442  0.4643 -0.0464
   70OSM    H4S 5884   7.018   2.093   5.939  0.2527 -0.0846  0.2420
   70OSM    C5S 5885   7.103   2.272   6.018 -1.1440 -0.3494 -0.3313
   70OSM    H5S 5886   7.161   2.315   6.101  1.0219 -2.2167 -0.7726
   70OSM    C6S 5887   7.072   2.375   5.910 -0.0685  0.0569  0.2005
   70OSM    H6S 5888   7.153   2.450   5.894 -0.5489  0.5219 -0.0484
   70OSM    H6T 5889   6.984   2.428   5.952 -0.5021 -1.0008  0.6565
   70OSM    C7S 5890   7.019   2.308   5.780  0.0153 -0.7578  0.2154
   70OSM    H7S 5891   6.946   2.224   5.788  0.2213 -1.0761 -0.9190
   70OSM    H7T 5892   7.102   2.272   5.715 -0.5615 -0.6045 -0.6259
   70OSM    C8S 5893   6.937   2.407   5.691 -0.6769  0.1912 -0.1811
   70OSM    H8S 5894   7.011   2.488   5.675  0.9289 -1.0154  0.8357
   70OSM    H8T 5895   6.847   2.437   5.748  0.2287  1.7226  0.5193
   70OSM    C9S 5896   6.899   2.355   5.558  0.0170  1.2947 -0.0906
   70OSM    H9S 5897   6.821   2.275   5.562 -2.0205  3.0948 -1.5641
   70OSM    H9T 5898   6.978   2.305   5.497 -2.4610 -0.4736 -2.0978
   70OSM   C10S 5899   6.839   2.467   5.466  0.3006 -0.8834  0.0353
   70OSM   H10S 5900   6.920   2.543   5.457  0.2843 -0.3013  3.3847
   70OSM   H10T 5901   6.753   2.519   5.516 -0.0988 -2.0969  0.6549
   70OSM   C11S 5902   6.812   2.417   5.322  0.2824 -0.7966  0.1846
   70OSM   H11S 5903   6.705   2.390   5.316 -0.1825  1.2821 -3.4415
   70OSM   H11T 5904   6.878   2.337   5.284  1.4290  1.3658 -2.7055
   70OSM   C12S 5905   6.843   2.529   5.217 -0.4203  0.3462 -0.3133
   70OSM   H12S 5906   6.951   2.551   5.216  0.3738 -2.7493  1.6696
   70OSM   H12T 5907   6.784   2.617   5.251 -0.6031  0.0571  0.1419
   70OSM   C13S 5908   6.798   2.490   5.078  0.1696  0.0595  0.0777
   70OSM   H13S 5909   6.690   2.470   5.068  0.2789 -0.0450 -1.1486
   70OSM   H13T 5910   6.848   2.395   5.049  0.8296  0.6422 -0.7436
   70OSM   C14S 5911   6.829   2.602   4.984 -0.0166  0.0568  0.4284
   70OSM   H14S 5912   6.858   2.570   4.881 -1.1665 -1.1049  0.4260
   70OSM   H14T 5913   6.912   2.661   5.026 -1.7310  2.0703  1.1890
   70OSM   C15S 5914   6.714   2.705   4.972 -0.2417 -0.5067 -0.1138
   70OSM   H15S 5915   6.694   2.759   5.067 -0.6156  0.7815 -0.9033
   70OSM   H15T 5916   6.612   2.665   4.952 -0.3206 -0.6813  0.6046
   70OSM   C16S 5917   6.758   2.798   4.859  0.8278  0.6114 -0.0034
   70OSM   H16S 5918   6.742   2.744   4.763 -0.2702 -0.6837  0.8813
   70OSM   H16T 5919   6.863   2.835   4.853  2.5863 -3.7371  0.1814
   70OSM   C17S 5920   6.668   2.924   4.860  0.0040 -0.2200 -0.3445
   70OSM   H17S 5921   6.688   2.979   4.954 -3.5857 -1.3075  1.2359
   70OSM   H17T 5922   6.561   2.897   4.876 -0.2945  0.8762 -0.3889
   70OSM   C18S 5923   6.674   3.012   4.739 -0.0388  0.2606  0.4574
   70OSM   H18S 5924   6.769   3.067   4.723 -1.5733  2.7921 -0.6731
   70OSM   H18T 5925   6.597   3.092   4.747 -1.0203 -0.6407  0.2447
   70OSM   H18U 5926   6.646   2.959   4.645 -0.3942  1.6807 -0.2716
   70OSM    C1F 5927   7.440   1.945   6.047 -0.5147  0.2950  0.9093
   70OSM     OF 5928   7.452   1.823   6.045 -0.9847  0.3890 -0.0426
   70OSM    C2F 5929   7.554   2.037   6.006  0.5569  0.3360 -0.3400
   70OSM    H2F 5930   7.637   2.000   6.070 -0.4653  2.1384  2.2081
   70OSM    H2G 5931   7.531   2.145   6.018 -0.6274 -0.0010  0.6579
   70OSM    C3F 5932   7.595   2.021   5.859  0.9722  0.4788 -0.8513
   70OSM    H3F 5933   7.643   1.921   5.848 -0.7466 -0.4368 -0.4050
   70OSM    H3G 5934   7.672   2.096   5.832  1.6037 -0.9093 -3.1640
   70OSM    C4F 5935   7.480   2.031   5.760  0.4623 -0.1327  0.2843
   70OSM    H4F 5936   7.431   2.127   5.789  1.7996  0.5945  0.2588
   70OSM    H4G 5937   7.413   1.944   5.770 -1.5552  1.2798 -0.2844
   70OSM    C5F 5938   7.520   2.040   5.616 -0.1775  0.0746 -0.1926
   70OSM    H5F 5939   7.568   1.945   5.584 -0.9052  0.0581 -1.2958
   70OSM    H5G 5940   7.590   2.125   5.598  1.2158 -1.2863 -1.5301
   70OSM    C6F 5941   7.403   2.056   5.516 -0.2217 -1.2999  0.1145
   70OSM    H6F 5942   7.333   2.139   5.541  1.5409  0.2689  0.0525
   70OSM    H6G 5943   7.350   1.959   5.525  0.4527 -1.7630 -0.8093
   70OSM    C7F 5944   7.465   2.065   5.370  0.3688  0.4644  0.4233
   70OSM    H7F 5945   7.514   1.966   5.362 -0.5172 -0.0957  1.5335
   70OSM    H7G 5946   7.541   2.145   5.368  1.9568 -1.0027 -0.3570
   70OSM    C8F 5947   7.347   2.088   5.271  0.7294 -0.1793 -0.4463
   70OSM    H8F 5948   7.316   2.190   5.299  0.1074 -1.1404  2.7769
   70OSM    H8G 5949   7.263   2.018   5.295 -0.9211  1.6073 -0.7627
   70OSM    C9F 5950   7.366   2.060   5.126 -0.1331 -0.3373  0.1218
   70OSM    H9F 5951   7.419   1.968   5.097 -1.1361 -1.7448  2.4848
   70OSM   C10F 5952   7.328   2.145   5.031 -0.1678 -0.3126 -0.5327
   70OSM   H10F 5953   7.330   2.103   4.929  1.2567 -1.8563  0.0870
   70OSM   C11F 5954   7.266   2.278   5.041 -0.3179 -0.0158 -0.1004
   70OSM   H11F 5955   7.316   2.348   4.971  0.9039  1.1066  1.8030
   70OSM   H11G 5956   7.274   2.313   5.147  2.3053  1.0327 -0.5734
   70OSM   C12F 5957   7.129   2.265   4.988  0.8358 -0.5036 -0.2084
   70OSM   H12F 5958   7.089   2.367   5.003 -0.7417 -1.4141  2.2771
   70OSM   H12G 5959   7.056   2.195   5.034 -0.2257  0.6943 -0.0165
   70OSM   C13F 5960   7.128   2.233   4.836  0.4806 -0.3237 -0.2764
   70OSM   H13F 5961   7.149   2.125   4.820 -0.6604 -0.7006  0.6019
   70OSM   H13G 5962   7.203   2.296   4.785 -0.8238  1.2173 -0.3653
   70OSM   C14F 5963   6.989   2.259   4.772 -0.0404  0.3773  0.6422
   70OSM   H14F 5964   6.962   2.364   4.799 -4.5622  0.7987 -3.8861
   70OSM   H14G 5965   6.908   2.195   4.812 -0.5156  1.2560  1.1327
   70OSM   C15F 5966   6.994   2.265   4.622 -0.7805 -1.4187 -0.6182
   70OSM   H15F 5967   7.095   2.291   4.584 -0.0740 -0.3263  1.7868
   70OSM   H15G 5968   6.914   2.335   4.590 -0.4122 -0.4631  0.4788
   70OSM   C16F 5969   6.949   2.133   4.563  0.0545  0.3791  0.2706
   70OSM   H16F 5970   6.841   2.133   4.588  0.3944  0.2050  1.9007
   70OSM   H16G 5971   7.004   2.052   4.616  1.5920  0.7815 -0.6560
   70OSM   C17F 5972   6.972   2.113   4.409 -0.5449 -0.2103  0.4251
   70OSM   H17F 5973   6.942   2.013   4.372  0.1348 -0.3100  0.1307
   70OSM   H17G 5974   7.083   2.123   4.398 -0.5619  1.1002  1.1658
   70OSM   C18F 5975   6.903   2.218   4.324  0.0418  0.5597  0.7414
   70OSM   H18F 5976   6.792   2.212   4.326  0.1094 -2.2726  0.1156
   70OSM   H18G 5977   6.924   2.209   4.215  0.3681  1.2948  0.7376
   70OSM   H18H 5978   6.950   2.313   4.358 -0.2103 -0.4523  4.2710
   71OSM      N 5979   6.161   3.608   6.655 -0.8227  0.8304 -0.1354
   71OSM    C15 5980   6.050   3.540   6.735 -0.3436  0.0396 -0.0148
   71OSM   H15A 5981   5.954   3.550   6.688 -0.3175  0.9155  0.1099
   71OSM   H15B 5982   6.054   3.591   6.830  1.4885 -0.3520  0.1699
   71OSM   H15C 5983   6.070   3.440   6.771 -1.5819 -0.1928  0.0662
   71OSM    C14 5984   6.141   3.756   6.672 -0.2785  0.1807  0.0110
   71OSM   H14A 5985   6.037   3.780   6.684 -0.9467 -1.9358 -1.0568
   71OSM   H14B 5986   6.190   3.808   6.591  0.5776  0.0651  0.4367
   71OSM   H14C 5987   6.169   3.795   6.769  0.0866  0.9337 -0.3878
   71OSM    C13 5988   6.292   3.579   6.719 -0.8055  0.0622  0.1445
   71OSM   H13A 5989   6.323   3.475   6.726  2.1533  0.8869  0.6746
   71OSM   H13B 5990   6.302   3.612   6.822 -3.4619 -2.5991  1.4185
   71OSM   H13C 5991   6.365   3.632   6.660 -0.7891 -0.7445 -0.5799
   71OSM    C12 5992   6.170   3.572   6.503  0.0295  0.5367  0.2384
   71OSM   H12A 5993   6.083   3.608   6.451 -0.5285 -0.9205  0.1189
   71OSM   H12B 5994   6.164   3.464   6.501 -1.5542  0.6236 -0.5022
   71OSM    C11 5995   6.290   3.622   6.422 -0.0130  0.1807 -0.7891
   71OSM   H11A 5996   6.290   3.592   6.315  0.8769 -0.6320 -0.5766
   71OSM   H11B 5997   6.378   3.573   6.470 -0.2147  2.4247  2.1074
   71OSM      P 5998   6.448   3.824   6.432  0.0227 -0.0679 -0.3022
   71OSM    O13 5999   6.428   3.971   6.451 -0.2305  0.3697  0.4984
   71OSM    O14 6000   6.518   3.754   6.541 -0.5587  0.2574 -0.0015
   71OSM    O11 6001   6.523   3.795   6.296 -0.2528 -0.1677  0.2499
   71OSM    O12 6002   6.302   3.762   6.429  0.0275  0.0050  0.5730
   71OSM    C1S 6003   6.450   3.799   6.168  0.4699 -0.4653 -1.2436
   71OSM    H1S 6004   6.421   3.905   6.150 -0.8807 -0.3299  1.3213
   71OSM    H1T 6005   6.350   3.752   6.182  1.1760 -1.9346 -0.9159
   71OSM     NF 6006   6.474   3.780   5.914  0.0351 -0.8053 -0.1487
   71OSM    HNF 6007   6.435   3.709   5.855 -1.0482 -0.4824  0.1609
   71OSM    C2S 6008   6.531   3.741   6.045 -0.1189 -0.4707  0.9047
   71OSM    H2S 6009   6.630   3.790   6.050  0.4586 -1.4805 -0.0415
   71OSM    C3S 6010   6.540   3.589   6.073 -0.7108  0.2033 -0.8459
   71OSM    H3S 6011   6.436   3.548   6.080  0.0561 -2.2408 -2.5496
   71OSM     O3 6012   6.595   3.553   6.201  0.4353 -0.2524 -0.2082
   71OSM    HO3 6013   6.592   3.637   6.248 -0.0741  1.0194 -2.3577
   71OSM    C4S 6014   6.621   3.516   5.971 -0.2137 -0.4883  0.5373
   71OSM    H4S 6015   6.729   3.534   5.964 -0.6500  1.7231 -3.9132
   71OSM    C5S 6016   6.571   3.425   5.883  0.3392 -0.3784 -0.0056
   71OSM    H5S 6017   6.465   3.393   5.886  0.6121 -1.3888 -0.5588
   71OSM    C6S 6018   6.660   3.352   5.790  0.6103  0.2797 -0.4465
   71OSM    H6S 6019   6.602   3.285   5.723 -0.0828  0.9075 -0.4820
   71OSM    H6T 6020   6.720   3.284   5.854 -0.0357 -0.0371 -0.1706
   71OSM    C7S 6021   6.755   3.433   5.707 -0.5109 -0.4987  0.5588
   71OSM    H7S 6022   6.818   3.502   5.767 -1.0889  2.1573 -1.7011
   71OSM    H7T 6023   6.698   3.498   5.637 -1.9710 -0.5976  1.6059
   71OSM    C8S 6024   6.849   3.332   5.638  0.4513 -0.5305  0.2171
   71OSM    H8S 6025   6.779   3.252   5.603 -1.0472  1.0303 -0.4963
   71OSM    H8T 6026   6.927   3.293   5.707  0.9456 -0.3756 -0.2449
   71OSM    C9S 6027   6.917   3.396   5.517  0.1967 -0.7930 -0.0178
   71OSM    H9S 6028   7.002   3.328   5.496 -0.1754 -2.0507  2.2115
   71OSM    H9T 6029   6.955   3.500   5.531  0.0915 -0.1103 -3.8901
   71OSM   C10S 6030   6.833   3.393   5.388  0.5366 -0.1251  0.5404
   71OSM   H10S 6031   6.748   3.463   5.399 -0.9026 -1.7296 -0.0743
   71OSM   H10T 6032   6.792   3.290   5.386 -2.9485  1.0303  3.0361
   71OSM   C11S 6033   6.912   3.424   5.256 -0.3818  0.4382 -0.8716
   71OSM   H11S 6034   6.857   3.376   5.173 -0.9448 -0.4972  0.0206
   71OSM   H11T 6035   7.017   3.389   5.251 -0.0287  1.0379  1.1322
   71OSM   C12S 6036   6.907   3.578   5.223 -0.1070  0.5003 -0.3146
   71OSM   H12S 6037   6.945   3.629   5.313  1.1064 -1.0643  0.1018
   71OSM   H12T 6038   6.798   3.601   5.218 -0.1887  0.2781  0.3568
   71OSM   C13S 6039   6.978   3.631   5.101  0.1377 -0.0437 -0.5364
   71OSM   H13S 6040   6.937   3.588   5.007 -0.9205  0.5237 -0.3507
   71OSM   H13T 6041   7.081   3.590   5.105  0.5262  0.9737  0.2774
   71OSM   C14S 6042   6.989   3.779   5.098  0.1363  0.1168 -0.0038
   71OSM   H14S 6043   7.030   3.808   5.197 -0.6471 -1.1559  0.7101
   71OSM   H14T 6044   6.896   3.839   5.092  0.5908  0.9787  1.2159
   71OSM   C15S 6045   7.071   3.828   4.976  0.3911 -0.5132  0.4619
   71OSM   H15S 6046   7.047   3.935   4.961  0.9015 -0.2742  1.2689
   71OSM   H15T 6047   7.055   3.774   4.880 -1.8275  2.9704 -1.3495
   71OSM   C16S 6048   7.220   3.828   5.001 -0.0186 -0.3698 -0.8376
   71OSM   H16S 6049   7.255   3.724   4.985 -0.6241 -0.8370  0.7451
   71OSM   H16T 6050   7.241   3.872   5.101 -1.0195  0.7206 -1.0797
   71OSM   C17S 6051   7.302   3.921   4.922 -0.1745 -0.1634  0.3920
   71OSM   H17S 6052   7.304   3.904   4.812  3.5598 -0.8265  0.4260
   71OSM   H17T 6053   7.407   3.908   4.957  0.1458  1.2435  0.0070
   71OSM   C18S 6054   7.266   4.074   4.944  0.0673 -0.4359 -0.9675
   71OSM   H18S 6055   7.236   4.087   5.051  1.9729 -2.0950 -0.1687
   71OSM   H18T 6056   7.178   4.113   4.889 -0.0921  2.8964  1.3665
   71OSM   H18U 6057   7.354   4.136   4.919 -1.2818  1.0190 -2.3256
   71OSM    C1F 6058   6.475   3.904   5.870 -0.0007 -0.4007  0.1406
   71OSM     OF 6059   6.513   3.998   5.936  0.6101 -0.2136  0.1251
   71OSM    C2F 6060   6.421   3.914   5.733 -0.5065  0.2968  0.3010
   71OSM    H2F 6061   6.321   3.866   5.735 -0.6239  0.5621  1.4775
   71OSM    H2G 6062   6.495   3.858   5.672  1.7881  1.2856  2.0429
   71OSM    C3F 6063   6.418   4.054   5.674 -0.7509 -0.2616 -0.4114
   71OSM    H3F 6064   6.520   4.094   5.693 -0.3418 -2.1002  1.6319
   71OSM    H3G 6065   6.348   4.116   5.733 -0.7300  0.9091 -1.5665
   71OSM    C4F 6066   6.385   4.053   5.522 -0.1501 -0.2367 -0.2437
   71OSM    H4F 6067   6.345   3.951   5.505 -1.5390  0.4204 -1.1053
   71OSM    H4G 6068   6.469   4.062   5.450 -0.7535  2.1787 -0.7535
   71OSM    C5F 6069   6.281   4.163   5.487 -0.4344  0.7503 -0.7142
   71OSM    H5F 6070   6.328   4.264   5.491 -1.6150  1.2826  1.8633
   71OSM    H5G 6071   6.195   4.150   5.556  0.3620 -1.4648 -0.0710
   71OSM    C6F 6072   6.227   4.133   5.345 -0.6284  0.2227  0.2771
   71OSM    H6F 6073   6.167   4.041   5.336  0.5923 -0.4280 -1.7926
   71OSM    H6G 6074   6.300   4.122   5.262 -1.0018  0.9559 -0.1606
   71OSM    C7F 6075   6.134   4.247   5.297  0.1128  0.1984 -0.0860
   71OSM    H7F 6076   6.187   4.344   5.303  0.5670  0.0006 -0.7759
   71OSM    H7G 6077   6.042   4.259   5.358  0.3185 -0.7477  0.4297
   71OSM    C8F 6078   6.085   4.217   5.151 -0.1106 -0.7891  0.4043
   71OSM    H8F 6079   6.010   4.296   5.130 -0.9993 -1.9053 -0.7457
   71OSM    H8G 6080   6.048   4.112   5.147  1.4382 -1.3412 -0.9647
   71OSM    C9F 6081   6.192   4.232   5.043 -0.2934 -0.0487  0.4047
   71OSM    H9F 6082   6.279   4.292   5.074 -0.3407 -0.1870  0.8112
   71OSM   C10F 6083   6.198   4.163   4.921 -0.2730  0.0023 -0.1227
   71OSM   H10F 6084   6.289   4.183   4.861  0.5558  0.1435  1.1481
   71OSM   C11F 6085   6.096   4.075   4.858  0.6226  0.7795  0.8329
   71OSM   H11F 6086   6.007   4.047   4.918 -3.0500  1.0958 -3.8257
   71OSM   H11G 6087   6.154   3.985   4.828 -0.1510  0.8562 -1.0638
   71OSM   C12F 6088   6.024   4.122   4.726 -0.0973 -0.7137 -0.7005
   71OSM   H12F 6089   5.942   4.054   4.693 -0.5373 -0.4933 -0.0741
   71OSM   H12G 6090   6.096   4.123   4.641 -0.4438 -1.2960 -1.0103
   71OSM   C13F 6091   5.953   4.255   4.759  0.6955 -0.1960  0.3592
   71OSM   H13F 6092   6.026   4.339   4.772 -1.0031  1.1219  1.8997
   71OSM   H13G 6093   5.899   4.253   4.856 -0.8988  1.7454 -0.4335
   71OSM   C14F 6094   5.848   4.294   4.647  0.4521 -0.7545 -0.3976
   71OSM   H14F 6095   5.769   4.217   4.660 -0.0443 -0.3865 -1.1403
   71OSM   H14G 6096   5.905   4.289   4.552  0.2663 -0.9065 -0.5030
   71OSM   C15F 6097   5.771   4.432   4.660 -0.0179 -0.2629  0.6246
   71OSM   H15F 6098   5.835   4.491   4.728 -1.2739 -0.5784  2.1399
   71OSM   H15G 6099   5.671   4.419   4.707  0.3315 -1.2309  1.1338
   71OSM   C16F 6100   5.756   4.496   4.520 -1.2075  0.1205  0.1259
   71OSM   H16F 6101   5.708   4.436   4.440  1.2486  0.0098 -1.3852
   71OSM   H16G 6102   5.852   4.532   4.477 -0.2537 -1.4648  0.8385
   71OSM   C17F 6103   5.670   4.616   4.525  0.8076 -0.3681 -1.0373
   71OSM   H17F 6104   5.712   4.693   4.594  0.5500 -0.0106 -1.2770
   71OSM   H17G 6105   5.575   4.574   4.564  0.8634  0.9253  0.6090
   71OSM   C18F 6106   5.640   4.680   4.389 -0.7119  0.0810  0.9849
   71OSM   H18F 6107   5.552   4.747   4.390 -0.4182  0.5230 -0.7332
   71OSM   H18G 6108   5.625   4.592   4.323  1.7487 -0.5056  1.1126
   71OSM   H18H 6109   5.724   4.741   4.350 -1.9122  1.1069 -0.0824
   72OSM      N 6110   0.131   3.464   6.527 -0.2939  0.0697 -0.3306
   72OSM    C15 6111   0.002   3.519   6.568 -0.3150 -0.4555  0.4785
   72OSM   H15A 6112  -0.012   3.499   6.673 -0.9142  3.7580  1.3560
   72OSM   H15B 6113  -0.076   3.469   6.512  0.3208 -0.6777 -0.2450
   72OSM   H15C 6114   0.004   3.623   6.541  0.4015 -0.4230  0.6447
   72OSM    C14 6115   0.147   3.469   6.383  0.2481 -0.2949  0.1009
   72OSM   H14A 6116   0.079   3.407   6.327 -0.6372  0.2309  0.5702
   72OSM   H14B 6117   0.249   3.453   6.351  0.4863  0.8070  0.2575
   72OSM   H14C 6118   0.132   3.565   6.337 -0.4666 -1.5359 -2.4183
   72OSM    C13 6119   0.239   3.552   6.584 -0.2094  0.4293  0.5639
   72OSM   H13A 6120   0.339   3.517   6.563 -0.7482 -0.0892 -1.3277
   72OSM   H13B 6121   0.239   3.549   6.692 -0.3954 -1.5300  0.5562
   72OSM   H13C 6122   0.224   3.653   6.551  0.3655 -0.2550 -1.9990
   72OSM    C12 6123   0.138   3.315   6.572  0.2425  0.1647  0.5342
   72OSM   H12A 6124   0.147   3.304   6.679  0.2004 -0.8457  0.4397
   72OSM   H12B 6125   0.229   3.278   6.529  0.8775  3.3435 -1.1520
   72OSM    C11 6126   0.024   3.229   6.520  0.2342 -0.1698  0.0073
   72OSM   H11A 6127   0.027   3.223   6.409  2.2661 -3.7961  0.0984
   72OSM   H11B 6128  -0.071   3.254   6.571  0.0696 -2.9340  1.2591
   72OSM      P 6129  -0.047   2.982   6.533 -0.2995 -0.2500  0.1868
   72OSM    O13 6130  -0.006   2.862   6.611 -0.6375  0.0489  0.0044
   72OSM    O14 6131  -0.183   3.029   6.563 -0.0196  0.2859  1.0304
   72OSM    O11 6132  -0.023   2.956   6.382 -0.0954  0.0033 -0.1140
   72OSM    O12 6133   0.056   3.099   6.567 -0.1397  0.1627 -0.5544
   72OSM    C1S 6134   0.117   2.939   6.332  0.1089 -0.3151 -0.2957
   72OSM    H1S 6135   0.162   2.841   6.361  0.7766  0.6336  2.1309
   72OSM    H1T 6136   0.190   3.013   6.372  0.2365  0.4749 -1.9113
   72OSM     NF 6137   0.263   2.931   6.137  0.1900 -0.3210 -0.0447
   72OSM    HNF 6138   0.317   3.012   6.113  0.5572 -0.7723 -0.7626
   72OSM    C2S 6139   0.128   2.950   6.176  0.0930  0.0385  0.5620
   72OSM    H2S 6140   0.060   2.873   6.135 -0.4368  1.2907 -0.9981
   72OSM    C3S 6141   0.074   3.086   6.121  0.8903 -0.5649  0.5945
   72OSM    H3S 6142   0.131   3.178   6.148  1.2941 -0.1670 -1.4320
   72OSM     O3 6143  -0.062   3.118   6.159 -0.0244  0.1240 -0.3261
   72OSM    HO3 6144  -0.069   3.065   6.238 -0.7109  0.7509  0.0447
   72OSM    C4S 6145   0.068   3.079   5.968  0.2540 -0.7708  0.1358
   72OSM    H4S 6146  -0.006   3.001   5.943 -1.0574 -0.5113  2.8106
   72OSM    C5S 6147   0.154   3.133   5.876 -0.0281  0.8524  0.1566
   72OSM    H5S 6148   0.250   3.176   5.908  0.7941  0.3620 -1.5412
   72OSM    C6S 6149   0.139   3.112   5.723  0.0101 -0.2734  0.0428
   72OSM    H6S 6150   0.098   3.209   5.689  2.3349  0.1857 -1.7146
   72OSM    H6T 6151   0.060   3.042   5.690  0.1395  0.2589 -1.4657
   72OSM    C7S 6152   0.271   3.091   5.644 -0.7754 -0.7239  0.1114
   72OSM    H7S 6153   0.316   2.995   5.676  2.7605  0.4152 -0.9816
   72OSM    H7T 6154   0.338   3.174   5.676 -1.1654 -0.6474  0.7436
   72OSM    C8S 6155   0.239   3.095   5.497  0.0957  0.4089  0.0042
   72OSM    H8S 6156   0.182   3.187   5.473  0.7447  0.7397 -0.3127
   72OSM    H8T 6157   0.178   3.004   5.476 -1.9807  1.2298  2.1678
   72OSM    C9S 6158   0.366   3.094   5.410 -0.5204 -0.4290 -0.1125
   72OSM    H9S 6159   0.408   2.993   5.427 -1.1201 -0.5988  0.3893
   72OSM    H9T 6160   0.434   3.176   5.442 -0.6700  0.1423 -1.2129
   72OSM   C10S 6161   0.340   3.101   5.256 -0.0041  0.1261  0.0659
   72OSM   H10S 6162   0.296   3.201   5.234  0.9193  0.5882  0.2629
   72OSM   H10T 6163   0.267   3.024   5.225  0.5360 -0.4048  0.1046
   72OSM   C11S 6164   0.456   3.097   5.162 -0.1038  0.0632  0.8598
   72OSM   H11S 6165   0.510   3.001   5.178 -1.4941 -0.9329 -0.2326
   72OSM   H11T 6166   0.528   3.178   5.189 -0.9245  0.2546  2.6617
   72OSM   C12S 6167   0.408   3.104   5.018  0.0058 -0.0800  0.2391
   72OSM   H12S 6168   0.375   3.202   4.980  1.4904  0.0713 -0.7448
   72OSM   H12T 6169   0.320   3.041   4.992 -0.4668  1.2059 -1.4652
   72OSM   C13S 6170   0.521   3.048   4.933 -0.0948  0.8691  0.1071
   72OSM   H13S 6171   0.554   2.954   4.982 -2.9613  0.0057  0.5548
   72OSM   H13T 6172   0.608   3.117   4.931  1.9156 -1.5381 -0.9274
   72OSM   C14S 6173   0.480   2.997   4.791  0.2131 -0.6735 -0.3020
   72OSM   H14S 6174   0.419   2.904   4.791 -1.1109  0.1633 -0.5475
   72OSM   H14T 6175   0.576   2.974   4.741 -0.8750 -0.1758 -2.7727
   72OSM   C15S 6176   0.416   3.102   4.694  0.5766 -0.2681 -0.6983
   72OSM   H15S 6177   0.476   3.196   4.694  0.3860 -0.1320  0.4981
   72OSM   H15T 6178   0.313   3.119   4.734  1.2547 -1.1944  1.5888
   72OSM   C16S 6179   0.408   3.038   4.561  0.2499 -0.3202  0.1536
   72OSM   H16S 6180   0.330   2.961   4.580 -3.2784  2.7950 -0.4659
   72OSM   H16T 6181   0.505   2.992   4.533 -1.0923 -1.1040 -3.7860
   72OSM   C17S 6182   0.364   3.122   4.441  0.0111  0.0600 -0.4150
   72OSM   H17S 6183   0.420   3.218   4.434 -0.1647  0.1641 -0.3912
   72OSM   H17T 6184   0.258   3.153   4.446  0.0655  0.1445  0.2341
   72OSM   C18S 6185   0.386   3.052   4.303  1.3886 -0.1235  0.0340
   72OSM   H18S 6186   0.357   3.126   4.225 -2.8198 -1.2238  0.3234
   72OSM   H18T 6187   0.319   2.963   4.306  1.2756 -0.0054  1.5425
   72OSM   H18U 6188   0.488   3.009   4.293  0.6516 -2.1362  0.7420
   72OSM    C1F 6189   0.302   2.803   6.119 -0.4326  0.2360 -0.0858
   72OSM     OF 6190   0.231   2.704   6.153 -0.2335 -0.2097 -0.0532
   72OSM    C2F 6191   0.438   2.781   6.069  0.4900 -0.4727 -0.0156
   72OSM    H2F 6192   0.510   2.755   6.149  0.5173  0.1507  0.1638
   72OSM    H2G 6193   0.476   2.875   6.024  0.9517 -0.5129  0.2857
   72OSM    C3F 6194   0.455   2.663   5.963  0.3441  0.0308 -0.3482
   72OSM    H3F 6195   0.421   2.568   6.007 -0.8686  0.0258 -1.2326
   72OSM    H3G 6196   0.563   2.652   5.938  0.0752  1.3166 -2.3653
   72OSM    C4F 6197   0.377   2.682   5.829 -0.2030  0.3914 -0.0697
   72OSM    H4F 6198   0.411   2.783   5.798  2.3131  0.2525  1.8830
   72OSM    H4G 6199   0.267   2.689   5.846 -1.1062 -1.6655 -3.9448
   72OSM    C5F 6200   0.427   2.579   5.727 -0.3492 -0.5419 -0.1139
   72OSM    H5F 6201   0.407   2.474   5.757  0.3784 -1.6452 -3.1550
   72OSM    H5G 6202   0.534   2.601   5.709 -0.7720 -0.5666 -3.0228
   72OSM    C6F 6203   0.362   2.605   5.584 -0.3611  0.2648 -0.4211
   72OSM    H6F 6204   0.406   2.697   5.542 -4.2150  1.1707 -3.0472
   72OSM    H6G 6205   0.253   2.618   5.604 -0.7162 -1.8942 -0.6685
   72OSM    C7F 6206   0.394   2.486   5.491  0.2816 -1.1654 -0.3183
   72OSM    H7F 6207   0.334   2.399   5.526  0.5364 -1.0106  0.5044
   72OSM    H7G 6208   0.500   2.459   5.506 -0.2072 -2.4289  1.0573
   72OSM    C8F 6209   0.372   2.512   5.344 -0.4343 -0.8884  0.0346
   72OSM    H8F 6210   0.265   2.523   5.316 -0.5624 -0.2653  0.7397
   72OSM    H8G 6211   0.416   2.432   5.282  0.6918 -1.2819  1.2981
   72OSM    C9F 6212   0.457   2.620   5.294 -0.5088 -0.5480 -0.2763
   72OSM    H9F 6213   0.552   2.639   5.346 -0.8056  1.0420 -0.2745
   72OSM   C10F 6214   0.419   2.712   5.203 -0.4747 -0.0784 -0.0935
   72OSM   H10F 6215   0.492   2.789   5.174 -1.1243  0.3470 -0.6364
   72OSM   C11F 6216   0.291   2.729   5.132  0.4842 -0.2497 -0.2317
   72OSM   H11F 6217   0.256   2.834   5.125  1.2483  0.0844  0.7361
   72OSM   H11G 6218   0.201   2.672   5.164  0.4135 -0.8444 -1.4378
   72OSM   C12F 6219   0.319   2.688   4.985  0.0880 -0.2420  0.5581
   72OSM   H12F 6220   0.363   2.586   4.977  1.8915  0.6599 -3.2648
   72OSM   H12G 6221   0.390   2.762   4.943 -1.0286  1.0309  0.8483
   72OSM   C13F 6222   0.197   2.702   4.900  0.1218 -0.4487 -0.2738
   72OSM   H13F 6223   0.161   2.807   4.897 -0.9467 -0.7214  1.6604
   72OSM   H13G 6224   0.116   2.638   4.940 -0.6898  2.0574  2.4554
   72OSM   C14F 6225   0.217   2.636   4.761 -0.2228  0.0517  0.2661
   72OSM   H14F 6226   0.242   2.529   4.776 -0.8114  0.1667  2.2556
   72OSM   H14G 6227   0.308   2.676   4.711 -0.0480 -1.0049 -0.2894
   72OSM   C15F 6228   0.097   2.634   4.668 -0.0496 -0.1652 -0.6442
   72OSM   H15F 6229   0.005   2.608   4.725  0.7515  0.5523  1.0825
   72OSM   H15G 6230   0.103   2.560   4.586 -0.4213 -1.7179  0.6718
   72OSM   C16F 6231   0.078   2.771   4.591 -0.2657 -0.2165  0.1787
   72OSM   H16F 6232   0.158   2.779   4.515 -1.9105  0.8659 -1.5471
   72OSM   H16G 6233   0.086   2.861   4.656 -0.2320  0.8295 -1.2304
   72OSM   C17F 6234  -0.046   2.787   4.507  0.2008 -0.5267 -0.3136
   72OSM   H17F 6235  -0.131   2.767   4.575 -0.3484 -0.9824 -1.1224
   72OSM   H17G 6236  -0.051   2.712   4.425  0.8874  1.6414 -2.4591
   72OSM   C18F 6237  -0.060   2.926   4.447 -0.4752  0.2246 -0.6275
   72OSM   H18F 6238  -0.073   2.992   4.536 -0.4546  0.5240 -0.8440
   72OSM   H18G 6239  -0.153   2.930   4.387 -0.4301  0.0306 -0.7112
   72OSM   H18H 6240   0.029   2.956   4.387 -1.0974  2.6090 -0.4792
   73OSM      N 6241   2.623   6.270   6.643 -0.4583  0.0341 -0.2768
   73OSM    C15 6242   2.520   6.383   6.645  0.5208 -0.1359 -0.1348
   73OSM   H15A 6243   2.555   6.473   6.598 -2.4781  0.2544 -1.8770
   73OSM   H15B 6244   2.483   6.407   6.744 -0.2223 -0.3990 -0.3388
   73OSM   H15C 6245   2.440   6.357   6.578  1.4477  0.4653 -1.5201
   73OSM    C14 6246   2.739   6.323   6.706 -0.2905 -0.1215 -0.6415
   73OSM   H14A 6247   2.788   6.398   6.645 -1.2520  1.5740  0.5794
   73OSM   H14B 6248   2.806   6.243   6.733 -0.8405  0.1338  1.6441
   73OSM   H14C 6249   2.712   6.378   6.795 -1.4638 -0.5869 -0.6986
   73OSM    C13 6250   2.572   6.165   6.731 -0.2606 -0.2899  0.2669
   73OSM   H13A 6251   2.475   6.127   6.701 -0.9876  2.7733 -1.7966
   73OSM   H13B 6252   2.549   6.195   6.832 -0.6752 -1.1240  0.4305
   73OSM   H13C 6253   2.636   6.079   6.734 -1.0913 -1.0611 -1.7690
   73OSM    C12 6254   2.643   6.212   6.504 -0.4781  0.9135  0.5665
   73OSM   H12A 6255   2.542   6.204   6.466 -1.0995 -0.8414  2.4557
   73OSM   H12B 6256   2.681   6.111   6.508 -0.5896  0.8251 -0.3894
   73OSM    C11 6257   2.715   6.300   6.400  0.5484 -0.1095 -0.2802
   73OSM   H11A 6258   2.713   6.235   6.310  4.0616 -1.6184  0.5232
   73OSM   H11B 6259   2.820   6.320   6.432 -0.2356  1.5084  1.4510
   73OSM      P 6260   2.507   6.405   6.279 -0.4498  0.2828 -0.2434
   73OSM    O13 6261   2.442   6.278   6.308  0.0993  0.3663  0.0160
   73OSM    O14 6262   2.427   6.527   6.293  0.5243 -0.5170  0.2425
   73OSM    O11 6263   2.570   6.394   6.138  0.2418 -0.3070 -0.6554
   73OSM    O12 6264   2.635   6.420   6.375  0.2419 -0.3488 -1.2488
   73OSM    C1S 6265   2.594   6.506   6.049 -0.1923 -0.1678  0.1479
   73OSM    H1S 6266   2.522   6.590   6.060  0.6286  0.4152  1.3213
   73OSM    H1T 6267   2.584   6.470   5.945  3.2781 -1.3271  0.0845
   73OSM     NF 6268   2.765   6.690   5.990 -0.3838  0.8203  0.3721
   73OSM    HNF 6269   2.837   6.685   5.921 -0.5870  0.2444  0.1982
   73OSM    C2S 6270   2.741   6.563   6.059 -0.7152  0.1423 -0.3595
   73OSM    H2S 6271   2.763   6.574   6.167 -0.3889  2.3643 -0.6052
   73OSM    C3S 6272   2.842   6.449   6.016  1.2111  0.2355  0.5774
   73OSM    H3S 6273   2.818   6.428   5.910  0.0047 -0.4806  0.9698
   73OSM     O3 6274   2.822   6.330   6.088  0.2931  0.7099 -0.5117
   73OSM    HO3 6275   2.730   6.342   6.112  0.4332  1.0907 -0.1568
   73OSM    C4S 6276   2.986   6.491   6.026  0.2865  0.1155 -0.2572
   73OSM    H4S 6277   3.016   6.538   5.931  1.4432  0.2259  0.1466
   73OSM    C5S 6278   3.062   6.488   6.137  0.3714  0.2472 -0.5868
   73OSM    H5S 6279   3.021   6.438   6.226  0.4758  2.5751  0.8380
   73OSM    C6S 6280   3.208   6.516   6.161  0.1853 -0.5484 -0.2385
   73OSM    H6S 6281   3.249   6.428   6.215  0.6330 -2.0423 -2.8481
   73OSM    H6T 6282   3.221   6.606   6.226  2.4815  0.5039 -2.0100
   73OSM    C7S 6283   3.299   6.540   6.037  0.3635 -0.0516 -0.5312
   73OSM    H7S 6284   3.392   6.577   6.084 -1.5163  0.1146  3.4667
   73OSM    H7T 6285   3.247   6.614   5.974  0.8626  0.3018 -0.5315
   73OSM    C8S 6286   3.344   6.423   5.954 -0.0533  0.2444  0.2452
   73OSM    H8S 6287   3.252   6.396   5.898  2.2081 -1.1499 -3.1363
   73OSM    H8T 6288   3.375   6.340   6.021 -0.1666 -1.6616 -1.9114
   73OSM    C9S 6289   3.458   6.450   5.854 -0.5008  0.6727 -0.1669
   73OSM    H9S 6290   3.505   6.358   5.812 -1.6008 -0.2631  0.5992
   73OSM    H9T 6291   3.547   6.495   5.902 -1.6326  1.0657  1.6782
   73OSM   C10S 6292   3.411   6.543   5.737 -0.0728 -0.5719  0.6824
   73OSM   H10S 6293   3.379   6.638   5.785 -0.0018 -0.7553  1.0957
   73OSM   H10T 6294   3.332   6.490   5.679  0.6040 -0.5620 -0.2707
   73OSM   C11S 6295   3.526   6.576   5.641  0.3638  0.6260 -0.2497
   73OSM   H11S 6296   3.566   6.475   5.616 -4.1036 -1.9027  1.5845
   73OSM   H11T 6297   3.611   6.614   5.700  1.1725 -3.8310  1.9179
   73OSM   C12S 6298   3.483   6.675   5.525 -0.4866  0.3236  0.8571
   73OSM   H12S 6299   3.574   6.705   5.469  0.0934 -1.7597  0.5759
   73OSM   H12T 6300   3.427   6.764   5.560  1.4345  1.3614  1.3991
   73OSM   C13S 6301   3.407   6.610   5.413  0.2717  0.0365 -0.5606
   73OSM   H13S 6302   3.309   6.573   5.449 -0.1495  2.0777  0.5728
   73OSM   H13T 6303   3.456   6.514   5.388  1.3931  0.4440 -0.0124
   73OSM   C14S 6304   3.388   6.697   5.282 -0.0254 -0.2331 -0.2902
   73OSM   H14S 6305   3.492   6.729   5.261  0.2512  0.2722  1.6577
   73OSM   H14T 6306   3.339   6.793   5.307  2.5046  0.8078  1.0932
   73OSM   C15S 6307   3.323   6.612   5.172  0.0440  0.2726  0.0481
   73OSM   H15S 6308   3.222   6.573   5.194  0.0402  0.9286  1.2493
   73OSM   H15T 6309   3.388   6.525   5.148 -0.3232 -0.7867  2.5666
   73OSM   C16S 6310   3.297   6.689   5.042  0.2447 -0.2541 -0.8598
   73OSM   H16S 6311   3.396   6.733   5.017  1.7602 -2.3244  1.1066
   73OSM   H16T 6312   3.234   6.780   5.052 -0.1351 -0.4376 -1.4980
   73OSM   C17S 6313   3.258   6.604   4.922  0.7386 -0.5530 -0.1892
   73OSM   H17S 6314   3.161   6.554   4.945  0.5429  0.7460  2.1248
   73OSM   H17T 6315   3.337   6.527   4.903  1.4267 -0.1675  0.9823
   73OSM   C18S 6316   3.236   6.687   4.789  0.5520  0.1948 -0.4064
   73OSM   H18S 6317   3.337   6.712   4.749  1.8016 -5.0116 -1.1868
   73OSM   H18T 6318   3.191   6.786   4.812  1.0250  0.2359  0.3914
   73OSM   H18U 6319   3.180   6.623   4.718  0.3965 -0.8956  0.6784
   73OSM    C1F 6320   2.696   6.800   6.021  0.0499  0.2885  0.1755
   73OSM     OF 6321   2.633   6.807   6.129 -0.5167  0.0031 -0.1298
   73OSM    C2F 6322   2.709   6.911   5.923  0.0436  0.9768  0.1056
   73OSM    H2F 6323   2.793   6.890   5.853  0.2216 -0.7839  0.7945
   73OSM    H2G 6324   2.750   6.993   5.987  1.2749  0.5871 -0.1640
   73OSM    C3F 6325   2.574   6.953   5.873 -0.0351 -0.2677 -0.6209
   73OSM    H3F 6326   2.509   6.992   5.955 -2.5158  0.6558 -2.8913
   73OSM    H3G 6327   2.510   6.871   5.833  0.8382 -1.7194  0.8403
   73OSM    C4F 6328   2.587   7.061   5.760 -0.8626  0.3231 -0.1027
   73OSM    H4F 6329   2.641   7.148   5.804 -0.5256  0.3109 -0.4955
   73OSM    H4G 6330   2.483   7.096   5.739 -0.0845  1.2756 -2.8311
   73OSM    C5F 6331   2.647   7.009   5.626 -0.4337  0.1135 -0.2038
   73OSM    H5F 6332   2.593   6.919   5.587 -1.3850 -0.8371  3.0049
   73OSM    H5G 6333   2.754   6.979   5.632 -1.2833 -3.4149 -0.0812
   73OSM    C6F 6334   2.632   7.113   5.515  0.2667 -0.6909  0.3495
   73OSM    H6F 6335   2.676   7.214   5.528 -1.7319  0.3954 -0.8678
   73OSM    H6G 6336   2.524   7.137   5.510  0.2032 -1.1123 -0.6947
   73OSM    C7F 6337   2.676   7.069   5.370 -0.6208  0.6926 -0.8960
   73OSM    H7F 6338   2.630   6.971   5.344 -0.2012  0.8074 -2.1327
   73OSM    H7G 6339   2.787   7.057   5.366 -0.7577 -0.3624 -2.0222
   73OSM    C8F 6340   2.626   7.167   5.264 -1.0987  0.2961 -0.2582
   73OSM    H8F 6341   2.519   7.192   5.281 -1.7956 -2.0764 -0.7679
   73OSM    H8G 6342   2.627   7.123   5.162 -1.9598  0.0224 -0.1552
   73OSM    C9F 6343   2.701   7.298   5.263  0.2268  0.6070 -0.8831
   73OSM    H9F 6344   2.722   7.342   5.361 -0.1116  0.2953 -0.6661
   73OSM   C10F 6345   2.725   7.374   5.158  0.3601 -0.5650 -0.2283
   73OSM   H10F 6346   2.776   7.470   5.174  1.9444 -1.2189 -1.0694
   73OSM   C11F 6347   2.680   7.343   5.014  0.5909  0.2776  0.0886
   73OSM   H11F 6348   2.619   7.429   4.979 -1.8462 -0.7881  1.4718
   73OSM   H11G 6349   2.612   7.256   5.011  0.7237  0.1393  0.9102
   73OSM   C12F 6350   2.782   7.323   4.903 -0.0709 -0.9817 -1.1438
   73OSM   H12F 6351   2.717   7.310   4.814 -2.3676 -0.0279  0.3045
   73OSM   H12G 6352   2.850   7.237   4.922 -1.4306 -1.7030  0.8242
   73OSM   C13F 6353   2.860   7.452   4.868 -0.4275  0.1668 -0.3845
   73OSM   H13F 6354   2.929   7.484   4.949 -1.8572  0.5762  0.7109
   73OSM   H13G 6355   2.784   7.532   4.857  2.1225  2.9977  0.9089
   73OSM   C14F 6356   2.943   7.436   4.740  1.0270  0.3548 -0.8703
   73OSM   H14F 6357   2.876   7.401   4.658  0.1848  1.0604 -0.4970
   73OSM   H14G 6358   3.007   7.346   4.755 -1.0584 -1.1447 -0.6045
   73OSM   C15F 6359   3.026   7.562   4.701  0.2949  0.4694 -0.1512
   73OSM   H15F 6360   3.131   7.552   4.664  0.5908 -0.5959  0.9082
   73OSM   H15G 6361   3.038   7.623   4.794 -1.3598 -0.6158  0.8190
   73OSM   C16F 6362   2.949   7.645   4.601 -0.2641  0.0250 -0.0976
   73OSM   H16F 6363   2.850   7.679   4.640 -0.6724 -1.4358  0.1942
   73OSM   H16G 6364   2.932   7.581   4.511  1.0542 -0.8705  0.2661
   73OSM   C17F 6365   3.028   7.768   4.550  0.1968 -0.1620  0.1059
   73OSM   H17F 6366   2.955   7.828   4.493  0.5073  0.4961  0.3948
   73OSM   H17G 6367   3.109   7.726   4.488 -1.0047 -1.9839 -0.3264
   73OSM   C18F 6368   3.093   7.856   4.654 -1.1705 -0.4326  0.5026
   73OSM   H18F 6369   3.147   7.934   4.596 -1.0393 -1.2865 -0.5580
   73OSM   H18G 6370   3.176   7.794   4.693  0.7301  0.9492 -1.1564
   73OSM   H18H 6371   3.025   7.877   4.739 -0.9285  0.3849  0.5040
   74OSM      N 6372   0.379   5.473   6.382 -0.6773  0.1124  0.0220
   74OSM    C15 6373   0.516   5.472   6.441  0.3532 -0.2749 -0.0070
   74OSM   H15A 6374   0.512   5.455   6.547  0.5216 -1.1987 -0.1425
   74OSM   H15B 6375   0.560   5.567   6.415  1.9389 -0.7434  0.8189
   74OSM   H15C 6376   0.570   5.390   6.395 -0.3409 -0.4735 -0.4800
   74OSM    C14 6377   0.318   5.338   6.397 -0.0916  0.5576  0.3120
   74OSM   H14A 6378   0.300   5.313   6.500 -1.8957 -2.6052 -0.6565
   74OSM   H14B 6379   0.380   5.258   6.359 -2.4609 -1.0763 -0.3384
   74OSM   H14C 6380   0.228   5.337   6.338 -0.5168 -0.2690  0.9629
   74OSM    C13 6381   0.295   5.576   6.444  0.3305  0.0162 -0.5755
   74OSM   H13A 6382   0.191   5.556   6.420  0.1979 -1.1524  0.8549
   74OSM   H13B 6383   0.322   5.677   6.420  1.1670  0.1459  0.8480
   74OSM   H13C 6384   0.305   5.567   6.551  0.3728 -0.3237 -0.6067
   74OSM    C12 6385   0.391   5.502   6.230 -0.1864 -0.3263 -0.2171
   74OSM   H12A 6386   0.450   5.591   6.212 -0.4115 -0.0206  0.5052
   74OSM   H12B 6387   0.296   5.514   6.181  0.3718 -1.6526 -1.7193
   74OSM    C11 6388   0.468   5.399   6.135  0.5705  0.0580  0.5077
   74OSM   H11A 6389   0.471   5.431   6.029  2.6250 -0.5983  0.3217
   74OSM   H11B 6390   0.415   5.302   6.141 -0.6826  0.6227 -0.9128
   74OSM      P 6391   0.710   5.492   6.160 -0.5330 -0.4799  0.2466
   74OSM    O13 6392   0.655   5.632   6.191 -0.0109 -0.0141  0.3064
   74OSM    O14 6393   0.836   5.457   6.233  0.6165 -0.0895  0.0989
   74OSM    O11 6394   0.736   5.494   6.009  0.3241  0.2017 -0.1273
   74OSM    O12 6395   0.601   5.381   6.180 -0.4476  0.1296 -0.4961
   74OSM    C1S 6396   0.727   5.380   5.925  0.2021  0.2370  0.1276
   74OSM    H1S 6397   0.619   5.361   5.907 -0.0867  2.0062 -0.2207
   74OSM    H1T 6398   0.763   5.282   5.963 -1.4599 -0.5522 -0.2212
   74OSM     NF 6399   0.757   5.308   5.689 -0.4094  0.5475 -0.0233
   74OSM    HNF 6400   0.834   5.256   5.654  1.2409  2.3897  0.6371
   74OSM    C2S 6401   0.794   5.410   5.791  0.3533  0.1151  0.4231
   74OSM    H2S 6402   0.746   5.505   5.758 -1.3040 -1.1868 -1.1472
   74OSM    C3S 6403   0.947   5.429   5.811  0.3657 -0.6536 -0.6465
   74OSM    H3S 6404   0.987   5.334   5.852  1.3446  0.5981  1.4824
   74OSM     O3 6405   0.974   5.527   5.907 -0.0441  0.0681 -0.6598
   74OSM    HO3 6406   0.890   5.548   5.949  0.3757  3.1777 -1.1240
   74OSM    C4S 6407   1.016   5.470   5.682  0.1596  0.1227  0.2142
   74OSM    H4S 6408   1.031   5.385   5.613  1.2591  2.6614 -2.9416
   74OSM    C5S 6409   1.076   5.584   5.643  0.0383 -0.0497  0.5889
   74OSM    H5S 6410   1.078   5.673   5.707  0.5027  0.9525 -0.7781
   74OSM    C6S 6411   1.148   5.599   5.511 -0.7226 -0.2002 -0.1772
   74OSM    H6S 6412   1.257   5.576   5.511 -0.7454 -0.3250 -0.9181
   74OSM    H6T 6413   1.136   5.706   5.485 -1.7681 -0.5436 -1.2078
   74OSM    C7S 6414   1.102   5.515   5.388  0.0010 -0.7884  0.4558
   74OSM    H7S 6415   0.991   5.505   5.390  0.0083 -0.9669  0.0894
   74OSM    H7T 6416   1.142   5.411   5.391  0.0769 -1.0262 -3.4983
   74OSM    C8S 6417   1.140   5.572   5.247 -0.3678  0.9773 -0.3483
   74OSM    H8S 6418   1.089   5.670   5.232 -1.3695  0.6371  0.6740
   74OSM    H8T 6419   1.105   5.503   5.168  1.9267 -2.9157  1.6908
   74OSM    C9S 6420   1.291   5.565   5.206 -0.5066  0.0653 -0.2575
   74OSM    H9S 6421   1.319   5.458   5.212  2.4240  0.7972  1.0722
   74OSM    H9T 6422   1.357   5.610   5.284  0.3354  0.3800 -1.1231
   74OSM   C10S 6423   1.331   5.618   5.069 -0.0953  0.8736 -0.1281
   74OSM   H10S 6424   1.440   5.630   5.054  0.1133 -0.4959  0.2287
   74OSM   H10T 6425   1.276   5.713   5.051 -2.3462 -0.7981 -3.1177
   74OSM   C11S 6426   1.282   5.525   4.954 -1.1994  0.3776  0.1839
   74OSM   H11S 6427   1.284   5.583   4.860 -1.1083  0.4014  0.2000
   74OSM   H11T 6428   1.176   5.500   4.974 -1.2695 -2.0385 -2.6232
   74OSM   C12S 6429   1.367   5.401   4.946  1.1267 -0.1570  0.2496
   74OSM   H12S 6430   1.305   5.308   4.954 -1.8574  1.5885 -0.8073
   74OSM   H12T 6431   1.444   5.395   5.026  0.4718  2.0238  1.1244
   74OSM   C13S 6432   1.436   5.400   4.812  0.2165 -0.7386  1.2541
   74OSM   H13S 6433   1.512   5.481   4.809 -0.1824 -0.2083  3.4892
   74OSM   H13T 6434   1.357   5.412   4.735 -0.6690 -1.2080  2.0596
   74OSM   C14S 6435   1.522   5.274   4.791  0.0927 -0.1000 -0.7139
   74OSM   H14S 6436   1.470   5.186   4.834 -1.0120 -0.4747 -2.6592
   74OSM   H14T 6437   1.616   5.272   4.849  0.1564 -2.5186 -0.7870
   74OSM   C15S 6438   1.543   5.244   4.646  0.1095  0.4289  0.0866
   74OSM   H15S 6439   1.456   5.264   4.581  1.2831  0.1817 -1.6258
   74OSM   H15T 6440   1.561   5.135   4.640  0.1352  0.5189 -3.0927
   74OSM   C16S 6441   1.662   5.322   4.587  0.0157 -0.4264  0.5551
   74OSM   H16S 6442   1.757   5.302   4.640  2.2887  2.4314 -2.0713
   74OSM   H16T 6443   1.642   5.430   4.601 -2.3926 -0.5632 -1.1652
   74OSM   C17S 6444   1.690   5.286   4.438 -0.6030  0.1265 -0.0680
   74OSM   H17S 6445   1.610   5.313   4.367 -0.0512  1.5009 -0.1999
   74OSM   H17T 6446   1.699   5.175   4.435 -3.3320 -0.1668  0.3437
   74OSM   C18S 6447   1.813   5.369   4.393 -0.3060  0.5819 -0.0124
   74OSM   H18S 6448   1.897   5.363   4.465 -1.2655 -0.7152  1.0640
   74OSM   H18T 6449   1.788   5.476   4.378 -2.4720 -0.1139 -1.9905
   74OSM   H18U 6450   1.859   5.333   4.298  1.4388 -2.0113  1.6713
   74OSM    C1F 6451   0.640   5.264   5.648 -0.2453 -0.5895 -0.0683
   74OSM     OF 6452   0.540   5.278   5.713 -0.1585  0.3788 -0.2454
   74OSM    C2F 6453   0.632   5.187   5.512 -0.3257  0.1710  0.0604
   74OSM    H2F 6454   0.665   5.082   5.528  0.2278  0.1795 -0.9182
   74OSM    H2G 6455   0.701   5.234   5.438 -1.8293 -0.9275 -2.1316
   74OSM    C3F 6456   0.492   5.184   5.447  0.7072 -0.0764 -0.1459
   74OSM    H3F 6457   0.433   5.278   5.457 -0.3149 -0.8220  1.1583
   74OSM    H3G 6458   0.441   5.107   5.508  0.8315  0.9605  1.3244
   74OSM    C4F 6459   0.485   5.142   5.295  0.0420 -0.4356 -0.2458
   74OSM    H4F 6460   0.376   5.137   5.276 -0.5403  0.0491  2.5536
   74OSM    H4G 6461   0.530   5.041   5.284  0.1071 -0.4336 -0.0055
   74OSM    C5F 6462   0.554   5.230   5.192 -0.8391 -0.1669  0.7466
   74OSM    H5F 6463   0.664   5.223   5.208 -0.5608  0.6457 -0.6569
   74OSM    H5G 6464   0.518   5.335   5.194  1.9101  0.8690 -0.0076
   74OSM    C6F 6465   0.541   5.172   5.048  0.7259 -0.0873  0.4513
   74OSM    H6F 6466   0.434   5.188   5.021  0.9126 -1.1780 -1.0162
   74OSM    H6G 6467   0.562   5.063   5.054  0.3860 -0.0953  3.1048
   74OSM    C7F 6468   0.621   5.259   4.954  0.0281  0.3439  0.1209
   74OSM    H7F 6469   0.728   5.255   4.983 -0.5168  1.6054  2.5821
   74OSM    H7G 6470   0.585   5.364   4.965  0.4271  0.5051 -0.0701
   74OSM    C8F 6471   0.596   5.222   4.801  1.3769  0.3606 -0.1275
   74OSM    H8F 6472   0.486   5.226   4.787  1.2620  0.3803  0.7197
   74OSM    H8G 6473   0.622   5.114   4.792  1.1377  0.3406 -0.5979
   74OSM    C9F 6474   0.679   5.300   4.698 -0.0391  0.0689  0.7463
   74OSM    H9F 6475   0.758   5.362   4.744  1.4696 -1.1886 -0.0475
   74OSM   C10F 6476   0.662   5.297   4.564 -0.5851  0.3125  0.9628
   74OSM   H10F 6477   0.719   5.360   4.494  0.4112 -0.5496  0.9708
   74OSM   C11F 6478   0.558   5.211   4.495  0.2540  0.2121  0.0306
   74OSM   H11F 6479   0.504   5.149   4.570  2.5933 -1.2488  0.6055
   74OSM   H11G 6480   0.607   5.144   4.422 -0.3163  2.5925 -2.7072
   74OSM   C12F 6481   0.462   5.301   4.421  0.3987  0.1573  0.3532
   74OSM   H12F 6482   0.387   5.235   4.372 -1.0043  2.0529 -0.1710
   74OSM   H12G 6483   0.521   5.362   4.350 -2.7391  2.4274 -0.4931
   74OSM   C13F 6484   0.382   5.404   4.500  0.2667  0.3767  0.2627
   74OSM   H13F 6485   0.447   5.475   4.555  0.1817  0.7059 -0.0641
   74OSM   H13G 6486   0.321   5.350   4.576 -1.6364  0.0837 -1.4083
   74OSM   C14F 6487   0.288   5.485   4.412  0.8171 -0.5675 -0.0800
   74OSM   H14F 6488   0.221   5.543   4.479 -0.9257 -1.2968 -1.1240
   74OSM   H14G 6489   0.211   5.422   4.363 -1.6089  1.0179  1.5152
   74OSM   C15F 6490   0.356   5.572   4.307 -0.1972  0.5630 -0.0256
   74OSM   H15F 6491   0.406   5.508   4.231 -1.4198  0.6481 -0.9191
   74OSM   H15G 6492   0.435   5.628   4.361 -1.3413  2.3985 -0.1847
   74OSM   C16F 6493   0.253   5.659   4.233  0.3703 -0.3587  0.9778
   74OSM   H16F 6494   0.189   5.706   4.312  0.1611  1.8516 -0.4198
   74OSM   H16G 6495   0.178   5.599   4.177  0.8460  1.0690 -1.2986
   74OSM   C17F 6496   0.309   5.770   4.147 -0.7418  0.3142  0.1313
   74OSM   H17F 6497   0.400   5.815   4.191 -0.0595  0.0308 -0.9569
   74OSM   H17G 6498   0.239   5.856   4.148 -2.0576 -0.6966 -1.2426
   74OSM   C18F 6499   0.316   5.726   4.000  0.2087 -0.1230 -0.1822
   74OSM   H18F 6500   0.363   5.802   3.934 -1.5335  1.4626  0.2713
   74OSM   H18G 6501   0.210   5.711   3.971 -0.1820  1.5658  0.2134
   74OSM   H18H 6502   0.389   5.643   3.994  0.6241  0.3005 -1.2121
   75OSM      N 6503   5.646   1.044   6.483 -0.1860 -0.6364 -0.6729
   75OSM    C15 6504   5.758   0.958   6.524 -0.3880 -0.0248 -0.0082
   75OSM   H15A 6505   5.821   0.938   6.439 -0.1662  0.1755  0.1091
   75OSM   H15B 6506   5.715   0.865   6.558  0.6147  0.4213  2.7093
   75OSM   H15C 6507   5.817   0.994   6.607 -0.0992 -0.6465  0.0573
   75OSM    C14 6508   5.562   1.083   6.605 -0.6327  0.1129 -0.1656
   75OSM   H14A 6509   5.629   1.145   6.663 -0.4937 -1.0134  0.9224
   75OSM   H14B 6510   5.521   1.000   6.662 -0.6319  0.1541 -0.1035
   75OSM   H14C 6511   5.483   1.152   6.579  1.2202  3.1994  1.7275
   75OSM    C13 6512   5.699   1.171   6.418 -1.2815  0.2133 -0.0268
   75OSM   H13A 6513   5.758   1.146   6.331 -0.7136  0.7626  0.1999
   75OSM   H13B 6514   5.765   1.218   6.489  2.0855 -0.1677 -2.6519
   75OSM   H13C 6515   5.629   1.245   6.382 -1.8262 -1.0979 -1.8450
   75OSM    C12 6516   5.561   0.968   6.388 -0.9337 -0.0475 -0.9832
   75OSM   H12A 6517   5.476   1.034   6.377  0.0116  1.5510  0.7843
   75OSM   H12B 6518   5.520   0.885   6.443 -2.3427  1.4390  0.3084
   75OSM    C11 6519   5.619   0.944   6.250  0.6719  0.4317  0.4894
   75OSM   H11A 6520   5.667   1.034   6.207 -1.3781  0.8486 -1.0783
   75OSM   H11B 6521   5.539   0.907   6.182  1.8078 -3.8034  1.1195
   75OSM      P 6522   5.680   0.687   6.275 -0.4505 -0.1367  0.0120
   75OSM    O13 6523   5.789   0.633   6.355  0.3491 -0.3185 -0.2420
   75OSM    O14 6524   5.534   0.673   6.310 -0.4501  0.5137  0.5590
   75OSM    O11 6525   5.701   0.627   6.132 -0.5467  0.4708  0.2214
   75OSM    O12 6526   5.713   0.836   6.252  0.3867 -0.3751  0.2695
   75OSM    C1S 6527   5.815   0.652   6.049 -0.0802  0.0302  0.2105
   75OSM    H1S 6528   5.908   0.620   6.102  0.1032 -0.1130 -0.1904
   75OSM    H1T 6529   5.816   0.760   6.027  1.1644  0.0107  0.0708
   75OSM     NF 6530   5.907   0.640   5.821 -0.4320  0.3449  0.3100
   75OSM    HNF 6531   5.877   0.718   5.767  1.7332  0.4155 -0.8819
   75OSM    C2S 6532   5.810   0.577   5.913  0.0692 -0.5278 -0.3771
   75OSM    H2S 6533   5.842   0.472   5.931  1.8483  0.4442  2.8133
   75OSM    C3S 6534   5.660   0.574   5.857  0.2004  0.0760 -0.2740
   75OSM    H3S 6535   5.607   0.668   5.882  0.1172  0.5409 -2.0807
   75OSM     O3 6536   5.576   0.489   5.928  0.9229  0.4157 -0.6033
   75OSM    HO3 6537   5.605   0.475   6.019 -0.9883 -2.0189 -0.2566
   75OSM    C4S 6538   5.655   0.549   5.705 -0.1490  0.4221 -0.6938
   75OSM    H4S 6539   5.675   0.634   5.637  0.1333  0.0885 -1.0292
   75OSM    C5S 6540   5.653   0.432   5.641 -0.1739 -0.0344 -0.1164
   75OSM    H5S 6541   5.643   0.339   5.699  1.5277 -0.2143 -0.0666
   75OSM    C6S 6542   5.659   0.410   5.491 -0.3154  0.2968 -0.0242
   75OSM    H6S 6543   5.577   0.337   5.473  0.8321 -1.0333 -0.0513
   75OSM    H6T 6544   5.756   0.368   5.454  0.0119  0.2998  0.8061
   75OSM    C7S 6545   5.635   0.538   5.404  0.3875  0.1976  0.2447
   75OSM    H7S 6546   5.716   0.613   5.411  0.0502  0.9049 -2.5597
   75OSM    H7T 6547   5.544   0.589   5.443 -0.3558 -0.6196 -0.3757
   75OSM    C8S 6548   5.613   0.504   5.252  0.2907  0.1906 -0.5609
   75OSM    H8S 6549   5.531   0.433   5.228 -0.2898  1.4398 -2.5243
   75OSM    H8T 6550   5.706   0.460   5.208  1.2942 -1.2822  2.7189
   75OSM    C9S 6551   5.569   0.633   5.191 -0.1577  0.0144 -0.1689
   75OSM    H9S 6552   5.647   0.712   5.197 -1.3488  1.2805 -0.6265
   75OSM    H9T 6553   5.478   0.664   5.247 -0.5246  0.9477 -1.2283
   75OSM   C10S 6554   5.522   0.627   5.041 -0.5928 -0.1577  0.4925
   75OSM   H10S 6555   5.436   0.561   5.017 -0.5599 -0.0500  0.0799
   75OSM   H10T 6556   5.606   0.572   4.995 -0.2180  1.1750 -0.4598
   75OSM   C11S 6557   5.488   0.764   4.979 -0.8548  0.4347 -0.2875
   75OSM   H11S 6558   5.509   0.753   4.870  0.8161 -0.7585  0.1058
   75OSM   H11T 6559   5.545   0.851   5.018 -0.4216  1.7604 -3.4999
   75OSM   C12S 6560   5.340   0.801   4.995  0.2844  0.0003  0.4321
   75OSM   H12S 6561   5.298   0.804   5.098 -0.1331  0.3282  0.2537
   75OSM   H12T 6562   5.283   0.730   4.932  0.2093  1.4585 -1.2085
   75OSM   C13S 6563   5.316   0.945   4.937 -0.2785  0.2164  0.1153
   75OSM   H13S 6564   5.356   0.958   4.834 -0.7667  0.6372 -0.0283
   75OSM   H13T 6565   5.373   1.016   5.000  1.1457  0.3321 -1.2322
   75OSM   C14S 6566   5.162   0.984   4.922  0.6931 -0.0240 -0.1085
   75OSM   H14S 6567   5.108   0.975   5.018 -0.3462  0.3129 -0.6482
   75OSM   H14T 6568   5.108   0.906   4.865  0.5736 -0.4737  0.6122
   75OSM   C15S 6569   5.140   1.120   4.863 -0.0114  0.1384 -0.0298
   75OSM   H15S 6570   5.237   1.174   4.854  0.3072 -0.7540 -2.4735
   75OSM   H15T 6571   5.082   1.179   4.938  0.4827  0.7070 -0.0886
   75OSM   C16S 6572   5.074   1.116   4.725 -0.8802  0.2420  0.5757
   75OSM   H16S 6573   4.970   1.078   4.737  0.0161 -1.4967  4.3752
   75OSM   H16T 6574   5.132   1.042   4.667 -1.0116 -0.4934  1.3671
   75OSM   C17S 6575   5.090   1.247   4.653 -0.2244 -0.0925  0.0008
   75OSM   H17S 6576   5.062   1.242   4.546 -1.1017  2.2450  0.0646
   75OSM   H17T 6577   5.196   1.279   4.663 -0.0860 -0.7303  0.6433
   75OSM   C18S 6578   4.983   1.348   4.700 -0.1425  0.0593  0.1774
   75OSM   H18S 6579   4.974   1.347   4.811 -1.2287 -0.7714  0.1082
   75OSM   H18T 6580   4.885   1.312   4.662  0.2329 -0.9968  0.1776
   75OSM   H18U 6581   5.017   1.449   4.670  4.4224 -1.4798 -0.5552
   75OSM    C1F 6582   6.040   0.626   5.819  0.5914 -0.3734  0.3539
   75OSM     OF 6583   6.094   0.550   5.897  0.4530  0.5047 -0.4907
   75OSM    C2F 6584   6.120   0.692   5.712 -0.1106  0.3355  0.8082
   75OSM    H2F 6585   6.104   0.802   5.711 -0.3113  0.3207 -0.8612
   75OSM    H2G 6586   6.074   0.642   5.624  0.0768 -0.2046  1.0144
   75OSM    C3F 6587   6.271   0.672   5.728 -0.8457  0.8044  0.3260
   75OSM    H3F 6588   6.310   0.574   5.695 -0.4057  0.8480  0.6994
   75OSM    H3G 6589   6.312   0.684   5.831  3.8772  0.3122 -1.2929
   75OSM    C4F 6590   6.343   0.790   5.651  0.0270  0.3499 -0.2897
   75OSM    H4F 6591   6.449   0.766   5.670 -0.1793  1.0204  2.1058
   75OSM    H4G 6592   6.328   0.880   5.714  1.0425 -0.5656  1.3057
   75OSM    C5F 6593   6.322   0.796   5.497  0.1918  0.0428 -0.0431
   75OSM    H5F 6594   6.213   0.777   5.483  0.5492 -1.4169 -1.1042
   75OSM    H5G 6595   6.361   0.704   5.448 -0.9634 -0.3654 -0.2298
   75OSM    C6F 6596   6.373   0.928   5.425 -0.1810  0.3334 -0.8526
   75OSM    H6F 6597   6.478   0.959   5.448 -0.0715  0.2874 -1.2867
   75OSM    H6G 6598   6.309   1.016   5.448  1.3472  0.5495  3.6481
   75OSM    C7F 6599   6.379   0.907   5.264  0.7154  0.5369 -0.0219
   75OSM    H7F 6600   6.276   0.892   5.225  1.1106 -0.5641 -0.6993
   75OSM    H7G 6601   6.426   0.808   5.245 -1.4033 -0.5323 -0.0601
   75OSM    C8F 6602   6.440   1.012   5.181  0.2745 -0.5373 -0.6500
   75OSM    H8F 6603   6.550   0.998   5.194  0.3953  0.8821  0.0508
   75OSM    H8G 6604   6.427   1.110   5.232 -0.1459 -0.4362 -0.9415
   75OSM    C9F 6605   6.411   1.016   5.034  0.1162 -0.1136  0.1919
   75OSM    H9F 6606   6.434   0.923   4.980  0.9357  0.7320 -0.9795
   75OSM   C10F 6607   6.339   1.112   4.967 -0.0496 -0.5031  0.2025
   75OSM   H10F 6608   6.333   1.117   4.858 -0.4140 -0.4671  0.2216
   75OSM   C11F 6609   6.285   1.238   5.034 -0.2488 -0.9646 -0.8549
   75OSM   H11F 6610   6.350   1.280   5.114 -0.6913 -0.6435 -0.6573
   75OSM   H11G 6611   6.183   1.219   5.075  0.0131 -0.4906  0.0617
   75OSM   C12F 6612   6.267   1.355   4.925 -0.1218 -0.1099 -0.3946
   75OSM   H12F 6613   6.186   1.334   4.852  0.5116  0.4074 -1.2744
   75OSM   H12G 6614   6.368   1.372   4.882  0.3345  3.8617  1.7314
   75OSM   C13F 6615   6.224   1.490   4.993  0.1998  0.0311 -0.5252
   75OSM   H13F 6616   6.281   1.492   5.088 -1.9694  1.4435  0.8239
   75OSM   H13G 6617   6.123   1.466   5.033  0.7617 -0.0078  0.9107
   75OSM   C14F 6618   6.230   1.612   4.905  0.5113 -0.7128  0.0489
   75OSM   H14F 6619   6.199   1.574   4.805  0.7486  0.1124 -0.3414
   75OSM   H14G 6620   6.326   1.668   4.910 -0.5761  1.1544  0.7017
   75OSM   C15F 6621   6.127   1.716   4.945 -0.4056 -0.2687  0.0504
   75OSM   H15F 6622   6.148   1.747   5.050  0.3082  0.7747 -0.3938
   75OSM   H15G 6623   6.026   1.670   4.948 -0.6353 -0.0076 -2.0912
   75OSM   C16F 6624   6.124   1.847   4.865 -0.6414  0.4184 -0.1443
   75OSM   H16F 6625   6.221   1.894   4.893  1.5513 -1.3507 -3.9588
   75OSM   H16G 6626   6.042   1.910   4.906 -1.1055  1.4150 -2.3990
   75OSM   C17F 6627   6.119   1.829   4.716 -0.2159 -0.0111 -0.2685
   75OSM   H17F 6628   6.209   1.773   4.683  0.5168  0.3216  1.0978
   75OSM   H17G 6629   6.135   1.928   4.670 -0.1181 -0.3053 -0.8785
   75OSM   C18F 6630   5.988   1.774   4.670  0.6507 -0.3738  0.4195
   75OSM   H18F 6631   5.997   1.742   4.564 -0.8551 -0.0687  0.1707
   75OSM   H18G 6632   5.910   1.853   4.669  1.8114  0.9092  2.7349
   75OSM   H18H 6633   5.959   1.692   4.739  0.8715 -1.8492 -1.1447
   76OSM      N 6634   0.758   1.318   6.186  0.1255 -0.2588 -0.1394
   76OSM    C15 6635   0.749   1.447   6.263 -0.1014 -0.1279  0.4950
   76OSM   H15A 6636   0.646   1.478   6.273 -0.0752  1.4713 -2.8196
   76OSM   H15B 6637   0.804   1.528   6.217  0.3382 -0.4817  0.3949
   76OSM   H15C 6638   0.795   1.440   6.360 -0.5242  0.6425  0.7628
   76OSM    C14 6639   0.718   1.203   6.274  0.2548  0.6599 -0.2400
   76OSM   H14A 6640   0.618   1.203   6.313  0.1287 -0.3658 -0.5405
   76OSM   H14B 6641   0.787   1.196   6.358  1.9958 -1.3398 -1.7345
   76OSM   H14C 6642   0.722   1.108   6.224  1.0355 -0.0897  1.1775
   76OSM    C13 6643   0.655   1.327   6.081 -1.3923 -0.8608  0.4953
   76OSM   H13A 6644   0.677   1.412   6.019 -2.9538  1.9189  3.4335
   76OSM   H13B 6645   0.556   1.343   6.123 -1.8459 -0.0842 -0.8055
   76OSM   H13C 6646   0.661   1.244   6.013  0.3941 -0.4011  0.0566
   76OSM    C12 6647   0.893   1.303   6.119  0.0604 -0.7560  0.3588
   76OSM   H12A 6648   0.912   1.395   6.066 -1.2464 -0.9361 -0.4505
   76OSM   H12B 6649   0.881   1.225   6.046 -1.3942 -0.6157  0.4189
   76OSM    C11 6650   1.008   1.271   6.211 -0.3813 -0.5101 -0.3414
   76OSM   H11A 6651   1.021   1.357   6.281 -3.2837  0.3216 -0.7024
   76OSM   H11B 6652   1.094   1.255   6.143 -0.6439  0.8620 -1.0188
   76OSM      P 6653   1.096   1.104   6.393  0.3943  0.1006  0.3571
   76OSM    O13 6654   1.208   1.202   6.398  0.3686  0.0475  0.3252
   76OSM    O14 6655   1.025   1.076   6.515 -0.4348  0.4851  0.4394
   76OSM    O11 6656   1.162   0.976   6.322 -0.3976 -0.5696 -0.3059
   76OSM    O12 6657   0.985   1.149   6.287 -0.4021  0.0206  0.0795
   76OSM    C1S 6658   1.122   0.886   6.215  0.3379 -0.3117  0.4733
   76OSM    H1S 6659   1.013   0.865   6.221  0.4702 -0.7806  1.5072
   76OSM    H1T 6660   1.187   0.797   6.232  0.2214 -0.7384 -1.1216
   76OSM     NF 6661   1.115   0.824   5.979 -0.2121  0.4728 -0.1540
   76OSM    HNF 6662   1.183   0.758   5.946  1.6014  1.8444  0.6741
   76OSM    C2S 6663   1.160   0.931   6.073  0.0127 -0.1801 -0.4497
   76OSM    H2S 6664   1.100   1.021   6.049 -1.0034 -0.7583 -0.1602
   76OSM    C3S 6665   1.309   0.967   6.062 -0.4592  0.1486 -0.1838
   76OSM    H3S 6666   1.376   0.884   6.093 -0.7094 -0.2468 -0.6828
   76OSM     O3 6667   1.354   1.074   6.148  0.2921 -0.3384 -0.6997
   76OSM    HO3 6668   1.280   1.084   6.208  0.0448 -0.8648 -0.9202
   76OSM    C4S 6669   1.353   1.001   5.915 -0.5586  0.2473 -0.9018
   76OSM    H4S 6670   1.323   1.100   5.876 -1.9301  1.1986  2.2364
   76OSM    C5S 6671   1.422   0.914   5.839 -0.0862 -0.2922  0.1774
   76OSM    H5S 6672   1.451   0.818   5.884  1.3397 -0.4253 -0.9423
   76OSM    C6S 6673   1.439   0.941   5.690  0.1958  0.3581 -0.3885
   76OSM    H6S 6674   1.546   0.955   5.664  0.4888  0.3716  0.7766
   76OSM    H6T 6675   1.380   1.026   5.649 -1.9069 -1.5452 -1.5862
   76OSM    C7S 6676   1.391   0.818   5.616  0.2232  0.4278 -0.2558
   76OSM    H7S 6677   1.284   0.812   5.644  0.9359 -1.2276  2.5442
   76OSM    H7T 6678   1.444   0.724   5.644  1.0143  0.5594 -1.2401
   76OSM    C8S 6679   1.423   0.831   5.472 -0.7792  0.3486  0.3363
   76OSM    H8S 6680   1.533   0.823   5.465 -0.8043  0.6335 -0.4373
   76OSM    H8T 6681   1.393   0.929   5.429 -2.3628 -0.5630 -0.7230
   76OSM    C9S 6682   1.367   0.707   5.390  0.1132  0.2306  0.5360
   76OSM    H9S 6683   1.390   0.612   5.443  0.1229 -0.4178 -0.6187
   76OSM    H9T 6684   1.419   0.705   5.293 -2.5083 -0.4028 -0.9565
   76OSM   C10S 6685   1.211   0.712   5.350  0.7872 -0.0886  0.0849
   76OSM   H10S 6686   1.203   0.641   5.265 -0.6347  1.9322 -1.5735
   76OSM   H10T 6687   1.194   0.812   5.305 -0.0085  0.0555  0.6754
   76OSM   C11S 6688   1.093   0.684   5.456 -0.0892  0.4648  0.5275
   76OSM   H11S 6689   1.119   0.738   5.549 -0.2544  3.7032 -1.1523
   76OSM   H11T 6690   1.085   0.575   5.475  1.3285  0.1991 -0.2376
   76OSM   C12S 6691   0.969   0.748   5.392  0.5162  1.2722 -0.2783
   76OSM   H12S 6692   0.985   0.855   5.364 -0.2784  1.4908  0.0785
   76OSM   H12T 6693   0.894   0.745   5.474  1.0259 -1.4030  0.1776
   76OSM   C13S 6694   0.915   0.671   5.268  0.4023 -0.3753 -0.7817
   76OSM   H13S 6695   0.806   0.651   5.278 -0.0239  2.5236  1.6165
   76OSM   H13T 6696   0.966   0.572   5.267  2.7512  0.7436  0.7273
   76OSM   C14S 6697   0.949   0.737   5.138  0.3594  0.3374  0.2215
   76OSM   H14S 6698   1.058   0.753   5.125  0.1395 -0.1414 -3.1246
   76OSM   H14T 6699   0.895   0.833   5.127 -4.5048 -2.3141 -1.9446
   76OSM   C15S 6700   0.902   0.657   5.016  0.2300 -0.2105 -0.2535
   76OSM   H15S 6701   0.894   0.725   4.928  3.8093 -0.7988 -1.1786
   76OSM   H15T 6702   0.801   0.619   5.041  0.4110 -0.6256 -0.1528
   76OSM   C16S 6703   0.986   0.538   4.967  0.7576 -0.4011  0.3660
   76OSM   H16S 6704   1.004   0.463   5.047  3.7214 -0.4916 -0.2730
   76OSM   H16T 6705   1.084   0.571   4.926 -0.1669  0.9083 -0.8648
   76OSM   C17S 6706   0.923   0.454   4.850  0.2606  0.1572 -0.2527
   76OSM   H17S 6707   0.813   0.467   4.865  0.3757  2.7730 -1.1979
   76OSM   H17T 6708   0.963   0.351   4.853  0.1272  0.1110  0.0239
   76OSM   C18S 6709   0.960   0.512   4.717  0.1785 -0.2057 -0.1884
   76OSM   H18S 6710   1.069   0.492   4.708  0.6743  1.6342  0.9048
   76OSM   H18T 6711   0.965   0.623   4.724 -1.6602 -0.1252  0.4067
   76OSM   H18U 6712   0.905   0.488   4.624 -0.8319  2.0468 -0.2508
   76OSM    C1F 6713   0.984   0.809   5.938  0.0060  0.2087 -0.3628
   76OSM     OF 6714   0.897   0.874   5.997 -0.0849  0.8779 -0.1202
   76OSM    C2F 6715   0.952   0.721   5.819  0.8150  0.4579  0.8847
   76OSM    H2F 6716   1.010   0.627   5.832  0.4854  0.2481  0.8485
   76OSM    H2G 6717   0.984   0.768   5.724  0.7972  1.1457  1.2144
   76OSM    C3F 6718   0.796   0.686   5.823 -0.1387  0.3764  0.2350
   76OSM    H3F 6719   0.722   0.766   5.802  1.2733  2.2243  1.9425
   76OSM    H3G 6720   0.771   0.659   5.927 -2.6476  3.6285  0.6326
   76OSM    C4F 6721   0.760   0.573   5.720 -0.9610  0.0314 -0.2655
   76OSM    H4F 6722   0.815   0.478   5.739 -1.6243  0.0279  1.8711
   76OSM    H4G 6723   0.805   0.614   5.627 -1.4281 -1.7186 -1.3164
   76OSM    C5F 6724   0.613   0.559   5.697 -0.2267  0.0544 -0.5720
   76OSM    H5F 6725   0.549   0.649   5.712  0.0062  0.0429  0.6316
   76OSM    H5G 6726   0.583   0.483   5.772 -1.0672 -0.6473 -1.5983
   76OSM    C6F 6727   0.581   0.503   5.555 -0.2494 -0.0330 -0.6722
   76OSM    H6F 6728   0.616   0.580   5.483 -1.3033  1.6821  0.5710
   76OSM    H6G 6729   0.470   0.514   5.554 -0.2534  0.1909 -2.9261
   76OSM    C7F 6730   0.629   0.361   5.525  0.1998 -0.5089  0.0151
   76OSM    H7F 6731   0.565   0.301   5.593 -0.2850 -1.9377 -1.6187
   76OSM    H7G 6732   0.738   0.354   5.543  0.8402  1.2475 -2.6211
   76OSM    C8F 6733   0.590   0.314   5.382  0.4032 -0.1456 -0.0319
   76OSM    H8F 6734   0.483   0.337   5.363  0.7952  2.1331  0.1904
   76OSM    H8G 6735   0.594   0.203   5.383  3.0167 -0.1226 -0.5031
   76OSM    C9F 6736   0.683   0.367   5.276 -0.4840  0.1399  0.1888
   76OSM    H9F 6737   0.774   0.416   5.313 -1.6135  0.2878  2.9517
   76OSM   C10F 6738   0.644   0.379   5.148 -0.3556 -0.1996 -0.1409
   76OSM   H10F 6739   0.717   0.424   5.078 -0.4560 -0.3142 -0.3205
   76OSM   C11F 6740   0.510   0.344   5.093 -0.2137 -0.3187 -0.3653
   76OSM   H11F 6741   0.439   0.428   5.111 -0.3650 -0.4449 -0.3766
   76OSM   H11G 6742   0.460   0.258   5.141 -1.1052 -0.4833 -1.5367
   76OSM   C12F 6743   0.507   0.312   4.940  0.3578 -0.0007 -0.0339
   76OSM   H12F 6744   0.549   0.405   4.897 -1.2218  1.9382  2.3996
   76OSM   H12G 6745   0.402   0.290   4.910 -0.5458 -0.0219  2.8610
   76OSM   C13F 6746   0.598   0.190   4.905  0.4753  0.0106  0.1277
   76OSM   H13F 6747   0.545   0.095   4.928 -1.3377  1.1061  0.5902
   76OSM   H13G 6748   0.695   0.212   4.956  1.3389  0.4098 -1.6107
   76OSM   C14F 6749   0.633   0.206   4.752 -0.1475 -0.2727 -1.0670
   76OSM   H14F 6750   0.685   0.304   4.746 -2.4282  1.1623  0.5335
   76OSM   H14G 6751   0.537   0.215   4.697 -0.5505 -0.2568 -0.3781
   76OSM   C15F 6752   0.720   0.089   4.694  0.1627  0.2203  0.6331
   76OSM   H15F 6753   0.662  -0.006   4.702  0.1624  0.0808 -0.8155
   76OSM   H15G 6754   0.808   0.084   4.761  1.4563  0.5909 -0.9890
   76OSM   C16F 6755   0.761   0.102   4.548 -0.4217 -0.1341  0.7259
   76OSM   H16F 6756   0.844   0.039   4.509 -2.3514 -1.2384 -1.9448
   76OSM   H16G 6757   0.783   0.209   4.528 -0.9330 -0.1972 -0.2712
   76OSM   C17F 6758   0.651   0.075   4.442 -0.7206 -0.2051  0.0258
   76OSM   H17F 6759   0.555   0.114   4.481 -0.1188  0.7635  0.5620
   76OSM   H17G 6760   0.646  -0.036   4.431 -2.3320 -0.1817  0.3144
   76OSM   C18F 6761   0.674   0.141   4.303  0.2654  0.0345 -1.1708
   76OSM   H18F 6762   0.653   0.250   4.316  0.6511 -0.0038 -0.1884
   76OSM   H18G 6763   0.606   0.098   4.226 -1.2897  0.6785 -0.2072
   76OSM   H18H 6764   0.777   0.124   4.266 -0.0279 -0.1617 -1.9315
   77OSM      N 6765   0.173   4.893   5.955 -0.2624  0.0243 -0.4542
   77OSM    C15 6766   0.066   4.955   5.875 -0.2262 -0.1972  0.4511
   77OSM   H15A 6767  -0.003   5.018   5.929  1.0155  0.8309  0.8917
   77OSM   H15B 6768   0.014   4.879   5.819 -0.0217  0.2431 -0.3424
   77OSM   H15C 6769   0.103   5.014   5.793 -1.8573  1.4339  0.8392
   77OSM    C14 6770   0.241   4.785   5.873 -0.5150  0.0873 -0.1418
   77OSM   H14A 6771   0.172   4.708   5.842  0.4710 -1.3641  1.1408
   77OSM   H14B 6772   0.323   4.743   5.930 -0.4920  0.2201 -0.0760
   77OSM   H14C 6773   0.292   4.827   5.787 -0.6424 -2.3435 -1.5004
   77OSM    C13 6774   0.269   4.999   6.008  0.2376  0.1968  0.1143
   77OSM   H13A 6775   0.309   5.059   5.927  1.0193  0.6019  0.7855
   77OSM   H13B 6776   0.353   4.947   6.052 -0.5254 -0.1284  1.2046
   77OSM   H13C 6777   0.215   5.058   6.080  3.3336  0.9685  2.0265
   77OSM    C12 6778   0.112   4.827   6.077 -0.0903  0.1433 -0.2786
   77OSM   H12A 6779   0.189   4.786   6.140  1.1863 -1.3846 -2.6947
   77OSM   H12B 6780   0.067   4.733   6.049  0.7596 -0.6883  1.0129
   77OSM    C11 6781   0.017   4.913   6.166  0.0590 -0.4783 -0.6038
   77OSM   H11A 6782  -0.002   4.845   6.251 -1.0113 -0.4456 -0.8071
   77OSM   H11B 6783  -0.075   4.921   6.105 -1.7003  2.1668  2.1203
   77OSM      P 6784  -0.013   5.161   6.231  0.6354  0.3474  0.0175
   77OSM    O13 6785  -0.114   5.153   6.344  0.1077 -0.0545  0.0939
   77OSM    O14 6786   0.076   5.281   6.225  0.8057 -0.0017 -0.3620
   77OSM    O11 6787  -0.091   5.149   6.093 -0.0960  0.6132  0.3384
   77OSM    O12 6788   0.073   5.032   6.220 -0.1380 -0.3436  0.2713
   77OSM    C1S 6789  -0.061   5.251   5.996 -0.0985 -0.3696  0.0671
   77OSM    H1S 6790   0.039   5.227   5.955  0.3793  0.8244  0.4889
   77OSM    H1T 6791  -0.066   5.351   6.045 -0.9690 -0.4201  0.1036
   77OSM     NF 6792  -0.120   5.357   5.773 -0.0600  0.1954 -0.0116
   77OSM    HNF 6793  -0.158   5.448   5.759 -2.2619 -0.7869 -0.9881
   77OSM    C2S 6794  -0.169   5.266   5.883 -0.3758  0.3197  0.3345
   77OSM    H2S 6795  -0.186   5.163   5.845  0.3992 -0.6702  2.4491
   77OSM    C3S 6796  -0.298   5.315   5.952  0.0465  0.2588  0.0717
   77OSM    H3S 6797  -0.296   5.422   5.980  1.9175  0.0810  0.7143
   77OSM     O3 6798  -0.333   5.244   6.067 -0.6759 -0.3992 -0.3349
   77OSM    HO3 6799  -0.246   5.209   6.087 -0.7237  0.0371  0.7148
   77OSM    C4S 6800  -0.396   5.288   5.841  0.3617  0.0758 -0.6794
   77OSM    H4S 6801  -0.417   5.181   5.827 -0.5527  0.0850  0.4694
   77OSM    C5S 6802  -0.455   5.375   5.751 -0.1620  0.3035 -0.6000
   77OSM    H5S 6803  -0.425   5.480   5.757 -0.1124  0.3507 -1.6005
   77OSM    C6S 6804  -0.545   5.337   5.636 -0.9287 -0.2020 -0.1968
   77OSM    H6S 6805  -0.637   5.397   5.625  0.1365  1.1876 -2.2597
   77OSM    H6T 6806  -0.567   5.232   5.665  0.8988 -0.2406  1.2590
   77OSM    C7S 6807  -0.460   5.345   5.509 -0.0265  0.5985  0.1050
   77OSM    H7S 6808  -0.503   5.272   5.437  2.2129  1.9243 -2.7712
   77OSM    H7T 6809  -0.356   5.307   5.519  0.0417  0.2299 -1.7101
   77OSM    C8S 6810  -0.460   5.476   5.428 -0.8420  0.5106  0.1117
   77OSM    H8S 6811  -0.409   5.562   5.476 -1.0021  0.1883  0.8807
   77OSM    H8T 6812  -0.566   5.494   5.403 -0.7694 -0.3063 -0.8370
   77OSM    C9S 6813  -0.395   5.455   5.289  0.1697 -0.5377  0.0537
   77OSM    H9S 6814  -0.430   5.359   5.245 -0.7479  0.9619 -2.7641
   77OSM    H9T 6815  -0.285   5.456   5.306  0.3037  0.1340 -0.7757
   77OSM   C10S 6816  -0.451   5.561   5.191 -0.1935  1.0204  0.3125
   77OSM   H10S 6817  -0.435   5.664   5.229 -4.1680  1.9285  0.0222
   77OSM   H10T 6818  -0.561   5.547   5.182 -0.0983 -0.6224  1.2847
   77OSM   C11S 6819  -0.397   5.538   5.052 -0.4671 -0.6160 -0.2268
   77OSM   H11S 6820  -0.429   5.441   5.006 -3.4813 -0.0805  0.5250
   77OSM   H11T 6821  -0.286   5.546   5.051 -0.6176  2.1692 -0.7081
   77OSM   C12S 6822  -0.446   5.648   4.953 -0.0892  0.4510  0.2227
   77OSM   H12S 6823  -0.380   5.737   4.964  1.7746 -1.0043  1.6832
   77OSM   H12T 6824  -0.550   5.676   4.977 -0.6996 -2.1479  0.8664
   77OSM   C13S 6825  -0.422   5.603   4.807 -1.0794 -0.5399 -0.2143
   77OSM   H13S 6826  -0.451   5.685   4.739 -0.2053  0.9586  1.1549
   77OSM   H13T 6827  -0.490   5.519   4.779 -1.3354 -0.0162 -1.1891
   77OSM   C14S 6828  -0.278   5.558   4.768  0.9473  1.1122  0.2853
   77OSM   H14S 6829  -0.260   5.471   4.836 -2.0982  1.1305  1.2802
   77OSM   H14T 6830  -0.212   5.644   4.791  2.3026  0.3497 -0.5879
   77OSM   C15S 6831  -0.263   5.502   4.624 -0.5930  0.2172  0.4026
   77OSM   H15S 6832  -0.290   5.591   4.562  0.3104 -0.1526 -0.5561
   77OSM   H15T 6833  -0.347   5.432   4.606 -1.3495  0.6673  1.9707
   77OSM   C16S 6834  -0.129   5.445   4.577  0.1213 -0.0888 -0.0810
   77OSM   H16S 6835  -0.046   5.490   4.637 -2.2123  1.1783  2.4093
   77OSM   H16T 6836  -0.104   5.471   4.472 -0.1107 -1.0107 -0.3723
   77OSM   C17S 6837  -0.113   5.290   4.586 -0.3597 -0.0074  0.4502
   77OSM   H17S 6838  -0.177   5.242   4.509  1.6465 -0.3167 -1.1150
   77OSM   H17T 6839  -0.148   5.261   4.688  0.4375 -1.2409  0.4071
   77OSM   C18S 6840   0.030   5.231   4.561  0.4549  0.0947 -0.6836
   77OSM   H18S 6841   0.075   5.280   4.471  1.0078 -1.3561 -1.2191
   77OSM   H18T 6842   0.026   5.124   4.532  0.7674  0.1445 -0.9183
   77OSM   H18U 6843   0.080   5.253   4.657 -1.1030  1.0883 -0.0623
   77OSM    C1F 6844  -0.032   5.312   5.681 -0.2419 -0.2451  0.0916
   77OSM     OF 6845   0.024   5.201   5.698 -0.3629 -0.0195 -0.5775
   77OSM    C2F 6846   0.006   5.407   5.566 -0.3970 -0.3455  0.2241
   77OSM    H2F 6847   0.028   5.509   5.603 -1.9045  0.1891 -0.3146
   77OSM    H2G 6848  -0.081   5.412   5.497 -2.6320 -0.1705  2.9066
   77OSM    C3F 6849   0.121   5.357   5.485 -0.3915 -0.7639 -0.3392
   77OSM    H3F 6850   0.121   5.247   5.497  0.7280 -0.6887  0.6050
   77OSM    H3G 6851   0.217   5.385   5.533 -1.0653 -1.3329  1.4267
   77OSM    C4F 6852   0.130   5.394   5.338 -0.0517 -0.2248  0.1426
   77OSM    H4F 6853   0.060   5.331   5.279 -0.8819  1.5717 -0.8729
   77OSM    H4G 6854   0.238   5.374   5.324  0.8484  2.9100  1.7329
   77OSM    C5F 6855   0.109   5.544   5.306  0.4387  0.5264  0.1481
   77OSM    H5F 6856   0.170   5.604   5.376  2.5112 -0.0613 -1.0609
   77OSM    H5G 6857   0.002   5.571   5.324  0.0554  0.0638 -1.2480
   77OSM    C6F 6858   0.148   5.579   5.157  0.3089 -0.0406 -0.4863
   77OSM    H6F 6859   0.256   5.553   5.145  1.4198  4.3693 -1.7487
   77OSM    H6G 6860   0.134   5.687   5.138  0.1302  0.0350  0.0572
   77OSM    C7F 6861   0.073   5.496   5.054  0.3447 -0.0201  0.1134
   77OSM    H7F 6862  -0.033   5.526   5.066  0.2300 -0.6332  0.7059
   77OSM    H7G 6863   0.071   5.386   5.070  0.2929 -0.1285 -0.6192
   77OSM    C8F 6864   0.108   5.548   4.913 -0.4696  0.8288 -0.1166
   77OSM    H8F 6865   0.084   5.656   4.901 -2.6902  0.4210  0.1450
   77OSM    H8G 6866   0.031   5.504   4.847 -1.0005  1.1380  0.2886
   77OSM    C9F 6867   0.255   5.521   4.868 -0.2125  0.7598 -0.2826
   77OSM    H9F 6868   0.296   5.428   4.909 -2.1674  0.6147  1.5285
   77OSM   C10F 6869   0.322   5.593   4.783 -0.3221 -0.1659  0.1005
   77OSM   H10F 6870   0.423   5.561   4.752 -0.2017  3.4907 -4.3986
   77OSM   C11F 6871   0.284   5.726   4.722  0.6175 -0.0081 -0.6141
   77OSM   H11F 6872   0.218   5.770   4.801  0.4619  0.4442 -0.9896
   77OSM   H11G 6873   0.222   5.715   4.631 -0.9513 -1.4547  0.5516
   77OSM   C12F 6874   0.403   5.823   4.705 -0.5759  0.1754  1.1041
   77OSM   H12F 6875   0.474   5.813   4.790  2.6125  0.7784 -1.2994
   77OSM   H12G 6876   0.377   5.931   4.699  1.2146  0.5446 -0.7597
   77OSM   C13F 6877   0.489   5.779   4.588  0.0231 -0.1030  0.5424
   77OSM   H13F 6878   0.425   5.788   4.498  0.1877 -3.0600  0.0211
   77OSM   H13G 6879   0.512   5.670   4.587  0.0090 -0.1199  1.2660
   77OSM   C14F 6880   0.612   5.866   4.564  0.0056  0.0238  0.3209
   77OSM   H14F 6881   0.687   5.861   4.646  0.5071  3.5530  0.2284
   77OSM   H14G 6882   0.582   5.972   4.556  0.7099  0.2187  0.1768
   77OSM   C15F 6883   0.677   5.818   4.430 -0.6717 -0.0343  0.2929
   77OSM   H15F 6884   0.622   5.728   4.393 -3.5932  0.4981  2.9164
   77OSM   H15G 6885   0.783   5.787   4.436 -1.2484 -2.7736 -1.3888
   77OSM   C16F 6886   0.672   5.935   4.336  1.3746 -0.2793 -0.2794
   77OSM   H16F 6887   0.725   6.023   4.379 -0.3059 -0.0534  1.4481
   77OSM   H16G 6888   0.567   5.968   4.320  1.9810  0.9017 -2.2366
   77OSM   C17F 6889   0.734   5.916   4.197  0.8644  0.1988 -0.1849
   77OSM   H17F 6890   0.829   5.863   4.218  0.7710 -0.1020 -0.5114
   77OSM   H17G 6891   0.764   6.009   4.143 -0.7189  0.4600 -0.6664
   77OSM   C18F 6892   0.660   5.822   4.099 -0.8494 -0.3455 -0.5726
   77OSM   H18F 6893   0.566   5.865   4.059 -0.9951 -0.9387 -0.8903
   77OSM   H18G 6894   0.633   5.736   4.165  0.6832  2.1988  3.7807
   77OSM   H18H 6895   0.736   5.792   4.024  2.1310 -0.0306  2.1035
   78OSM      N 6896   5.471   0.301   6.572 -0.3537 -0.7956  0.4518
   78OSM    C15 6897   5.353   0.349   6.660  0.4380 -0.1838 -0.4057
   78OSM   H15A 6898   5.299   0.430   6.612 -0.5594  0.7463  2.0847
   78OSM   H15B 6899   5.392   0.388   6.753  0.3057 -0.2519 -0.3214
   78OSM   H15C 6900   5.281   0.277   6.697 -0.1687 -0.2369 -1.6361
   78OSM    C14 6901   5.566   0.416   6.571 -0.2326 -0.1401 -0.7229
   78OSM   H14A 6902   5.609   0.434   6.669 -1.0637 -1.0135 -0.1800
   78OSM   H14B 6903   5.512   0.507   6.546 -1.3489 -0.3239  0.9009
   78OSM   H14C 6904   5.643   0.397   6.497  1.3068  1.6944  0.2978
   78OSM    C13 6905   5.542   0.184   6.625  0.3480  0.0298 -0.4144
   78OSM   H13A 6906   5.639   0.170   6.579  1.1759  0.2155  1.2017
   78OSM   H13B 6907   5.478   0.101   6.601 -1.2656  1.1287 -0.0721
   78OSM   H13C 6908   5.565   0.202   6.729  1.8202  2.2916 -1.0367
   78OSM    C12 6909   5.413   0.273   6.439  0.1173 -0.4721 -0.2780
   78OSM   H12A 6910   5.341   0.349   6.410 -0.0361  0.0005  1.2841
   78OSM   H12B 6911   5.367   0.176   6.445  0.2550 -0.4977  0.4564
   78OSM    C11 6912   5.517   0.271   6.324 -0.1058  0.1698  0.2347
   78OSM   H11A 6913   5.561   0.373   6.321  0.8451 -0.2468 -0.3969
   78OSM   H11B 6914   5.456   0.262   6.231 -0.4172  0.3925  0.4168
   78OSM      P 6915   5.568   0.016   6.310  0.1576  0.0095  0.0407
   78OSM    O13 6916   5.683  -0.072   6.284 -0.2331 -0.5658  0.6069
   78OSM    O14 6917   5.471  -0.032   6.415  0.1886  0.0101 -0.4528
   78OSM    O11 6918   5.479   0.040   6.180 -0.0509  0.6988  0.1857
   78OSM    O12 6919   5.614   0.161   6.335 -0.8569 -0.4067 -0.1590
   78OSM    C1S 6920   5.540   0.066   6.053  0.0947  0.4948  0.2618
   78OSM    H1S 6921   5.600  -0.022   6.021 -0.6264  0.6627 -1.6622
   78OSM    H1T 6922   5.611   0.151   6.063 -0.7476  1.0256  2.2234
   78OSM     NF 6923   5.515   0.106   5.816 -0.0722 -0.0127  0.5095
   78OSM    HNF 6924   5.521   0.197   5.776  0.3181 -0.0134  0.5618
   78OSM    C2S 6925   5.441   0.097   5.940 -0.3927  0.4816  0.1928
   78OSM    H2S 6926   5.380   0.004   5.942  0.3664 -0.0168  0.7944
   78OSM    C3S 6927   5.353   0.218   5.982  0.0089  0.4080 -0.0397
   78OSM    H3S 6928   5.418   0.305   6.008 -2.2311  1.7977  1.2195
   78OSM     O3 6929   5.249   0.204   6.084 -0.4242  0.4066 -0.2639
   78OSM    HO3 6930   5.282   0.144   6.151 -0.3116  0.7063 -0.0508
   78OSM    C4S 6931   5.277   0.263   5.856 -0.1907  0.5027 -0.0201
   78OSM    H4S 6932   5.208   0.186   5.819 -1.6810  1.2535  1.0909
   78OSM    C5S 6933   5.292   0.382   5.801  0.3921 -0.8400  0.3293
   78OSM    H5S 6934   5.362   0.454   5.846 -0.1009  0.8154 -1.4384
   78OSM    C6S 6935   5.221   0.426   5.680 -0.3337  0.2370  0.1811
   78OSM    H6S 6936   5.299   0.490   5.634  3.7452 -2.0053  3.3063
   78OSM    H6T 6937   5.141   0.498   5.704  0.7804  1.9739 -1.1036
   78OSM    C7S 6938   5.171   0.325   5.577 -0.6887 -0.1642 -0.4923
   78OSM    H7S 6939   5.099   0.253   5.622 -0.1810 -0.1813  0.3040
   78OSM    H7T 6940   5.259   0.263   5.547  0.6491  1.5855 -0.2964
   78OSM    C8S 6941   5.109   0.376   5.447  0.4250 -0.1340 -1.0313
   78OSM    H8S 6942   5.093   0.285   5.387 -1.4805 -1.5365  1.4287
   78OSM    H8T 6943   5.178   0.446   5.395  0.1347 -0.3807 -1.7556
   78OSM    C9S 6944   4.977   0.452   5.466 -0.4063  0.8451 -0.6954
   78OSM    H9S 6945   4.985   0.538   5.536 -1.1094 -1.2766  2.1956
   78OSM    H9T 6946   4.912   0.390   5.532  1.1497  0.1050  0.2164
   78OSM   C10S 6947   4.911   0.498   5.340 -0.3656  0.2688 -0.2735
   78OSM   H10S 6948   4.807   0.531   5.359 -0.1045  0.5436  0.7493
   78OSM   H10T 6949   4.910   0.409   5.274  1.0605 -1.1523  1.5240
   78OSM   C11S 6950   4.971   0.619   5.271 -0.1869 -0.5050 -0.3834
   78OSM   H11S 6951   5.080   0.598   5.280  0.3823  1.0312 -2.7760
   78OSM   H11T 6952   4.958   0.705   5.339 -0.1106 -2.0892  1.7358
   78OSM   C12S 6953   4.919   0.652   5.132 -0.0049 -0.3832 -0.5522
   78OSM   H12S 6954   4.958   0.747   5.090  0.5697 -1.2507 -2.0693
   78OSM   H12T 6955   4.810   0.675   5.131 -0.4051 -1.7928  2.4078
   78OSM   C13S 6956   4.955   0.552   5.030  0.0487  0.2613 -0.3216
   78OSM   H13S 6957   4.886   0.470   5.059  1.0301  0.3368  2.5908
   78OSM   H13T 6958   5.058   0.513   5.044 -0.2660 -0.2318  0.7116
   78OSM   C14S 6959   4.945   0.619   4.884  0.5598  0.6225 -0.5248
   78OSM   H14S 6960   4.996   0.717   4.880  1.0202  0.3425 -2.8765
   78OSM   H14T 6961   4.836   0.644   4.890  0.3104 -0.6222  0.8960
   78OSM   C15S 6962   4.993   0.533   4.774  0.0569 -0.0027  0.5812
   78OSM   H15S 6963   4.959   0.427   4.773 -0.6504  0.1775 -1.8929
   78OSM   H15T 6964   5.104   0.525   4.764  0.0288  0.4107 -0.0995
   78OSM   C16S 6965   4.952   0.587   4.634 -0.1485 -0.5071 -1.0440
   78OSM   H16S 6966   4.841   0.585   4.628 -0.2438  1.6660 -1.0397
   78OSM   H16T 6967   4.986   0.515   4.557  0.5638 -0.3069 -0.9271
   78OSM   C17S 6968   4.997   0.724   4.603 -0.0807 -0.3081 -0.3299
   78OSM   H17S 6969   4.967   0.809   4.668  1.1520  0.7693 -1.1049
   78OSM   H17T 6970   4.970   0.763   4.503  0.7104  1.6549  0.1763
   78OSM   C18S 6971   5.152   0.721   4.613 -0.2929  0.0244 -0.8758
   78OSM   H18S 6972   5.175   0.714   4.722 -0.8257  0.9071 -0.6998
   78OSM   H18T 6973   5.197   0.808   4.561  1.1740  0.2200  0.6381
   78OSM   H18U 6974   5.182   0.625   4.564 -0.5943 -1.1943  1.2088
   78OSM    C1F 6975   5.587   0.009   5.771  0.0238  0.3830 -0.6804
   78OSM     OF 6976   5.555  -0.102   5.815 -0.2913  0.0403 -0.3911
   78OSM    C2F 6977   5.689   0.031   5.661  0.6745  0.4618 -0.2791
   78OSM    H2F 6978   5.748   0.123   5.681 -0.1862  0.7518  0.9918
   78OSM    H2G 6979   5.635   0.043   5.565  0.1711 -0.9466 -0.1903
   78OSM    C3F 6980   5.774  -0.101   5.646  0.6297 -0.3647  0.9086
   78OSM    H3F 6981   5.712  -0.179   5.597  1.5867 -0.4849 -0.1375
   78OSM    H3G 6982   5.811  -0.135   5.745 -0.0488  1.5694  1.8850
   78OSM    C4F 6983   5.904  -0.072   5.565 -0.1108 -0.4663  0.2374
   78OSM    H4F 6984   5.970  -0.161   5.574 -0.7904 -0.8947  1.3167
   78OSM    H4G 6985   5.959   0.010   5.616  1.2439 -1.2723  0.1099
   78OSM    C5F 6986   5.882  -0.016   5.418  0.0094  0.6820 -0.8363
   78OSM    H5F 6987   5.843   0.088   5.419 -1.5897  0.1250  0.6362
   78OSM    H5G 6988   5.811  -0.085   5.367 -0.5709  1.2952 -0.8706
   78OSM    C6F 6989   6.011  -0.034   5.338  0.3931 -0.4822  0.5452
   78OSM    H6F 6990   6.031  -0.144   5.338  0.2284 -0.5145  0.0898
   78OSM    H6G 6991   6.092   0.020   5.391 -1.4621  0.9081  2.1185
   78OSM    C7F 6992   5.993   0.005   5.185  0.0613  0.3691  0.2518
   78OSM    H7F 6993   5.910  -0.063   5.155 -1.0854  1.6146  0.5178
   78OSM    H7G 6994   6.091  -0.004   5.133  0.0309  1.6927 -0.0823
   78OSM    C8F 6995   5.953   0.151   5.175 -0.3111  0.3238 -0.0851
   78OSM    H8F 6996   6.022   0.222   5.225 -1.0875  0.3499  0.9783
   78OSM    H8G 6997   5.857   0.184   5.218 -0.2761  3.4503 -2.0619
   78OSM    C9F 6998   5.943   0.196   5.030 -0.7367 -0.0476 -0.1422
   78OSM    H9F 6999   6.042   0.224   4.990  0.2598 -3.9465 -0.8097
   78OSM   C10F 7000   5.835   0.197   4.955  0.6104 -0.5663  0.4500
   78OSM   H10F 7001   5.841   0.222   4.848  0.3492 -0.4898  0.4523
   78OSM   C11F 7002   5.700   0.145   4.997  0.1837  0.3821 -0.0774
   78OSM   H11F 7003   5.699   0.110   5.102  1.3849 -0.2193 -0.2498
   78OSM   H11G 7004   5.680   0.054   4.936  1.7029 -0.8792  1.2037
   78OSM   C12F 7005   5.585   0.244   4.969  0.7987 -0.8441  0.4725
   78OSM   H12F 7006   5.619   0.346   4.996  0.9301 -0.7686  0.0359
   78OSM   H12G 7007   5.499   0.223   5.036  0.5723  1.4005  0.9350
   78OSM   C13F 7008   5.552   0.256   4.814 -0.0269  0.1492  1.0382
   78OSM   H13F 7009   5.515   0.158   4.780  2.0285 -1.4101  2.9862
   78OSM   H13G 7010   5.629   0.304   4.750 -0.5090 -0.2072  0.1718
   78OSM   C14F 7011   5.434   0.355   4.791  0.4895  0.0178 -0.0960
   78OSM   H14F 7012   5.469   0.460   4.797 -0.5462  0.4562 -1.3571
   78OSM   H14G 7013   5.357   0.339   4.870  0.2689  0.5457 -0.2015
   78OSM   C15F 7014   5.364   0.362   4.652 -0.0957  0.7882  0.2743
   78OSM   H15F 7015   5.273   0.425   4.661 -0.0169  0.5584  3.9741
   78OSM   H15G 7016   5.332   0.260   4.621  1.5215 -0.0236  1.1632
   78OSM   C16F 7017   5.448   0.429   4.535 -0.7135 -0.4192 -0.1123
   78OSM   H16F 7018   5.557   0.412   4.552 -0.7809  0.5255  1.5094
   78OSM   H16G 7019   5.418   0.536   4.533 -1.8280 -0.7263 -2.3392
   78OSM   C17F 7020   5.409   0.357   4.408 -0.3695 -0.1877 -0.1588
   78OSM   H17F 7021   5.300   0.341   4.421 -0.1263 -1.3137  0.7045
   78OSM   H17G 7022   5.455   0.256   4.414  0.5384  0.2563  0.8375
   78OSM   C18F 7023   5.444   0.428   4.272 -0.1010  0.0881 -0.1645
   78OSM   H18F 7024   5.426   0.357   4.188  0.7246 -0.2591 -0.0540
   78OSM   H18G 7025   5.554   0.441   4.282  0.4777 -2.7900 -1.7089
   78OSM   H18H 7026   5.387   0.522   4.257  0.3299  0.4302  0.3117
   79OSM      N 7027   4.161   3.076   1.600  0.1276  0.1123 -0.4881
   79OSM    C15 7028   4.082   3.204   1.576 -0.2694  0.2870 -0.3546
   79OSM   H15A 7029   4.136   3.293   1.607 -0.2888 -0.1483  1.0071
   79OSM   H15B 7030   3.993   3.204   1.637 -0.3258 -2.2636 -0.3287
   79OSM   H15C 7031   4.066   3.213   1.470  1.2387 -0.0425 -0.6290
   79OSM    C14 7032   4.091   2.966   1.530  0.0681 -0.1272 -0.0088
   79OSM   H14A 7033   3.998   2.959   1.583  0.6825  1.5583  1.3770
   79OSM   H14B 7034   4.144   2.873   1.520  0.0409 -0.0769 -0.7143
   79OSM   H14C 7035   4.059   3.004   1.434 -1.0087  1.2944  0.8668
   79OSM    C13 7036   4.287   3.103   1.544  0.3370  0.0730  0.2348
   79OSM   H13A 7037   4.350   3.015   1.546  1.0878  0.5980  0.1890
   79OSM   H13B 7038   4.326   3.182   1.607  0.9581  0.8576 -1.1102
   79OSM   H13C 7039   4.294   3.142   1.444  1.5717  0.5041  0.4714
   79OSM    C12 7040   4.182   3.036   1.749 -0.1662 -0.1440 -0.0435
   79OSM   H12A 7041   4.245   2.948   1.755 -2.0602 -1.6098 -0.5849
   79OSM   H12B 7042   4.091   2.995   1.790 -0.6933 -0.2917 -1.3087
   79OSM    C11 7043   4.238   3.141   1.844 -0.2862 -0.4386  0.2174
   79OSM   H11A 7044   4.230   3.123   1.954  1.7765  1.4894  0.7448
   79OSM   H11B 7045   4.158   3.218   1.841 -0.9947 -1.1567  0.0238
   79OSM      P 7046   4.497   3.119   1.858 -0.0147 -0.3379  0.2213
   79OSM    O13 7047   4.504   2.974   1.827 -0.4065  0.0887 -0.2622
   79OSM    O14 7048   4.614   3.196   1.814 -0.3285 -0.6550 -0.7169
   79OSM    O11 7049   4.483   3.157   2.016  0.0140  0.0389  0.1936
   79OSM    O12 7050   4.367   3.191   1.802 -0.4059  0.0875  0.1294
   79OSM    C1S 7051   4.432   3.288   2.055 -0.1887 -0.0346 -0.6764
   79OSM    H1S 7052   4.322   3.279   2.046 -0.4935  1.1093  1.3273
   79OSM    H1T 7053   4.473   3.367   1.989 -0.0243  0.5407  0.1147
   79OSM     NF 7054   4.404   3.442   2.248  0.2884 -0.6786  0.4360
   79OSM    HNF 7055   4.445   3.532   2.233  2.3580 -1.3244  1.7913
   79OSM    C2S 7056   4.478   3.323   2.208 -0.7431 -0.7591 -0.5887
   79OSM    H2S 7057   4.436   3.242   2.272  0.5203 -0.0271  1.2377
   79OSM    C3S 7058   4.628   3.340   2.220  0.6296 -0.0540 -0.4435
   79OSM    H3S 7059   4.661   3.413   2.142  0.2137  1.4386  0.7171
   79OSM     O3 7060   4.692   3.211   2.207 -0.2428  0.0862  0.4818
   79OSM    HO3 7061   4.620   3.147   2.206  1.6990 -2.3710 -2.5539
   79OSM    C4S 7062   4.655   3.391   2.357  0.2647  0.1130 -0.3878
   79OSM    H4S 7063   4.696   3.493   2.353 -1.6750  0.8994 -2.7402
   79OSM    C5S 7064   4.626   3.332   2.474  0.3716 -0.5266 -0.3557
   79OSM    H5S 7065   4.560   3.244   2.479 -0.0573 -0.2836 -1.4278
   79OSM    C6S 7066   4.652   3.398   2.608 -0.0619  0.3299  0.3593
   79OSM    H6S 7067   4.558   3.398   2.667 -1.4253  1.9193 -1.6553
   79OSM    H6T 7068   4.666   3.507   2.593 -2.9479  0.4733 -2.2299
   79OSM    C7S 7069   4.762   3.335   2.677 -0.4218  0.7200 -0.0664
   79OSM    H7S 7070   4.856   3.371   2.630 -0.0081 -2.5144 -2.0397
   79OSM    H7T 7071   4.767   3.225   2.668 -1.4632  0.6374  0.2336
   79OSM    C8S 7072   4.763   3.367   2.832 -0.1871 -0.2704  0.5041
   79OSM    H8S 7073   4.668   3.325   2.869 -0.6968 -2.0236 -2.4463
   79OSM    H8T 7074   4.751   3.477   2.840 -2.2935 -0.4489  0.3638
   79OSM    C9S 7075   4.885   3.309   2.905 -0.6713  0.0001  0.0331
   79OSM    H9S 7076   4.973   3.338   2.844 -1.6105  2.0681 -0.4140
   79OSM    H9T 7077   4.874   3.199   2.917 -0.4327  0.0227  0.4729
   79OSM   C10S 7078   4.905   3.385   3.032  0.2999 -0.3403 -0.5348
   79OSM   H10S 7079   4.938   3.488   3.005  2.0983 -0.8004 -0.1781
   79OSM   H10T 7080   4.986   3.346   3.097 -1.2644 -2.0715  0.4630
   79OSM   C11S 7081   4.782   3.380   3.129  0.1175 -0.1234 -0.1099
   79OSM   H11S 7082   4.765   3.275   3.161  2.8467 -0.1648  1.4997
   79OSM   H11T 7083   4.687   3.419   3.086  0.6499  0.6351 -0.6241
   79OSM   C12S 7084   4.798   3.450   3.267 -1.2097 -0.2792 -0.3766
   79OSM   H12S 7085   4.843   3.550   3.251 -0.0966 -0.9163 -1.3540
   79OSM   H12T 7086   4.862   3.386   3.332 -0.7828 -0.2573 -0.7695
   79OSM   C13S 7087   4.662   3.468   3.347 -0.7379 -0.8027 -0.1900
   79OSM   H13S 7088   4.602   3.535   3.282  2.1194  0.6974 -1.4732
   79OSM   H13T 7089   4.680   3.522   3.442 -0.0349 -3.1912  1.1222
   79OSM   C14S 7090   4.599   3.337   3.376 -0.0083  0.3391 -0.9635
   79OSM   H14S 7091   4.669   3.266   3.425 -0.4480  0.1393 -0.6130
   79OSM   H14T 7092   4.574   3.291   3.278 -0.8023 -0.5448 -0.3631
   79OSM   C15S 7093   4.466   3.343   3.465 -0.2725 -0.7953  0.2539
   79OSM   H15S 7094   4.433   3.239   3.490  1.0419 -1.2899 -0.0005
   79OSM   H15T 7095   4.389   3.386   3.397 -1.3477 -1.3052  1.0948
   79OSM   C16S 7096   4.465   3.423   3.594 -0.4868 -0.7773  0.7757
   79OSM   H16S 7097   4.427   3.524   3.568 -1.0164 -0.9350  0.9077
   79OSM   H16T 7098   4.563   3.440   3.642 -0.2720  1.1018 -0.2462
   79OSM   C17S 7099   4.359   3.374   3.696  0.0121 -0.2956 -0.2951
   79OSM   H17S 7100   4.358   3.264   3.711 -0.6475 -0.2791 -0.1631
   79OSM   H17T 7101   4.256   3.385   3.655 -1.0171 -1.7492  1.7313
   79OSM   C18S 7102   4.387   3.444   3.828 -0.4210  0.2065  0.3363
   79OSM   H18S 7103   4.312   3.408   3.902 -0.3732  0.6893  0.6299
   79OSM   H18T 7104   4.363   3.552   3.840  0.5707  0.2286  2.8295
   79OSM   H18U 7105   4.491   3.442   3.868  0.5063  1.6646 -1.8179
   79OSM    C1F 7106   4.270   3.447   2.259  0.4941 -0.1443 -0.1887
   79OSM     OF 7107   4.200   3.343   2.244  0.7659  0.1496  0.8077
   79OSM    C2F 7108   4.196   3.582   2.272 -0.0675  0.3755  0.3395
   79OSM    H2F 7109   4.124   3.597   2.189  0.0424  0.3484  0.2387
   79OSM    H2G 7110   4.277   3.657   2.278  1.5117 -1.3638  2.5414
   79OSM    C3F 7111   4.113   3.579   2.404  0.4426 -0.3889 -0.3077
   79OSM    H3F 7112   4.023   3.515   2.410  0.2766 -0.1991 -0.7645
   79OSM    H3G 7113   4.086   3.684   2.428  0.3230 -0.2673 -0.9708
   79OSM    C4F 7114   4.206   3.539   2.521 -0.4238  0.5808  0.3713
   79OSM    H4F 7115   4.307   3.587   2.521 -0.6115  0.9839  0.0437
   79OSM    H4G 7116   4.227   3.430   2.520  0.8697  0.7900  1.6172
   79OSM    C5F 7117   4.145   3.562   2.661  0.2408  0.2866  0.5059
   79OSM    H5F 7118   4.046   3.512   2.654  1.2777 -1.6828 -1.4882
   79OSM    H5G 7119   4.125   3.670   2.676 -0.2813  0.1061  1.1696
   79OSM    C6F 7120   4.221   3.501   2.781 -0.4733  0.0959  0.6362
   79OSM    H6F 7121   4.329   3.514   2.757 -0.4120  1.2019  1.4135
   79OSM    H6G 7122   4.199   3.392   2.778 -0.0511  0.0381 -1.0710
   79OSM    C7F 7123   4.174   3.558   2.911  0.4210  0.2956  0.3207
   79OSM    H7F 7124   4.078   3.511   2.943  0.6692  0.4704  1.3480
   79OSM    H7G 7125   4.156   3.668   2.905 -2.4729 -0.0542  0.9285
   79OSM    C8F 7126   4.270   3.518   3.023  0.0560  0.3016 -0.4567
   79OSM    H8F 7127   4.375   3.554   3.015  1.2839 -3.1878 -2.1082
   79OSM    H8G 7128   4.285   3.408   3.019 -0.4689  0.2133  0.0066
   79OSM    C9F 7129   4.214   3.547   3.156  0.1033 -0.1043 -0.0369
   79OSM    H9F 7130   4.236   3.654   3.174  0.9770  0.2446 -2.6502
   79OSM   C10F 7131   4.148   3.460   3.231  0.4549 -0.3023 -0.5003
   79OSM   H10F 7132   4.118   3.498   3.329  0.1988 -0.0446 -0.6763
   79OSM   C11F 7133   4.105   3.318   3.197 -0.2060  0.3137 -0.2986
   79OSM   H11F 7134   4.145   3.282   3.100  1.0494 -0.8364  0.6091
   79OSM   H11G 7135   3.996   3.327   3.174 -0.0987  0.3604 -0.7863
   79OSM   C12F 7136   4.126   3.213   3.306 -0.2890  0.5528 -0.4064
   79OSM   H12F 7137   4.232   3.202   3.337  0.1353  1.4370 -1.4737
   79OSM   H12G 7138   4.095   3.113   3.269  0.9554 -0.1665  0.4228
   79OSM   C13F 7139   4.049   3.231   3.437 -0.2196  0.1825 -0.3725
   79OSM   H13F 7140   3.943   3.251   3.411 -0.4348 -1.6903 -1.1094
   79OSM   H13G 7141   4.091   3.316   3.495  0.0844 -0.1062 -0.1689
   79OSM   C14F 7142   4.064   3.097   3.519 -0.5514  0.5501 -0.0618
   79OSM   H14F 7143   4.172   3.087   3.544 -0.7207  1.0436  0.9361
   79OSM   H14G 7144   4.044   3.010   3.453 -1.6513  0.4170  0.4289
   79OSM   C15F 7145   3.980   3.079   3.651  0.0350  0.8351  0.1090
   79OSM   H15F 7146   4.009   2.982   3.697 -0.3781  0.1063 -1.1188
   79OSM   H15G 7147   3.873   3.076   3.622 -0.5238 -1.4103  2.1000
   79OSM   C16F 7148   4.014   3.183   3.764  0.5076  0.6171  0.2387
   79OSM   H16F 7149   3.963   3.277   3.734 -1.6100 -0.4164  0.4129
   79OSM   H16G 7150   4.124   3.202   3.767  0.5745  0.6883 -1.7387
   79OSM   C17F 7151   3.942   3.154   3.902 -0.2286  0.1207 -0.9583
   79OSM   H17F 7152   3.958   3.045   3.916  0.5454  0.4409  1.0450
   79OSM   H17G 7153   3.832   3.158   3.894 -0.2439 -1.0235 -1.4106
   79OSM   C18F 7154   4.005   3.234   4.011  0.4686  0.1098 -0.0815
   79OSM   H18F 7155   3.995   3.343   3.996 -2.4918 -0.2832 -1.6686
   79OSM   H18G 7156   4.116   3.220   4.012  0.5677  0.8792 -0.0214
   79OSM   H18H 7157   3.976   3.214   4.116  1.6990 -3.2235 -0.2420
   80OSM      N 7158   2.539   3.716   1.779 -0.0370 -0.1263 -0.2912
   80OSM    C15 7159   2.507   3.615   1.669 -0.4026  0.0923  0.0031
   80OSM   H15A 7160   2.579   3.535   1.660  0.5066  0.8360  0.4414
   80OSM   H15B 7161   2.505   3.664   1.573 -1.7796  1.2203  0.5725
   80OSM   H15C 7162   2.409   3.574   1.686  0.0118 -1.8708 -1.8172
   80OSM    C14 7163   2.673   3.786   1.757  0.6418 -0.4873  0.9022
   80OSM   H14A 7164   2.753   3.713   1.761 -0.0550 -1.2571  4.5103
   80OSM   H14B 7165   2.691   3.863   1.831 -0.0928 -0.8655  1.4837
   80OSM   H14C 7166   2.662   3.840   1.665 -2.7123  0.9491  1.9936
   80OSM    C13 7167   2.430   3.810   1.763  1.1914 -0.5424 -0.3035
   80OSM   H13A 7168   2.420   3.841   1.660  0.4016  0.7830  0.1357
   80OSM   H13B 7169   2.418   3.893   1.832 -2.3911 -2.6108  1.8765
   80OSM   H13C 7170   2.334   3.763   1.780  0.9738  0.0081  0.0344
   80OSM    C12 7171   2.539   3.654   1.919 -0.1336  0.4528  0.2641
   80OSM   H12A 7172   2.440   3.613   1.937 -0.9905  0.1894 -3.9995
   80OSM   H12B 7173   2.568   3.732   1.988  0.1365 -0.8654  1.6871
   80OSM    C11 7174   2.638   3.543   1.946  0.1365 -0.4256 -0.1857
   80OSM   H11A 7175   2.742   3.582   1.953 -0.5008  1.2710  0.5072
   80OSM   H11B 7176   2.626   3.473   1.861 -1.3189 -2.3065  1.4725
   80OSM      P 7177   2.465   3.388   2.068  0.2821 -0.1427 -0.2257
   80OSM    O13 7178   2.338   3.456   2.010  0.1113  0.3472 -0.4739
   80OSM    O14 7179   2.497   3.246   2.021  0.1642  0.2293  0.3489
   80OSM    O11 7180   2.435   3.370   2.220 -0.1296  0.0073  0.5990
   80OSM    O12 7181   2.593   3.484   2.066  0.0024  0.5316 -0.1209
   80OSM    C1S 7182   2.521   3.372   2.328  0.3196 -0.6458 -0.2005
   80OSM    H1S 7183   2.625   3.392   2.293 -0.2876  1.5313 -0.8864
   80OSM    H1T 7184   2.511   3.278   2.387  0.9296 -0.3246  0.4397
   80OSM     NF 7185   2.590   3.517   2.520  0.6908 -0.2051 -0.1699
   80OSM    HNF 7186   2.577   3.500   2.617 -2.1460 -0.9820 -0.5732
   80OSM    C2S 7187   2.482   3.488   2.424 -0.9054 -0.2793 -0.3397
   80OSM    H2S 7188   2.448   3.574   2.362  0.6766  0.0127 -0.8703
   80OSM    C3S 7189   2.352   3.445   2.504  0.5454 -0.2448  0.2717
   80OSM    H3S 7190   2.385   3.360   2.568  1.1658 -0.0092  0.2692
   80OSM     O3 7191   2.250   3.394   2.420 -0.2738 -0.3076 -0.4845
   80OSM    HO3 7192   2.292   3.395   2.334 -3.1218 -1.3851 -2.0237
   80OSM    C4S 7193   2.298   3.557   2.590  0.0743 -0.2961 -0.4558
   80OSM    H4S 7194   2.279   3.654   2.542  1.0313  0.9598  1.5781
   80OSM    C5S 7195   2.269   3.545   2.724  0.4084 -0.2305 -0.0666
   80OSM    H5S 7196   2.274   3.443   2.766 -0.9496 -1.1237 -1.9096
   80OSM    C6S 7197   2.208   3.654   2.815  0.0188  0.1695  0.1198
   80OSM    H6S 7198   2.100   3.634   2.829  0.0969  0.0626  0.5645
   80OSM    H6T 7199   2.213   3.750   2.760  2.6931 -0.6173 -1.1860
   80OSM    C7S 7200   2.287   3.654   2.949  0.3339  0.4155  0.4061
   80OSM    H7S 7201   2.389   3.689   2.923  0.6284 -0.3346  0.5093
   80OSM    H7T 7202   2.295   3.562   3.011  0.7852  0.2155  0.0582
   80OSM    C8S 7203   2.237   3.753   3.042 -0.0129  0.3536 -0.5534
   80OSM    H8S 7204   2.148   3.726   3.103  0.4281  1.7411  0.7814
   80OSM    H8T 7205   2.214   3.852   2.998 -0.2785  0.9305  0.8159
   80OSM    C9S 7206   2.341   3.782   3.154 -0.2999  0.2154 -0.2249
   80OSM    H9S 7207   2.331   3.887   3.190  3.5821 -0.0541  2.2598
   80OSM    H9T 7208   2.449   3.781   3.128  0.0833 -0.7679  1.2583
   80OSM   C10S 7209   2.318   3.697   3.284  0.2194 -1.0387  0.7626
   80OSM   H10S 7210   2.333   3.592   3.253 -0.6468 -1.2434  0.9986
   80OSM   H10T 7211   2.208   3.699   3.300  0.0066 -1.9749 -0.4883
   80OSM   C11S 7212   2.397   3.748   3.400  0.1516 -0.3947 -0.3100
   80OSM   H11S 7213   2.390   3.857   3.420  0.8659 -0.6267  1.4013
   80OSM   H11T 7214   2.503   3.723   3.376 -0.2298 -2.1655 -0.3097
   80OSM   C12S 7215   2.363   3.667   3.530  0.6276 -0.2522  0.3244
   80OSM   H12S 7216   2.372   3.558   3.513  2.3273 -0.1271  0.2372
   80OSM   H12T 7217   2.255   3.683   3.547  0.7020 -0.6790  1.2728
   80OSM   C13S 7218   2.429   3.715   3.663 -0.1380 -0.0159 -0.6646
   80OSM   H13S 7219   2.540   3.717   3.656 -0.1033 -1.4190 -0.8560
   80OSM   H13T 7220   2.404   3.649   3.748  2.1423  1.0186  0.9078
   80OSM   C14S 7221   2.381   3.853   3.710  0.4534  0.0432 -0.3125
   80OSM   H14S 7222   2.271   3.863   3.709  0.4028 -0.2037 -2.6330
   80OSM   H14T 7223   2.425   3.926   3.639  0.6208 -0.0476 -0.3035
   80OSM   C15S 7224   2.443   3.894   3.840  0.0276  0.0771  0.4962
   80OSM   H15S 7225   2.550   3.920   3.825  0.5043 -1.7726  0.5665
   80OSM   H15T 7226   2.435   3.820   3.922  0.9851  0.0698  0.5953
   80OSM   C16S 7227   2.375   4.024   3.879  0.6706 -0.6287  0.2171
   80OSM   H16S 7228   2.266   4.008   3.897  0.2561  0.6340 -1.0507
   80OSM   H16T 7229   2.378   4.102   3.801  1.6643 -1.7567 -0.9155
   80OSM   C17S 7230   2.432   4.092   4.005  0.1208  0.5258  0.0881
   80OSM   H17S 7231   2.542   4.104   4.005  0.3078 -0.9408  0.0796
   80OSM   H17T 7232   2.426   4.020   4.090 -0.8465 -1.4171 -1.5197
   80OSM   C18S 7233   2.362   4.223   4.029 -0.2266 -0.0076  0.5634
   80OSM   H18S 7234   2.258   4.194   4.059 -1.1822 -2.5399 -4.1699
   80OSM   H18T 7235   2.362   4.287   3.939  1.2800 -1.1376 -0.2865
   80OSM   H18U 7236   2.410   4.275   4.115  0.3151 -1.1362  0.9610
   80OSM    C1F 7237   2.690   3.596   2.486  0.1077 -0.0098  0.5964
   80OSM     OF 7238   2.709   3.627   2.368 -0.4363  0.6115 -0.1284
   80OSM    C2F 7239   2.772   3.661   2.590  0.1141 -0.3812 -0.4447
   80OSM    H2F 7240   2.864   3.703   2.544 -1.0090  0.0940 -2.3574
   80OSM    H2G 7241   2.798   3.584   2.666 -0.6579 -0.0820  0.1301
   80OSM    C3F 7242   2.706   3.781   2.662  0.0452 -0.0634  0.7671
   80OSM    H3F 7243   2.610   3.751   2.709  0.4504  0.3748  1.9013
   80OSM    H3G 7244   2.681   3.852   2.580 -0.3650 -2.0927 -0.9808
   80OSM    C4F 7245   2.796   3.844   2.769  0.1714  0.3110 -0.3872
   80OSM    H4F 7246   2.763   3.948   2.790  0.8886  0.4716 -0.0097
   80OSM    H4G 7247   2.899   3.858   2.731  0.3968  1.1502  0.4868
   80OSM    C5F 7248   2.809   3.773   2.907  0.0675  0.6112 -0.1472
   80OSM    H5F 7249   2.910   3.735   2.935 -0.3316 -0.0884  0.3475
   80OSM    H5G 7250   2.753   3.678   2.901  0.2096  0.5377 -0.3403
   80OSM    C6F 7251   2.750   3.848   3.029  0.4744 -0.8206 -0.3653
   80OSM    H6F 7252   2.709   3.772   3.099  1.0829 -0.2295  0.6681
   80OSM    H6G 7253   2.668   3.916   2.998  0.0748  0.1489  2.5220
   80OSM    C7F 7254   2.850   3.943   3.100 -0.3326  0.5945  0.1324
   80OSM    H7F 7255   2.886   4.008   3.018  2.1671 -1.8459 -0.8513
   80OSM    H7G 7256   2.935   3.881   3.134  0.8907  0.8663 -2.2238
   80OSM    C8F 7257   2.788   4.036   3.210 -0.3757 -0.4380 -0.3119
   80OSM    H8F 7258   2.730   4.108   3.149 -1.8107  0.4109  1.9192
   80OSM    H8G 7259   2.868   4.085   3.270  0.0527 -0.2942 -0.9845
   80OSM    C9F 7260   2.704   3.959   3.305  0.3316  0.4273  0.1395
   80OSM    H9F 7261   2.622   3.914   3.246  2.1005 -2.7666 -0.1134
   80OSM   C10F 7262   2.727   3.922   3.432  0.5131  0.1352 -0.5886
   80OSM   H10F 7263   2.654   3.875   3.501  1.5666  0.7219  0.9895
   80OSM   C11F 7264   2.833   3.975   3.521 -0.7128 -0.5989 -0.1313
   80OSM   H11F 7265   2.896   4.039   3.456 -1.8219  0.2965 -0.3323
   80OSM   H11G 7266   2.903   3.904   3.572  1.3536  2.3460  1.4692
   80OSM   C12F 7267   2.782   4.063   3.637 -0.3994 -0.0867 -0.2092
   80OSM   H12F 7268   2.710   4.004   3.697  0.2358 -0.0201  0.6438
   80OSM   H12G 7269   2.730   4.147   3.585 -1.6268 -1.5823 -1.5220
   80OSM   C13F 7270   2.890   4.107   3.729  0.0400 -0.3781  0.0292
   80OSM   H13F 7271   2.971   4.137   3.658  0.8035 -0.4557  0.8578
   80OSM   H13G 7272   2.937   4.023   3.783  1.4734  0.9208  0.8933
   80OSM   C14F 7273   2.866   4.224   3.822 -0.1894 -0.9341 -0.7676
   80OSM   H14F 7274   2.763   4.221   3.863  0.4870 -0.1305  1.0782
   80OSM   H14G 7275   2.862   4.308   3.749 -2.3563  0.7629  1.1292
   80OSM   C15F 7276   2.980   4.250   3.924 -0.1222 -0.1508  0.3007
   80OSM   H15F 7277   2.978   4.361   3.935 -1.9369  0.0566 -1.5132
   80OSM   H15G 7278   3.080   4.224   3.884 -0.9416 -2.2384 -0.5517
   80OSM   C16F 7279   2.952   4.178   4.056  0.3864 -0.4824 -0.0820
   80OSM   H16F 7280   2.951   4.070   4.028 -2.1365 -0.5505  0.0969
   80OSM   H16G 7281   2.849   4.186   4.095  1.0678 -1.2713  1.9930
   80OSM   C17F 7282   3.055   4.204   4.168  0.3775  0.1902 -0.7261
   80OSM   H17F 7283   3.004   4.286   4.224  0.3339  1.2295 -2.2518
   80OSM   H17G 7284   3.156   4.232   4.132  1.1413 -0.7171  0.6280
   80OSM   C18F 7285   3.067   4.089   4.266 -0.3898  1.0950 -0.7214
   80OSM   H18F 7286   2.972   4.039   4.295  0.1375 -1.0623 -2.4219
   80OSM   H18G 7287   3.112   4.128   4.360 -0.3942 -1.3084  0.3659
   80OSM   H18H 7288   3.137   4.010   4.232 -0.1480  0.8329  0.3509
   81OSM      N 7289   4.789   2.785   1.588  0.1412  0.1741 -0.2460
   81OSM    C15 7290   4.793   2.911   1.515  0.2304  0.1859  0.8133
   81OSM   H15A 7291   4.847   2.994   1.559  0.1884  0.2563  0.7326
   81OSM   H15B 7292   4.695   2.950   1.492  0.7258  1.1035  0.1932
   81OSM   H15C 7293   4.835   2.887   1.419 -1.7912  1.4899 -0.4794
   81OSM    C14 7294   4.711   2.693   1.498  0.5653 -0.0402 -0.0283
   81OSM   H14A 7295   4.623   2.740   1.458  1.0364  0.2601 -0.7334
   81OSM   H14B 7296   4.694   2.595   1.540 -0.0716  1.1833  2.7996
   81OSM   H14C 7297   4.763   2.673   1.405 -1.0279 -1.9018 -0.5943
   81OSM    C13 7298   4.925   2.738   1.614 -0.6232 -0.0411 -0.3259
   81OSM   H13A 7299   4.973   2.719   1.519  3.2792 -0.8674  1.5983
   81OSM   H13B 7300   4.930   2.649   1.676 -1.3270 -0.3039 -0.6347
   81OSM   H13C 7301   4.979   2.814   1.668 -1.0131 -0.7690  1.1748
   81OSM    C12 7302   4.708   2.807   1.715  0.3927  0.1140 -0.8884
   81OSM   H12A 7303   4.612   2.853   1.696 -0.0139 -0.3065  0.0725
   81OSM   H12B 7304   4.755   2.885   1.773  0.9779 -1.0582  0.2689
   81OSM    C11 7305   4.695   2.686   1.807  0.1164  0.3530 -0.4190
   81OSM   H11A 7306   4.649   2.717   1.903 -0.2607 -0.0994 -0.4506
   81OSM   H11B 7307   4.792   2.633   1.816  0.5971  1.3284  0.2497
   81OSM      P 7308   4.602   2.439   1.794  0.0608  0.3873  0.3902
   81OSM    O13 7309   4.460   2.396   1.781  0.2126 -0.3388 -0.4495
   81OSM    O14 7310   4.705   2.372   1.706  0.0968  0.1402 -0.7828
   81OSM    O11 7311   4.652   2.442   1.941 -0.5824  0.0826 -0.7728
   81OSM    O12 7312   4.608   2.591   1.751  0.0950 -0.0855 -0.5838
   81OSM    C1S 7313   4.672   2.315   2.000 -0.3551  0.3059 -0.0573
   81OSM    H1S 7314   4.754   2.261   1.948 -0.4360  0.5953 -0.4931
   81OSM    H1T 7315   4.571   2.268   1.994 -2.0826  3.4330  1.7755
   81OSM     NF 7316   4.713   2.191   2.184  0.0446 -0.6850  0.3226
   81OSM    HNF 7317   4.627   2.152   2.217  0.4786 -0.8493  1.2884
   81OSM    C2S 7318   4.709   2.326   2.148 -0.3427 -0.2274 -0.7347
   81OSM    H2S 7319   4.810   2.370   2.161  0.0171 -1.5443  1.3643
   81OSM    C3S 7320   4.600   2.413   2.228 -0.1001  0.1519  0.0266
   81OSM    H3S 7321   4.501   2.364   2.218  0.9208 -2.2400  0.9694
   81OSM     O3 7322   4.582   2.554   2.199 -0.1846 -0.2747  0.4078
   81OSM    HO3 7323   4.626   2.571   2.115 -0.8832 -1.9127 -0.3382
   81OSM    C4S 7324   4.631   2.407   2.381 -0.0242  0.2867  0.6223
   81OSM    H4S 7325   4.734   2.438   2.405  0.5080 -0.0390 -1.0583
   81OSM    C5S 7326   4.535   2.382   2.469 -0.1667  0.3876  0.6555
   81OSM    H5S 7327   4.431   2.372   2.434  0.2743 -2.0094 -0.1268
   81OSM    C6S 7328   4.562   2.373   2.614  0.7563 -0.1712  0.5600
   81OSM    H6S 7329   4.499   2.294   2.659 -0.6557  0.9730  0.6750
   81OSM    H6T 7330   4.525   2.465   2.665  2.3000 -0.1759  1.7480
   81OSM    C7S 7331   4.711   2.366   2.656 -0.3846 -0.6910 -0.1308
   81OSM    H7S 7332   4.760   2.455   2.612  1.1365 -1.1950  0.4932
   81OSM    H7T 7333   4.750   2.275   2.607 -1.6176 -0.8877 -0.7732
   81OSM    C8S 7334   4.723   2.364   2.807 -0.9012 -0.2439  0.0755
   81OSM    H8S 7335   4.636   2.300   2.836 -0.5516 -0.3703  0.8640
   81OSM    H8T 7336   4.709   2.466   2.847  1.8246  1.4498 -2.8407
   81OSM    C9S 7337   4.852   2.311   2.861 -0.5679  0.5289 -0.8960
   81OSM    H9S 7338   4.932   2.374   2.816  1.1116 -0.7869  0.1318
   81OSM    H9T 7339   4.874   2.206   2.834  0.8134  0.0726  1.6950
   81OSM   C10S 7340   4.857   2.317   3.013 -0.2027 -0.1433 -0.5357
   81OSM   H10S 7341   4.852   2.212   3.049 -0.8387  0.0662  0.0160
   81OSM   H10T 7342   4.777   2.380   3.058  0.4719  0.8108 -0.6568
   81OSM   C11S 7343   4.983   2.389   3.063 -0.5278 -0.7412 -0.7171
   81OSM   H11S 7344   4.986   2.495   3.031  1.1221 -0.3385  0.6242
   81OSM   H11T 7345   5.077   2.344   3.025  0.7997  1.3962 -0.1440
   81OSM   C12S 7346   4.996   2.377   3.218  0.5095  0.0209  0.0879
   81OSM   H12S 7347   4.896   2.372   3.266  0.1939  1.7939 -0.2851
   81OSM   H12T 7348   5.047   2.474   3.240  2.3909 -0.3936 -2.0934
   81OSM   C13S 7349   5.081   2.251   3.266 -0.1347 -0.4197 -0.5296
   81OSM   H13S 7350   5.172   2.242   3.203 -0.6903  0.3558 -1.4769
   81OSM   H13T 7351   5.020   2.159   3.250 -0.8304 -0.1291  0.3859
   81OSM   C14S 7352   5.123   2.268   3.410  0.2613 -1.0876  0.1076
   81OSM   H14S 7353   5.033   2.297   3.469 -1.0443  0.5663 -2.5009
   81OSM   H14T 7354   5.188   2.355   3.432 -0.6568 -0.1659 -0.7248
   81OSM   C15S 7355   5.200   2.150   3.469 -0.1277 -0.2995  1.2009
   81OSM   H15S 7356   5.306   2.144   3.435 -0.1403 -0.0152  1.1018
   81OSM   H15T 7357   5.145   2.057   3.445 -0.0828  0.0783 -0.4798
   81OSM   C16S 7358   5.198   2.154   3.620  0.0303 -0.3986 -0.1637
   81OSM   H16S 7359   5.232   2.053   3.653 -0.1975 -0.7986 -1.1284
   81OSM   H16T 7360   5.096   2.166   3.662 -1.3442 -3.2992 -2.2936
   81OSM   C17S 7361   5.287   2.264   3.681  0.3319 -0.4291 -0.2779
   81OSM   H17S 7362   5.246   2.357   3.634  0.6375 -0.4558 -0.6015
   81OSM   H17T 7363   5.393   2.264   3.649 -0.0217 -0.0188 -1.5347
   81OSM   C18S 7364   5.284   2.272   3.835 -0.0032  0.5297  0.2164
   81OSM   H18S 7365   5.175   2.272   3.858 -0.4834 -1.7762 -1.6007
   81OSM   H18T 7366   5.323   2.368   3.873 -2.8209  1.3494  1.2799
   81OSM   H18U 7367   5.347   2.190   3.877 -0.6196  0.2966  0.7040
   81OSM    C1F 7368   4.808   2.103   2.161 -0.2955 -0.3411  0.6707
   81OSM     OF 7369   4.905   2.146   2.095  0.1860 -0.1486  0.0737
   81OSM    C2F 7370   4.792   1.968   2.217 -0.1111 -0.2716  0.5194
   81OSM    H2F 7371   4.789   1.888   2.140  2.2883  0.8156 -0.8135
   81OSM    H2G 7372   4.705   1.958   2.285  1.0677  2.0968  2.5327
   81OSM    C3F 7373   4.911   1.932   2.314 -0.4471  0.3256  0.0180
   81OSM    H3F 7374   5.002   1.960   2.256 -0.1650 -0.3665  0.1153
   81OSM    H3G 7375   4.902   1.822   2.329  1.1872  0.1323 -0.2761
   81OSM    C4F 7376   4.909   2.005   2.444 -0.6708 -0.0021 -0.7353
   81OSM    H4F 7377   4.826   1.993   2.517  1.9310  1.2406  2.7049
   81OSM    H4G 7378   4.906   2.115   2.431  1.0237  0.3541  1.2507
   81OSM    C5F 7379   5.040   1.987   2.513 -0.1394  0.0889 -0.4842
   81OSM    H5F 7380   5.108   2.055   2.457 -1.1506  1.2580 -0.3340
   81OSM    H5G 7381   5.074   1.881   2.515 -1.7940 -0.4624  0.6128
   81OSM    C6F 7382   5.032   2.046   2.656 -0.8016 -0.6239  0.6576
   81OSM    H6F 7383   4.985   1.965   2.715 -0.8611 -0.2209  1.1608
   81OSM    H6G 7384   4.953   2.123   2.662 -1.5713 -1.2616 -0.6928
   81OSM    C7F 7385   5.171   2.090   2.698 -0.3377  0.2246  0.5236
   81OSM    H7F 7386   5.201   2.179   2.639 -0.9123 -0.5660 -1.0187
   81OSM    H7G 7387   5.239   2.006   2.674  1.0992  1.0873  1.4170
   81OSM    C8F 7388   5.175   2.099   2.849 -0.4449  0.2490 -0.6677
   81OSM    H8F 7389   5.169   1.993   2.884  1.9135  0.2499 -0.1006
   81OSM    H8G 7390   5.076   2.132   2.887 -0.3917  1.3178 -1.4113
   81OSM    C9F 7391   5.289   2.163   2.909  0.3776  0.2967  0.5547
   81OSM    H9F 7392   5.303   2.270   2.889  4.2715 -0.3971 -1.4631
   81OSM   C10F 7393   5.383   2.099   2.984  0.5639 -0.3726 -0.8664
   81OSM   H10F 7394   5.465   2.164   3.019 -2.7218  3.4146  0.6034
   81OSM   C11F 7395   5.369   1.955   3.024  0.1071  0.0955  0.2250
   81OSM   H11F 7396   5.383   1.890   2.934  1.4563  1.2542 -0.4458
   81OSM   H11G 7397   5.272   1.936   3.074  0.3593  0.0578  0.7018
   81OSM   C12F 7398   5.486   1.919   3.121  0.0339  0.4687 -0.2724
   81OSM   H12F 7399   5.581   1.956   3.077 -1.2044  1.7394 -2.0388
   81OSM   H12G 7400   5.494   1.808   3.117 -1.7483  0.3280 -0.6734
   81OSM   C13F 7401   5.479   1.963   3.270  0.3384  0.0272  0.2256
   81OSM   H13F 7402   5.371   1.959   3.296 -0.3771 -0.4777 -2.4989
   81OSM   H13G 7403   5.509   2.069   3.273 -2.0332  0.8103 -0.9006
   81OSM   C14F 7404   5.556   1.878   3.367  0.5698 -0.3878  0.3081
   81OSM   H14F 7405   5.663   1.885   3.340  0.5092 -1.6571 -0.3532
   81OSM   H14G 7406   5.526   1.772   3.348 -1.8337  0.5815 -2.1571
   81OSM   C15F 7407   5.515   1.927   3.511  0.2048  0.5645 -0.0435
   81OSM   H15F 7408   5.404   1.936   3.513  0.2658  1.6301 -0.5253
   81OSM   H15G 7409   5.546   2.033   3.519 -3.1758  1.5846  1.8347
   81OSM   C16F 7410   5.588   1.852   3.625 -0.1993 -0.6712 -0.7676
   81OSM   H16F 7411   5.697   1.864   3.607  0.0046  0.2504  0.8922
   81OSM   H16G 7412   5.563   1.744   3.620 -0.4175 -0.7974  1.7827
   81OSM   C17F 7413   5.554   1.903   3.766  0.1712 -0.0159  0.6579
   81OSM   H17F 7414   5.604   1.832   3.835  0.6858 -0.5710 -0.2703
   81OSM   H17G 7415   5.444   1.896   3.784 -0.3647 -0.7341 -2.4459
   81OSM   C18F 7416   5.598   2.046   3.789 -0.1597 -0.2332 -0.5020
   81OSM   H18F 7417   5.706   2.050   3.765 -0.5265  0.9919 -2.0436
   81OSM   H18G 7418   5.589   2.072   3.897 -0.9167  1.8635 -1.0368
   81OSM   H18H 7419   5.548   2.122   3.725 -2.1946 -2.7106 -2.0639
   82OSM      N 7420   5.434   2.482   1.823 -0.8487 -0.3955  0.6265
   82OSM    C15 7421   5.397   2.579   1.712  0.0170 -0.2912 -0.3819
   82OSM   H15A 7422   5.375   2.519   1.625  0.6194 -1.7838  0.4584
   82OSM   H15B 7423   5.480   2.645   1.692  1.3187 -1.6751  0.2905
   82OSM   H15C 7424   5.313   2.641   1.739  1.2878  1.8434 -1.0754
   82OSM    C14 7425   5.324   2.379   1.830 -0.2037 -0.0258  0.3347
   82OSM   H14A 7426   5.357   2.304   1.900  0.1177 -0.2675 -0.0738
   82OSM   H14B 7427   5.317   2.336   1.732  0.7331  1.1097 -0.2561
   82OSM   H14C 7428   5.233   2.432   1.855  0.8392  2.6033 -1.0348
   82OSM    C13 7429   5.564   2.417   1.789  0.5001  0.1556  0.4871
   82OSM   H13A 7430   5.546   2.365   1.696  0.0485  0.8616  0.1757
   82OSM   H13B 7431   5.591   2.347   1.867 -2.1910 -1.7020 -0.1239
   82OSM   H13C 7432   5.637   2.496   1.782 -0.3485  0.9864  0.7590
   82OSM    C12 7433   5.451   2.556   1.952 -0.5007 -0.0448 -0.2324
   82OSM   H12A 7434   5.536   2.623   1.943 -0.9956  0.5896 -0.2619
   82OSM   H12B 7435   5.493   2.483   2.019  0.2822  0.1780 -0.4670
   82OSM    C11 7436   5.341   2.646   2.008  0.0802 -0.7702  0.1333
   82OSM   H11A 7437   5.368   2.670   2.113 -1.3209 -2.5003  0.9433
   82OSM   H11B 7438   5.252   2.579   2.016  0.4784 -1.5460 -1.5189
   82OSM      P 7439   5.395   2.880   1.929  0.2086  0.1279  0.1337
   82OSM    O13 7440   5.528   2.844   1.972 -0.3777  0.2282 -0.5156
   82OSM    O14 7441   5.395   2.949   1.799  0.4481 -0.9684 -0.2091
   82OSM    O11 7442   5.334   2.965   2.054 -0.0416  0.6408 -0.3397
   82OSM    O12 7443   5.298   2.751   1.920 -0.7342 -0.0968 -0.5137
   82OSM    C1S 7444   5.206   2.943   2.113  1.4812  0.0762  0.0205
   82OSM    H1S 7445   5.169   2.842   2.085 -3.4168  1.4369  0.6930
   82OSM    H1T 7446   5.130   3.015   2.077  1.6161  0.9170  1.3598
   82OSM     NF 7447   5.054   2.942   2.309  0.0646  0.1918 -0.4420
   82OSM    HNF 7448   5.022   3.032   2.337  0.9339  1.0915 -2.1887
   82OSM    C2S 7449   5.194   2.940   2.268 -0.0690 -0.2697 -0.1151
   82OSM    H2S 7450   5.238   2.843   2.300  1.7224  0.6672  0.3793
   82OSM    C3S 7451   5.279   3.052   2.336  0.4659  0.3440  0.8766
   82OSM    H3S 7452   5.245   3.152   2.302  0.7285  1.2588  3.1579
   82OSM     O3 7453   5.414   3.053   2.288  0.0686 -0.3131 -0.1313
   82OSM    HO3 7454   5.407   3.019   2.198 -0.3355 -1.2451  0.2428
   82OSM    C4S 7455   5.273   3.041   2.488  0.2601  0.3672 -0.0356
   82OSM    H4S 7456   5.267   2.940   2.530 -2.3090  0.0571 -0.9933
   82OSM    C5S 7457   5.263   3.152   2.564  0.3645 -0.6675 -0.0500
   82OSM    H5S 7458   5.242   3.248   2.515 -2.1481  0.1242  2.2897
   82OSM    C6S 7459   5.249   3.162   2.712  0.3730 -0.4014  0.3408
   82OSM    H6S 7460   5.171   3.238   2.733  0.1646  0.0508 -1.7700
   82OSM    H6T 7461   5.344   3.198   2.758  0.4557 -1.9729  1.4680
   82OSM    C7S 7462   5.215   3.027   2.779  0.1402 -0.4448  0.9655
   82OSM    H7S 7463   5.293   2.955   2.748 -0.1223 -0.6924  0.8794
   82OSM    H7T 7464   5.127   2.986   2.726  1.4016 -0.0417 -1.5531
   82OSM    C8S 7465   5.175   3.040   2.927  0.3387 -0.2045 -0.0859
   82OSM    H8S 7466   5.162   2.934   2.954 -0.3782  0.1120  0.8482
   82OSM    H8T 7467   5.085   3.099   2.954 -0.2082 -1.5322  1.1060
   82OSM    C9S 7468   5.300   3.084   3.012 -0.3627  0.0334 -0.4143
   82OSM    H9S 7469   5.325   3.189   2.986 -0.9287  0.2364 -0.1593
   82OSM    H9T 7470   5.393   3.027   2.992 -0.5461 -1.1105  1.6014
   82OSM   C10S 7471   5.269   3.066   3.161  0.3174 -0.4759 -0.1237
   82OSM   H10S 7472   5.194   3.138   3.200  0.3022  0.0253 -1.0449
   82OSM   H10T 7473   5.364   3.083   3.215  1.3215 -3.8057 -0.6094
   82OSM   C11S 7474   5.241   2.925   3.208  0.4687 -0.3602  0.1462
   82OSM   H11S 7475   5.289   2.848   3.143  0.3196  1.2414 -1.9997
   82OSM   H11T 7476   5.132   2.905   3.202  0.4992 -1.3109  2.0206
   82OSM   C12S 7477   5.286   2.899   3.355 -0.4453 -0.0581  0.2143
   82OSM   H12S 7478   5.244   2.985   3.412  0.3529  1.1041 -0.9010
   82OSM   H12T 7479   5.396   2.905   3.374 -0.8556  0.2980  2.9198
   82OSM   C13S 7480   5.231   2.763   3.415 -0.6991 -0.4655 -0.3555
   82OSM   H13S 7481   5.295   2.676   3.389  0.0945 -0.5972  1.8162
   82OSM   H13T 7482   5.132   2.747   3.367 -0.4749 -1.7018 -0.4425
   82OSM   C14S 7483   5.213   2.770   3.561 -0.6084 -0.1753 -0.6190
   82OSM   H14S 7484   5.160   2.677   3.591 -1.1421 -0.8000 -3.2313
   82OSM   H14T 7485   5.144   2.857   3.565 -0.8054 -0.3241 -0.7188
   82OSM   C15S 7486   5.339   2.790   3.652  0.0682 -0.0483 -0.5975
   82OSM   H15S 7487   5.383   2.891   3.634 -2.8216  1.4575  0.2314
   82OSM   H15T 7488   5.420   2.714   3.656  2.8291  2.6751  3.9011
   82OSM   C16S 7489   5.288   2.804   3.795 -0.7828  0.2814 -0.1845
   82OSM   H16S 7490   5.220   2.723   3.830  0.6772 -1.2080 -0.6332
   82OSM   H16T 7491   5.232   2.899   3.808 -0.9751  0.3025 -1.1333
   82OSM   C17S 7492   5.404   2.824   3.890 -0.0634 -0.2435  0.6010
   82OSM   H17S 7493   5.488   2.883   3.849 -0.4318  0.0031  0.1972
   82OSM   H17T 7494   5.433   2.717   3.903  2.6941  0.3324 -0.0666
   82OSM   C18S 7495   5.379   2.876   4.030  0.7045  0.1500  0.5564
   82OSM   H18S 7496   5.301   2.821   4.087  1.1934  0.4042  1.4943
   82OSM   H18T 7497   5.346   2.982   4.033  1.3960  0.3534  1.5777
   82OSM   H18U 7498   5.475   2.876   4.085 -0.6496 -2.7756  3.2537
   82OSM    C1F 7499   4.971   2.842   2.292 -0.2168  0.1479 -0.0240
   82OSM     OF 7500   5.019   2.730   2.269 -0.0456  0.0406  0.4705
   82OSM    C2F 7501   4.825   2.863   2.321 -0.1948 -0.6395 -0.0555
   82OSM    H2F 7502   4.764   2.825   2.236  1.0679 -5.0057  0.7534
   82OSM    H2G 7503   4.803   2.971   2.338 -0.0290 -0.5989 -0.0961
   82OSM    C3F 7504   4.785   2.796   2.450  0.0344 -0.5450 -0.7948
   82OSM    H3F 7505   4.809   2.687   2.454  0.0289 -0.5110  0.4351
   82OSM    H3G 7506   4.674   2.791   2.452  0.0160 -0.8627  2.2659
   82OSM    C4F 7507   4.843   2.861   2.580 -0.6221 -0.6471  0.1352
   82OSM    H4F 7508   4.840   2.972   2.574 -1.7191 -0.7278 -1.2131
   82OSM    H4G 7509   4.951   2.839   2.572 -0.6539 -0.1091 -3.8804
   82OSM    C5F 7510   4.771   2.813   2.702 -0.1658 -0.6755 -0.0116
   82OSM    H5F 7511   4.752   2.704   2.693  0.7482 -0.8323 -0.1398
   82OSM    H5G 7512   4.678   2.874   2.706  0.8940  0.9429  0.8078
   82OSM    C6F 7513   4.856   2.851   2.827  0.2386  0.1094  0.5403
   82OSM    H6F 7514   4.845   2.961   2.826  0.5736  0.1641 -1.3783
   82OSM    H6G 7515   4.959   2.818   2.798 -0.0711 -1.0352  0.7232
   82OSM    C7F 7516   4.815   2.781   2.962  0.2118  0.0408  0.3256
   82OSM    H7F 7517   4.817   2.671   2.946  1.1167  0.4145 -2.8697
   82OSM    H7G 7518   4.711   2.813   2.984  0.4097  0.4337  0.7234
   82OSM    C8F 7519   4.907   2.831   3.075 -0.2673 -0.1715 -0.2946
   82OSM    H8F 7520   4.908   2.942   3.086 -0.4417 -0.1565 -0.4250
   82OSM    H8G 7521   5.011   2.803   3.047 -0.3988 -2.1352  1.0044
   82OSM    C9F 7522   4.865   2.771   3.213  0.7220 -0.0717 -0.0606
   82OSM    H9F 7523   4.875   2.662   3.206 -2.5135 -0.4290 -0.8303
   82OSM   C10F 7524   4.820   2.839   3.318  0.0134  0.3816  0.1626
   82OSM   H10F 7525   4.792   2.790   3.412  1.3250 -1.2135 -0.2411
   82OSM   C11F 7526   4.794   2.983   3.320 -0.0512  0.1137 -0.2835
   82OSM   H11F 7527   4.697   3.001   3.370 -0.0284  0.6740 -0.4401
   82OSM   H11G 7528   4.784   3.018   3.215  1.0650 -0.8643 -0.7398
   82OSM   C12F 7529   4.903   3.067   3.384 -0.3003 -0.0231  0.3928
   82OSM   H12F 7530   4.888   3.170   3.346  0.3657  0.2407  0.8288
   82OSM   H12G 7531   4.996   3.024   3.341  0.7255  1.7748  0.7224
   82OSM   C13F 7532   4.891   3.061   3.541 -0.4682 -0.3443  0.7111
   82OSM   H13F 7533   4.875   2.956   3.573 -0.2390 -0.0864  1.6863
   82OSM   H13G 7534   4.799   3.113   3.574  0.9922  2.8030  0.1713
   82OSM   C14F 7535   5.003   3.138   3.614  0.0185  0.0326  0.2137
   82OSM   H14F 7536   5.006   3.249   3.600  1.6254 -0.1725 -1.4123
   82OSM   H14G 7537   5.096   3.102   3.564  0.6388  0.1002  1.3001
   82OSM   C15F 7538   5.001   3.090   3.763  0.8024  0.4756 -0.3771
   82OSM   H15F 7539   5.028   2.982   3.765 -2.6102 -0.5963 -2.7169
   82OSM   H15G 7540   4.894   3.100   3.792  1.7039  2.7443  2.6124
   82OSM   C16F 7541   5.084   3.171   3.867 -0.1110  0.4504 -0.0768
   82OSM   H16F 7542   5.052   3.277   3.873 -2.0062 -0.1534  3.1298
   82OSM   H16G 7543   5.193   3.170   3.846  0.1359  0.5410  1.1146
   82OSM   C17F 7544   5.071   3.133   4.012  0.1052  0.2625 -0.9364
   82OSM   H17F 7545   5.110   3.029   4.019  1.8785  0.8942 -0.9123
   82OSM   H17G 7546   4.969   3.134   4.055 -0.3410 -1.7532 -1.8379
   82OSM   C18F 7547   5.161   3.226   4.083 -0.1671  0.3015 -0.4896
   82OSM   H18F 7548   5.250   3.260   4.025  0.0447 -0.1980 -0.4605
   82OSM   H18G 7549   5.209   3.176   4.170  1.0559  1.9511 -0.1678
   82OSM   H18H 7550   5.105   3.311   4.127  0.1182 -1.7018  4.3806
   83OSM      N 7551   1.616   3.645   2.364  0.6824 -0.1524 -0.0088
   83OSM    C15 7552   1.630   3.709   2.499  0.7679 -0.3802 -0.2103
   83OSM   H15A 7553   1.586   3.653   2.579 -0.4451  0.6451 -0.1263
   83OSM   H15B 7554   1.582   3.806   2.496  1.6799  0.1760  1.5358
   83OSM   H15C 7555   1.735   3.732   2.509  0.3025  0.9680  2.4170
   83OSM    C14 7556   1.623   3.756   2.265 -0.0142  0.1506  0.9859
   83OSM   H14A 7557   1.661   3.716   2.173 -1.2155 -0.4130  0.7065
   83OSM   H14B 7558   1.681   3.833   2.314 -0.7558  0.4741  1.3799
   83OSM   H14C 7559   1.528   3.800   2.239 -0.0430  0.3519  1.4138
   83OSM    C13 7560   1.726   3.544   2.349 -0.8891  0.5774 -0.1569
   83OSM   H13A 7561   1.818   3.600   2.339 -0.5723 -0.0797 -1.0526
   83OSM   H13B 7562   1.717   3.494   2.254 -0.4682 -1.2706  0.7344
   83OSM   H13C 7563   1.717   3.484   2.438 -1.1479 -1.8714 -1.7523
   83OSM    C12 7564   1.476   3.572   2.343  0.1819 -0.0104 -0.3544
   83OSM   H12A 7565   1.399   3.640   2.376  1.1215  0.1608  1.5716
   83OSM   H12B 7566   1.479   3.485   2.406 -3.5903 -0.8453 -1.0428
   83OSM    C11 7567   1.457   3.517   2.196  0.2984 -0.3441 -0.4744
   83OSM   H11A 7568   1.433   3.599   2.125 -0.0822  0.6780  0.7924
   83OSM   H11B 7569   1.364   3.456   2.204  0.0755  0.1946  1.4510
   83OSM      P 7570   1.558   3.281   2.115 -0.5439 -0.3920  0.2990
   83OSM    O13 7571   1.477   3.261   1.995 -0.4596 -0.0368 -0.1454
   83OSM    O14 7572   1.703   3.245   2.107 -0.0227 -0.5315  0.1873
   83OSM    O11 7573   1.498   3.209   2.244  0.5440 -0.4991 -0.1104
   83OSM    O12 7574   1.564   3.442   2.146 -0.6058  0.2161  0.2309
   83OSM    C1S 7575   1.572   3.213   2.368 -0.0439 -0.1649  0.6230
   83OSM    H1S 7576   1.587   3.318   2.399 -0.6986  0.1247 -0.0268
   83OSM    H1T 7577   1.675   3.171   2.361  0.9113  1.6400  2.7284
   83OSM     NF 7578   1.570   3.177   2.607 -0.8064  0.1621 -0.2405
   83OSM    HNF 7579   1.640   3.107   2.622 -0.2461  0.7260 -0.1836
   83OSM    C2S 7580   1.495   3.149   2.485 -0.0574  0.0119  0.1281
   83OSM    H2S 7581   1.399   3.204   2.494  0.7274  1.0642  2.9858
   83OSM    C3S 7582   1.472   3.000   2.457  0.1032  0.3134  0.4151
   83OSM    H3S 7583   1.572   2.952   2.468 -0.1686 -0.1048  1.0936
   83OSM     O3 7584   1.434   2.976   2.321  0.6107  0.4782 -0.0798
   83OSM    HO3 7585   1.447   3.063   2.282  0.4879 -0.4461 -2.3479
   83OSM    C4S 7586   1.391   2.934   2.558  0.3628 -0.0001 -0.1477
   83OSM    H4S 7587   1.290   2.971   2.584 -0.8958 -3.8487  1.1001
   83OSM    C5S 7588   1.419   2.818   2.623  1.3722  0.9527  0.5771
   83OSM    H5S 7589   1.504   2.763   2.579  0.6027 -2.0752  2.5821
   83OSM    C6S 7590   1.332   2.744   2.722 -0.7802  0.3967  0.7057
   83OSM    H6S 7591   1.340   2.639   2.685  2.0228  0.0323  2.1304
   83OSM    H6T 7592   1.222   2.758   2.708 -0.5819 -0.2062 -2.1970
   83OSM    C7S 7593   1.394   2.738   2.859 -0.1046 -0.3830  0.2670
   83OSM    H7S 7594   1.400   2.843   2.893  0.4596 -0.7430  1.3424
   83OSM    H7T 7595   1.492   2.687   2.862  0.0404 -0.2072 -1.1342
   83OSM    C8S 7596   1.299   2.671   2.956 -0.5715 -0.1252 -0.0638
   83OSM    H8S 7597   1.274   2.571   2.914 -0.4719 -0.1220 -0.1288
   83OSM    H8T 7598   1.211   2.739   2.953 -0.5426 -0.1189 -1.0691
   83OSM    C9S 7599   1.351   2.661   3.097 -0.1461 -0.0568 -0.3043
   83OSM    H9S 7600   1.372   2.760   3.142  0.2388 -0.8406  1.3124
   83OSM    H9T 7601   1.452   2.616   3.093  0.4367  1.2463 -0.9422
   83OSM   C10S 7602   1.266   2.569   3.183  0.4632 -0.4186 -0.5171
   83OSM   H10S 7603   1.325   2.536   3.272 -0.4740 -1.4595 -0.2600
   83OSM   H10T 7604   1.240   2.476   3.127 -1.9245  1.1379 -2.1569
   83OSM   C11S 7605   1.135   2.638   3.219  0.1680 -0.0777 -0.3177
   83OSM   H11S 7606   1.049   2.599   3.160  0.2306 -0.9859  0.1685
   83OSM   H11T 7607   1.154   2.748   3.216 -0.1698 -0.0211 -0.5611
   83OSM   C12S 7608   1.093   2.607   3.363  0.4071  0.0648  0.3683
   83OSM   H12S 7609   0.994   2.658   3.369  0.3452 -0.1145  0.9077
   83OSM   H12T 7610   1.169   2.639   3.437 -0.1153  0.1446  0.8800
   83OSM   C13S 7611   1.062   2.457   3.387 -0.0037 -0.0925 -0.0593
   83OSM   H13S 7612   1.155   2.395   3.393 -0.0276 -0.5129 -2.7398
   83OSM   H13T 7613   0.985   2.427   3.313 -1.7637  1.3964  1.0767
   83OSM   C14S 7614   0.992   2.445   3.517  0.6834  0.1356 -0.2582
   83OSM   H14S 7615   0.898   2.503   3.518  0.8941  0.5922 -2.1711
   83OSM   H14T 7616   1.057   2.490   3.595 -0.6153  1.2838  0.2003
   83OSM   C15S 7617   0.951   2.296   3.549  0.0360  0.0192 -0.4908
   83OSM   H15S 7618   1.042   2.233   3.539  0.8134  0.7972  1.3511
   83OSM   H15T 7619   0.879   2.256   3.474  0.7389  1.1283 -1.8079
   83OSM   C16S 7620   0.891   2.291   3.688  0.0121 -0.3448  0.0810
   83OSM   H16S 7621   0.974   2.312   3.759  0.3006 -2.1593  0.3531
   83OSM   H16T 7622   0.868   2.184   3.709 -3.2621  0.0298 -1.0159
   83OSM   C17S 7623   0.767   2.375   3.723 -0.6447 -0.0706  0.4047
   83OSM   H17S 7624   0.678   2.350   3.661 -1.0032  2.1649 -0.0816
   83OSM   H17T 7625   0.797   2.479   3.698  0.7216 -0.1283  1.6643
   83OSM   C18S 7626   0.741   2.375   3.874  0.0854  0.4526  0.1459
   83OSM   H18S 7627   0.810   2.447   3.922  2.3560 -0.7929 -1.0967
   83OSM   H18T 7628   0.749   2.275   3.922  2.9062  0.2417 -0.5953
   83OSM   H18U 7629   0.637   2.409   3.895  0.0011  1.3101 -1.5428
   83OSM    C1F 7630   1.571   3.296   2.665 -0.1780  0.3697  0.3977
   83OSM     OF 7631   1.510   3.393   2.615  0.4161 -0.0599 -0.2477
   83OSM    C2F 7632   1.648   3.298   2.794 -0.2468  0.2289 -0.3423
   83OSM    H2F 7633   1.758   3.307   2.778 -0.1575 -0.6200 -0.2427
   83OSM    H2G 7634   1.626   3.202   2.845  2.0546  0.1354  0.5972
   83OSM    C3F 7635   1.611   3.419   2.884 -0.3430 -0.5108  0.5006
   83OSM    H3F 7636   1.500   3.430   2.884 -0.3780 -0.8131 -0.0440
   83OSM    H3G 7637   1.663   3.506   2.840  0.9225 -1.4079  0.1615
   83OSM    C4F 7638   1.667   3.404   3.025 -0.3834 -0.0507 -0.3944
   83OSM    H4F 7639   1.674   3.505   3.070 -2.3677  0.2474 -0.6308
   83OSM    H4G 7640   1.754   3.338   3.041 -0.4438 -0.2100 -0.7066
   83OSM    C5F 7641   1.557   3.352   3.121  0.0927  0.5084 -0.1838
   83OSM    H5F 7642   1.531   3.246   3.101 -0.8873  0.4688  1.1415
   83OSM    H5G 7643   1.463   3.401   3.090 -0.6540 -0.1487  0.9674
   83OSM    C6F 7644   1.581   3.378   3.270 -0.0081  0.0385 -0.5613
   83OSM    H6F 7645   1.623   3.480   3.286 -0.0381  0.7283 -4.0152
   83OSM    H6G 7646   1.652   3.311   3.322  0.5937 -0.1192 -1.5689
   83OSM    C7F 7647   1.462   3.369   3.360 -1.0403 -0.0661  0.8104
   83OSM    H7F 7648   1.364   3.367   3.308 -0.8518 -3.2273  0.4049
   83OSM    H7G 7649   1.457   3.467   3.412  1.1549  1.4386 -1.5899
   83OSM    C8F 7650   1.463   3.252   3.457 -0.6258 -0.0002 -0.4922
   83OSM    H8F 7651   1.557   3.251   3.515 -0.9672 -0.8195  0.0753
   83OSM    H8G 7652   1.455   3.158   3.398 -0.1274  0.7685 -1.8329
   83OSM    C9F 7653   1.345   3.261   3.550  0.1189 -0.2384  0.3704
   83OSM    H9F 7654   1.359   3.313   3.646 -0.5327  1.1269 -0.2369
   83OSM   C10F 7655   1.217   3.219   3.537 -0.2492 -0.2832  0.1766
   83OSM   H10F 7656   1.153   3.217   3.627  1.9985  0.8607  1.8878
   83OSM   C11F 7657   1.173   3.138   3.420 -0.3510 -0.0939  0.4587
   83OSM   H11F 7658   1.251   3.120   3.343  0.0468  1.1820  0.5413
   83OSM   H11G 7659   1.092   3.193   3.369 -1.8810  0.3232  3.1454
   83OSM   C12F 7660   1.095   3.010   3.469 -0.1395  0.0168 -0.1532
   83OSM   H12F 7661   1.155   2.938   3.529  1.2183 -0.4042 -1.9261
   83OSM   H12G 7662   1.077   2.960   3.372  0.3988 -0.5558  0.0315
   83OSM   C13F 7663   0.962   3.033   3.551 -0.3726  0.5180  0.9133
   83OSM   H13F 7664   0.897   3.102   3.493 -0.4289 -0.6860 -0.4921
   83OSM   H13G 7665   1.001   3.078   3.645 -0.2273  1.7071  0.3062
   83OSM   C14F 7666   0.893   2.896   3.585  0.0641 -0.1068  0.7032
   83OSM   H14F 7667   0.963   2.822   3.629  0.6199  1.2677  2.2282
   83OSM   H14G 7668   0.852   2.849   3.493  0.4433 -0.5498  0.7574
   83OSM   C15F 7669   0.793   2.920   3.693  0.2003 -0.3021 -0.4537
   83OSM   H15F 7670   0.711   2.977   3.644  0.8006  0.5481 -0.4761
   83OSM   H15G 7671   0.839   2.982   3.772 -2.7537 -1.5393  2.5101
   83OSM   C16F 7672   0.735   2.784   3.742 -0.8511 -0.2852 -0.4716
   83OSM   H16F 7673   0.812   2.711   3.775  0.2540  0.7381 -0.7002
   83OSM   H16G 7674   0.692   2.742   3.648  0.4532  0.1778 -1.3108
   83OSM   C17F 7675   0.623   2.790   3.848  0.1009 -0.0479  0.0890
   83OSM   H17F 7676   0.578   2.689   3.866  0.4017 -0.2416 -0.2409
   83OSM   H17G 7677   0.542   2.856   3.810 -0.8718 -0.1595  1.8510
   83OSM   C18F 7678   0.665   2.863   3.974  0.0450 -0.0015 -0.4687
   83OSM   H18F 7679   0.658   2.973   3.965  1.6778  0.2429  0.6706
   83OSM   H18G 7680   0.768   2.838   4.009 -1.0809 -1.4384  2.0742
   83OSM   H18H 7681   0.598   2.827   4.055  1.3864  2.2283  1.7561
   84OSM      N 7682   4.479   5.549   1.650  0.3488 -0.3473  0.0602
   84OSM    C15 7683   4.586   5.465   1.582 -0.3905  0.2192 -0.2560
   84OSM   H15A 7684   4.680   5.516   1.591 -0.7698  0.8230  0.4270
   84OSM   H15B 7685   4.573   5.436   1.479 -0.6117  0.9656 -0.4408
   84OSM   H15C 7686   4.592   5.375   1.642 -0.5470  1.2326  1.3545
   84OSM    C14 7687   4.452   5.668   1.566  0.1769  0.0153  0.2441
   84OSM   H14A 7688   4.544   5.719   1.540 -0.7902  0.4211 -2.6754
   84OSM   H14B 7689   4.402   5.738   1.632  0.1958 -1.1057  1.5046
   84OSM   H14C 7690   4.391   5.638   1.483  0.9429  2.5106 -1.3380
   84OSM    C13 7691   4.358   5.462   1.634  0.1045  0.2185  0.6765
   84OSM   H13A 7692   4.370   5.377   1.699  2.3610 -1.5267 -1.7885
   84OSM   H13B 7693   4.348   5.425   1.533  0.4359 -1.2922  1.1655
   84OSM   H13C 7694   4.274   5.523   1.662 -0.8463 -1.1008  0.7564
   84OSM    C12 7695   4.507   5.592   1.791 -0.0510  0.3859  0.4198
   84OSM   H12A 7696   4.598   5.650   1.795 -0.9062  1.7168  1.3376
   84OSM   H12B 7697   4.525   5.510   1.860  2.3388  0.6185  0.1651
   84OSM    C11 7698   4.403   5.683   1.866  0.0194  0.3404 -0.0276
   84OSM   H11A 7699   4.421   5.667   1.975 -0.8878 -2.4770 -0.2287
   84OSM   H11B 7700   4.295   5.663   1.849 -0.3801  2.7849 -0.8070
   84OSM      P 7701   4.584   5.881   1.881  0.1738 -0.2649 -0.1496
   84OSM    O13 7702   4.685   5.833   1.784 -0.8826 -0.4637  0.2072
   84OSM    O14 7703   4.558   6.029   1.888 -0.6051  0.1888  0.4262
   84OSM    O11 7704   4.611   5.827   2.022  0.0859  0.2842  0.2246
   84OSM    O12 7705   4.445   5.819   1.837  0.5127 -0.1061 -0.5261
   84OSM    C1S 7706   4.528   5.873   2.132  0.1396  0.1091  0.4499
   84OSM    H1S 7707   4.423   5.841   2.111 -0.0348  0.4787  0.7443
   84OSM    H1T 7708   4.522   5.984   2.139  0.0031  0.0930  0.6261
   84OSM     NF 7709   4.490   5.871   2.384 -0.1543  0.1341  0.3121
   84OSM    HNF 7710   4.537   5.934   2.446 -0.8482  0.8475  0.1332
   84OSM    C2S 7711   4.572   5.819   2.267 -0.0171  0.3179  0.5629
   84OSM    H2S 7712   4.547   5.711   2.271 -1.8133  0.7111  0.8301
   84OSM    C3S 7713   4.728   5.843   2.272  0.0150  0.3748  0.1639
   84OSM    H3S 7714   4.749   5.952   2.263  2.1725  0.0558  0.6666
   84OSM     O3 7715   4.801   5.781   2.172  0.3510  0.3386 -0.6762
   84OSM    HO3 7716   4.742   5.749   2.104 -0.9020  0.0290  0.5347
   84OSM    C4S 7717   4.784   5.804   2.409 -0.0589  0.1520  0.2731
   84OSM    H4S 7718   4.798   5.882   2.486 -1.3968 -1.2551  2.0600
   84OSM    C5S 7719   4.829   5.676   2.445  0.2560 -1.1375 -0.1027
   84OSM    H5S 7720   4.820   5.597   2.369  0.2200  0.3514 -1.7006
   84OSM    C6S 7721   4.882   5.618   2.572 -0.8526 -0.2756 -0.5202
   84OSM    H6S 7722   4.987   5.582   2.570 -0.5399  0.3419  1.8662
   84OSM    H6T 7723   4.817   5.535   2.606 -2.3085  1.4272  1.0791
   84OSM    C7S 7724   4.895   5.712   2.703  0.4297  0.1108  0.6723
   84OSM    H7S 7725   4.798   5.762   2.727  0.4371 -0.5332  2.1157
   84OSM    H7T 7726   4.972   5.787   2.676  0.6526  0.2850  1.7399
   84OSM    C8S 7727   4.947   5.630   2.828 -0.2320 -0.0707  0.2462
   84OSM    H8S 7728   5.054   5.650   2.849 -0.4273 -1.7161  3.4016
   84OSM    H8T 7729   4.932   5.521   2.816  0.6861 -0.2469  0.5952
   84OSM    C9S 7730   4.871   5.675   2.954 -0.2542 -0.2898  0.4146
   84OSM    H9S 7731   4.772   5.624   2.954  0.0583 -0.9138  0.5245
   84OSM    H9T 7732   4.848   5.784   2.954 -3.1836 -0.8113 -0.4724
   84OSM   C10S 7733   4.948   5.640   3.085 -0.4023 -0.4112  0.5435
   84OSM   H10S 7734   5.039   5.702   3.076 -1.8247  1.6839 -0.0561
   84OSM   H10T 7735   4.970   5.531   3.087 -2.3471 -0.8456  0.2016
   84OSM   C11S 7736   4.872   5.668   3.213 -0.0906 -0.6748  0.7310
   84OSM   H11S 7737   4.783   5.604   3.198  1.4241 -2.4655 -1.5816
   84OSM   H11T 7738   4.840   5.774   3.224  0.5553 -0.3511 -0.3221
   84OSM   C12S 7739   4.947   5.611   3.332 -0.6538 -0.2473  0.0739
   84OSM   H12S 7740   5.050   5.652   3.326 -0.6273 -0.4198 -0.6837
   84OSM   H12T 7741   4.942   5.501   3.316 -0.3668 -0.3311  0.5196
   84OSM   C13S 7742   4.878   5.638   3.458  0.0822  0.4935 -0.8808
   84OSM   H13S 7743   4.859   5.747   3.469  0.1674  0.4338 -0.0914
   84OSM   H13T 7744   4.942   5.614   3.546  0.9968 -0.2837 -1.7280
   84OSM   C14S 7745   4.750   5.563   3.474 -0.6220  0.9822  0.0647
   84OSM   H14S 7746   4.767   5.454   3.489 -0.1738  0.8225 -1.5051
   84OSM   H14T 7747   4.686   5.561   3.383 -0.6217 -2.0154  0.0284
   84OSM   C15S 7748   4.664   5.626   3.588  0.5343  0.9455  0.2752
   84OSM   H15S 7749   4.555   5.608   3.572  0.3098  3.2957 -1.3778
   84OSM   H15T 7750   4.657   5.737   3.581 -0.7578  0.8643 -0.0121
   84OSM   C16S 7751   4.703   5.574   3.720  0.9289  0.3274  0.0289
   84OSM   H16S 7752   4.637   5.632   3.787  0.8591  0.9062 -0.5271
   84OSM   H16T 7753   4.801   5.621   3.745  1.4517 -0.3884 -0.6069
   84OSM   C17S 7754   4.677   5.426   3.757 -1.0663  0.7343  0.7546
   84OSM   H17S 7755   4.735   5.361   3.688 -2.6440 -2.9026  2.5484
   84OSM   H17T 7756   4.573   5.389   3.743  0.0283 -2.7996  0.9860
   84OSM   C18S 7757   4.707   5.392   3.904  0.8944 -0.5901 -0.0809
   84OSM   H18S 7758   4.673   5.288   3.921  1.2289 -0.7477 -0.3625
   84OSM   H18T 7759   4.671   5.466   3.979  1.0243  1.3619 -1.8460
   84OSM   H18U 7760   4.818   5.392   3.907  0.8842 -1.0478  0.4925
   84OSM    C1F 7761   4.362   5.849   2.395 -0.7186  0.2001 -0.1353
   84OSM     OF 7762   4.302   5.775   2.323 -0.2011 -0.1236 -0.2705
   84OSM    C2F 7763   4.305   5.918   2.516  0.0184 -0.0027 -0.3576
   84OSM    H2F 7764   4.289   6.024   2.488 -0.0949 -0.6098 -2.8318
   84OSM    H2G 7765   4.388   5.934   2.589  0.7650 -1.3950 -0.8490
   84OSM    C3F 7766   4.169   5.872   2.574  0.1678 -0.1680  0.4282
   84OSM    H3F 7767   4.169   5.762   2.595 -0.7715 -0.4409 -0.8553
   84OSM    H3G 7768   4.097   5.897   2.493  0.7501 -0.0985 -0.0741
   84OSM    C4F 7769   4.133   5.950   2.701 -1.0008  0.0389  0.3461
   84OSM    H4F 7770   4.191   5.916   2.789  1.2358  3.5492  0.4216
   84OSM    H4G 7771   4.025   5.930   2.719 -1.2226  1.3697  0.6082
   84OSM    C5F 7772   4.137   6.106   2.687 -0.2769  0.0770 -0.8660
   84OSM    H5F 7773   4.066   6.137   2.607 -2.3250  2.1543  1.5709
   84OSM    H5G 7774   4.238   6.137   2.652  0.5373 -0.6679  0.7085
   84OSM    C6F 7775   4.090   6.176   2.818  0.3892 -0.4557  0.2541
   84OSM    H6F 7776   3.989   6.140   2.847  0.7705 -0.0272  2.2747
   84OSM    H6G 7777   4.085   6.283   2.789 -0.0754 -0.7007 -0.6124
   84OSM    C7F 7778   4.176   6.178   2.945 -0.5291 -0.3720  0.1875
   84OSM    H7F 7779   4.265   6.239   2.919 -0.6246 -0.3878 -0.1813
   84OSM    H7G 7780   4.206   6.074   2.971 -3.9389 -2.3338 -2.7620
   84OSM    C8F 7781   4.098   6.232   3.068  0.2448 -0.6742  0.3231
   84OSM    H8F 7782   4.154   6.220   3.163 -0.2530  1.6073  0.9805
   84OSM    H8G 7783   4.006   6.171   3.078 -0.5689  0.5617  0.6432
   84OSM    C9F 7784   4.061   6.376   3.046  0.3704 -0.4484 -0.4337
   84OSM    H9F 7785   4.114   6.437   2.971 -0.1486 -0.3220 -0.7051
   84OSM   C10F 7786   3.961   6.440   3.116  0.1732  0.4177  0.4406
   84OSM   H10F 7787   3.944   6.547   3.097  1.1508  0.5442  0.2406
   84OSM   C11F 7788   3.864   6.385   3.220 -0.0747 -0.0307  0.1341
   84OSM   H11F 7789   3.839   6.279   3.199  0.1982  0.4022 -2.8910
   84OSM   H11G 7790   3.768   6.441   3.213 -0.6762 -1.1083 -0.4913
   84OSM   C12F 7791   3.913   6.407   3.365 -0.4561 -0.0189  0.4351
   84OSM   H12F 7792   3.935   6.514   3.382  0.4819 -0.2465  0.7215
   84OSM   H12G 7793   4.004   6.349   3.392  1.0190  1.7796 -0.5263
   84OSM   C13F 7794   3.798   6.377   3.462 -0.3169 -0.4874  0.1773
   84OSM   H13F 7795   3.759   6.275   3.441  0.0070 -0.1760 -2.1321
   84OSM   H13G 7796   3.707   6.437   3.441  1.0532  1.8615  0.5981
   84OSM   C14F 7797   3.819   6.395   3.615 -0.1567 -0.2174 -0.6733
   84OSM   H14F 7798   3.928   6.384   3.633 -0.1558 -0.0714 -0.5868
   84OSM   H14G 7799   3.761   6.308   3.652  0.7844 -1.2057 -1.4273
   84OSM   C15F 7800   3.767   6.526   3.673  0.6433  0.2217  0.2935
   84OSM   H15F 7801   3.770   6.526   3.784 -1.9438 -0.6311  0.4276
   84OSM   H15G 7802   3.658   6.537   3.653  0.2545 -0.8619  1.7072
   84OSM   C16F 7803   3.850   6.644   3.618  1.0202 -0.4143  0.1350
   84OSM   H16F 7804   3.841   6.660   3.508  1.9535 -2.2989 -0.2497
   84OSM   H16G 7805   3.958   6.620   3.626  2.3230  1.7623 -5.8945
   84OSM   C17F 7806   3.820   6.768   3.694  0.4443 -0.9657  0.2512
   84OSM   H17F 7807   3.842   6.747   3.800  0.3577 -2.5451 -0.0275
   84OSM   H17G 7808   3.715   6.805   3.704  1.1043  0.6801  1.5861
   84OSM   C18F 7809   3.912   6.877   3.648 -0.1374  0.2064 -0.4983
   84OSM   H18F 7810   3.883   6.967   3.707 -1.0464 -0.0543 -0.5225
   84OSM   H18G 7811   3.897   6.897   3.539 -0.4005  2.4801 -0.1092
   84OSM   H18H 7812   4.019   6.851   3.658 -0.6440 -1.9157 -0.0388
   85OSM      N 7813   1.149   3.504   1.821 -0.0923  0.1903  0.2422
   85OSM    C15 7814   1.039   3.416   1.867  0.8444 -0.1901 -0.2165
   85OSM   H15A 7815   1.004   3.453   1.962  1.6841  0.3843 -0.1240
   85OSM   H15B 7816   1.079   3.316   1.882  2.0443  0.2624 -0.3046
   85OSM   H15C 7817   0.960   3.403   1.794  1.0798 -0.5420 -0.4131
   85OSM    C14 7818   1.262   3.501   1.921  0.3099  0.2283  0.6881
   85OSM   H14A 7819   1.216   3.510   2.018 -1.8673 -1.6061 -0.0813
   85OSM   H14B 7820   1.329   3.583   1.899 -1.7083  1.7812 -0.0484
   85OSM   H14C 7821   1.319   3.410   1.919  0.9344  0.6252  0.1076
   85OSM    C13 7822   1.197   3.446   1.694 -0.1601 -0.5191  0.1217
   85OSM   H13A 7823   1.112   3.440   1.628  0.1832 -3.1988 -0.2027
   85OSM   H13B 7824   1.233   3.344   1.693  0.2898 -0.3759  0.8951
   85OSM   H13C 7825   1.275   3.506   1.649  1.6125 -2.8972 -0.1497
   85OSM    C12 7826   1.097   3.650   1.810  0.5859  0.3317  0.2516
   85OSM   H12A 7827   1.052   3.672   1.906  2.2455  1.0496  0.9043
   85OSM   H12B 7828   1.015   3.662   1.741 -0.4894 -0.0241  1.4323
   85OSM    C11 7829   1.216   3.753   1.801 -0.8624  0.0733  0.9029
   85OSM   H11A 7830   1.172   3.850   1.771 -1.0774  0.6677  2.9797
   85OSM   H11B 7831   1.293   3.724   1.727 -0.8331 -0.5464  1.1684
   85OSM      P 7832   1.406   3.851   1.952 -0.3785  0.1655 -0.1980
   85OSM    O13 7833   1.518   3.767   1.915 -0.2266 -0.4989 -0.1066
   85OSM    O14 7834   1.402   3.978   1.883  0.4022  0.0276 -0.1461
   85OSM    O11 7835   1.407   3.876   2.111 -0.3092  0.1216 -0.2246
   85OSM    O12 7836   1.272   3.774   1.936 -0.0242  0.4317  0.3232
   85OSM    C1S 7837   1.285   3.875   2.185  0.4159  0.6330 -0.4482
   85OSM    H1S 7838   1.237   3.775   2.181  0.8531  0.1813  2.7235
   85OSM    H1T 7839   1.210   3.943   2.141 -1.1803 -0.4338  0.5274
   85OSM     NF 7840   1.171   3.892   2.394  0.3191 -0.1240  0.0476
   85OSM    HNF 7841   1.122   3.970   2.432  0.0752 -0.1085 -0.2945
   85OSM    C2S 7842   1.301   3.920   2.331  0.2677  0.6950 -0.0385
   85OSM    H2S 7843   1.360   3.849   2.393 -2.7305 -3.6960 -1.7085
   85OSM    C3S 7844   1.349   4.068   2.342  0.0729  0.0192  0.7222
   85OSM    H3S 7845   1.266   4.130   2.302 -1.2912 -1.4959  1.0971
   85OSM     O3 7846   1.466   4.095   2.264 -0.4830 -0.3137 -0.0878
   85OSM    HO3 7847   1.491   4.014   2.220 -2.7463 -1.2183  0.1770
   85OSM    C4S 7848   1.374   4.118   2.479  0.0879 -0.0854  0.6200
   85OSM    H4S 7849   1.462   4.073   2.527 -0.2816 -0.2510  1.1544
   85OSM    C5S 7850   1.293   4.204   2.551 -0.4770 -0.0191 -0.2660
   85OSM    H5S 7851   1.201   4.252   2.516 -0.4941  0.0525 -0.1243
   85OSM    C6S 7852   1.337   4.236   2.694  0.6750  0.5113 -0.4105
   85OSM    H6S 7853   1.314   4.344   2.708  1.6240  0.7402 -0.6165
   85OSM    H6T 7854   1.446   4.219   2.707  0.4726 -1.6871 -1.1658
   85OSM    C7S 7855   1.269   4.149   2.806  0.1285  0.2396 -0.3309
   85OSM    H7S 7856   1.160   4.151   2.783 -0.0752  0.3308  0.5939
   85OSM    H7T 7857   1.288   4.193   2.906  1.1879 -0.8898 -0.0160
   85OSM    C8S 7858   1.304   3.999   2.794 -0.1078 -0.5658  0.3053
   85OSM    H8S 7859   1.314   3.960   2.691  1.6657 -1.4276  0.7567
   85OSM    H8T 7860   1.222   3.943   2.845 -1.1743  1.3601  0.7768
   85OSM    C9S 7861   1.435   3.964   2.874  0.8888 -0.0647  0.7325
   85OSM    H9S 7862   1.413   4.000   2.977  0.1902  1.1872  0.1707
   85OSM    H9T 7863   1.525   4.022   2.844 -0.4645  2.4586  1.2539
   85OSM   C10S 7864   1.468   3.811   2.875 -0.3443 -0.0109  0.8567
   85OSM   H10S 7865   1.565   3.787   2.923 -1.0282 -0.5941  2.0137
   85OSM   H10T 7866   1.479   3.789   2.767  0.8307  0.1273  0.9418
   85OSM   C11S 7867   1.370   3.713   2.945 -0.4256 -0.0194  0.1249
   85OSM   H11S 7868   1.434   3.622   2.954 -1.3001 -0.6606  0.0128
   85OSM   H11T 7869   1.291   3.689   2.871  0.8921  0.4716 -1.4861
   85OSM   C12S 7870   1.328   3.753   3.090  0.1609  0.5082 -0.1210
   85OSM   H12S 7871   1.257   3.838   3.083  0.2626  0.6013 -0.0103
   85OSM   H12T 7872   1.415   3.794   3.144 -0.6018  2.3423 -0.1962
   85OSM   C13S 7873   1.255   3.648   3.166  0.1733  0.3155 -0.4558
   85OSM   H13S 7874   1.332   3.575   3.199 -1.7216 -0.3852  2.8888
   85OSM   H13T 7875   1.181   3.598   3.100 -0.6119  1.2036 -0.2667
   85OSM   C14S 7876   1.185   3.697   3.289  0.4263  0.6918  0.8389
   85OSM   H14S 7877   1.119   3.781   3.260 -0.7818 -1.0859 -1.9936
   85OSM   H14T 7878   1.261   3.750   3.350  0.1921  2.5049 -0.3714
   85OSM   C15S 7879   1.114   3.582   3.360  0.1854 -1.0013  0.6142
   85OSM   H15S 7880   1.187   3.499   3.375 -0.6273 -2.1154 -1.2769
   85OSM   H15T 7881   1.050   3.533   3.283  0.8378  1.9155 -1.9466
   85OSM   C16S 7882   1.042   3.622   3.482  0.5314  0.0470  0.3836
   85OSM   H16S 7883   0.946   3.673   3.459  1.6161  1.5301 -1.1225
   85OSM   H16T 7884   1.098   3.694   3.546  1.6891 -1.9839  1.7658
   85OSM   C17S 7885   1.016   3.499   3.571  0.3145 -0.5817  0.2474
   85OSM   H17S 7886   1.113   3.462   3.612  1.0701  1.2508  0.2146
   85OSM   H17T 7887   0.963   3.422   3.511  1.6673 -1.3294 -0.0275
   85OSM   C18S 7888   0.932   3.549   3.685  0.0205  0.1223  0.5608
   85OSM   H18S 7889   0.844   3.611   3.657 -1.3599 -1.9436  0.0524
   85OSM   H18T 7890   0.991   3.615   3.751 -1.1144 -0.1130  1.8642
   85OSM   H18U 7891   0.887   3.460   3.735  2.5022 -1.8331 -0.4656
   85OSM    C1F 7892   1.124   3.763   2.416  0.0683  0.1811 -0.1572
   85OSM     OF 7893   1.206   3.677   2.390  0.6344 -0.3730 -0.0695
   85OSM    C2F 7894   0.987   3.745   2.450  0.3624  0.3043 -0.3596
   85OSM    H2F 7895   0.940   3.731   2.350 -1.6210  0.0295  0.5667
   85OSM    H2G 7896   0.948   3.837   2.498 -0.4972  0.3951 -1.2098
   85OSM    C3F 7897   0.965   3.620   2.543  0.3468 -0.0042  0.8119
   85OSM    H3F 7898   1.014   3.533   2.495 -1.7657 -1.5805  1.3719
   85OSM    H3G 7899   0.855   3.607   2.547  0.3499  0.2411  2.8769
   85OSM    C4F 7900   1.008   3.636   2.687  0.3100 -1.2798  0.7491
   85OSM    H4F 7901   1.114   3.662   2.706  0.5498 -0.2595 -1.6160
   85OSM    H4G 7902   0.987   3.538   2.736 -0.2825 -0.3426  2.4361
   85OSM    C5F 7903   0.925   3.748   2.758 -0.2229  0.0209  0.1794
   85OSM    H5F 7904   0.818   3.720   2.758 -0.2966  0.2129  1.6705
   85OSM    H5G 7905   0.939   3.848   2.711 -0.9355  0.8392  1.6481
   85OSM    C6F 7906   0.965   3.767   2.909 -0.2710  0.5637  0.7855
   85OSM    H6F 7907   1.070   3.804   2.910  1.0745 -2.3833 -3.4000
   85OSM    H6G 7908   0.962   3.667   2.957  1.2509  0.0144 -0.1752
   85OSM    C7F 7909   0.847   3.848   2.976 -0.9336  0.3720  0.2708
   85OSM    H7F 7910   0.752   3.791   2.976 -0.7078 -0.0194 -0.5444
   85OSM    H7G 7911   0.822   3.943   2.925  0.4188  0.4581 -0.2817
   85OSM    C8F 7912   0.892   3.880   3.125  0.3749 -0.9588 -0.5708
   85OSM    H8F 7913   0.991   3.928   3.113 -0.0105  0.0895  0.1971
   85OSM    H8G 7914   0.906   3.790   3.188  1.3414  0.1902  0.9460
   85OSM    C9F 7915   0.804   3.966   3.211  0.1113  0.0121 -0.2494
   85OSM    H9F 7916   0.747   3.904   3.282 -0.4569  0.0370 -0.6880
   85OSM   C10F 7917   0.818   4.097   3.247  0.1448 -0.3812  0.0212
   85OSM   H10F 7918   0.757   4.139   3.329  0.7100  0.8415 -0.1566
   85OSM   C11F 7919   0.924   4.194   3.188  0.0497  0.6746 -0.4019
   85OSM   H11F 7920   0.870   4.281   3.145  1.2727  0.6967 -2.0120
   85OSM   H11G 7921   0.978   4.152   3.100  0.2237  0.8766 -0.3911
   85OSM   C12F 7922   1.014   4.242   3.309 -0.1743  0.1181 -0.0967
   85OSM   H12F 7923   1.058   4.154   3.362  2.0190  2.5870  2.5133
   85OSM   H12G 7924   0.959   4.308   3.379 -0.8385  1.1695 -1.5782
   85OSM   C13F 7925   1.122   4.327   3.250  0.4430 -0.1878  0.2136
   85OSM   H13F 7926   1.075   4.413   3.198 -1.0696 -0.4428  1.0953
   85OSM   H13G 7927   1.191   4.267   3.187  0.6845  1.0264 -0.7195
   85OSM   C14F 7928   1.214   4.393   3.362  0.1866 -0.8054 -0.1476
   85OSM   H14F 7929   1.284   4.465   3.314  0.1878  0.5774  1.8351
   85OSM   H14G 7930   1.272   4.307   3.401 -2.5872 -1.6517  2.4891
   85OSM   C15F 7931   1.145   4.468   3.475 -0.1921  0.0132  1.2451
   85OSM   H15F 7932   1.066   4.404   3.520  0.8239 -1.1598  1.4097
   85OSM   H15G 7933   1.098   4.562   3.438  4.0797  1.9640  0.1332
   85OSM   C16F 7934   1.246   4.511   3.576  0.2146 -0.0134 -0.7004
   85OSM   H16F 7935   1.303   4.598   3.538  0.2749  0.1377 -0.2765
   85OSM   H16G 7936   1.310   4.427   3.609 -0.0536 -0.0792 -0.3379
   85OSM   C17F 7937   1.163   4.556   3.700 -0.3025 -0.0137 -0.7142
   85OSM   H17F 7938   1.106   4.474   3.749 -0.6837  1.6451  1.8299
   85OSM   H17G 7939   1.099   4.642   3.669 -1.3802 -0.8382 -0.8184
   85OSM   C18F 7940   1.262   4.608   3.802  0.3273  0.2795 -0.8201
   85OSM   H18F 7941   1.328   4.525   3.836  1.6844  1.8224  0.5132
   85OSM   H18G 7942   1.301   4.703   3.759 -0.6895  0.2473 -1.8734
   85OSM   H18H 7943   1.198   4.643   3.886  0.1859 -0.5630 -0.5683
   86OSM      N 7944   1.691   6.118   1.915  0.3980  0.2738  0.2520
   86OSM    C15 7945   1.608   6.235   1.967  0.2258 -0.1479  0.1323
   86OSM   H15A 7946   1.514   6.196   2.003 -0.0598  0.0986 -0.3425
   86OSM   H15B 7947   1.592   6.309   1.890  0.1554 -1.3528 -1.0514
   86OSM   H15C 7948   1.649   6.276   2.058 -0.1009  1.0731 -0.2454
   86OSM    C14 7949   1.597   6.053   1.819  0.4130  0.6661 -0.6354
   86OSM   H14A 7950   1.570   6.123   1.742 -3.6416 -0.5357 -0.5352
   86OSM   H14B 7951   1.497   6.031   1.855  0.9682  1.1981  1.3449
   86OSM   H14C 7952   1.640   5.965   1.773  0.7717  1.2854 -1.5113
   86OSM    C13 7953   1.804   6.180   1.837  0.2023 -0.3478 -0.6393
   86OSM   H13A 7954   1.772   6.222   1.742 -2.3133 -0.2260  0.1822
   86OSM   H13B 7955   1.874   6.106   1.802  1.9203  1.0224 -0.2194
   86OSM   H13C 7956   1.857   6.251   1.898  0.4317 -1.4418  0.4584
   86OSM    C12 7957   1.737   6.028   2.021  0.0150  0.3392  0.1033
   86OSM   H12A 7958   1.654   6.010   2.087 -0.8475  1.7470 -0.5369
   86OSM   H12B 7959   1.802   6.088   2.082  0.3096  0.7273 -0.5763
   86OSM    C11 7960   1.802   5.898   1.975 -0.7758 -0.0767 -0.1513
   86OSM   H11A 7961   1.723   5.841   1.921  0.1443 -1.2141 -0.3492
   86OSM   H11B 7962   1.819   5.830   2.062  0.2685  0.3361 -0.0169
   86OSM      P 7963   2.061   5.947   1.968 -0.3036  0.1231  0.1737
   86OSM    O13 7964   2.156   5.832   1.953  0.0360 -0.5322  0.3024
   86OSM    O14 7965   2.118   6.077   1.921 -0.3091 -0.3502 -0.2842
   86OSM    O11 7966   2.023   5.955   2.119 -0.5375  0.3545  0.0214
   86OSM    O12 7967   1.922   5.916   1.896 -0.3464  0.0045 -0.7634
   86OSM    C1S 7968   2.033   6.090   2.171  0.0996 -0.9485 -0.3590
   86OSM    H1S 7969   1.963   6.160   2.120  0.6698  1.1043  1.5281
   86OSM    H1T 7970   2.129   6.143   2.160  0.1447 -1.0304 -0.3651
   86OSM     NF 7971   1.942   6.240   2.347 -0.3478  0.2868 -0.1483
   86OSM    HNF 7972   1.989   6.271   2.430  0.5162 -1.0456 -0.0978
   86OSM    C2S 7973   1.982   6.095   2.318 -0.2564 -0.9747  0.3078
   86OSM    H2S 7974   1.888   6.037   2.327 -0.5839 -0.6103 -0.6189
   86OSM    C3S 7975   2.086   6.038   2.418 -0.6461 -0.4508  0.9563
   86OSM    H3S 7976   2.176   6.104   2.413 -0.4643 -0.8049 -2.1142
   86OSM     O3 7977   2.128   5.911   2.369  0.6189  0.4120  0.8211
   86OSM    HO3 7978   2.110   5.922   2.275  2.3295  0.0528  0.4113
   86OSM    C4S 7979   2.036   6.039   2.559 -0.0515  0.1055  0.3070
   86OSM    H4S 7980   1.979   5.948   2.583 -0.0517 -0.0636 -0.3057
   86OSM    C5S 7981   2.054   6.122   2.656  0.8050  0.1261 -0.1021
   86OSM    H5S 7982   2.137   6.195   2.650 -0.0770  1.2805  1.1241
   86OSM    C6S 7983   2.000   6.133   2.797  0.8205 -0.4406 -0.0890
   86OSM    H6S 7984   1.926   6.055   2.824  0.3886  0.3919  1.2038
   86OSM    H6T 7985   1.954   6.234   2.804  0.3171 -0.4087 -2.6721
   86OSM    C7S 7986   2.107   6.113   2.909 -0.3511 -0.4644 -0.7120
   86OSM    H7S 7987   2.186   6.189   2.894  1.3850 -2.1168 -0.3909
   86OSM    H7T 7988   2.154   6.012   2.908  3.2840  1.0499  1.1241
   86OSM    C8S 7989   2.044   6.127   3.043 -0.1953  0.5936 -0.2802
   86OSM    H8S 7990   1.961   6.053   3.046 -0.2906  0.6951 -0.3906
   86OSM    H8T 7991   2.005   6.226   3.075  0.8871  0.6915  0.8218
   86OSM    C9S 7992   2.147   6.081   3.155  1.0893 -0.5104 -0.3057
   86OSM    H9S 7993   2.209   6.171   3.178 -0.9576  1.0189 -0.4478
   86OSM    H9T 7994   2.211   6.006   3.103  1.7362  0.3420 -0.7686
   86OSM   C10S 7995   2.077   6.023   3.280  0.5585 -0.7889 -0.3549
   86OSM   H10S 7996   2.155   6.002   3.356  1.8407  1.5780 -0.9163
   86OSM   H10T 7997   2.046   5.918   3.260  2.5655 -1.6468  0.6634
   86OSM   C11S 7998   1.952   6.086   3.337  0.0789 -0.0380  0.3646
   86OSM   H11S 7999   1.867   6.056   3.272 -0.3830  0.1055  0.8966
   86OSM   H11T 8000   1.965   6.195   3.352 -0.2871 -0.1135  1.2600
   86OSM   C12S 8001   1.925   6.035   3.480 -0.0776 -0.3605  1.2887
   86OSM   H12S 8002   2.011   6.035   3.551  0.3943  1.4915  0.7664
   86OSM   H12T 8003   1.889   5.930   3.470 -0.7610  0.0907 -1.8626
   86OSM   C13S 8004   1.811   6.110   3.553  0.8670  0.3495  0.4754
   86OSM   H13S 8005   1.797   6.066   3.653 -1.4133  2.9742  1.4419
   86OSM   H13T 8006   1.720   6.101   3.490  1.7594  0.5501 -0.8966
   86OSM   C14S 8007   1.848   6.260   3.566 -0.0291  0.2963  0.6007
   86OSM   H14S 8008   1.834   6.305   3.465 -1.8826 -2.7407 -0.6392
   86OSM   H14T 8009   1.950   6.274   3.608  0.3900 -1.5579  0.2774
   86OSM   C15S 8010   1.760   6.346   3.658  0.2794 -0.1415 -0.5981
   86OSM   H15S 8011   1.664   6.333   3.603  0.6631  1.4418 -1.7166
   86OSM   H15T 8012   1.796   6.451   3.647  0.0773 -0.3248 -3.7196
   86OSM   C16S 8013   1.767   6.309   3.808 -0.2235 -0.5350 -0.0727
   86OSM   H16S 8014   1.840   6.374   3.862 -2.3067  0.7175  1.4074
   86OSM   H16T 8015   1.802   6.204   3.815  0.4892 -0.3435 -0.6363
   86OSM   C17S 8016   1.643   6.313   3.899 -0.6994  0.2899  0.3934
   86OSM   H17S 8017   1.673   6.279   4.001  2.0363 -0.1456 -0.5010
   86OSM   H17T 8018   1.569   6.241   3.858  2.2313 -2.5541 -0.2953
   86OSM   C18S 8019   1.582   6.456   3.900  0.1873 -0.2027 -0.6122
   86OSM   H18S 8020   1.652   6.541   3.918 -1.0702  0.8782 -0.7157
   86OSM   H18T 8021   1.513   6.469   3.986  0.6290  0.1527 -0.3033
   86OSM   H18U 8022   1.537   6.479   3.801 -0.8541  0.9553  0.1117
   86OSM    C1F 8023   1.841   6.299   2.296  0.5118 -0.1994 -0.1965
   86OSM     OF 8024   1.766   6.241   2.223 -0.0565 -0.0892  0.2494
   86OSM    C2F 8025   1.821   6.445   2.323  0.4047 -0.6027  0.1150
   86OSM    H2F 8026   1.851   6.510   2.238  1.5414 -1.7558 -0.4015
   86OSM    H2G 8027   1.884   6.476   2.409 -1.1133 -0.3648  1.1791
   86OSM    C3F 8028   1.675   6.483   2.360 -0.2526  0.1589  0.0540
   86OSM    H3F 8029   1.592   6.419   2.326  0.7240 -0.8539 -0.4951
   86OSM    H3G 8030   1.664   6.587   2.320  1.6225  0.5990  0.5488
   86OSM    C4F 8031   1.654   6.497   2.516  0.6284  0.3358 -1.0992
   86OSM    H4F 8032   1.548   6.524   2.534  0.2699 -2.1924  1.2432
   86OSM    H4G 8033   1.737   6.561   2.552  1.3998 -1.1676 -0.0921
   86OSM    C5F 8034   1.660   6.362   2.594  0.1576 -0.7876  0.4628
   86OSM    H5F 8035   1.768   6.337   2.589  0.3040 -0.5762  2.0437
   86OSM    H5G 8036   1.593   6.288   2.545 -0.2031  0.0186 -0.2931
   86OSM    C6F 8037   1.623   6.372   2.742  0.2858  0.3876 -0.0141
   86OSM    H6F 8038   1.522   6.420   2.745  0.7027  1.3442 -0.6444
   86OSM    H6G 8039   1.689   6.432   2.808 -0.1964  0.7839  0.1190
   86OSM    C7F 8040   1.613   6.233   2.805  0.2722  0.4476 -0.2580
   86OSM    H7F 8041   1.695   6.163   2.780 -0.0572  0.3325 -1.0595
   86OSM    H7G 8042   1.528   6.183   2.754  0.7525 -2.4052  1.5268
   86OSM    C8F 8043   1.586   6.242   2.957 -0.3096 -1.0685  0.0643
   86OSM    H8F 8044   1.545   6.143   2.985 -1.0330 -0.3937  1.4765
   86OSM    H8G 8045   1.506   6.318   2.970  0.3464 -0.5945  1.5870
   86OSM    C9F 8046   1.711   6.277   3.032 -0.3244  0.3161 -1.4900
   86OSM    H9F 8047   1.803   6.218   3.017 -0.7121 -1.1775  1.3474
   86OSM   C10F 8048   1.719   6.376   3.126  0.1803  0.5962  0.4927
   86OSM   H10F 8049   1.822   6.385   3.165  0.8287 -1.3770 -0.5998
   86OSM   C11F 8050   1.613   6.463   3.176  0.2982 -0.2469 -0.5636
   86OSM   H11F 8051   1.516   6.409   3.184 -0.6629  1.3007 -1.3204
   86OSM   H11G 8052   1.591   6.546   3.106  0.6611  0.2917 -0.0466
   86OSM   C12F 8053   1.669   6.524   3.310 -0.4515 -0.1246 -0.1417
   86OSM   H12F 8054   1.757   6.582   3.275  2.2212 -3.2962  0.7903
   86OSM   H12G 8055   1.699   6.434   3.369  1.2534  1.0735  0.9092
   86OSM   C13F 8056   1.570   6.614   3.381 -0.1319  0.8031  0.7473
   86OSM   H13F 8057   1.472   6.562   3.380  0.2933 -0.1240 -1.8550
   86OSM   H13G 8058   1.547   6.709   3.328 -0.9294  0.9185  1.2866
   86OSM   C14F 8059   1.608   6.648   3.522 -0.3425  0.2358 -0.5977
   86OSM   H14F 8060   1.710   6.692   3.522 -0.5035  0.8331  2.3032
   86OSM   H14G 8061   1.590   6.563   3.592  0.0145  0.5416 -0.1323
   86OSM   C15F 8062   1.545   6.769   3.598 -0.0158  0.6219  0.2911
   86OSM   H15F 8063   1.585   6.858   3.544 -0.3024  0.3640 -0.3503
   86OSM   H15G 8064   1.568   6.767   3.707 -1.6912  0.4844  0.6821
   86OSM   C16F 8065   1.389   6.769   3.608  0.0272  0.6185 -0.5866
   86OSM   H16F 8066   1.365   6.669   3.649  0.7451  0.4731 -0.5219
   86OSM   H16G 8067   1.350   6.769   3.504 -0.1474  1.8212 -0.5364
   86OSM   C17F 8068   1.330   6.874   3.709  0.2695 -0.3143 -0.1886
   86OSM   H17F 8069   1.331   6.979   3.673  0.7913 -0.5710 -0.9600
   86OSM   H17G 8070   1.391   6.873   3.801  0.6728 -0.7257 -0.4533
   86OSM   C18F 8071   1.183   6.842   3.751 -0.0581  0.3272  0.4957
   86OSM   H18F 8072   1.173   6.739   3.791 -3.9860  1.2855  2.5233
   86OSM   H18G 8073   1.109   6.875   3.675 -0.6339  2.9343  2.0236
   86OSM   H18H 8074   1.163   6.911   3.837  2.6958  2.3662 -0.3629
   87OSM      N 8075   6.099   2.809   1.876  0.4870  0.1075 -0.7917
   87OSM    C15 8076   6.058   2.721   1.759 -0.0521 -0.3592 -0.3358
   87OSM   H15A 8077   6.071   2.615   1.776  1.9713 -0.2116 -0.6930
   87OSM   H15B 8078   6.127   2.738   1.678  1.2122  0.5314  0.8659
   87OSM   H15C 8079   5.958   2.746   1.726 -0.1854  0.9607  0.9715
   87OSM    C14 8080   6.036   2.941   1.857 -0.5893 -0.0402 -0.0459
   87OSM   H14A 8081   6.079   2.981   1.766  0.5825  1.1536  1.0033
   87OSM   H14B 8082   6.058   3.006   1.940  1.4043 -1.1602  0.3545
   87OSM   H14C 8083   5.930   2.918   1.850 -0.0937 -2.0824 -1.5784
   87OSM    C13 8084   6.046   2.752   2.001 -0.8791 -0.3615 -0.7245
   87OSM   H13A 8085   6.038   2.832   2.073  0.7551  1.4494 -2.4179
   87OSM   H13B 8086   6.103   2.671   2.044 -0.8958  0.5022  1.0276
   87OSM   H13C 8087   5.950   2.707   1.983 -0.4691 -1.0538 -1.2399
   87OSM    C12 8088   6.256   2.815   1.877 -0.2446 -0.0199 -0.8496
   87OSM   H12A 8089   6.298   2.852   1.785  0.8095 -2.5857 -1.5063
   87OSM   H12B 8090   6.290   2.713   1.891  2.5826  0.7760 -1.3020
   87OSM    C11 8091   6.323   2.896   1.987  0.1128 -0.7400 -0.4344
   87OSM   H11A 8092   6.259   2.984   2.012  0.5409 -0.1524 -1.3599
   87OSM   H11B 8093   6.421   2.939   1.960 -0.0761  1.0675  1.4687
   87OSM      P 8094   6.413   2.690   2.127  0.1352 -0.2467 -0.2534
   87OSM    O13 8095   6.362   2.589   2.033  0.3022 -0.1014 -0.2732
   87OSM    O14 8096   6.557   2.709   2.138  0.2460  0.8965 -0.3378
   87OSM    O11 8097   6.373   2.659   2.278  0.7650  0.3078  0.0939
   87OSM    O12 8098   6.345   2.825   2.103 -0.1926 -0.7204  0.0207
   87OSM    C1S 8099   6.238   2.674   2.332  0.1407 -0.2239  0.2405
   87OSM    H1S 8100   6.185   2.580   2.306 -2.6334  1.1700  0.4719
   87OSM    H1T 8101   6.183   2.765   2.297  0.3999  0.0299  0.4891
   87OSM     NF 8102   6.103   2.725   2.516 -0.1396  0.7303 -0.3972
   87OSM    HNF 8103   6.091   2.823   2.504 -1.4350  0.5130 -0.9940
   87OSM    C2S 8104   6.239   2.679   2.487 -0.1416 -0.1687 -0.4199
   87OSM    H2S 8105   6.254   2.582   2.538 -0.0795 -0.3293 -0.7445
   87OSM    C3S 8106   6.345   2.771   2.543  0.3211 -0.3800  0.0253
   87OSM    H3S 8107   6.331   2.876   2.510  2.0107  0.3157  1.3865
   87OSM     O3 8108   6.481   2.752   2.501 -0.1756  0.0520  0.2600
   87OSM    HO3 8109   6.470   2.715   2.414 -0.0855 -0.7079  0.5600
   87OSM    C4S 8110   6.345   2.775   2.691 -0.1281 -0.0071 -0.3561
   87OSM    H4S 8111   6.344   2.677   2.741  0.5147  0.2812  0.2432
   87OSM    C5S 8112   6.355   2.891   2.758  0.4611 -0.4244  0.4518
   87OSM    H5S 8113   6.344   2.985   2.703 -0.5286  0.1157  1.5235
   87OSM    C6S 8114   6.353   2.912   2.906 -0.6350  0.0490 -0.1712
   87OSM    H6S 8115   6.442   2.972   2.935  0.1849 -0.1016 -2.1929
   87OSM    H6T 8116   6.348   2.815   2.960  0.2237 -0.2982 -0.6896
   87OSM    C7S 8117   6.231   3.002   2.952  0.7747 -0.7838  0.5236
   87OSM    H7S 8118   6.223   2.989   3.062  0.0027  0.7499  0.6730
   87OSM    H7T 8119   6.142   2.958   2.900  1.3199 -0.4413 -0.7516
   87OSM    C8S 8120   6.240   3.154   2.908  0.1469  0.1518 -0.5917
   87OSM    H8S 8121   6.256   3.147   2.798  0.0606 -0.5852 -0.5643
   87OSM    H8T 8122   6.330   3.200   2.952  0.1956 -0.1961 -0.3259
   87OSM    C9S 8123   6.115   3.236   2.935 -0.2896  0.1868  0.5647
   87OSM    H9S 8124   6.069   3.209   3.033 -1.3355 -1.7916 -0.4196
   87OSM    H9T 8125   6.046   3.204   2.854 -1.2007  2.3600  0.4167
   87OSM   C10S 8126   6.129   3.382   2.913 -0.0343 -0.4954  0.1019
   87OSM   H10S 8127   6.186   3.397   2.819 -0.8281 -0.0937 -0.3292
   87OSM   H10T 8128   6.193   3.416   2.997  0.4670  1.5121 -1.0154
   87OSM   C11S 8129   5.993   3.467   2.911 -0.4264 -0.4746 -0.3355
   87OSM   H11S 8130   5.911   3.409   2.958  0.7206 -0.4026  1.8879
   87OSM   H11T 8131   5.965   3.493   2.807 -2.2321  0.3579  0.3001
   87OSM   C12S 8132   5.996   3.593   3.007 -0.1701  0.1944 -0.3076
   87OSM   H12S 8133   6.074   3.667   2.980 -0.3929  0.2738 -0.7339
   87OSM   H12T 8134   6.018   3.562   3.112 -1.6979  2.1176  0.6560
   87OSM   C13S 8135   5.864   3.667   3.003 -0.7544 -0.3113  0.0479
   87OSM   H13S 8136   5.788   3.603   3.052  0.9765 -2.0084  0.5993
   87OSM   H13T 8137   5.840   3.685   2.895 -0.0217  0.5936  0.0159
   87OSM   C14S 8138   5.865   3.807   3.074  0.4138 -0.0811  0.9163
   87OSM   H14S 8139   5.885   3.789   3.181 -2.1076 -1.9972  1.1708
   87OSM   H14T 8140   5.946   3.874   3.037  0.1209  0.2073  0.7947
   87OSM   C15S 8141   5.731   3.877   3.063 -0.6163 -0.3975  0.2196
   87OSM   H15S 8142   5.701   3.872   2.956  0.0269 -0.9803  0.0656
   87OSM   H15T 8143   5.750   3.984   3.089 -0.3011 -0.2146 -0.7459
   87OSM   C16S 8144   5.618   3.809   3.152  0.5140  0.1531  0.8377
   87OSM   H16S 8145   5.621   3.699   3.140  0.9922  0.3045 -0.5931
   87OSM   H16T 8146   5.518   3.844   3.120  0.0079 -2.3519 -0.4926
   87OSM   C17S 8147   5.650   3.836   3.306  0.0624  0.1755  0.6857
   87OSM   H17S 8148   5.660   3.946   3.322  0.1589  0.0572  1.4833
   87OSM   H17T 8149   5.746   3.788   3.333 -0.4874 -0.7568  1.0236
   87OSM   C18S 8150   5.556   3.771   3.398  0.1064 -0.4340  0.7140
   87OSM   H18S 8151   5.570   3.782   3.508 -1.8807 -1.6152  1.1325
   87OSM   H18T 8152   5.554   3.665   3.367 -1.1996  0.3813 -2.3211
   87OSM   H18U 8153   5.458   3.823   3.389  0.3538 -0.3126 -2.0439
   87OSM    C1F 8154   5.990   2.654   2.507 -0.1603 -0.2517 -0.2234
   87OSM     OF 8155   5.990   2.535   2.474  0.1709  0.2390 -0.1525
   87OSM    C2F 8156   5.871   2.739   2.527  0.3363  0.5056  0.6047
   87OSM    H2F 8157   5.810   2.737   2.434 -0.0036  0.2157  0.8302
   87OSM    H2G 8158   5.892   2.843   2.559 -2.5999  1.2904  0.2648
   87OSM    C3F 8159   5.785   2.681   2.645 -0.5443 -0.2113  0.0339
   87OSM    H3F 8160   5.827   2.706   2.745 -1.3946 -1.9777  0.8660
   87OSM    H3G 8161   5.788   2.570   2.646  0.0094 -0.2627  2.9388
   87OSM    C4F 8162   5.639   2.733   2.651 -0.7971  0.7564 -0.2039
   87OSM    H4F 8163   5.600   2.686   2.744  1.7529  0.8864  1.0116
   87OSM    H4G 8164   5.593   2.670   2.572 -0.6746  1.5309 -0.9016
   87OSM    C5F 8165   5.621   2.881   2.634  0.6488  0.2589 -0.7590
   87OSM    H5F 8166   5.516   2.899   2.603  0.9137  0.5918 -1.4682
   87OSM    H5G 8167   5.698   2.913   2.561  1.0919 -1.5820 -1.1567
   87OSM    C6F 8168   5.670   2.953   2.762  0.3858 -0.6841  0.1354
   87OSM    H6F 8169   5.774   2.916   2.779  0.6799  0.6125  1.4135
   87OSM    H6G 8170   5.622   2.931   2.859  1.9428 -0.4874  0.9970
   87OSM    C7F 8171   5.659   3.106   2.751 -0.4566 -0.6283 -0.9637
   87OSM    H7F 8172   5.553   3.137   2.764 -0.0718 -0.1394  1.4227
   87OSM    H7G 8173   5.692   3.136   2.649 -2.8587  0.3502 -1.5517
   87OSM    C8F 8174   5.746   3.177   2.853 -0.7389  0.0340  0.8041
   87OSM    H8F 8175   5.742   3.288   2.845 -1.5864  0.1668  2.4852
   87OSM    H8G 8176   5.849   3.156   2.819 -0.5357  0.4775  1.1381
   87OSM    C9F 8177   5.737   3.128   2.993 -0.0461 -0.3879 -0.7444
   87OSM    H9F 8178   5.801   3.042   3.017  2.1383  1.4899  0.7107
   87OSM   C10F 8179   5.676   3.179   3.097 -0.3750 -0.0379  0.6814
   87OSM   H10F 8180   5.681   3.121   3.190 -0.0340 -0.0810  0.6390
   87OSM   C11F 8181   5.589   3.306   3.106 -0.3224 -0.1629  0.7307
   87OSM   H11F 8182   5.483   3.273   3.096  0.3955 -2.1385 -1.0701
   87OSM   H11G 8183   5.612   3.367   3.017  2.5299 -2.0026  0.0789
   87OSM   C12F 8184   5.621   3.380   3.235  0.6635 -0.5763 -0.0061
   87OSM   H12F 8185   5.607   3.323   3.329 -0.8383  1.1721  0.8925
   87OSM   H12G 8186   5.556   3.470   3.246  1.7984  0.1403  1.0336
   87OSM   C13F 8187   5.768   3.430   3.248  0.7291  0.5632  0.0214
   87OSM   H13F 8188   5.773   3.539   3.265  0.7361  0.3330  1.6503
   87OSM   H13G 8189   5.830   3.403   3.159 -0.7552  0.7723 -1.1110
   87OSM   C14F 8190   5.849   3.365   3.363  1.1308  0.0323  0.1670
   87OSM   H14F 8191   5.853   3.254   3.367  0.0874 -0.0504 -0.6674
   87OSM   H14G 8192   5.798   3.399   3.456  1.6693  0.6839  0.2320
   87OSM   C15F 8193   5.985   3.426   3.388  0.0807 -0.9500  0.0649
   87OSM   H15F 8194   6.021   3.406   3.491  1.4591 -2.7867 -0.7234
   87OSM   H15G 8195   5.981   3.536   3.371  0.5134 -0.6840  1.5245
   87OSM   C16F 8196   6.102   3.377   3.305 -0.4070 -0.0163  0.3875
   87OSM   H16F 8197   6.064   3.356   3.203 -1.5360  0.9222  0.6005
   87OSM   H16G 8198   6.130   3.275   3.341 -2.6066 -0.7064  0.3017
   87OSM   C17F 8199   6.227   3.466   3.326  1.0885 -0.1113  0.7907
   87OSM   H17F 8200   6.252   3.471   3.434 -0.5133  0.8787  1.1312
   87OSM   H17G 8201   6.203   3.571   3.300  3.0917  0.9837  2.9888
   87OSM   C18F 8202   6.357   3.428   3.244 -0.2266 -1.0031  0.0027
   87OSM   H18F 8203   6.334   3.447   3.138 -2.1176 -1.2854  0.3251
   87OSM   H18G 8204   6.368   3.317   3.254  2.4262 -0.7839  0.3758
   87OSM   H18H 8205   6.437   3.482   3.299 -1.3131  0.2031  0.4593
   88OSM      N 8206   4.749   0.350   1.929  0.2094 -0.2222  0.5517
   88OSM    C15 8207   4.689   0.301   2.060 -0.7700 -0.6381 -0.3256
   88OSM   H15A 8208   4.652   0.199   2.062 -0.1285 -0.8750  1.2439
   88OSM   H15B 8209   4.613   0.366   2.102  0.2428  1.7235 -1.9581
   88OSM   H15C 8210   4.761   0.319   2.138 -2.3924  1.8952  0.7380
   88OSM    C14 8211   4.812   0.229   1.866  0.1816  0.2818 -0.1263
   88OSM   H14A 8212   4.880   0.260   1.788 -1.3719  0.6251 -1.4076
   88OSM   H14B 8213   4.745   0.158   1.818  0.8099  1.0372 -2.2310
   88OSM   H14C 8214   4.867   0.177   1.942  1.1400  2.4933  0.7637
   88OSM    C13 8215   4.641   0.400   1.844  0.2109  0.4184 -0.5616
   88OSM   H13A 8216   4.581   0.470   1.900 -0.4905  0.2145 -1.0364
   88OSM   H13B 8217   4.574   0.324   1.806  1.5834  0.3435 -3.0325
   88OSM   H13C 8218   4.676   0.457   1.759 -0.2405 -0.2983 -1.2382
   88OSM    C12 8219   4.845   0.460   1.962  0.1988  0.2151  0.1355
   88OSM   H12A 8220   4.888   0.506   1.875 -0.2342 -1.7808 -1.2058
   88OSM   H12B 8221   4.927   0.414   2.016  0.6314 -0.8450 -1.3685
   88OSM    C11 8222   4.786   0.577   2.046  0.0404 -0.1880 -0.0797
   88OSM   H11A 8223   4.876   0.638   2.070  0.1050 -0.4793  0.4340
   88OSM   H11B 8224   4.746   0.534   2.140  0.7864  0.8300  0.7189
   88OSM      P 8225   4.601   0.766   2.042  0.1619 -0.1641  0.3803
   88OSM    O13 8226   4.604   0.884   1.952  0.1489 -0.0906  0.2578
   88OSM    O14 8227   4.469   0.715   2.082  0.4069 -0.0759 -0.4168
   88OSM    O11 8228   4.678   0.811   2.176 -0.0948 -0.2541 -0.1253
   88OSM    O12 8229   4.687   0.656   1.968  0.0630  0.6056  0.1889
   88OSM    C1S 8230   4.731   0.943   2.191  0.0684  0.0852 -0.0686
   88OSM    H1S 8231   4.642   1.009   2.199 -0.0420 -0.1181  0.4171
   88OSM    H1T 8232   4.791   0.977   2.103 -0.9139  2.1702  0.0199
   88OSM     NF 8233   4.849   1.114   2.340  0.8455 -0.0747 -0.1484
   88OSM    HNF 8234   4.945   1.139   2.337  0.4218  1.8179  0.8190
   88OSM    C2S 8235   4.817   0.971   2.318  0.4786  0.0385 -0.8315
   88OSM    H2S 8236   4.754   0.938   2.403  1.5851 -0.8932 -0.3494
   88OSM    C3S 8237   4.942   0.878   2.324 -0.3558 -0.6624 -0.9841
   88OSM    H3S 8238   5.009   0.906   2.240  1.3100 -0.0949  0.4709
   88OSM     O3 8239   4.925   0.740   2.299  0.0178 -0.4151 -0.0689
   88OSM    HO3 8240   4.830   0.740   2.285 -0.0983  1.6024  0.5061
   88OSM    C4S 8241   5.015   0.900   2.452  0.2033  0.5014 -0.3978
   88OSM    H4S 8242   5.105   0.963   2.458 -0.7982  2.1139 -1.6446
   88OSM    C5S 8243   4.977   0.839   2.566  0.6205 -0.4292  0.0289
   88OSM    H5S 8244   4.893   0.768   2.563  1.1800 -1.0885 -2.6608
   88OSM    C6S 8245   5.046   0.850   2.691  0.2848  0.3274 -0.3429
   88OSM    H6S 8246   5.133   0.919   2.694 -0.2131  0.9477 -0.0092
   88OSM    H6T 8247   5.082   0.748   2.717 -1.0781  0.0953  0.6990
   88OSM    C7S 8248   4.954   0.894   2.810 -0.2366 -0.0702  0.0512
   88OSM    H7S 8249   4.880   0.812   2.820  0.5541 -0.6385  1.4504
   88OSM    H7T 8250   4.914   0.995   2.786  1.0365  0.4769  0.1479
   88OSM    C8S 8251   5.039   0.877   2.940  0.3586 -0.0446 -0.9427
   88OSM    H8S 8252   5.119   0.953   2.952  1.3460 -1.2413  0.6411
   88OSM    H8T 8253   5.085   0.777   2.955  1.5447  0.5668 -0.3352
   88OSM    C9S 8254   4.953   0.909   3.065  0.0045 -0.3853 -0.8268
   88OSM    H9S 8255   4.867   0.840   3.059  0.2649 -0.7777 -0.1675
   88OSM    H9T 8256   4.911   1.012   3.069  0.7293 -0.1120  0.2114
   88OSM   C10S 8257   5.017   0.877   3.203  0.3204 -0.1059 -0.3353
   88OSM   H10S 8258   5.097   0.952   3.222 -0.3740  1.2324 -2.4684
   88OSM   H10T 8259   5.080   0.786   3.210  0.2531 -0.0629  1.2760
   88OSM   C11S 8260   4.925   0.867   3.328  0.1230  0.9943 -0.5753
   88OSM   H11S 8261   4.852   0.786   3.307  1.4145 -0.1235 -0.8541
   88OSM   H11T 8262   4.865   0.961   3.329 -0.5670  0.5757  0.9181
   88OSM   C12S 8263   4.994   0.858   3.465 -0.1283  0.0879 -0.5381
   88OSM   H12S 8264   5.089   0.916   3.460  0.3690 -0.8016 -2.7809
   88OSM   H12T 8265   5.030   0.757   3.493 -1.6602 -0.0358  1.1973
   88OSM   C13S 8266   4.896   0.910   3.577 -0.1604  0.1151  0.2711
   88OSM   H13S 8267   4.795   0.871   3.553 -0.1852 -0.3712  1.1260
   88OSM   H13T 8268   4.890   1.021   3.572 -1.2157  0.0957  0.8131
   88OSM   C14S 8269   4.934   0.861   3.715  1.1310 -0.4281 -0.1652
   88OSM   H14S 8270   5.035   0.902   3.734  0.1084  2.1094  0.1800
   88OSM   H14T 8271   4.931   0.750   3.709 -0.6758 -0.4125 -0.1091
   88OSM   C15S 8272   4.828   0.915   3.819  0.4391 -0.3192 -0.1005
   88OSM   H15S 8273   4.825   1.025   3.805  0.1192 -0.5700 -2.4601
   88OSM   H15T 8274   4.869   0.893   3.920  0.3224 -0.4307 -0.0765
   88OSM   C16S 8275   4.682   0.862   3.814 -0.0334  0.3655  0.0261
   88OSM   H16S 8276   4.666   0.862   3.704  0.3137 -0.9860 -0.0331
   88OSM   H16T 8277   4.624   0.934   3.875  0.2569 -0.9669  1.9604
   88OSM   C17S 8278   4.650   0.724   3.874 -0.6235 -0.1757  0.2899
   88OSM   H17S 8279   4.628   0.746   3.981  0.7995 -0.0645  0.5690
   88OSM   H17T 8280   4.742   0.664   3.862  0.6045  1.5984  0.4711
   88OSM   C18S 8281   4.529   0.664   3.809  0.0998  0.2944 -0.0093
   88OSM   H18S 8282   4.532   0.664   3.698  0.9961  0.6806  0.0083
   88OSM   H18T 8283   4.441   0.728   3.830 -0.1719 -0.5962  1.7656
   88OSM   H18U 8284   4.505   0.562   3.846  1.7731  0.2349  0.9909
   88OSM    C1F 8285   4.760   1.212   2.364  0.4874  0.5234 -0.4783
   88OSM     OF 8286   4.642   1.179   2.373 -0.0113  0.1603  0.6551
   88OSM    C2F 8287   4.808   1.349   2.400  0.2100 -0.2406 -0.6582
   88OSM    H2F 8288   4.787   1.412   2.311 -1.0643 -2.0318 -1.6960
   88OSM    H2G 8289   4.915   1.335   2.426 -0.5740  0.1924  3.6074
   88OSM    C3F 8290   4.749   1.412   2.524  0.5561 -0.0624  0.3242
   88OSM    H3F 8291   4.640   1.429   2.512  0.8151  1.0117 -0.8026
   88OSM    H3G 8292   4.796   1.512   2.536  1.3917 -0.5033  0.8100
   88OSM    C4F 8293   4.777   1.322   2.651 -0.2107 -0.8617 -0.0142
   88OSM    H4F 8294   4.887   1.306   2.652  0.3941  2.4927 -1.4575
   88OSM    H4G 8295   4.726   1.224   2.634 -2.0407 -0.4227  2.4657
   88OSM    C5F 8296   4.741   1.384   2.783  0.1537  0.5966  0.1047
   88OSM    H5F 8297   4.638   1.419   2.763  0.1906  0.5207 -0.2152
   88OSM    H5G 8298   4.802   1.475   2.803  0.2035  0.5902 -0.0222
   88OSM    C6F 8299   4.729   1.286   2.906  0.0443  0.1102 -0.1609
   88OSM    H6F 8300   4.812   1.212   2.908  0.0402  0.1111  1.7201
   88OSM    H6G 8301   4.634   1.230   2.901  0.2065 -0.2611  0.6959
   88OSM    C7F 8302   4.730   1.367   3.040 -0.0747 -0.1174 -0.1601
   88OSM    H7F 8303   4.643   1.437   3.042  0.0472  0.0856 -1.2198
   88OSM    H7G 8304   4.820   1.432   3.028  1.6089 -2.2578  0.3088
   88OSM    C8F 8305   4.746   1.286   3.169  0.1162 -0.3266 -0.2246
   88OSM    H8F 8306   4.688   1.191   3.168  1.0719 -0.9198 -0.3445
   88OSM    H8G 8307   4.692   1.343   3.248  0.1896 -1.3897  0.6170
   88OSM    C9F 8308   4.890   1.274   3.209 -0.3522 -0.4654 -0.1495
   88OSM    H9F 8309   4.959   1.243   3.129 -0.0105 -0.9092  0.3047
   88OSM   C10F 8310   4.940   1.311   3.324  0.3492  0.4630  0.3043
   88OSM   H10F 8311   5.049   1.323   3.332  1.0040 -1.6848 -3.3593
   88OSM   C11F 8312   4.868   1.371   3.442  0.8271 -1.1412 -0.0560
   88OSM   H11F 8313   4.778   1.312   3.468 -0.9615  1.2524 -0.4411
   88OSM   H11G 8314   4.825   1.471   3.421 -0.4775 -1.4269  1.1544
   88OSM   C12F 8315   4.950   1.396   3.573  0.0700 -0.2722 -0.0943
   88OSM   H12F 8316   4.879   1.456   3.633  0.7405 -0.7576  1.2376
   88OSM   H12G 8317   5.040   1.456   3.548  0.9519 -1.3109  0.5202
   88OSM   C13F 8318   5.003   1.271   3.646 -0.5197  0.1754 -0.9036
   88OSM   H13F 8319   5.081   1.214   3.591 -0.5268  0.2177 -0.9567
   88OSM   H13G 8320   4.914   1.208   3.670  0.8200 -1.1722  0.7952
   88OSM   C14F 8321   5.075   1.293   3.783  0.1256 -0.1244 -0.2881
   88OSM   H14F 8322   5.011   1.356   3.848  2.1758  0.5246  1.2069
   88OSM   H14G 8323   5.159   1.365   3.771  0.0110 -0.1453 -1.2811
   88OSM   C15F 8324   5.126   1.176   3.856  0.9910  0.1555  0.0328
   88OSM   H15F 8325   5.220   1.141   3.808  0.3327  0.0896 -1.2651
   88OSM   H15G 8326   5.057   1.089   3.844  0.5601  0.4777  0.1504
   88OSM   C16F 8327   5.147   1.200   4.007 -0.4730 -0.0630 -0.1003
   88OSM   H16F 8328   5.193   1.301   4.013 -1.5049  0.7760 -3.8626
   88OSM   H16G 8329   5.223   1.127   4.043  1.1359  0.5116 -2.1304
   88OSM   C17F 8330   5.019   1.207   4.086 -0.9082  0.1542 -0.0202
   88OSM   H17F 8331   4.956   1.121   4.053  0.5594 -0.6467 -0.8486
   88OSM   H17G 8332   4.973   1.305   4.061 -0.6214  0.3848  0.3485
   88OSM   C18F 8333   5.037   1.216   4.236  0.5082 -0.1179 -0.2602
   88OSM   H18F 8334   5.039   1.124   4.297  0.1315  0.5545  0.7993
   88OSM   H18G 8335   4.956   1.280   4.276  0.7034 -0.0869  0.0886
   88OSM   H18H 8336   5.128   1.271   4.270 -0.3225  1.2715 -0.1888
   89OSM      N 8337   6.621   4.476   1.613  0.4781 -0.2821  0.1213
   89OSM    C15 8338   6.756   4.478   1.542  0.5285 -0.0218  0.1605
   89OSM   H15A 8339   6.818   4.540   1.605  0.4097 -0.1447  0.3987
   89OSM   H15B 8340   6.748   4.518   1.442 -0.1319 -0.4953  0.0189
   89OSM   H15C 8341   6.799   4.380   1.526 -0.2375 -0.1796 -1.0793
   89OSM    C14 8342   6.586   4.614   1.639 -0.0198  0.1643 -0.7434
   89OSM   H14A 8343   6.651   4.645   1.720  0.0336 -0.6037 -0.4858
   89OSM   H14B 8344   6.487   4.621   1.681  0.0902  1.2993 -0.6406
   89OSM   H14C 8345   6.598   4.680   1.554  1.9051  1.7062  0.6247
   89OSM    C13 8346   6.518   4.407   1.517  0.2109 -0.5939  0.1856
   89OSM   H13A 8347   6.506   4.472   1.431  1.8451 -1.5273 -0.7961
   89OSM   H13B 8348   6.428   4.383   1.571  0.1406  1.6390  1.1774
   89OSM   H13C 8349   6.558   4.315   1.477  0.9874 -0.7123  1.2101
   89OSM    C12 8350   6.620   4.399   1.743  0.6417  0.3321  0.1783
   89OSM   H12A 8351   6.633   4.296   1.716 -0.8802  0.4836 -1.2462
   89OSM   H12B 8352   6.520   4.400   1.782  0.3613 -1.1127 -0.4449
   89OSM    C11 8353   6.718   4.444   1.855  0.0828  0.8760 -0.2346
   89OSM   H11A 8354   6.691   4.393   1.950 -1.5812  0.5657 -0.8409
   89OSM   H11B 8355   6.717   4.551   1.888 -1.6672  1.0853 -0.8713
   89OSM      P 8356   6.908   4.272   1.868  0.1852  0.3201 -0.7589
   89OSM    O13 8357   6.827   4.166   1.808 -0.8041 -0.0856  0.3776
   89OSM    O14 8358   7.050   4.264   1.837 -0.8707  0.2270  0.3828
   89OSM    O11 8359   6.893   4.263   2.022 -0.0072 -0.6066  0.6181
   89OSM    O12 8360   6.849   4.405   1.816  0.4276  0.1557 -0.0589
   89OSM    C1S 8361   6.995   4.287   2.118  0.0335 -0.7459  0.2194
   89OSM    H1S 8362   7.092   4.309   2.070 -0.8036 -1.6579 -2.0363
   89OSM    H1T 8363   7.004   4.200   2.187  0.1428 -1.5895 -0.8431
   89OSM     NF 8364   7.085   4.441   2.278  0.0297  0.2562 -0.0754
   89OSM    HNF 8365   7.115   4.396   2.362  0.9874 -0.5120 -0.7921
   89OSM    C2S 8366   6.962   4.395   2.213  0.1655 -0.1090 -0.8393
   89OSM    H2S 8367   6.923   4.489   2.168 -0.6248  0.1224  0.2841
   89OSM    C3S 8368   6.853   4.336   2.306  0.4416  0.8135  0.6042
   89OSM    H3S 8369   6.894   4.245   2.354 -1.5413 -0.6876 -0.4151
   89OSM     O3 8370   6.737   4.283   2.240 -0.8647 -0.0766  0.7603
   89OSM    HO3 8371   6.769   4.255   2.153 -0.7526  0.7138  0.5327
   89OSM    C4S 8372   6.803   4.420   2.417  0.2196  0.3304 -0.1350
   89OSM    H4S 8373   6.735   4.499   2.382 -1.7438 -1.4738 -0.6154
   89OSM    C5S 8374   6.835   4.403   2.549  0.0444  0.2192 -0.0489
   89OSM    H5S 8375   6.900   4.317   2.568 -0.7164 -1.0687 -2.8344
   89OSM    C6S 8376   6.774   4.480   2.658  0.3740 -0.2763 -0.2457
   89OSM    H6S 8377   6.767   4.588   2.633  1.7741  0.0454  0.5873
   89OSM    H6T 8378   6.850   4.481   2.740  0.4456 -2.1767 -0.2493
   89OSM    C7S 8379   6.636   4.440   2.707 -0.1049 -0.2314 -0.4400
   89OSM    H7S 8380   6.640   4.340   2.753 -1.0536 -0.1044 -0.0610
   89OSM    H7T 8381   6.563   4.428   2.624 -1.3110  0.9479  0.4073
   89OSM    C8S 8382   6.588   4.544   2.802 -0.0500 -0.6632  0.1781
   89OSM    H8S 8383   6.559   4.633   2.742 -2.5025 -2.0743 -0.8640
   89OSM    H8T 8384   6.668   4.567   2.876 -0.6396  1.7406  0.1335
   89OSM    C9S 8385   6.456   4.505   2.866  0.0380 -0.2917  0.1810
   89OSM    H9S 8386   6.474   4.430   2.946  0.0958 -0.0049  0.4410
   89OSM    H9T 8387   6.391   4.456   2.792 -0.8785 -0.4709  1.0882
   89OSM   C10S 8388   6.376   4.620   2.927 -0.1059 -0.2994 -0.4759
   89OSM   H10S 8389   6.274   4.589   2.961  0.0832 -0.2183  0.1764
   89OSM   H10T 8390   6.369   4.695   2.845  0.5864 -2.3900 -2.5605
   89OSM   C11S 8391   6.424   4.673   3.059  0.8066  0.7383  0.4502
   89OSM   H11S 8392   6.368   4.767   3.082 -0.7656 -0.8754  3.9745
   89OSM   H11T 8393   6.527   4.713   3.052  1.3765 -0.8257 -0.5726
   89OSM   C12S 8394   6.401   4.582   3.179 -0.2027 -0.7158  0.3915
   89OSM   H12S 8395   6.486   4.511   3.190  0.4025 -0.0138  0.3533
   89OSM   H12T 8396   6.311   4.518   3.168  1.2262 -2.3836 -3.1307
   89OSM   C13S 8397   6.382   4.671   3.315  0.0819 -0.2589  0.4709
   89OSM   H13S 8398   6.284   4.724   3.313  0.6891  0.8796  0.3129
   89OSM   H13T 8399   6.453   4.756   3.313 -0.5435  0.2482 -0.2549
   89OSM   C14S 8400   6.409   4.580   3.436  0.5893  0.2589 -0.4866
   89OSM   H14S 8401   6.507   4.530   3.419 -0.6751 -2.1313 -1.1798
   89OSM   H14T 8402   6.330   4.505   3.458  0.3696  1.0933  1.8383
   89OSM   C15S 8403   6.434   4.664   3.565 -0.6000 -0.3298  0.0879
   89OSM   H15S 8404   6.337   4.714   3.585 -0.2862 -0.1890  1.4056
   89OSM   H15T 8405   6.513   4.741   3.545 -2.5031  1.0232 -2.8773
   89OSM   C16S 8406   6.460   4.588   3.694 -0.9411 -0.8722 -0.5278
   89OSM   H16S 8407   6.564   4.551   3.680 -1.5527 -3.1081  0.3914
   89OSM   H16T 8408   6.390   4.502   3.694 -0.1133 -1.7922  3.9530
   89OSM   C17S 8409   6.448   4.673   3.822 -0.3464  0.4499  0.1071
   89OSM   H17S 8410   6.412   4.607   3.904  0.2917 -1.0132 -0.7524
   89OSM   H17T 8411   6.366   4.747   3.810  0.5832  1.1453 -2.6216
   89OSM   C18S 8412   6.574   4.749   3.860 -0.2355  0.2560 -0.0784
   89OSM   H18S 8413   6.556   4.815   3.948 -0.2460  2.1974 -1.4771
   89OSM   H18T 8414   6.607   4.817   3.779  0.0184 -1.4412 -1.4503
   89OSM   H18U 8415   6.655   4.675   3.876 -0.8728 -0.6255 -0.8177
   89OSM    C1F 8416   7.178   4.501   2.206  0.2878  0.1431  0.1840
   89OSM     OF 8417   7.156   4.562   2.098  0.3701  0.5409 -0.6062
   89OSM    C2F 8418   7.317   4.481   2.254 -0.0546 -0.3445  0.5660
   89OSM    H2F 8419   7.354   4.381   2.224  0.3720  0.7116 -2.8398
   89OSM    H2G 8420   7.321   4.492   2.364 -1.4095 -1.2132  0.7308
   89OSM    C3F 8421   7.418   4.573   2.191 -0.0353 -0.0023  0.1232
   89OSM    H3F 8422   7.380   4.671   2.156 -3.4794 -1.1498  0.2696
   89OSM    H3G 8423   7.454   4.522   2.100 -2.5049 -0.5551 -0.6003
   89OSM    C4F 8424   7.546   4.584   2.281  0.1280 -0.4688  0.3954
   89OSM    H4F 8425   7.637   4.605   2.222 -0.6671 -1.0263 -1.0760
   89OSM    H4G 8426   7.556   4.483   2.327  0.8633 -1.9305 -2.7269
   89OSM    C5F 8427   7.526   4.694   2.388  1.2208  0.2160  1.0310
   89OSM    H5F 8428   7.435   4.680   2.450 -0.4943  1.8776 -0.9597
   89OSM    H5G 8429   7.507   4.787   2.331 -2.1541 -0.3118  1.0811
   89OSM    C6F 8430   7.650   4.699   2.478  0.0124  0.6897 -0.2910
   89OSM    H6F 8431   7.732   4.755   2.429  0.7098  0.9008  1.0521
   89OSM    H6G 8432   7.691   4.596   2.489  0.1632  0.6938 -0.8006
   89OSM    C7F 8433   7.626   4.760   2.616 -0.3516  0.2169 -0.1527
   89OSM    H7F 8434   7.720   4.771   2.675  0.6301  1.3663 -1.8332
   89OSM    H7G 8435   7.565   4.687   2.673  0.3682  1.0841  1.8406
   89OSM    C8F 8436   7.557   4.901   2.608  0.1904  0.3688 -0.5784
   89OSM    H8F 8437   7.448   4.877   2.605  0.1834  0.2672  0.3305
   89OSM    H8G 8438   7.581   4.963   2.519 -3.9230  0.4366 -1.8321
   89OSM    C9F 8439   7.575   4.982   2.738  0.3335  0.4820 -0.2384
   89OSM    H9F 8440   7.670   5.035   2.753  1.6861 -1.8989  0.0876
   89OSM   C10F 8441   7.493   4.983   2.845 -0.0563 -0.2558  0.3077
   89OSM   H10F 8442   7.517   5.071   2.907  1.1582  0.3368 -0.9522
   89OSM   C11F 8443   7.368   4.901   2.854  0.5055  0.1598 -0.0251
   89OSM   H11F 8444   7.367   4.852   2.954  1.4864  0.4115  0.1263
   89OSM   H11G 8445   7.368   4.810   2.791  0.6216 -0.2396  0.5458
   89OSM   C12F 8446   7.245   4.977   2.796 -0.2545  0.4881  0.4483
   89OSM   H12F 8447   7.272   5.031   2.702 -0.3585  0.1597  0.2251
   89OSM   H12G 8448   7.209   5.050   2.871 -1.2479 -0.0919  0.5531
   89OSM   C13F 8449   7.137   4.877   2.755 -0.1301  0.5580  0.2752
   89OSM   H13F 8450   7.183   4.820   2.671  0.4641  2.4142 -0.7193
   89OSM   H13G 8451   7.055   4.939   2.712 -0.3906  0.4216  0.5741
   89OSM   C14F 8452   7.091   4.777   2.863 -0.3625 -0.1818  0.8703
   89OSM   H14F 8453   7.180   4.747   2.922  0.8155  3.1292  0.9984
   89OSM   H14G 8454   7.053   4.688   2.809  0.4562 -0.2013  0.2921
   89OSM   C15F 8455   6.988   4.827   2.959  0.0061  0.3487 -0.2301
   89OSM   H15F 8456   6.897   4.871   2.912 -1.6617 -1.2490  1.3809
   89OSM   H15G 8457   7.025   4.903   3.031 -1.8294  1.3919 -0.3163
   89OSM   C16F 8458   6.941   4.702   3.036  0.7499  0.6103 -0.6761
   89OSM   H16F 8459   7.024   4.652   3.090 -1.5957 -1.7476  0.9254
   89OSM   H16G 8460   6.901   4.625   2.966  2.0617 -2.3927  1.6937
   89OSM   C17F 8461   6.829   4.746   3.141 -0.3941 -0.3803 -0.0628
   89OSM   H17F 8462   6.750   4.798   3.083  1.5538  1.3972 -1.2635
   89OSM   H17G 8463   6.864   4.821   3.214 -2.1987 -1.0064  1.5097
   89OSM   C18F 8464   6.769   4.628   3.217 -0.5160 -0.1947  0.0481
   89OSM   H18F 8465   6.694   4.653   3.295  1.5157  0.4882  1.9160
   89OSM   H18G 8466   6.852   4.560   3.249  1.8711  1.8024 -1.4937
   89OSM   H18H 8467   6.723   4.575   3.131  1.8974  0.5470 -1.8000
   90OSM      N 8468   5.176   5.715   2.050 -0.1543 -0.2551 -0.0559
   90OSM    C15 8469   5.271   5.658   1.947 -0.0204 -0.0342  0.2285
   90OSM   H15A 8470   5.208   5.622   1.868 -0.3773 -1.7647  1.2679
   90OSM   H15B 8471   5.318   5.570   1.988 -1.7517 -0.3003  1.7194
   90OSM   H15C 8472   5.347   5.727   1.913 -0.5059  0.7106  0.6284
   90OSM    C14 8473   5.146   5.860   2.017 -0.5548  0.0630  0.3672
   90OSM   H14A 8474   5.096   5.867   1.921  0.1531 -3.6716 -0.4245
   90OSM   H14B 8475   5.235   5.920   2.010 -1.2909  1.0976 -0.4970
   90OSM   H14C 8476   5.083   5.904   2.093  0.9277  0.4130  1.4316
   90OSM    C13 8477   5.056   5.628   2.039 -0.3621 -0.6250 -0.2611
   90OSM   H13A 8478   5.031   5.616   1.934  0.2454 -0.9716 -0.3728
   90OSM   H13B 8479   4.974   5.683   2.082  0.4121  1.9626 -1.8811
   90OSM   H13C 8480   5.070   5.531   2.084  0.5334 -0.2008  0.4026
   90OSM    C12 8481   5.244   5.717   2.180  0.0183  0.1482  0.4649
   90OSM   H12A 8482   5.191   5.786   2.244  3.9286  1.7401  2.3835
   90OSM   H12B 8483   5.343   5.761   2.168 -0.1193  0.2125 -0.4622
   90OSM    C11 8484   5.245   5.596   2.271  0.1118  0.4389 -0.7250
   90OSM   H11A 8485   5.143   5.574   2.310 -0.6279  0.1616 -2.7029
   90OSM   H11B 8486   5.290   5.627   2.367  0.1187 -2.3491  0.2642
   90OSM      P 8487   5.474   5.480   2.228 -0.1791 -0.0534 -0.2274
   90OSM    O13 8488   5.514   5.348   2.170  0.0818 -0.0367  0.1662
   90OSM    O14 8489   5.535   5.608   2.190 -0.1884  0.4950  0.1017
   90OSM    O11 8490   5.486   5.454   2.383 -0.3725  0.2912 -0.1297
   90OSM    O12 8491   5.322   5.488   2.205  1.2063 -0.1837 -0.1917
   90OSM    C1S 8492   5.436   5.335   2.449 -0.0448 -0.9619  0.9405
   90OSM    H1S 8493   5.500   5.249   2.423 -1.0405 -0.6984 -3.0245
   90OSM    H1T 8494   5.338   5.308   2.404 -0.9447 -0.2541  2.3849
   90OSM     NF 8495   5.389   5.221   2.656 -0.1619  0.2732  0.1331
   90OSM    HNF 8496   5.294   5.208   2.681 -0.6115 -1.0790 -2.0255
   90OSM    C2S 8497   5.428   5.350   2.604 -0.3019  0.0704 -0.3507
   90OSM    H2S 8498   5.530   5.378   2.637 -0.6987  0.8470  0.2684
   90OSM    C3S 8499   5.332   5.469   2.637 -0.8360  0.3541  0.5931
   90OSM    H3S 8500   5.235   5.464   2.583 -1.6273 -0.5436  2.0669
   90OSM     O3 8501   5.389   5.600   2.612 -0.4340 -0.0019 -0.3736
   90OSM    HO3 8502   5.455   5.578   2.546 -2.6336 -1.0487 -2.3205
   90OSM    C4S 8503   5.296   5.452   2.781  0.3321  1.0575 -0.4891
   90OSM    H4S 8504   5.214   5.381   2.794  1.0104  0.0669 -1.5001
   90OSM    C5S 8505   5.345   5.520   2.886  0.1349 -0.5493  1.1181
   90OSM    H5S 8506   5.420   5.594   2.856 -0.7826 -1.1411 -3.4291
   90OSM    C6S 8507   5.301   5.507   3.030 -0.8906  0.0308  0.0573
   90OSM    H6S 8508   5.247   5.601   3.056 -0.5535  0.1568  0.2978
   90OSM    H6T 8509   5.390   5.500   3.096  0.1742 -1.4311 -1.4659
   90OSM    C7S 8510   5.220   5.377   3.068 -0.6952 -0.2913  0.2085
   90OSM    H7S 8511   5.287   5.292   3.042 -0.9632 -1.2523  2.4035
   90OSM    H7T 8512   5.127   5.375   3.008 -0.9750  0.5615  0.6036
   90OSM    C8S 8513   5.193   5.357   3.217  0.4396  0.4760 -0.3191
   90OSM    H8S 8514   5.162   5.458   3.253 -0.4303  0.4245 -0.8854
   90OSM    H8T 8515   5.290   5.344   3.268  0.4388 -0.2412 -0.4997
   90OSM    C9S 8516   5.088   5.242   3.247 -0.4097 -0.6440 -0.3667
   90OSM    H9S 8517   5.121   5.141   3.214  0.7300 -0.2546 -0.4745
   90OSM    H9T 8518   5.002   5.261   3.179 -0.1369  0.9399 -0.3058
   90OSM   C10S 8519   5.052   5.239   3.397  0.0606  1.0072  1.1373
   90OSM   H10S 8520   5.003   5.336   3.417  0.2362  1.5148 -0.6517
   90OSM   H10T 8521   5.138   5.216   3.464  1.4170 -2.8218 -1.5068
   90OSM   C11S 8522   4.945   5.137   3.421  0.0579 -0.0222  0.1848
   90OSM   H11S 8523   4.984   5.037   3.393  2.2474  0.9016 -0.3389
   90OSM   H11T 8524   4.858   5.153   3.354 -2.6638  0.0181  3.4885
   90OSM   C12S 8525   4.908   5.125   3.570  0.3545  0.3965  0.2921
   90OSM   H12S 8526   4.895   5.229   3.607 -0.5720  0.2764  0.3243
   90OSM   H12T 8527   4.998   5.099   3.628  0.9225  1.3836 -0.1231
   90OSM   C13S 8528   4.788   5.038   3.607  0.2442 -1.1890  0.6646
   90OSM   H13S 8529   4.770   4.940   3.558 -1.9031 -0.0945 -0.8973
   90OSM   H13T 8530   4.694   5.087   3.573  2.2570  0.8969 -2.5107
   90OSM   C14S 8531   4.767   5.019   3.753 -0.3869  0.1852 -0.9195
   90OSM   H14S 8532   4.801   5.105   3.815 -1.1712 -0.6240  0.6968
   90OSM   H14T 8533   4.821   4.928   3.787 -1.8260 -1.7567 -3.4811
   90OSM   C15S 8534   4.622   5.002   3.799  0.6569 -0.1198 -0.0271
   90OSM   H15S 8535   4.579   4.915   3.745 -1.9808  0.1892  1.4252
   90OSM   H15T 8536   4.577   5.092   3.754  0.0060 -0.9354 -1.0588
   90OSM   C16S 8537   4.604   5.007   3.946  0.0680  1.0728 -0.3739
   90OSM   H16S 8538   4.506   5.056   3.963 -0.1217  0.5436  0.1051
   90OSM   H16T 8539   4.685   5.066   3.995 -0.6916  0.3793  1.8337
   90OSM   C17S 8540   4.602   4.859   3.994 -0.4341 -0.0961  0.2369
   90OSM   H17S 8541   4.699   4.809   3.973 -0.0706 -0.0243  1.6781
   90OSM   H17T 8542   4.522   4.801   3.942  0.7951 -0.7497 -0.9844
   90OSM   C18S 8543   4.563   4.844   4.139  0.1969  0.1632  0.5689
   90OSM   H18S 8544   4.457   4.870   4.156  0.0782  0.2534 -0.2385
   90OSM   H18T 8545   4.624   4.909   4.205  0.9965  2.7257 -2.4243
   90OSM   H18U 8546   4.572   4.744   4.188 -3.3367  0.3397  1.8068
   90OSM    C1F 8547   5.482   5.119   2.661 -0.4848 -0.5058 -0.7653
   90OSM     OF 8548   5.598   5.137   2.625  0.2483  0.1537  0.1897
   90OSM    C2F 8549   5.437   4.990   2.730 -0.1621  0.4940 -0.3174
   90OSM    H2F 8550   5.460   4.908   2.659 -0.0577  0.6631 -0.4803
   90OSM    H2G 8551   5.327   4.987   2.745 -0.1509 -0.7845 -0.4012
   90OSM    C3F 8552   5.513   4.953   2.852  0.7165 -0.6960 -0.0829
   90OSM    H3F 8553   5.621   4.973   2.836  0.3867  0.1922 -1.3310
   90OSM    H3G 8554   5.496   4.846   2.877 -0.7107 -0.7066 -0.9922
   90OSM    C4F 8555   5.473   5.032   2.976  0.0641 -0.9386  0.3147
   90OSM    H4F 8556   5.362   5.027   2.980  0.0252 -0.0908  0.4510
   90OSM    H4G 8557   5.507   5.137   2.964  1.7076 -1.7064 -2.4452
   90OSM    C5F 8558   5.538   4.986   3.105  0.1378  0.6318  0.3527
   90OSM    H5F 8559   5.647   4.988   3.084 -0.0197  1.6290 -0.4756
   90OSM    H5G 8560   5.510   4.881   3.126 -1.9007  0.4640 -2.5667
   90OSM    C6F 8561   5.503   5.066   3.230  0.3114 -0.0477 -0.1070
   90OSM    H6F 8562   5.394   5.059   3.248  0.0379 -1.2163 -1.9561
   90OSM    H6G 8563   5.531   5.171   3.208 -1.2879  1.6730  4.7930
   90OSM    C7F 8564   5.572   5.016   3.359 -0.0078 -0.7087 -0.5014
   90OSM    H7F 8565   5.680   5.037   3.339 -1.0283  2.8266 -3.2941
   90OSM    H7G 8566   5.557   4.907   3.377 -0.0796 -0.5186  0.6565
   90OSM    C8F 8567   5.529   5.098   3.487 -0.1741 -0.0889 -0.2696
   90OSM    H8F 8568   5.418   5.111   3.487 -0.0076  1.5487 -0.6892
   90OSM    H8G 8569   5.584   5.191   3.462 -0.9524  1.0287  1.8751
   90OSM    C9F 8570   5.572   5.038   3.624 -0.1928  0.2592 -0.0563
   90OSM    H9F 8571   5.678   5.051   3.651  0.0340 -0.2678 -0.6595
   90OSM   C10F 8572   5.502   4.955   3.698  0.5018  0.5109 -0.6029
   90OSM   H10F 8573   5.550   4.906   3.784 -0.5699  0.9305  0.2507
   90OSM   C11F 8574   5.358   4.905   3.679  0.0478  0.2700  0.2990
   90OSM   H11F 8575   5.345   4.798   3.655 -2.0983 -0.0214  2.3940
   90OSM   H11G 8576   5.312   4.962   3.595 -0.3558 -0.0269  0.3227
   90OSM   C12F 8577   5.276   4.940   3.806  0.2344  0.7081 -0.1813
   90OSM   H12F 8578   5.335   4.893   3.887  1.5994  0.7097 -1.1546
   90OSM   H12G 8579   5.186   4.877   3.785 -0.2397  0.9866  0.9488
   90OSM   C13F 8580   5.231   5.086   3.825  0.4517  0.1661  0.6524
   90OSM   H13F 8581   5.188   5.125   3.730 -1.7117  0.1504  1.5449
   90OSM   H13G 8582   5.323   5.140   3.855  2.1197 -0.0461 -3.4138
   90OSM   C14F 8583   5.115   5.097   3.929  0.4848 -1.0913  0.8600
   90OSM   H14F 8584   5.097   5.001   3.981 -1.6978 -0.8475  0.6581
   90OSM   H14G 8585   5.023   5.126   3.874  0.6181  0.7922  1.5800
   90OSM   C15F 8586   5.142   5.192   4.042  0.6824 -0.9025 -0.2768
   90OSM   H15F 8587   5.164   5.293   4.000 -2.2318  0.4595  1.2248
   90OSM   H15G 8588   5.228   5.154   4.103  0.2428 -0.9178  0.3385
   90OSM   C16F 8589   5.022   5.224   4.135  0.9907  0.2821 -0.2723
   90OSM   H16F 8590   4.948   5.276   4.071  1.3409 -0.0821 -0.9852
   90OSM   H16G 8591   5.053   5.273   4.230  0.1283  1.3797 -0.5301
   90OSM   C17F 8592   4.937   5.096   4.172 -0.2588 -0.4193 -0.4520
   90OSM   H17F 8593   5.002   5.026   4.229 -0.0668 -0.1191 -0.2983
   90OSM   H17G 8594   4.904   5.037   4.083  1.7497 -0.1266 -1.4508
   90OSM   C18F 8595   4.810   5.136   4.243 -0.1272  0.5618 -0.7649
   90OSM   H18F 8596   4.733   5.187   4.182 -1.4523  0.9500  1.1425
   90OSM   H18G 8597   4.847   5.199   4.327 -0.3429  0.4463 -0.5821
   90OSM   H18H 8598   4.766   5.044   4.288 -0.1124  1.3064  0.8692
   91OSM      N 8599   1.377   4.356   2.006 -0.0060 -0.1517 -0.1220
   91OSM    C15 8600   1.392   4.392   2.144 -0.1145 -0.5983  0.0597
   91OSM   H15A 8601   1.309   4.454   2.174 -1.5735 -1.9830 -1.0065
   91OSM   H15B 8602   1.481   4.453   2.158  0.6598 -2.1405  2.5110
   91OSM   H15C 8603   1.401   4.304   2.205  0.5809 -1.8446 -1.7420
   91OSM    C14 8604   1.309   4.465   1.928  0.0475 -0.2276  0.4061
   91OSM   H14A 8605   1.330   4.465   1.822  0.7327  2.7859  0.4666
   91OSM   H14B 8606   1.336   4.565   1.958  0.5286 -0.8924  2.3545
   91OSM   H14C 8607   1.203   4.451   1.938  0.0483 -1.0985 -0.5782
   91OSM    C13 8608   1.511   4.346   1.934 -0.3991 -0.0096  0.4834
   91OSM   H13A 8609   1.537   4.243   1.955 -1.0989 -0.4788 -0.8521
   91OSM   H13B 8610   1.584   4.416   1.972 -1.7129  0.6018  1.9695
   91OSM   H13C 8611   1.491   4.363   1.829  0.8544 -0.0295  0.2213
   91OSM    C12 8612   1.288   4.230   1.991  0.2249  0.3428  0.4495
   91OSM   H12A 8613   1.338   4.149   2.041 -1.2549 -0.5715  0.4925
   91OSM   H12B 8614   1.299   4.198   1.888  1.1805  2.4775 -0.1703
   91OSM    C11 8615   1.140   4.236   2.047  0.5305 -0.7250 -0.0589
   91OSM   H11A 8616   1.155   4.264   2.154  0.1061 -1.7340  0.2705
   91OSM   H11B 8617   1.097   4.134   2.045 -1.1508 -0.0495  0.1233
   91OSM      P 8618   0.916   4.343   1.984  0.1108 -0.3101  0.1660
   91OSM    O13 8619   0.864   4.406   1.862  0.1592  0.3814  0.4823
   91OSM    O14 8620   0.859   4.213   2.015  0.6433  0.8648  0.3092
   91OSM    O11 8621   0.903   4.441   2.109  0.0879  0.4293 -0.1843
   91OSM    O12 8622   1.072   4.328   1.967  0.1157 -0.3209 -0.1957
   91OSM    C1S 8623   0.953   4.574   2.113 -0.2199 -0.5610  0.3579
   91OSM    H1S 8624   0.886   4.634   2.048 -0.3337  2.1228  2.7468
   91OSM    H1T 8625   1.058   4.572   2.077 -0.3314 -2.6314  0.0253
   91OSM     NF 8626   0.999   4.781   2.246  0.0281  0.0542 -0.3259
   91OSM    HNF 8627   1.087   4.809   2.283 -0.2541 -1.4720  1.6881
   91OSM    C2S 8628   0.968   4.635   2.255 -0.5317  0.2320  0.2548
   91OSM    H2S 8629   0.873   4.613   2.308 -1.2999 -1.3263 -1.6342
   91OSM    C3S 8630   1.076   4.553   2.338  0.0439  0.3133  0.1859
   91OSM    H3S 8631   1.171   4.537   2.282 -0.5046  0.6958 -0.8601
   91OSM     O3 8632   1.037   4.420   2.359  0.8519 -0.4150  0.2616
   91OSM    HO3 8633   0.965   4.404   2.298  0.8970 -1.5147  0.4641
   91OSM    C4S 8634   1.111   4.613   2.476  0.0586  0.2783 -0.4115
   91OSM    H4S 8635   1.024   4.657   2.527 -0.4318  0.1572 -1.1353
   91OSM    C5S 8636   1.234   4.620   2.522 -0.6356 -0.1780 -0.0729
   91OSM    H5S 8637   1.319   4.596   2.456  0.1500  3.9047 -0.8578
   91OSM    C6S 8638   1.268   4.685   2.657 -0.3791  0.3761  0.4376
   91OSM    H6S 8639   1.243   4.792   2.644 -1.8482  0.0002  0.0141
   91OSM    H6T 8640   1.378   4.673   2.670 -0.3866  0.8076  0.9167
   91OSM    C7S 8641   1.204   4.620   2.777  0.4963 -0.0941 -0.5040
   91OSM    H7S 8642   1.249   4.519   2.789  0.5744  0.1946  2.1349
   91OSM    H7T 8643   1.095   4.600   2.773  0.5875 -0.8635  0.5501
   91OSM    C8S 8644   1.231   4.679   2.907 -0.4656 -0.1454 -0.6328
   91OSM    H8S 8645   1.204   4.786   2.902  1.0925  0.2174 -2.4293
   91OSM    H8T 8646   1.339   4.679   2.934 -0.7156  0.1188  0.4012
   91OSM    C9S 8647   1.139   4.625   3.016  0.3152  0.1844 -0.3832
   91OSM    H9S 8648   1.177   4.651   3.117 -0.4729 -1.1443  0.2682
   91OSM    H9T 8649   1.148   4.515   3.019  2.1085  0.3000 -0.1065
   91OSM   C10S 8650   0.993   4.673   3.007  0.2233  0.2472 -0.2939
   91OSM   H10S 8651   0.946   4.631   2.916  1.7089  0.1266 -1.0327
   91OSM   H10T 8652   0.986   4.784   3.006  1.5249  0.3393 -0.8905
   91OSM   C11S 8653   0.908   4.629   3.140  0.1048  0.1956  0.2076
   91OSM   H11S 8654   0.975   4.654   3.225 -1.4068 -0.9047  1.7864
   91OSM   H11T 8655   0.899   4.518   3.138 -2.0046  0.3229 -0.1778
   91OSM   C12S 8656   0.779   4.705   3.162 -0.0829 -0.0830  0.1291
   91OSM   H12S 8657   0.712   4.707   3.074  0.5993  0.6474 -0.3958
   91OSM   H12T 8658   0.803   4.814   3.170 -3.3905  0.7587 -0.1582
   91OSM   C13S 8659   0.728   4.677   3.305  0.3653 -0.0334 -0.2896
   91OSM   H13S 8660   0.640   4.742   3.323 -1.1626 -2.3536  1.1147
   91OSM   H13T 8661   0.811   4.703   3.374  1.0000  0.2673 -1.1331
   91OSM   C14S 8662   0.712   4.529   3.329  0.9109 -0.1147  0.6698
   91OSM   H14S 8663   0.814   4.485   3.324  1.5383  0.8335  3.2707
   91OSM   H14T 8664   0.646   4.487   3.251  1.8641 -0.6162  0.1148
   91OSM   C15S 8665   0.657   4.504   3.470 -0.0695  0.4340 -0.9329
   91OSM   H15S 8666   0.566   4.568   3.470  0.1135  0.7190  0.6326
   91OSM   H15T 8667   0.727   4.516   3.555 -2.5955 -0.9556  1.5053
   91OSM   C16S 8668   0.616   4.356   3.481  0.0334  1.3682 -0.3749
   91OSM   H16S 8669   0.700   4.284   3.479 -0.7915  0.2941  1.2492
   91OSM   H16T 8670   0.551   4.347   3.391  0.6216 -1.8045 -0.6000
   91OSM   C17S 8671   0.528   4.328   3.603  0.3122 -0.3399 -0.3706
   91OSM   H17S 8672   0.455   4.410   3.619 -0.3580 -0.5640 -2.0303
   91OSM   H17T 8673   0.591   4.338   3.694  1.7186 -0.4032 -1.3106
   91OSM   C18S 8674   0.463   4.188   3.591 -0.0711  0.0959  0.1258
   91OSM   H18S 8675   0.535   4.108   3.620 -1.3430 -0.5034  1.7322
   91OSM   H18T 8676   0.430   4.167   3.487 -1.3660 -0.7366  0.6776
   91OSM   H18U 8677   0.365   4.183   3.642 -1.0213  2.1195 -1.3862
   91OSM    C1F 8678   0.909   4.868   2.206 -0.5317 -0.4471  0.3966
   91OSM     OF 8679   0.797   4.837   2.170 -0.6937  0.2544 -0.1771
   91OSM    C2F 8680   0.960   5.011   2.191 -0.3965 -0.8175  0.5789
   91OSM    H2F 8681   0.894   5.069   2.122  1.0688  1.0524  0.6470
   91OSM    H2G 8682   1.063   5.012   2.149 -0.0607  0.2607  1.3665
   91OSM    C3F 8683   0.966   5.095   2.325  0.0549 -0.1104  0.3286
   91OSM    H3F 8684   1.007   5.195   2.300 -1.4261  0.4700  0.0852
   91OSM    H3G 8685   1.039   5.043   2.391  1.3382  1.2252  0.0174
   91OSM    C4F 8686   0.827   5.133   2.383 -0.1808  0.2637  0.4066
   91OSM    H4F 8687   0.762   5.049   2.417  0.9471 -0.0899  1.7833
   91OSM    H4G 8688   0.766   5.195   2.314 -1.2787  1.2623  2.1688
   91OSM    C5F 8689   0.843   5.217   2.509  0.1149  0.1300  0.6805
   91OSM    H5F 8690   0.745   5.253   2.546 -1.2412 -2.0252 -0.6458
   91OSM    H5G 8691   0.897   5.305   2.468 -0.6766  0.5979  0.6277
   91OSM    C6F 8692   0.908   5.139   2.621  0.5625 -0.5672 -0.2139
   91OSM    H6F 8693   1.004   5.095   2.589  1.4923  1.1124  0.1379
   91OSM    H6G 8694   0.842   5.057   2.657 -0.4886  0.5034  0.3770
   91OSM    C7F 8695   0.941   5.236   2.732 -0.5046  0.3733 -0.8259
   91OSM    H7F 8696   0.852   5.299   2.753 -0.1284  1.4060 -2.1928
   91OSM    H7G 8697   1.026   5.296   2.692  1.6616  0.4675  3.3615
   91OSM    C8F 8698   0.976   5.167   2.868 -0.3226  0.4273  0.3570
   91OSM    H8F 8699   0.992   5.251   2.939  4.0952 -1.2342  1.6381
   91OSM    H8G 8700   1.073   5.115   2.852  0.2049  2.0465 -2.3038
   91OSM    C9F 8701   0.875   5.065   2.923  0.5081 -0.5836 -0.0464
   91OSM    H9F 8702   0.864   4.982   2.852 -0.0408  0.6559 -1.4720
   91OSM   C10F 8703   0.806   5.078   3.033  0.5136  0.3430 -1.9128
   91OSM   H10F 8704   0.724   5.008   3.059  1.0754 -0.0321 -1.0889
   91OSM   C11F 8705   0.820   5.191   3.134  0.2737  0.0860 -0.1663
   91OSM   H11F 8706   0.717   5.226   3.156  0.1257 -0.3443 -0.1780
   91OSM   H11G 8707   0.876   5.281   3.100  1.0165 -0.4516 -0.3868
   91OSM   C12F 8708   0.885   5.146   3.269 -0.0464 -0.4811  0.5354
   91OSM   H12F 8709   0.990   5.126   3.238 -0.2550 -0.4983 -0.1727
   91OSM   H12G 8710   0.844   5.046   3.292 -2.0036  0.1409 -0.0543
   91OSM   C13F 8711   0.877   5.253   3.374  0.3527  0.0832  0.3670
   91OSM   H13F 8712   0.773   5.280   3.405 -0.0936 -1.7762  0.6414
   91OSM   H13G 8713   0.911   5.352   3.336  1.6944 -0.1040  1.0380
   91OSM   C14F 8714   0.970   5.218   3.495  0.5417 -0.1884  0.4445
   91OSM   H14F 8715   0.962   5.312   3.554 -2.2495  0.0200 -0.1277
   91OSM   H14G 8716   1.076   5.203   3.465  0.4577  1.1480 -0.6213
   91OSM   C15F 8717   0.923   5.102   3.587  0.0611  0.3180  0.1164
   91OSM   H15F 8718   0.924   5.007   3.529  1.6179 -1.2682  2.5574
   91OSM   H15G 8719   0.813   5.118   3.595  0.1520  2.4428 -1.8695
   91OSM   C16F 8720   1.007   5.102   3.719 -0.1191  0.2342  0.2160
   91OSM   H16F 8721   1.020   5.203   3.764 -1.2700  0.4060  0.2006
   91OSM   H16G 8722   1.107   5.061   3.692 -0.4105 -0.9807  0.9111
   91OSM   C17F 8723   0.949   4.995   3.820 -0.2845 -0.8780 -0.7797
   91OSM   H17F 8724   0.941   4.894   3.776  0.7944 -1.2476 -0.1529
   91OSM   H17G 8725   0.846   5.035   3.834 -1.2343 -3.1268 -0.9469
   91OSM   C18F 8726   1.027   4.984   3.952  0.0179  0.4616 -0.4586
   91OSM   H18F 8727   0.988   4.897   4.010  2.3415 -0.7680 -0.6466
   91OSM   H18G 8728   1.016   5.084   4.001 -0.3582  1.0733 -1.7527
   91OSM   H18H 8729   1.134   4.960   3.941 -0.0730  0.2345 -0.8497
   92OSM      N 8730   3.782   0.365   1.689 -0.2065  0.4575  0.1985
   92OSM    C15 8731   3.857   0.240   1.655  0.1211  0.2235 -0.7936
   92OSM   H15A 8732   3.864   0.213   1.550 -0.6036 -0.0756 -0.7714
   92OSM   H15B 8733   3.808   0.154   1.697 -3.7789  2.7576  0.5206
   92OSM   H15C 8734   3.953   0.244   1.703  0.0039  1.1828 -0.6075
   92OSM    C14 8735   3.824   0.475   1.594 -0.7856  0.0859  0.4092
   92OSM   H14A 8736   3.932   0.474   1.582 -0.6335 -0.9757  1.5641
   92OSM   H14B 8737   3.787   0.573   1.618 -3.3007 -0.0526 -2.4482
   92OSM   H14C 8738   3.780   0.448   1.500 -0.0032 -2.2797  0.6622
   92OSM    C13 8739   3.636   0.348   1.671 -0.1583  0.0650 -0.2008
   92OSM   H13A 8740   3.583   0.440   1.687  0.6215  0.3335  0.9970
   92OSM   H13B 8741   3.596   0.269   1.733 -2.7277  0.3550 -1.3531
   92OSM   H13C 8742   3.615   0.308   1.573  0.2199 -0.4810 -0.0610
   92OSM    C12 8743   3.802   0.411   1.828 -0.6399  0.9146 -0.7262
   92OSM   H12A 8744   3.770   0.339   1.901  2.5348  0.3729  0.2953
   92OSM   H12B 8745   3.749   0.504   1.844 -0.4467  0.3653  4.7199
   92OSM    C11 8746   3.953   0.434   1.868  0.3334 -0.2687 -0.1738
   92OSM   H11A 8747   3.957   0.496   1.960  1.2111 -0.7393  0.1156
   92OSM   H11B 8748   3.995   0.496   1.785  1.0442 -0.1159  0.2917
   92OSM      P 8749   4.019   0.227   2.014 -0.4969  0.0298  0.5678
   92OSM    O13 8750   3.943   0.103   1.982 -0.1360 -0.4639 -0.7084
   92OSM    O14 8751   4.155   0.206   2.059 -0.1621 -0.2538 -0.5402
   92OSM    O11 8752   3.938   0.319   2.120 -0.3065 -0.6402  0.0161
   92OSM    O12 8753   4.033   0.310   1.877  0.9982  0.1391  0.0275
   92OSM    C1S 8754   4.015   0.398   2.216  0.6701 -0.0669 -0.4759
   92OSM    H1S 8755   4.020   0.503   2.178  0.2281 -0.5785 -2.0540
   92OSM    H1T 8756   4.118   0.363   2.237  1.3751  1.7925 -0.6671
   92OSM     NF 8757   4.012   0.504   2.425  0.9787  0.1302 -0.4235
   92OSM    HNF 8758   4.097   0.481   2.472  0.3158 -1.0660  0.2396
   92OSM    C2S 8759   3.958   0.396   2.354  0.2467  0.4555  0.0699
   92OSM    H2S 8760   3.848   0.414   2.356  0.4320  1.6103  1.8870
   92OSM    C3S 8761   3.970   0.250   2.421  0.1863 -0.2369  0.0149
   92OSM    H3S 8762   4.073   0.209   2.429  0.1291 -0.3499  0.1757
   92OSM     O3 8763   3.901   0.155   2.343 -0.2982  0.3730 -0.0430
   92OSM    HO3 8764   3.902   0.192   2.255  1.0641  1.1914  0.2889
   92OSM    C4S 8765   3.901   0.252   2.558 -0.5116 -0.3135 -0.8698
   92OSM    H4S 8766   3.849   0.349   2.565  0.6346  0.3098 -0.8305
   92OSM    C5S 8767   3.914   0.163   2.656  0.8038  0.0622  0.4523
   92OSM    H5S 8768   3.989   0.084   2.641  0.1736 -0.5416  0.4038
   92OSM    C6S 8769   3.833   0.161   2.788  0.3834  0.1050  0.4279
   92OSM    H6S 8770   3.899   0.119   2.867 -1.4180 -1.1441  1.3323
   92OSM    H6T 8771   3.761   0.078   2.771 -0.9698  1.2195  0.5704
   92OSM    C7S 8772   3.755   0.288   2.823 -0.0699  0.0657 -0.2988
   92OSM    H7S 8773   3.678   0.255   2.897 -0.0079  0.4704 -0.0475
   92OSM    H7T 8774   3.700   0.332   2.737 -0.6186  1.1664  0.5858
   92OSM    C8S 8775   3.846   0.403   2.879  0.1273  1.3723  0.0687
   92OSM    H8S 8776   3.900   0.446   2.792  1.3119 -2.1963 -1.1287
   92OSM    H8T 8777   3.913   0.355   2.953 -1.4250 -1.0451  0.0350
   92OSM    C9S 8778   3.771   0.516   2.943  0.1385  0.1843  0.2616
   92OSM    H9S 8779   3.691   0.555   2.878  0.6433  0.3639 -0.2579
   92OSM    H9T 8780   3.835   0.605   2.961 -3.3804  2.5595  2.0503
   92OSM   C10S 8781   3.689   0.492   3.070  0.2593 -0.0817 -0.3573
   92OSM   H10S 8782   3.611   0.419   3.038  0.4956 -0.0379 -1.0521
   92OSM   H10T 8783   3.635   0.585   3.101  3.0224  1.1555  1.1262
   92OSM   C11S 8784   3.768   0.450   3.191  0.1554 -0.3100 -0.3268
   92OSM   H11S 8785   3.842   0.526   3.221 -0.0291 -0.0889 -0.4286
   92OSM   H11T 8786   3.820   0.353   3.174 -1.0900 -1.1537  0.4238
   92OSM   C12S 8787   3.674   0.431   3.316 -0.1510 -0.2814  0.3137
   92OSM   H12S 8788   3.604   0.351   3.283  0.0739  1.0471 -4.0383
   92OSM   H12T 8789   3.615   0.524   3.326 -1.2112 -0.9140  0.1856
   92OSM   C13S 8790   3.744   0.397   3.451 -0.0823 -1.0127  0.1128
   92OSM   H13S 8791   3.842   0.447   3.466 -1.5036  1.8665  0.3757
   92OSM   H13T 8792   3.767   0.288   3.454 -0.6293 -1.1723 -0.8828
   92OSM   C14S 8793   3.656   0.434   3.572 -0.4833  0.6701 -0.0112
   92OSM   H14S 8794   3.551   0.395   3.565 -0.4558  0.8017 -1.4092
   92OSM   H14T 8795   3.646   0.543   3.587 -0.7788  0.7743 -0.9050
   92OSM   C15S 8796   3.710   0.374   3.703 -0.3738 -0.4155  0.2817
   92OSM   H15S 8797   3.811   0.415   3.725 -1.0225  0.4885  1.7292
   92OSM   H15T 8798   3.723   0.264   3.701  0.2074 -0.3437 -0.6935
   92OSM   C16S 8799   3.625   0.416   3.828  0.1573 -0.3732  0.8382
   92OSM   H16S 8800   3.523   0.379   3.805  0.3298  0.1766 -0.9499
   92OSM   H16T 8801   3.636   0.526   3.836  1.2167 -0.3166 -0.8402
   92OSM   C17S 8802   3.676   0.353   3.960 -0.2686  0.4243 -0.3759
   92OSM   H17S 8803   3.752   0.426   3.994 -0.5938  0.0336  1.2754
   92OSM   H17T 8804   3.731   0.260   3.936 -0.9963  0.3284 -1.8059
   92OSM   C18S 8805   3.562   0.333   4.067 -0.5135  0.2157  0.9629
   92OSM   H18S 8806   3.491   0.256   4.029 -0.5661 -0.9592  3.2118
   92OSM   H18T 8807   3.504   0.423   4.096 -0.7918  0.3852 -0.0784
   92OSM   H18U 8808   3.611   0.296   4.160  1.3849  1.4363  0.4942
   92OSM    C1F 8809   3.980   0.629   2.398  0.2182 -0.0179  0.8649
   92OSM     OF 8810   3.875   0.650   2.329 -0.1017 -0.3168 -0.6459
   92OSM    C2F 8811   4.071   0.730   2.461  0.7138  0.6237  0.6305
   92OSM    H2F 8812   4.160   0.749   2.397 -1.0594  1.5932 -1.7008
   92OSM    H2G 8813   4.095   0.693   2.563  1.6097  2.2253  1.0258
   92OSM    C3F 8814   3.995   0.862   2.482 -0.0620  0.3531 -0.3615
   92OSM    H3F 8815   3.943   0.899   2.391 -0.2747  0.9086 -0.0226
   92OSM    H3G 8816   4.066   0.940   2.518  0.0750  1.2681 -2.4506
   92OSM    C4F 8817   3.877   0.870   2.581  0.3960 -0.3306  0.8853
   92OSM    H4F 8818   3.906   0.847   2.686 -1.7912 -1.8433  1.2336
   92OSM    H4G 8819   3.804   0.791   2.550 -0.3835  1.0806 -1.0860
   92OSM    C5F 8820   3.790   1.003   2.573  0.7230 -0.2291 -0.0691
   92OSM    H5F 8821   3.729   1.002   2.480  2.5180  0.4796 -1.3045
   92OSM    H5G 8822   3.855   1.093   2.571  0.8076 -0.2955 -0.3552
   92OSM    C6F 8823   3.694   1.021   2.693 -0.0810  0.9695  0.0734
   92OSM    H6F 8824   3.750   1.041   2.787 -0.4793  1.6678  0.1709
   92OSM    H6G 8825   3.628   0.934   2.713 -1.5622  2.0701  0.1480
   92OSM    C7F 8826   3.597   1.139   2.667  0.6301  0.6673 -0.1146
   92OSM    H7F 8827   3.528   1.123   2.582 -0.6798  0.0707  1.0181
   92OSM    H7G 8828   3.654   1.228   2.632  0.9344  0.4687 -0.1249
   92OSM    C8F 8829   3.514   1.195   2.791  0.6128  0.2959 -0.0876
   92OSM    H8F 8830   3.582   1.242   2.866  0.7331  1.4514 -0.8949
   92OSM    H8G 8831   3.471   1.107   2.843  0.5022 -0.0613 -0.7817
   92OSM    C9F 8832   3.409   1.302   2.747  0.2877  0.3559 -0.5248
   92OSM    H9F 8833   3.307   1.269   2.722 -0.6639  2.9023 -0.2926
   92OSM   C10F 8834   3.439   1.437   2.741 -0.1104  0.2199 -0.6538
   92OSM   H10F 8835   3.351   1.501   2.723 -0.0568  0.6331  0.4699
   92OSM   C11F 8836   3.576   1.505   2.754 -0.0009  0.6780  0.0166
   92OSM   H11F 8837   3.591   1.574   2.669 -0.1201  1.3034  0.5008
   92OSM   H11G 8838   3.659   1.431   2.750 -1.5888 -1.2210  0.7152
   92OSM   C12F 8839   3.606   1.574   2.891 -0.0871 -0.1405  0.1922
   92OSM   H12F 8840   3.543   1.666   2.893 -1.3299 -0.9519 -0.4798
   92OSM   H12G 8841   3.715   1.599   2.889 -0.5986  2.6098  1.4859
   92OSM   C13F 8842   3.565   1.492   3.014  0.4397 -0.0957 -0.6155
   92OSM   H13F 8843   3.605   1.388   3.007 -0.3472 -0.5402  1.0092
   92OSM   H13G 8844   3.454   1.484   3.008  0.5034 -0.2089 -1.9502
   92OSM   C14F 8845   3.615   1.554   3.143  0.8296  0.8987 -0.4535
   92OSM   H14F 8846   3.589   1.661   3.157 -1.9737  0.0099  2.0149
   92OSM   H14G 8847   3.727   1.555   3.144  0.8761  3.4462  1.3301
   92OSM   C15F 8848   3.560   1.483   3.272  0.3464 -1.2448  0.1391
   92OSM   H15F 8849   3.597   1.378   3.267  0.0862 -1.2792 -1.6742
   92OSM   H15G 8850   3.449   1.475   3.266  0.1476 -1.0853  2.7178
   92OSM   C16F 8851   3.591   1.542   3.410  0.2050  0.7411  0.2044
   92OSM   H16F 8852   3.557   1.648   3.409  0.6825  0.8963 -0.7416
   92OSM   H16G 8853   3.700   1.543   3.428  0.1682  1.7248  0.4349
   92OSM   C17F 8854   3.516   1.462   3.519 -0.3900 -0.0503 -1.0568
   92OSM   H17F 8855   3.523   1.355   3.488  1.6129  0.0897 -1.2450
   92OSM   H17G 8856   3.411   1.498   3.516  0.2402  1.8230 -2.8925
   92OSM   C18F 8857   3.560   1.471   3.662 -0.3158  0.0163 -0.4495
   92OSM   H18F 8858   3.669   1.450   3.672  0.0400  0.2625 -3.1707
   92OSM   H18G 8859   3.506   1.391   3.717  1.7759 -1.7811 -0.8557
   92OSM   H18H 8860   3.553   1.571   3.711  2.3981  0.3400 -0.5461
   93OSM      N 8861   3.076   1.100   1.644 -0.0399 -0.2398  0.0861
   93OSM    C15 8862   2.990   1.214   1.600  0.1206  0.3140 -0.0021
   93OSM   H15A 8863   3.041   1.307   1.619  0.4896 -0.0124  0.6606
   93OSM   H15B 8864   2.903   1.207   1.664  1.3209  2.5869  2.0523
   93OSM   H15C 8865   2.974   1.219   1.493 -0.1744  2.5666  0.1039
   93OSM    C14 8866   3.015   0.972   1.589 -0.2832  0.2527 -0.2323
   93OSM   H14A 8867   2.915   0.966   1.630  0.2953  3.0692  1.8774
   93OSM   H14B 8868   3.055   0.880   1.630 -1.3328  0.0393  0.3590
   93OSM   H14C 8869   3.012   0.971   1.481 -0.4741  1.5903 -0.2518
   93OSM    C13 8870   3.205   1.112   1.577 -0.1842  0.0198  0.3237
   93OSM   H13A 8871   3.260   1.020   1.583 -1.0496 -0.6682 -1.6929
   93OSM   H13B 8872   3.274   1.184   1.619 -1.3465  2.6624 -1.9511
   93OSM   H13C 8873   3.194   1.130   1.471 -1.3578  1.5100  0.6568
   93OSM    C12 8874   3.103   1.088   1.792  0.3346 -0.2955  0.3510
   93OSM   H12A 8875   3.014   1.096   1.852  0.1824 -0.9531  0.2192
   93OSM   H12B 8876   3.162   1.177   1.808 -1.3415  1.0255 -0.5111
   93OSM    C11 8877   3.185   0.967   1.842 -0.2874 -0.3457 -0.2073
   93OSM   H11A 8878   3.211   0.992   1.947 -1.6114  0.6102 -0.0772
   93OSM   H11B 8879   3.284   0.969   1.792 -0.9591  2.5766 -1.6594
   93OSM      P 8880   3.191   0.716   1.795 -0.1581 -0.0678  0.2380
   93OSM    O13 8881   3.102   0.598   1.803 -0.3851  0.3790 -0.4884
   93OSM    O14 8882   3.228   0.746   1.653 -0.1761 -0.2074 -0.3303
   93OSM    O11 8883   3.323   0.707   1.882 -0.6518  0.2589  0.2439
   93OSM    O12 8884   3.108   0.847   1.845 -0.1829  0.2996  0.4052
   93OSM    C1S 8885   3.326   0.724   2.025 -0.0554  0.2537 -0.4054
   93OSM    H1S 8886   3.233   0.774   2.060 -0.1333 -0.4495  0.4445
   93OSM    H1T 8887   3.417   0.783   2.049  0.3934 -0.9909  1.1445
   93OSM     NF 8888   3.310   0.580   2.233  0.6630 -0.4934  0.3119
   93OSM    HNF 8889   3.388   0.562   2.293  0.8728  3.0799  1.3115
   93OSM    C2S 8890   3.330   0.579   2.087 -0.1015 -0.8341  0.0202
   93OSM    H2S 8891   3.249   0.515   2.049 -0.3483 -1.2147  1.1297
   93OSM    C3S 8892   3.457   0.503   2.048 -0.2362  0.2466  0.5536
   93OSM    H3S 8893   3.544   0.547   2.101 -0.5637 -0.1906  1.4832
   93OSM     O3 8894   3.490   0.512   1.905 -0.1794  0.0543 -0.0437
   93OSM    HO3 8895   3.428   0.580   1.877  0.2756  0.9827  1.1292
   93OSM    C4S 8896   3.445   0.357   2.079  0.1174 -0.7082 -0.0440
   93OSM    H4S 8897   3.360   0.300   2.038  0.6071 -1.3020 -0.2499
   93OSM    C5S 8898   3.532   0.290   2.162  0.2994 -0.5894  0.2941
   93OSM    H5S 8899   3.603   0.351   2.219  0.9745  0.1642 -1.2742
   93OSM    C6S 8900   3.521   0.149   2.197 -0.3450  0.1608 -0.8511
   93OSM    H6S 8901   3.622   0.105   2.208 -0.6094 -0.1566  0.4765
   93OSM    H6T 8902   3.468   0.097   2.115 -2.1122  0.1549  0.2365
   93OSM    C7S 8903   3.444   0.127   2.328 -0.2286 -0.0973  0.0990
   93OSM    H7S 8904   3.435   0.018   2.348 -0.8460  0.2679  1.9561
   93OSM    H7T 8905   3.342   0.167   2.316  0.6881  2.3289 -0.1423
   93OSM    C8S 8906   3.503   0.192   2.454  0.2445 -1.0357 -0.3425
   93OSM    H8S 8907   3.519   0.300   2.435 -2.8593 -0.1324  1.4842
   93OSM    H8T 8908   3.601   0.145   2.478 -0.2042 -2.4955 -1.2616
   93OSM    C9S 8909   3.406   0.161   2.566  0.3855  0.1163  0.7350
   93OSM    H9S 8910   3.394   0.051   2.560 -0.8965  0.1961  1.5755
   93OSM    H9T 8911   3.311   0.208   2.533  1.6388  2.3070  0.0261
   93OSM   C10S 8912   3.451   0.189   2.702  0.4283 -0.0947 -0.8615
   93OSM   H10S 8913   3.481   0.296   2.701  0.2490 -0.0311  0.0085
   93OSM   H10T 8914   3.541   0.128   2.725  0.0431  0.6135  3.2978
   93OSM   C11S 8915   3.351   0.169   2.812  0.8672 -0.2891 -0.3152
   93OSM   H11S 8916   3.277   0.251   2.815  1.7758  0.6033  3.6537
   93OSM   H11T 8917   3.397   0.181   2.913 -0.5659 -0.1675  0.3459
   93OSM   C12S 8918   3.281   0.031   2.810 -0.0445 -0.3884  0.3241
   93OSM   H12S 8919   3.360  -0.046   2.803 -1.8046 -2.2564 -0.0995
   93OSM   H12T 8920   3.219   0.030   2.718 -0.4412 -3.7621  0.4925
   93OSM   C13S 8921   3.193   0.002   2.933 -0.1751 -0.8537 -0.2741
   93OSM   H13S 8922   3.104  -0.057   2.902 -1.1681  0.6606 -0.3943
   93OSM   H13T 8923   3.151   0.101   2.962 -0.6369 -0.8817 -0.8293
   93OSM   C14S 8924   3.267  -0.062   3.052 -0.6241 -0.5411 -0.3151
   93OSM   H14S 8925   3.336   0.007   3.105 -1.6948 -1.2779  2.2056
   93OSM   H14T 8926   3.345  -0.131   3.012  0.7256  1.5998 -1.6013
   93OSM   C15S 8927   3.170  -0.108   3.160  0.0231  0.4261 -0.2432
   93OSM   H15S 8928   3.219  -0.178   3.231 -0.2411  2.1776  1.7874
   93OSM   H15T 8929   3.089  -0.172   3.119  1.6062  0.2411 -3.3634
   93OSM   C16S 8930   3.111   0.010   3.253 -0.0446 -0.0620 -0.1442
   93OSM   H16S 8931   3.025   0.065   3.210  1.2673  0.8455 -1.7379
   93OSM   H16T 8932   3.186   0.089   3.273 -0.1416  0.3058 -1.1958
   93OSM   C17S 8933   3.060  -0.039   3.389 -0.4324 -0.4906  0.1662
   93OSM   H17S 8934   3.135  -0.091   3.452  0.9042 -2.2273 -2.6505
   93OSM   H17T 8935   2.983  -0.113   3.359 -1.9046  0.4380  1.4785
   93OSM   C18S 8936   2.979   0.072   3.465  0.5426 -0.3501 -0.2167
   93OSM   H18S 8937   2.904   0.113   3.395 -0.8785  1.4059  2.1759
   93OSM   H18T 8938   2.935   0.036   3.561 -0.2564  2.1623  0.4201
   93OSM   H18U 8939   3.046   0.154   3.499  0.6317 -0.3039 -0.5010
   93OSM    C1F 8940   3.194   0.608   2.296  0.4953 -0.1259 -0.1799
   93OSM     OF 8941   3.093   0.620   2.230  0.3508 -1.2153  0.4598
   93OSM    C2F 8942   3.187   0.637   2.443  0.1513 -0.0195  0.2455
   93OSM    H2F 8943   3.082   0.647   2.479  0.4116 -0.3306  1.1068
   93OSM    H2G 8944   3.240   0.734   2.453 -0.8194  0.3985  1.5851
   93OSM    C3F 8945   3.262   0.528   2.525  0.0260  0.1110  0.0995
   93OSM    H3F 8946   3.367   0.513   2.492  0.8318  2.6041  1.3017
   93OSM    H3G 8947   3.204   0.437   2.498  1.3900 -0.8542  0.3245
   93OSM    C4F 8948   3.263   0.559   2.682  0.6148 -0.4467  0.2744
   93OSM    H4F 8949   3.282   0.462   2.734  3.9583 -0.3057 -0.4658
   93OSM    H4G 8950   3.165   0.603   2.708  1.2272  1.1360  0.0252
   93OSM    C5F 8951   3.368   0.652   2.725  0.1195  0.0289 -0.2304
   93OSM    H5F 8952   3.340   0.746   2.673 -1.6636 -1.0972 -1.4009
   93OSM    H5G 8953   3.470   0.630   2.687 -0.7218 -1.8083 -1.5368
   93OSM    C6F 8954   3.374   0.676   2.880  0.7512  0.5556 -0.0903
   93OSM    H6F 8955   3.404   0.588   2.941 -1.3961  0.4805  0.9498
   93OSM    H6G 8956   3.270   0.705   2.907  0.0027 -2.0489  0.1263
   93OSM    C7F 8957   3.460   0.795   2.920  0.4975  0.2378 -0.6305
   93OSM    H7F 8958   3.412   0.879   2.865  0.7494 -1.0424 -2.9178
   93OSM    H7G 8959   3.563   0.786   2.879  0.5390 -1.7076 -0.1981
   93OSM    C8F 8960   3.467   0.824   3.068  0.1222 -0.1396 -0.5328
   93OSM    H8F 8961   3.514   0.747   3.133  1.5076  1.5897  0.6397
   93OSM    H8G 8962   3.370   0.845   3.118  0.7869  0.0430  0.7354
   93OSM    C9F 8963   3.549   0.951   3.087 -0.1269  0.3065 -0.6227
   93OSM    H9F 8964   3.576   1.004   2.995  1.6075 -4.8631 -3.5091
   93OSM   C10F 8965   3.576   1.001   3.205  0.3138 -0.4793 -0.0547
   93OSM   H10F 8966   3.609   1.106   3.205 -0.2547 -0.2948 -0.8904
   93OSM   C11F 8967   3.540   0.933   3.339 -0.1090  0.1025 -0.0762
   93OSM   H11F 8968   3.553   0.823   3.332  0.5872  0.1221  0.7536
   93OSM   H11G 8969   3.441   0.952   3.387  0.0840 -1.6612  1.1279
   93OSM   C12F 8970   3.637   0.974   3.445 -0.8638  0.2747  0.2397
   93OSM   H12F 8971   3.612   1.076   3.480  2.4740  0.8403  1.3655
   93OSM   H12G 8972   3.744   0.962   3.418 -1.3643  0.3584 -1.9421
   93OSM   C13F 8973   3.623   0.884   3.576  0.1825  0.1251 -0.1241
   93OSM   H13F 8974   3.654   0.779   3.553 -1.1919 -0.4493  0.4857
   93OSM   H13G 8975   3.514   0.884   3.600 -0.1501  0.7794 -1.5656
   93OSM   C14F 8976   3.699   0.938   3.693 -0.0697 -0.4517 -0.1702
   93OSM   H14F 8977   3.663   1.043   3.703 -0.3085 -0.4919 -0.5877
   93OSM   H14G 8978   3.807   0.933   3.668 -0.4065 -0.1736 -1.7413
   93OSM   C15F 8979   3.686   0.866   3.830  0.1183 -0.4804  0.2917
   93OSM   H15F 8980   3.762   0.911   3.897  2.1429  0.2643 -2.3556
   93OSM   H15G 8981   3.710   0.759   3.809 -0.2697 -0.1999 -1.7033
   93OSM   C16F 8982   3.544   0.863   3.891 -0.2718 -0.1688  0.2613
   93OSM   H16F 8983   3.479   0.831   3.807 -0.0280 -1.3383  0.4923
   93OSM   H16G 8984   3.507   0.962   3.924 -1.5465 -0.8510  0.9666
   93OSM   C17F 8985   3.530   0.759   4.004  0.3895  0.2523  0.3757
   93OSM   H17F 8986   3.588   0.665   3.986  0.7142  0.5200  0.0047
   93OSM   H17G 8987   3.423   0.730   4.008  0.2403  0.8918  1.4531
   93OSM   C18F 8988   3.556   0.816   4.143 -0.3250  0.4488 -0.1144
   93OSM   H18F 8989   3.485   0.768   4.213  0.4545  1.9148  1.7476
   93OSM   H18G 8990   3.663   0.814   4.175  1.0854  3.1006 -3.8429
   93OSM   H18H 8991   3.535   0.925   4.148 -0.9317  0.2975  0.7594
   94OSM      N 8992   5.360   6.678   1.678 -0.3456 -0.4853 -0.5508
   94OSM    C15 8993   5.435   6.783   1.593 -0.3321 -0.1657 -0.7971
   94OSM   H15A 8994   5.531   6.747   1.560  0.2996  1.3220 -0.6721
   94OSM   H15B 8995   5.456   6.869   1.655  1.4800 -0.9757 -0.2184
   94OSM   H15C 8996   5.384   6.822   1.506  1.6234  1.1084 -1.4407
   94OSM    C14 8997   5.225   6.740   1.710  0.5002  0.3449  0.1059
   94OSM   H14A 8998   5.168   6.754   1.619 -1.9665  3.8581  1.9367
   94OSM   H14B 8999   5.230   6.834   1.764  0.4528 -1.0260  2.6597
   94OSM   H14C 9000   5.154   6.675   1.760 -3.3542  2.3469 -2.2464
   94OSM    C13 9001   5.336   6.562   1.593  0.6717  0.2105  0.6203
   94OSM   H13A 9002   5.273   6.492   1.647 -0.1757  0.6931  0.2785
   94OSM   H13B 9003   5.422   6.509   1.556  1.0313  1.3789 -0.2687
   94OSM   H13C 9004   5.289   6.600   1.504  1.8460 -0.8844 -0.5078
   94OSM    C12 9005   5.431   6.644   1.815 -0.1825  0.0617 -0.2621
   94OSM   H12A 9006   5.454   6.736   1.868 -0.3657 -0.3189  0.4901
   94OSM   H12B 9007   5.526   6.604   1.784  0.1706  0.4921  0.2370
   94OSM    C11 9008   5.366   6.533   1.898 -0.2367 -0.2234 -0.1107
   94OSM   H11A 9009   5.269   6.571   1.935 -0.7636 -0.8538 -0.8178
   94OSM   H11B 9010   5.429   6.508   1.986  1.2920 -1.2074 -1.4189
   94OSM      P 9011   5.456   6.304   1.809  0.0215 -0.0801 -0.0090
   94OSM    O13 9012   5.397   6.189   1.744  0.8341 -0.6265  0.0676
   94OSM    O14 9013   5.582   6.354   1.756 -0.3687  0.0087  0.6858
   94OSM    O11 9014   5.471   6.276   1.962 -0.6724  0.3507  0.1719
   94OSM    O12 9015   5.342   6.413   1.822  0.1106 -0.2110 -0.1692
   94OSM    C1S 9016   5.360   6.248   2.046  0.3211 -0.5126  0.0749
   94OSM    H1S 9017   5.325   6.145   2.028  1.0849 -0.7484 -0.0863
   94OSM    H1T 9018   5.277   6.322   2.037 -1.4747 -2.6426 -3.0141
   94OSM     NF 9019   5.290   6.217   2.285 -0.5343  0.3011  0.5220
   94OSM    HNF 9020   5.237   6.292   2.324  0.1633  0.2225  1.6506
   94OSM    C2S 9021   5.401   6.252   2.197  0.4294  0.1502  0.7588
   94OSM    H2S 9022   5.479   6.174   2.207 -0.1980 -0.8521 -1.6596
   94OSM    C3S 9023   5.463   6.390   2.225 -0.4382  0.4477 -0.0769
   94OSM    H3S 9024   5.387   6.463   2.192 -0.5514  0.3124 -0.1182
   94OSM     O3 9025   5.584   6.412   2.157  0.2036  0.4608  0.4949
   94OSM    HO3 9026   5.579   6.348   2.086 -1.3178  2.6377 -1.5470
   94OSM    C4S 9027   5.483   6.405   2.375 -0.8342 -0.3500 -0.6718
   94OSM    H4S 9028   5.572   6.359   2.420  0.4152  1.2225 -1.4563
   94OSM    C5S 9029   5.409   6.492   2.450  0.3160 -0.6778  0.2293
   94OSM    H5S 9030   5.325   6.547   2.406  0.2833  0.6669  1.8930
   94OSM    C6S 9031   5.432   6.519   2.594  0.5161  0.1164  0.1039
   94OSM    H6S 9032   5.521   6.583   2.615  1.4463 -0.8875 -0.6015
   94OSM    H6T 9033   5.461   6.422   2.641 -1.2056 -0.1815  0.5906
   94OSM    C7S 9034   5.321   6.574   2.682  0.0006 -0.9367  0.4033
   94OSM    H7S 9035   5.230   6.510   2.685 -0.9359  0.3962  2.5344
   94OSM    H7T 9036   5.290   6.672   2.641  0.6093 -0.6207  0.6845
   94OSM    C8S 9037   5.371   6.598   2.826 -0.3661  0.0289  0.3649
   94OSM    H8S 9038   5.408   6.506   2.876 -1.1695  0.5684  2.0135
   94OSM    H8T 9039   5.280   6.622   2.884 -2.6066 -2.5888 -1.8021
   94OSM    C9S 9040   5.451   6.732   2.837 -0.5226  0.1518  0.4548
   94OSM    H9S 9041   5.389   6.812   2.790  2.3612  1.7302 -0.8913
   94OSM    H9T 9042   5.535   6.718   2.767 -0.7338 -0.7063  0.3536
   94OSM   C10S 9043   5.482   6.769   2.982 -0.4788  0.3348 -0.3704
   94OSM   H10S 9044   5.528   6.870   2.972 -1.0951  0.4550 -2.2622
   94OSM   H10T 9045   5.552   6.700   3.034 -2.8743 -0.9322  1.3622
   94OSM   C11S 9046   5.365   6.771   3.091 -0.0279 -0.9210  0.1523
   94OSM   H11S 9047   5.336   6.667   3.116 -1.2888 -0.1652  2.1017
   94OSM   H11T 9048   5.280   6.812   3.031  0.5007 -0.4597 -0.2980
   94OSM   C12S 9049   5.388   6.855   3.217  0.5905  0.2684 -0.0530
   94OSM   H12S 9050   5.429   6.950   3.176 -1.1506  1.4726  0.8667
   94OSM   H12T 9051   5.478   6.809   3.262 -0.4265 -1.8351 -0.0448
   94OSM   C13S 9052   5.275   6.866   3.321  0.0890 -0.2552 -0.3350
   94OSM   H13S 9053   5.235   6.763   3.321  1.6573 -0.9344  1.8282
   94OSM   H13T 9054   5.212   6.950   3.284  0.3976  0.2016  0.1579
   94OSM   C14S 9055   5.340   6.899   3.455 -0.4389  0.0736  0.5196
   94OSM   H14S 9056   5.406   6.987   3.437  0.2000 -0.8758 -2.4846
   94OSM   H14T 9057   5.409   6.819   3.488 -0.9900 -0.9698 -0.7517
   94OSM   C15S 9058   5.232   6.923   3.561 -0.5784  0.4067  0.1616
   94OSM   H15S 9059   5.178   6.830   3.590  0.7260 -0.0562  1.1871
   94OSM   H15T 9060   5.154   6.981   3.507 -0.2267  1.1744  0.4751
   94OSM   C16S 9061   5.278   6.992   3.687 -0.9567  0.3562  0.5625
   94OSM   H16S 9062   5.310   7.096   3.663 -1.4206 -0.1562 -2.7941
   94OSM   H16T 9063   5.365   6.937   3.730 -0.1054  1.0234 -0.2692
   94OSM   C17S 9064   5.188   6.979   3.816  0.0994  0.3588  0.0452
   94OSM   H17S 9065   5.163   6.874   3.844 -0.4318  0.7335  1.0174
   94OSM   H17T 9066   5.093   7.032   3.797  1.8950  3.0142 -2.3308
   94OSM   C18S 9067   5.256   7.043   3.939 -0.1992  0.4134  1.2931
   94OSM   H18S 9068   5.355   6.995   3.956 -0.8005 -1.3255  0.0877
   94OSM   H18T 9069   5.193   7.019   4.027 -1.0751 -1.7484  0.1470
   94OSM   H18U 9070   5.268   7.153   3.927 -0.4482  0.2012 -1.4655
   94OSM    C1F 9071   5.247   6.087   2.276  0.2556 -0.0748 -0.0066
   94OSM     OF 9072   5.311   6.001   2.213 -0.1213 -0.5953 -0.7767
   94OSM    C2F 9073   5.120   6.052   2.349  1.1844  0.4796 -0.2258
   94OSM    H2F 9074   5.043   6.008   2.282 -1.3489  1.5140  1.8365
   94OSM    H2G 9075   5.069   6.141   2.392  0.2308  0.8882 -2.0922
   94OSM    C3F 9076   5.155   5.955   2.466  0.4160 -0.5139 -0.1149
   94OSM    H3F 9077   5.237   5.888   2.434 -0.6952 -1.1261 -1.8301
   94OSM    H3G 9078   5.060   5.899   2.483  0.1937  0.2997  1.5130
   94OSM    C4F 9079   5.197   6.027   2.595 -0.4117  0.1415  0.3708
   94OSM    H4F 9080   5.290   6.080   2.567 -0.3848  0.5037  1.1087
   94OSM    H4G 9081   5.230   5.957   2.674  2.7903 -0.9522 -1.7668
   94OSM    C5F 9082   5.098   6.132   2.651 -0.0363  0.1126 -0.5874
   94OSM    H5F 9083   4.994   6.096   2.665 -0.4448  1.3380 -0.3326
   94OSM    H5G 9084   5.097   6.217   2.579 -1.2130  0.3201 -0.3460
   94OSM    C6F 9085   5.149   6.179   2.787  0.4227 -0.0832  0.3220
   94OSM    H6F 9086   5.258   6.201   2.787  0.3113  0.5939 -1.1370
   94OSM    H6G 9087   5.132   6.094   2.856 -2.5390 -0.9240 -1.2464
   94OSM    C7F 9088   5.067   6.291   2.848 -0.0333 -0.0013 -0.0490
   94OSM    H7F 9089   4.959   6.269   2.863  0.0131 -0.1572  0.0442
   94OSM    H7G 9090   5.062   6.375   2.775 -0.5477 -1.5320 -1.8192
   94OSM    C8F 9091   5.128   6.350   2.979 -0.0189  0.1714 -0.3811
   94OSM    H8F 9092   5.086   6.452   2.993 -3.3328 -0.7786 -2.5465
   94OSM    H8G 9093   5.236   6.356   2.954 -0.1080 -1.8342 -1.4365
   94OSM    C9F 9094   5.106   6.264   3.108  0.0980  0.5650  0.1431
   94OSM    H9F 9095   5.028   6.186   3.098 -0.0081  0.5734  0.8658
   94OSM   C10F 9096   5.160   6.279   3.229  0.1165  0.0326 -0.0525
   94OSM   H10F 9097   5.133   6.212   3.312 -1.6650 -0.0319 -0.6348
   94OSM   C11F 9098   5.263   6.384   3.264  0.3662 -0.6284  0.2282
   94OSM   H11F 9099   5.277   6.444   3.171  1.1781 -1.4272 -0.1917
   94OSM   H11G 9100   5.359   6.330   3.281 -0.7045 -2.1750  1.7485
   94OSM   C12F 9101   5.224   6.478   3.382 -0.6413 -0.5065 -1.1351
   94OSM   H12F 9102   5.123   6.524   3.370  0.2604  1.5461 -1.4040
   94OSM   H12G 9103   5.291   6.567   3.389 -1.0368 -0.2092 -1.0929
   94OSM   C13F 9104   5.237   6.407   3.521  0.6976  0.1849 -0.1993
   94OSM   H13F 9105   5.343   6.374   3.534  1.6234  2.4486 -1.5068
   94OSM   H13G 9106   5.169   6.320   3.537  0.0728  0.2691 -2.2003
   94OSM   C14F 9107   5.220   6.511   3.636  0.2051  0.3663  0.1403
   94OSM   H14F 9108   5.128   6.572   3.626  1.4100  1.9047 -2.7198
   94OSM   H14G 9109   5.302   6.587   3.626  0.9203 -0.3274  0.6286
   94OSM   C15F 9110   5.229   6.451   3.770  0.0768  0.1857  0.3082
   94OSM   H15F 9111   5.330   6.405   3.780 -0.0809 -0.1673  0.3055
   94OSM   H15G 9112   5.157   6.368   3.785  0.4441 -0.3283 -0.6772
   94OSM   C16F 9113   5.212   6.552   3.891 -0.3290  0.3316  0.1811
   94OSM   H16F 9114   5.124   6.615   3.863 -2.1899 -2.4197 -0.5125
   94OSM   H16G 9115   5.299   6.621   3.899  0.0032 -0.0763  0.1097
   94OSM   C17F 9116   5.186   6.496   4.025  0.1066  0.2867 -0.1542
   94OSM   H17F 9117   5.102   6.424   4.034  0.2753  0.3075  2.3587
   94OSM   H17G 9118   5.157   6.570   4.104 -0.0679 -0.4118  0.4426
   94OSM   C18F 9119   5.312   6.426   4.082 -0.0310 -0.3767 -0.3604
   94OSM   H18F 9120   5.282   6.376   4.177  2.3166  0.8464  1.1260
   94OSM   H18G 9121   5.397   6.495   4.104  0.5110 -0.6657 -1.4794
   94OSM   H18H 9122   5.356   6.350   4.015  1.6020 -3.2768  3.5654
   95OSM      N 9123   0.673   4.135   1.684 -0.2889 -0.2993  0.4136
   95OSM    C15 9124   0.643   4.032   1.578 -0.1537 -1.3062 -0.7334
   95OSM   H15A 9125   0.556   3.973   1.601 -0.0076 -0.6621  1.7856
   95OSM   H15B 9126   0.732   3.973   1.563  1.1724  0.0032  1.4175
   95OSM   H15C 9127   0.619   4.084   1.486  0.3244 -1.5436 -0.9969
   95OSM    C14 9128   0.786   4.217   1.628 -0.2361 -0.1557 -0.4285
   95OSM   H14A 9129   0.868   4.149   1.609 -0.6885 -0.0971 -3.1005
   95OSM   H14B 9130   0.822   4.289   1.700 -1.6912 -0.2301  0.4102
   95OSM   H14C 9131   0.773   4.268   1.533 -0.3777  1.6909  0.5491
   95OSM    C13 9132   0.558   4.227   1.712  0.0171  0.1483 -0.0219
   95OSM   H13A 9133   0.514   4.265   1.621 -1.7261 -1.2334  0.1755
   95OSM   H13B 9134   0.581   4.318   1.764  0.3619  1.3757 -2.1869
   95OSM   H13C 9135   0.473   4.176   1.755 -0.0180  0.3460  0.1397
   95OSM    C12 9136   0.712   4.066   1.810 -0.3919  0.2321  0.4519
   95OSM   H12A 9137   0.627   4.013   1.851  0.4012 -2.0013 -0.6127
   95OSM   H12B 9138   0.737   4.142   1.882 -0.4756  0.7354 -0.0344
   95OSM    C11 9139   0.836   3.965   1.805  0.1821 -0.1536  0.2886
   95OSM   H11A 9140   0.872   3.951   1.909 -0.8698  0.6663  0.7847
   95OSM   H11B 9141   0.919   4.027   1.766  0.8024  0.5550  2.5614
   95OSM      P 9142   0.722   3.738   1.769 -0.2734  0.7427  0.1538
   95OSM    O13 9143   0.588   3.772   1.725  0.4029  0.0959  0.3632
   95OSM    O14 9144   0.782   3.612   1.711  0.3159  0.0705  0.1810
   95OSM    O11 9145   0.731   3.723   1.931  0.0412  0.4748 -0.0491
   95OSM    O12 9146   0.822   3.847   1.734  0.2863  0.3924  0.5349
   95OSM    C1S 9147   0.640   3.621   1.986 -0.0051  0.3022  0.6448
   95OSM    H1S 9148   0.690   3.522   1.983  0.1804  0.4093 -0.2954
   95OSM    H1T 9149   0.538   3.624   1.943  0.4402  3.0239 -0.4649
   95OSM     NF 9150   0.546   3.538   2.200  0.4438  0.3677 -0.4702
   95OSM    HNF 9151   0.464   3.570   2.246  0.4211 -0.0751 -0.2007
   95OSM    C2S 9152   0.617   3.640   2.137 -0.1884  0.4090 -0.3667
   95OSM    H2S 9153   0.717   3.654   2.185 -0.1651 -0.8204 -0.0432
   95OSM    C3S 9154   0.546   3.779   2.156  0.1845  0.4656  0.2895
   95OSM    H3S 9155   0.443   3.769   2.117 -0.3038 -0.6579  1.7314
   95OSM     O3 9156   0.599   3.892   2.091  0.6677 -0.7618 -0.0328
   95OSM    HO3 9157   0.657   3.864   2.020 -1.6403 -0.2349 -2.2520
   95OSM    C4S 9158   0.523   3.803   2.301  0.0686  0.8664 -0.0307
   95OSM    H4S 9159   0.425   3.764   2.330  1.1955 -2.1657  0.0881
   95OSM    C5S 9160   0.602   3.872   2.389 -0.0958  0.6589  0.4846
   95OSM    H5S 9161   0.692   3.923   2.351  0.4710 -1.7354 -1.6636
   95OSM    C6S 9162   0.573   3.894   2.540  0.1972  0.3762 -0.6778
   95OSM    H6S 9163   0.568   3.999   2.575  2.3568 -0.1161  1.3485
   95OSM    H6T 9164   0.663   3.848   2.586 -0.7069 -1.5559 -0.7390
   95OSM    C7S 9165   0.444   3.821   2.597 -0.0968 -0.3196 -0.0798
   95OSM    H7S 9166   0.453   3.710   2.590 -1.4311 -0.5112  0.7614
   95OSM    H7T 9167   0.360   3.861   2.535  0.8900  0.9693 -0.6215
   95OSM    C8S 9168   0.417   3.848   2.741 -0.1630 -0.0150  0.2219
   95OSM    H8S 9169   0.318   3.801   2.760  0.0345  0.6194  3.4181
   95OSM    H8T 9170   0.400   3.957   2.756 -0.7064 -0.2714  1.6040
   95OSM    C9S 9171   0.522   3.801   2.836  0.0814  0.4902  0.1380
   95OSM    H9S 9172   0.603   3.878   2.825 -0.1897  0.6346 -1.0589
   95OSM    H9T 9173   0.565   3.707   2.796 -2.5229 -0.1234 -1.4355
   95OSM   C10S 9174   0.481   3.790   2.979  0.0140 -0.3373  0.7504
   95OSM   H10S 9175   0.568   3.746   3.032  2.3387  0.0400 -2.4646
   95OSM   H10T 9176   0.393   3.721   2.986  0.1335 -0.8667 -1.8016
   95OSM   C11S 9177   0.425   3.920   3.035  0.2613 -0.0886 -0.8753
   95OSM   H11S 9178   0.357   3.974   2.966  1.3092  1.2777 -0.8849
   95OSM   H11T 9179   0.514   3.980   3.062 -0.1383  0.8874 -1.6792
   95OSM   C12S 9180   0.351   3.888   3.171 -0.7183 -0.1024  1.1067
   95OSM   H12S 9181   0.269   3.816   3.154 -1.1110  0.7692 -1.0930
   95OSM   H12T 9182   0.305   3.984   3.203  1.9198  1.2900  1.0276
   95OSM   C13S 9183   0.448   3.831   3.272  0.5675  0.2765 -0.7788
   95OSM   H13S 9184   0.536   3.898   3.265  0.5134  0.3414 -0.8365
   95OSM   H13T 9185   0.484   3.731   3.239 -1.1604 -0.0841 -1.6687
   95OSM   C14S 9186   0.409   3.841   3.420 -0.1881 -0.3539 -0.0597
   95OSM   H14S 9187   0.321   3.776   3.438 -0.1910 -0.1821  0.5723
   95OSM   H14T 9188   0.382   3.946   3.446 -0.8857 -0.7094  0.7029
   95OSM   C15S 9189   0.517   3.800   3.527  0.4801  0.0036 -0.1683
   95OSM   H15S 9190   0.610   3.859   3.513  1.1772 -0.6421  1.5203
   95OSM   H15T 9191   0.535   3.692   3.509 -1.7961 -0.6768  1.1824
   95OSM   C16S 9192   0.463   3.816   3.675 -0.2601 -0.0289 -0.1858
   95OSM   H16S 9193   0.453   3.924   3.700  0.6615  0.7335 -2.7642
   95OSM   H16T 9194   0.541   3.765   3.734  0.2610  0.8924 -0.0635
   95OSM   C17S 9195   0.328   3.748   3.701 -0.7133  0.3681  0.0694
   95OSM   H17S 9196   0.334   3.642   3.669 -1.5264  0.8463 -1.8252
   95OSM   H17T 9197   0.240   3.790   3.649  0.4743  4.7391  1.1489
   95OSM   C18S 9198   0.292   3.746   3.854  0.3519 -0.4015  0.1102
   95OSM   H18S 9199   0.192   3.701   3.871 -1.0673  2.5433  0.3252
   95OSM   H18T 9200   0.282   3.849   3.896 -1.0779 -0.3189 -0.3716
   95OSM   H18U 9201   0.359   3.679   3.911  0.3959 -1.0977 -0.7328
   95OSM    C1F 9202   0.582   3.412   2.205 -0.8742 -0.2756  0.7001
   95OSM     OF 9203   0.696   3.381   2.165  0.3938 -0.2576  0.0768
   95OSM    C2F 9204   0.480   3.311   2.253 -0.8208  0.2381 -0.3219
   95OSM    H2F 9205   0.476   3.231   2.177 -1.1271  0.6078 -0.7003
   95OSM    H2G 9206   0.383   3.364   2.270 -2.2868 -2.1649 -0.6646
   95OSM    C3F 9207   0.532   3.254   2.396  0.7125  0.2278  0.8366
   95OSM    H3F 9208   0.600   3.168   2.379 -2.2653 -1.9075 -1.4618
   95OSM    H3G 9209   0.438   3.219   2.445  1.4699 -1.5539  1.0841
   95OSM    C4F 9210   0.578   3.376   2.485  0.5212  0.6409  0.3526
   95OSM    H4F 9211   0.491   3.445   2.491 -0.6836 -0.5810 -1.7863
   95OSM    H4G 9212   0.665   3.422   2.433  0.3906 -0.3527 -0.8020
   95OSM    C5F 9213   0.633   3.334   2.621  0.5602 -0.3415  0.0722
   95OSM    H5F 9214   0.734   3.289   2.627  1.0643  0.8532  0.6530
   95OSM    H5G 9215   0.562   3.254   2.651 -0.3864  1.1526  1.9858
   95OSM    C6F 9216   0.624   3.446   2.721 -0.3402 -0.7387 -0.0524
   95OSM    H6F 9217   0.525   3.495   2.706  1.0276  1.9397 -1.0591
   95OSM    H6G 9218   0.706   3.521   2.712  0.7989 -1.7827  1.1513
   95OSM    C7F 9219   0.621   3.390   2.871 -0.7833 -0.2447 -0.2025
   95OSM    H7F 9220   0.713   3.327   2.881 -1.4774 -1.1497  0.7145
   95OSM    H7G 9221   0.528   3.339   2.903 -1.1079 -0.0433 -0.8205
   95OSM    C8F 9222   0.631   3.503   2.972 -0.1104 -0.1580 -1.5994
   95OSM    H8F 9223   0.526   3.520   3.005  0.1948 -1.3811  0.1183
   95OSM    H8G 9224   0.670   3.599   2.932  0.2368  0.2570 -0.3203
   95OSM    C9F 9225   0.719   3.472   3.088  0.5245  0.9976  0.5872
   95OSM    H9F 9226   0.816   3.443   3.047  0.4054 -0.5006  1.3257
   95OSM   C10F 9227   0.688   3.442   3.217 -0.1082 -0.1420  0.5912
   95OSM   H10F 9228   0.775   3.421   3.281  0.1180  1.2635  0.7636
   95OSM   C11F 9229   0.549   3.440   3.280 -0.2713 -0.6043  0.2837
   95OSM   H11F 9230   0.469   3.475   3.211 -0.9509 -0.0646  1.3159
   95OSM   H11G 9231   0.559   3.514   3.362 -1.6823 -1.2988  1.1164
   95OSM   C12F 9232   0.509   3.302   3.342 -0.1429  0.0926 -0.3286
   95OSM   H12F 9233   0.511   3.208   3.283 -0.2920 -0.4701  0.5445
   95OSM   H12G 9234   0.401   3.317   3.367 -0.1981 -2.4200  1.2615
   95OSM   C13F 9235   0.591   3.266   3.465  0.8318  0.1397 -0.5026
   95OSM   H13F 9236   0.700   3.275   3.445  0.5693 -0.7038 -2.6129
   95OSM   H13G 9237   0.569   3.159   3.483 -0.6412  0.9593  3.6111
   95OSM   C14F 9238   0.551   3.349   3.589  0.5870 -0.0777 -0.0132
   95OSM   H14F 9239   0.442   3.368   3.599  0.3554 -0.7816 -1.0865
   95OSM   H14G 9240   0.599   3.449   3.586 -0.0856  0.3699  2.2029
   95OSM   C15F 9241   0.596   3.284   3.721  0.1676  0.1601 -0.1832
   95OSM   H15F 9242   0.697   3.239   3.706  0.3423  0.9648 -1.5593
   95OSM   H15G 9243   0.524   3.207   3.756  1.9170 -2.0468 -1.2130
   95OSM   C16F 9244   0.611   3.390   3.838 -0.9471 -0.6618 -0.5723
   95OSM   H16F 9245   0.649   3.487   3.802  0.8082 -1.2569 -0.4123
   95OSM   H16G 9246   0.690   3.348   3.905 -1.6377 -2.5294 -0.8452
   95OSM   C17F 9247   0.491   3.424   3.932  0.0035  0.0955  0.7541
   95OSM   H17F 9248   0.405   3.464   3.874 -0.3001 -1.2380  0.2594
   95OSM   H17G 9249   0.519   3.504   4.004  0.0276  2.1392 -1.3905
   95OSM   C18F 9250   0.442   3.291   4.009 -0.7198  0.0243 -0.3470
   95OSM   H18F 9251   0.384   3.234   3.933 -2.7731  1.3892  0.1038
   95OSM   H18G 9252   0.368   3.314   4.088 -0.5727  1.7827 -0.6697
   95OSM   H18H 9253   0.526   3.233   4.054 -1.2527 -0.1612  0.4244
   96OSM      N 9254   2.064   0.337   2.172  0.2815 -0.0957 -0.5180
   96OSM    C15 9255   2.098   0.480   2.141  0.1499 -0.3826  0.1790
   96OSM   H15A 9256   2.178   0.482   2.069 -1.2344 -0.5709 -1.4201
   96OSM   H15B 9257   2.128   0.525   2.234  0.5064 -0.9496  0.3475
   96OSM   H15C 9258   2.015   0.533   2.097  0.9590  1.0808  0.3740
   96OSM    C14 9259   1.984   0.340   2.303 -0.2105  0.2954  0.7698
   96OSM   H14A 9260   1.953   0.239   2.326 -0.9220 -0.1510 -1.7658
   96OSM   H14B 9261   1.905   0.412   2.287  0.0373  0.1023 -1.8996
   96OSM   H14C 9262   2.047   0.382   2.380 -0.5061  2.3159 -0.0374
   96OSM    C13 9263   1.987   0.290   2.051  0.0598  0.3563  0.2873
   96OSM   H13A 9264   1.917   0.362   2.012 -0.9159 -2.9119 -4.9672
   96OSM   H13B 9265   1.929   0.203   2.077  0.5979 -0.2928 -0.6132
   96OSM   H13C 9266   2.059   0.267   1.974 -0.1021  4.2453 -1.2190
   96OSM    C12 9267   2.195   0.259   2.188 -0.4749 -0.0479 -0.8391
   96OSM   H12A 9268   2.165   0.160   2.219 -0.2065 -0.0445 -0.5609
   96OSM   H12B 9269   2.249   0.308   2.268 -1.5304  1.1961 -0.8576
   96OSM    C11 9270   2.283   0.241   2.066  0.4078 -0.1046  0.0004
   96OSM   H11A 9271   2.223   0.179   1.997 -0.1275 -1.4086  1.5745
   96OSM   H11B 9272   2.364   0.177   2.108  0.2472 -0.0493  0.4057
   96OSM      P 9273   2.492   0.393   2.015  0.3988 -0.2253 -0.2037
   96OSM    O13 9274   2.569   0.308   1.924  0.3491 -0.4009  0.8540
   96OSM    O14 9275   2.510   0.535   1.990  0.3104 -0.1640  0.2709
   96OSM    O11 9276   2.532   0.372   2.168  0.0390  0.6194 -0.3405
   96OSM    O12 9277   2.336   0.359   2.005 -0.1841 -0.0795  0.0989
   96OSM    C1S 9278   2.492   0.483   2.253 -0.0480 -0.4202 -0.1347
   96OSM    H1S 9279   2.383   0.505   2.250 -0.1374 -0.9513 -0.9016
   96OSM    H1T 9280   2.547   0.574   2.222  2.1418 -0.4891  3.0506
   96OSM     NF 9281   2.471   0.503   2.501  0.2056  0.1705  0.2245
   96OSM    HNF 9282   2.521   0.563   2.563  0.3335  0.7564 -0.4273
   96OSM    C2S 9283   2.543   0.439   2.392  0.1212  0.1333  0.8060
   96OSM    H2S 9284   2.540   0.329   2.405  1.8759 -0.0884 -0.3475
   96OSM    C3S 9285   2.696   0.465   2.390  0.5724  0.4638  0.5716
   96OSM    H3S 9286   2.704   0.574   2.371 -0.8860  0.5313  0.2013
   96OSM     O3 9287   2.770   0.396   2.284  0.2053  0.0879 -0.6381
   96OSM    HO3 9288   2.700   0.366   2.225 -1.9256  0.0641  1.7370
   96OSM    C4S 9289   2.761   0.431   2.528 -0.0825 -0.0222  0.3393
   96OSM    H4S 9290   2.750   0.512   2.602  1.9316 -0.6288  1.3592
   96OSM    C5S 9291   2.814   0.318   2.575 -0.7317 -0.3907 -0.3812
   96OSM    H5S 9292   2.827   0.225   2.519  1.0112 -0.4629  0.0698
   96OSM    C6S 9293   2.864   0.304   2.708 -0.3167 -0.5184 -0.6008
   96OSM    H6S 9294   2.964   0.261   2.688  0.0570 -0.6081  1.3033
   96OSM    H6T 9295   2.792   0.241   2.765 -0.8204  1.0825  0.6108
   96OSM    C7S 9296   2.892   0.420   2.810  0.2519 -0.2698  0.3473
   96OSM    H7S 9297   2.801   0.476   2.838 -0.7741 -0.6753 -1.9381
   96OSM    H7T 9298   2.955   0.489   2.750  2.9534 -0.7322  2.4278
   96OSM    C8S 9299   2.965   0.363   2.936 -0.0961  0.3539  0.2617
   96OSM    H8S 9300   3.063   0.317   2.912  0.3032  2.5916 -3.2640
   96OSM    H8T 9301   2.907   0.284   2.987  2.4940 -1.2022  0.9948
   96OSM    C9S 9302   2.986   0.474   3.027 -0.5886 -0.0275  0.2179
   96OSM    H9S 9303   2.891   0.492   3.082 -1.7046 -0.7664 -1.3945
   96OSM    H9T 9304   3.006   0.569   2.974 -2.1246 -1.1013 -2.5227
   96OSM   C10S 9305   3.105   0.467   3.125 -0.0042 -0.1703 -0.5317
   96OSM   H10S 9306   3.194   0.431   3.070  1.7580  0.3139  1.8052
   96OSM   H10T 9307   3.088   0.392   3.206  1.5820 -1.2952 -1.1856
   96OSM   C11S 9308   3.144   0.601   3.183 -0.5833  0.2417 -0.4468
   96OSM   H11S 9309   3.070   0.633   3.259 -1.8128 -1.5843 -0.8126
   96OSM   H11T 9310   3.155   0.668   3.096 -2.9663  2.2649  0.6869
   96OSM   C12S 9311   3.286   0.592   3.249  0.4447  0.5097 -0.2011
   96OSM   H12S 9312   3.318   0.692   3.287 -2.3612  0.8712  1.5352
   96OSM   H12T 9313   3.354   0.561   3.167  0.6186  1.1377 -0.3008
   96OSM   C13S 9314   3.281   0.493   3.365  1.0046 -0.0442 -0.1615
   96OSM   H13S 9315   3.388   0.487   3.396  1.1996  0.1063 -0.8047
   96OSM   H13T 9316   3.231   0.399   3.334  0.9494 -0.4760  1.1663
   96OSM   C14S 9317   3.199   0.542   3.483  0.2691  0.3469 -0.0482
   96OSM   H14S 9318   3.092   0.548   3.454  0.1057 -2.0185 -0.1507
   96OSM   H14T 9319   3.236   0.645   3.500 -2.6769  1.9907 -2.5666
   96OSM   C15S 9320   3.203   0.459   3.614  0.6330  0.0094 -0.3996
   96OSM   H15S 9321   3.301   0.481   3.661  0.3502  0.9636 -0.2323
   96OSM   H15T 9322   3.195   0.351   3.587 -1.7553  0.1288 -0.3752
   96OSM   C16S 9323   3.098   0.517   3.715  0.0456 -0.0791 -0.4971
   96OSM   H16S 9324   2.996   0.518   3.672 -1.5611  0.7541  2.9905
   96OSM   H16T 9325   3.119   0.620   3.749  1.0497 -0.0583 -1.1196
   96OSM   C17S 9326   3.064   0.428   3.834 -0.2458  0.1716  0.5269
   96OSM   H17S 9327   3.031   0.329   3.796 -1.4518  1.1317 -1.0964
   96OSM   H17T 9328   2.975   0.465   3.890  0.2295  1.9336  0.2029
   96OSM   C18S 9329   3.184   0.401   3.915 -0.1569  0.0527 -0.2815
   96OSM   H18S 9330   3.234   0.496   3.946  0.1228  0.6907 -2.5125
   96OSM   H18T 9331   3.254   0.333   3.863 -1.1036 -0.2900 -1.1300
   96OSM   H18U 9332   3.155   0.343   4.005  3.2847  1.7698  2.1894
   96OSM    C1F 9333   2.342   0.472   2.530  0.1647 -0.6594 -0.1173
   96OSM     OF 9334   2.264   0.410   2.460  0.3777 -0.4014 -0.5014
   96OSM    C2F 9335   2.287   0.530   2.660  0.6080 -0.2555  0.4424
   96OSM    H2F 9336   2.194   0.591   2.647  1.7098  1.4680  0.2421
   96OSM    H2G 9337   2.357   0.599   2.712 -0.0604  0.4729  0.3921
   96OSM    C3F 9338   2.243   0.420   2.756 -0.0458 -0.2221 -0.7535
   96OSM    H3F 9339   2.187   0.339   2.704  1.7372 -1.1857 -1.2225
   96OSM    H3G 9340   2.180   0.460   2.839 -0.3413  0.8585 -1.4845
   96OSM    C4F 9341   2.354   0.350   2.833 -0.9024  0.1103  0.0382
   96OSM    H4F 9342   2.384   0.257   2.781 -1.0522 -1.4885  2.6442
   96OSM    H4G 9343   2.309   0.303   2.923  1.3215 -1.2260  0.5160
   96OSM    C5F 9344   2.471   0.442   2.883 -0.0811  0.2089  0.6548
   96OSM    H5F 9345   2.438   0.547   2.897 -0.1742  0.0119  2.0994
   96OSM    H5G 9346   2.536   0.446   2.792 -1.6149  0.0631 -0.4842
   96OSM    C6F 9347   2.530   0.405   3.021 -0.7233 -0.1673  0.0221
   96OSM    H6F 9348   2.448   0.415   3.096 -1.0312  1.8876 -0.5169
   96OSM    H6G 9349   2.598   0.491   3.041 -0.6177 -0.3379  0.4050
   96OSM    C7F 9350   2.612   0.278   3.030 -0.6921  0.2431  0.1082
   96OSM    H7F 9351   2.687   0.271   2.948  0.0955  0.3540  0.8145
   96OSM    H7G 9352   2.553   0.184   3.032  2.9753 -2.2637  3.1425
   96OSM    C8F 9353   2.700   0.282   3.154  0.1466 -0.0120 -0.8113
   96OSM    H8F 9354   2.743   0.383   3.174  0.9463 -0.7608  1.5604
   96OSM    H8G 9355   2.786   0.212   3.149 -0.6941 -0.9867 -2.4755
   96OSM    C9F 9356   2.646   0.225   3.283 -0.2282  0.0338  0.2019
   96OSM    H9F 9357   2.643   0.116   3.295  0.4104 -0.1550 -1.2138
   96OSM   C10F 9358   2.612   0.298   3.391  0.1721  0.5789 -0.0047
   96OSM   H10F 9359   2.579   0.246   3.482  1.1547 -0.6852 -0.3484
   96OSM   C11F 9360   2.617   0.446   3.392 -0.2151 -0.0828  0.2805
   96OSM   H11F 9361   2.532   0.480   3.329 -1.8986 -0.6473  2.1325
   96OSM   H11G 9362   2.713   0.483   3.348  0.0604 -2.7367 -1.5555
   96OSM   C12F 9363   2.591   0.509   3.528 -0.3041  0.5192 -0.0595
   96OSM   H12F 9364   2.492   0.474   3.563 -0.0937  0.0359  0.0663
   96OSM   H12G 9365   2.578   0.619   3.520 -1.3442  0.3041 -1.8355
   96OSM   C13F 9366   2.701   0.476   3.634  0.0108  1.0137  1.0536
   96OSM   H13F 9367   2.803   0.481   3.590  0.8387 -2.3069  2.2957
   96OSM   H13G 9368   2.666   0.372   3.654 -0.6392  0.9741 -0.1923
   96OSM   C14F 9369   2.700   0.567   3.760 -0.0961  0.1387 -0.0093
   96OSM   H14F 9370   2.741   0.669   3.744 -0.8007  0.8738  2.5566
   96OSM   H14G 9371   2.778   0.523   3.825 -0.0630 -1.2832 -0.9647
   96OSM   C15F 9372   2.562   0.583   3.827  0.4240  0.6361 -0.3890
   96OSM   H15F 9373   2.523   0.479   3.831 -0.7532  0.8647 -3.3743
   96OSM   H15G 9374   2.495   0.639   3.758  0.8816  2.5388  0.6406
   96OSM   C16F 9375   2.583   0.647   3.970  0.7243 -0.0662 -0.0628
   96OSM   H16F 9376   2.640   0.742   3.969  0.3272  0.1822  0.4446
   96OSM   H16G 9377   2.639   0.573   4.031  2.7657 -0.0561 -1.7967
   96OSM   C17F 9378   2.451   0.666   4.039  0.3974 -0.5284 -0.2662
   96OSM   H17F 9379   2.471   0.715   4.137  0.1033 -0.7666 -0.0863
   96OSM   H17G 9380   2.398   0.572   4.065 -1.3248  0.9578  2.0161
   96OSM   C18F 9381   2.359   0.765   3.965  0.7249  0.8459 -0.3781
   96OSM   H18F 9382   2.284   0.809   4.034 -1.7838 -4.1410  0.5407
   96OSM   H18G 9383   2.307   0.717   3.880 -0.2462  0.2712  0.5158
   96OSM   H18H 9384   2.420   0.844   3.917  1.0298  0.6993 -0.2360
   97OSM      N 9385   6.706   3.048   2.187  0.3654  0.0219 -0.7480
   97OSM    C15 9386   6.703   2.929   2.278 -0.3465  0.2462  0.0929
   97OSM   H15A 9387   6.684   2.833   2.232  0.3218 -0.4804  1.2921
   97OSM   H15B 9388   6.641   2.940   2.365 -1.0643 -0.3355 -0.3308
   97OSM   H15C 9389   6.805   2.907   2.306 -1.0505 -2.0178  1.1016
   97OSM    C14 9390   6.571   3.091   2.152 -0.5842 -0.3208 -0.1538
   97OSM   H14A 9391   6.512   3.002   2.135  0.1814 -0.6519 -1.2292
   97OSM   H14B 9392   6.589   3.150   2.063 -0.6504  0.0494  0.0783
   97OSM   H14C 9393   6.515   3.150   2.223  0.1217  0.8920 -0.5632
   97OSM    C13 9394   6.766   3.165   2.262  0.4207 -0.3137  0.0133
   97OSM   H13A 9395   6.762   3.253   2.199 -2.2351 -1.0796 -1.0638
   97OSM   H13B 9396   6.870   3.145   2.279  0.8940  2.2393  0.5598
   97OSM   H13C 9397   6.717   3.190   2.355 -2.9058  0.1064 -1.6764
   97OSM    C12 9398   6.789   3.044   2.061  0.7681 -0.3282 -0.7949
   97OSM   H12A 9399   6.776   3.139   2.011  0.4900 -0.4240 -0.9075
   97OSM   H12B 9400   6.745   2.966   2.000 -0.0915 -2.6270  2.4988
   97OSM    C11 9401   6.937   3.008   2.075 -0.6680 -0.3445 -0.3972
   97OSM   H11A 9402   6.979   2.988   1.974  1.9300 -0.6945  0.6583
   97OSM   H11B 9403   6.960   2.926   2.146 -0.7349 -0.0778 -0.0664
   97OSM      P 9404   7.167   3.146   2.136 -0.0343  0.4547 -0.1907
   97OSM    O13 9405   7.246   3.021   2.104 -0.0251  0.1804 -0.1731
   97OSM    O14 9406   7.209   3.264   2.060  0.1541 -0.1305  0.3630
   97OSM    O11 9407   7.191   3.172   2.290 -0.3600 -0.6857 -0.0914
   97OSM    O12 9408   7.006   3.124   2.127  0.1011  0.4081  0.3304
   97OSM    C1S 9409   7.117   3.093   2.388 -0.0024  0.4457  1.1935
   97OSM    H1S 9410   7.159   2.992   2.369  0.3475  0.5775  1.2558
   97OSM    H1T 9411   7.009   3.080   2.365 -0.2602  0.6387  2.2302
   97OSM     NF 9412   7.108   3.038   2.635  0.5199 -0.0571  0.6576
   97OSM    HNF 9413   7.026   3.058   2.687  0.9972  2.2767  0.6227
   97OSM    C2S 9414   7.138   3.139   2.535  0.8167 -0.7141  0.8905
   97OSM    H2S 9415   7.246   3.165   2.539  1.2859 -1.6740 -2.2643
   97OSM    C3S 9416   7.065   3.284   2.550 -0.3854  1.2025  0.0312
   97OSM    H3S 9417   6.956   3.266   2.539 -0.5371  2.0598  0.0360
   97OSM     O3 9418   7.090   3.381   2.448  0.3607  0.7296 -0.3946
   97OSM    HO3 9419   7.132   3.326   2.381  0.4965  1.5977 -1.0461
   97OSM    C4S 9420   7.078   3.348   2.690  0.0360  0.6958  0.1966
   97OSM    H4S 9421   6.999   3.309   2.756 -2.5168  1.4588 -2.1625
   97OSM    C5S 9422   7.171   3.432   2.733  0.2647  0.0201  0.1917
   97OSM    H5S 9423   7.251   3.457   2.663  1.3485 -3.2474  0.0864
   97OSM    C6S 9424   7.193   3.502   2.862 -0.4602  0.2076 -0.4229
   97OSM    H6S 9425   7.127   3.590   2.850  0.3736  0.6456 -2.1243
   97OSM    H6T 9426   7.297   3.542   2.859 -0.4072  0.1588  0.5091
   97OSM    C7S 9427   7.163   3.427   2.989 -0.3400 -0.2731  0.6466
   97OSM    H7S 9428   7.225   3.336   2.980 -2.4438 -1.8918  1.5240
   97OSM    H7T 9429   7.055   3.398   2.986 -0.4370  0.1477 -1.1126
   97OSM    C8S 9430   7.197   3.506   3.106  0.4502 -0.3952  0.4380
   97OSM    H8S 9431   7.149   3.606   3.098  0.7977 -0.3450 -1.4461
   97OSM    H8T 9432   7.307   3.524   3.105  1.0750 -3.4971 -1.7825
   97OSM    C9S 9433   7.158   3.441   3.244 -0.2771  0.2330 -0.2868
   97OSM    H9S 9434   7.202   3.339   3.248  0.0711  0.4131  1.4746
   97OSM    H9T 9435   7.049   3.426   3.233  0.0888 -3.1239 -0.3657
   97OSM   C10S 9436   7.191   3.537   3.361  0.0452 -1.1923  0.0897
   97OSM   H10S 9437   7.167   3.639   3.325  1.5958 -1.2180 -1.1724
   97OSM   H10T 9438   7.302   3.538   3.374  0.0517  2.0514  0.5780
   97OSM   C11S 9439   7.124   3.517   3.499  0.3232  0.8793 -0.1736
   97OSM   H11S 9440   7.013   3.515   3.493  0.2794  0.0442  0.8356
   97OSM   H11T 9441   7.144   3.613   3.552 -0.7848 -0.3710  2.6576
   97OSM   C12S 9442   7.179   3.393   3.574  0.7525 -0.3497 -0.2461
   97OSM   H12S 9443   7.273   3.417   3.628  0.7799 -0.4230 -0.2621
   97OSM   H12T 9444   7.212   3.317   3.500  1.2982  0.6975 -1.1072
   97OSM   C13S 9445   7.076   3.332   3.675 -0.2187  0.4153 -0.2538
   97OSM   H13S 9446   7.097   3.230   3.714  0.0933  0.8848  0.8659
   97OSM   H13T 9447   6.982   3.318   3.618 -0.5154  1.7115 -0.1236
   97OSM   C14S 9448   7.053   3.420   3.796 -1.1308  0.1120  0.0259
   97OSM   H14S 9449   7.067   3.525   3.764 -0.7155 -0.3864 -1.5330
   97OSM   H14T 9450   7.131   3.400   3.873 -0.1478 -0.3591 -1.0649
   97OSM   C15S 9451   6.923   3.389   3.871  0.3189  0.0202 -0.5007
   97OSM   H15S 9452   6.837   3.410   3.804 -0.5792  1.0318  0.9132
   97OSM   H15T 9453   6.906   3.469   3.947 -0.6213 -0.1034 -0.5705
   97OSM   C16S 9454   6.913   3.247   3.930  0.1303 -0.5960 -0.5901
   97OSM   H16S 9455   6.994   3.232   4.004  1.2286  1.2399 -1.3486
   97OSM   H16T 9456   6.939   3.178   3.846 -4.1433 -2.7530 -0.4242
   97OSM   C17S 9457   6.774   3.212   3.987 -0.5288  0.0455  0.0623
   97OSM   H17S 9458   6.740   3.290   4.058  1.8257  0.8961  0.3512
   97OSM   H17T 9459   6.770   3.117   4.046  1.5879 -0.3093 -0.2834
   97OSM   C18S 9460   6.679   3.191   3.868 -0.1215  0.9133  0.4047
   97OSM   H18S 9461   6.686   3.263   3.784  0.4304 -1.1310 -1.3616
   97OSM   H18T 9462   6.581   3.188   3.922 -1.0394  1.3659 -1.1769
   97OSM   H18U 9463   6.694   3.089   3.826 -0.9587  1.1361 -0.4591
   97OSM    C1F 9464   7.174   2.926   2.656  0.5078 -0.4010 -0.4678
   97OSM     OF 9465   7.266   2.892   2.584 -0.0718 -0.4467  0.6853
   97OSM    C2F 9466   7.118   2.834   2.764 -0.1079 -0.1664 -0.6098
   97OSM    H2F 9467   7.125   2.733   2.720  0.1870 -0.3508 -0.1445
   97OSM    H2G 9468   7.016   2.867   2.792  0.1462  0.3358 -0.2547
   97OSM    C3F 9469   7.203   2.857   2.889 -0.1732  0.1122 -0.5231
   97OSM    H3F 9470   7.305   2.814   2.876  0.3962  1.5591 -1.0583
   97OSM    H3G 9471   7.154   2.790   2.963  1.3797 -0.5855 -0.0655
   97OSM    C4F 9472   7.202   3.000   2.957  0.1464 -0.0525 -0.1985
   97OSM    H4F 9473   7.104   3.051   2.947 -0.5808 -0.5902  3.0065
   97OSM    H4G 9474   7.271   3.070   2.905 -0.4917 -1.0103 -2.4176
   97OSM    C5F 9475   7.241   2.997   3.105 -0.7488  0.6840  0.2658
   97OSM    H5F 9476   7.256   3.103   3.136  1.4173  0.6766 -0.5873
   97OSM    H5G 9477   7.342   2.953   3.116 -0.4072  1.4389  0.2221
   97OSM    C6F 9478   7.140   2.941   3.209 -0.1044  0.1770  0.6097
   97OSM    H6F 9479   7.110   2.841   3.172  0.5763  0.2216 -0.1009
   97OSM    H6G 9480   7.045   2.998   3.218 -0.2934 -0.5212  4.5447
   97OSM    C7F 9481   7.190   2.933   3.351 -0.2166  0.1403  0.1000
   97OSM    H7F 9482   7.295   2.897   3.345  0.6162  2.5806 -0.9874
   97OSM    H7G 9483   7.135   2.854   3.407  1.4144 -0.1074  1.4470
   97OSM    C8F 9484   7.194   3.064   3.432 -0.2941 -0.2719  0.5603
   97OSM    H8F 9485   7.092   3.106   3.442  0.1729  1.2551 -0.7640
   97OSM    H8G 9486   7.246   3.141   3.372 -0.4313 -0.6181 -0.0111
   97OSM    C9F 9487   7.276   3.068   3.560  0.3805  0.0558 -0.3010
   97OSM    H9F 9488   7.355   3.144   3.561 -0.9591  1.5013 -1.0488
   97OSM   C10F 9489   7.271   2.976   3.656  0.3328  0.2284  0.2816
   97OSM   H10F 9490   7.338   2.995   3.741  1.1092 -0.5191 -0.1462
   97OSM   C11F 9491   7.186   2.845   3.675  0.4195 -0.3326  0.0093
   97OSM   H11F 9492   7.227   2.767   3.608  0.7930 -0.7741  0.7393
   97OSM   H11G 9493   7.081   2.858   3.640  0.6317  0.9633 -0.2057
   97OSM   C12F 9494   7.198   2.799   3.822 -0.3893  0.2849  0.5696
   97OSM   H12F 9495   7.309   2.803   3.833 -0.3777  0.3699  0.4214
   97OSM   H12G 9496   7.165   2.693   3.827 -2.6166  0.6936 -2.5834
   97OSM   C13F 9497   7.128   2.880   3.934  0.5255  0.5678 -0.5425
   97OSM   H13F 9498   7.023   2.887   3.898 -0.6989 -1.6263  2.2389
   97OSM   H13G 9499   7.168   2.984   3.936 -0.4185  1.0295 -2.5949
   97OSM   C14F 9500   7.125   2.814   4.071  0.4011 -0.0264  0.5172
   97OSM   H14F 9501   7.061   2.724   4.062  0.7023 -0.1350 -0.7276
   97OSM   H14G 9502   7.078   2.882   4.145  1.2434  0.6245  0.4694
   97OSM   C15F 9503   7.265   2.774   4.108  0.3707 -0.3546  0.4441
   97OSM   H15F 9504   7.334   2.861   4.106 -0.1508  0.0523 -1.1240
   97OSM   H15G 9505   7.288   2.694   4.034 -0.8749  1.9430 -2.6776
   97OSM   C16F 9506   7.279   2.701   4.242 -0.3843 -0.2701  0.1720
   97OSM   H16F 9507   7.207   2.617   4.250  3.0224 -3.4690  0.0371
   97OSM   H16G 9508   7.264   2.775   4.323  1.1977 -1.1278  1.2926
   97OSM   C17F 9509   7.414   2.629   4.265  0.4752  0.1483 -0.2013
   97OSM   H17F 9510   7.428   2.601   4.371 -0.2501  0.5492  0.0040
   97OSM   H17G 9511   7.501   2.695   4.246 -0.1925  0.7805 -1.1916
   97OSM   C18F 9512   7.425   2.502   4.180  0.1106  0.4343 -0.0235
   97OSM   H18F 9513   7.342   2.430   4.198  0.3535  0.6432  2.2095
   97OSM   H18G 9514   7.514   2.452   4.221 -0.5551 -0.2706  0.5870
   97OSM   H18H 9515   7.446   2.533   4.075  2.9432 -2.9213 -0.6290
   98OSM      N 9516   0.651   5.440   1.929  0.6724  0.1942 -0.2372
   98OSM    C15 9517   0.623   5.407   2.075  0.1218  0.0373  0.5272
   98OSM   H15A 9518   0.544   5.465   2.120  2.2798  1.4815  2.7070
   98OSM   H15B 9519   0.709   5.441   2.131  0.9517  0.1022 -0.7472
   98OSM   H15C 9520   0.598   5.302   2.081 -0.9429  0.2194 -0.4674
   98OSM    C14 9521   0.778   5.371   1.880 -0.3186 -0.0679  0.4690
   98OSM   H14A 9522   0.863   5.400   1.940 -1.3743 -1.3156  2.7243
   98OSM   H14B 9523   0.800   5.406   1.781 -2.6370 -0.4265 -0.2327
   98OSM   H14C 9524   0.772   5.263   1.874  0.5565 -0.0349 -2.6038
   98OSM    C13 9525   0.530   5.392   1.850 -0.6440 -0.3387 -0.4263
   98OSM   H13A 9526   0.533   5.284   1.848 -0.6516 -0.4864  2.9115
   98OSM   H13B 9527   0.543   5.434   1.751 -1.0970 -1.1329 -0.8386
   98OSM   H13C 9528   0.438   5.427   1.895  0.8063  1.0775  1.6015
   98OSM    C12 9529   0.665   5.589   1.918  0.4372 -0.3363 -0.0766
   98OSM   H12A 9530   0.662   5.618   1.814 -0.4289  1.5679  0.4269
   98OSM   H12B 9531   0.763   5.610   1.957 -0.0183  2.4736 -0.2378
   98OSM    C11 9532   0.555   5.670   1.997 -0.0030  0.3308 -0.5981
   98OSM   H11A 9533   0.589   5.772   1.971 -1.0956  1.0056  0.5371
   98OSM   H11B 9534   0.557   5.656   2.108  1.6008 -1.8056 -0.8209
   98OSM      P 9535   0.306   5.750   1.944 -0.0714 -0.5210  0.3947
   98OSM    O13 9536   0.352   5.870   1.876 -0.0616 -0.0503 -0.0025
   98OSM    O14 9537   0.187   5.679   1.889  1.1317  0.0236 -0.1660
   98OSM    O11 9538   0.284   5.793   2.090 -0.5395 -0.5173 -0.5389
   98OSM    O12 9539   0.433   5.648   1.949  0.4733 -0.1978  0.8422
   98OSM    C1S 9540   0.249   5.685   2.179  0.1379 -0.2147 -1.1876
   98OSM    H1S 9541   0.281   5.584   2.145  1.1635  0.2877 -1.7451
   98OSM    H1T 9542   0.142   5.692   2.209  0.5879 -2.4873  1.3368
   98OSM     NF 9543   0.282   5.595   2.412  0.5002  0.0282 -0.3716
   98OSM    HNF 9544   0.201   5.615   2.466  0.4324  0.6929 -0.7030
   98OSM    C2S 9545   0.317   5.706   2.321  0.0319  0.2118 -0.8321
   98OSM    H2S 9546   0.425   5.696   2.294  0.0242 -2.4104 -0.2196
   98OSM    C3S 9547   0.303   5.849   2.379  0.0436 -0.4803  0.0442
   98OSM    H3S 9548   0.200   5.886   2.398  0.0636 -0.3188 -0.1611
   98OSM     O3 9549   0.359   5.949   2.291 -0.3271  0.3030  0.1657
   98OSM    HO3 9550   0.346   5.914   2.202 -1.2016  3.0154 -0.8789
   98OSM    C4S 9551   0.387   5.855   2.505 -0.5493  0.4203 -0.2330
   98OSM    H4S 9552   0.496   5.846   2.497 -0.5239 -0.1874  0.5821
   98OSM    C5S 9553   0.334   5.878   2.630  0.0948 -0.0480  0.3530
   98OSM    H5S 9554   0.225   5.883   2.641 -0.0680  0.8301 -1.3730
   98OSM    C6S 9555   0.421   5.894   2.752  0.2372 -0.0650 -0.0710
   98OSM    H6S 9556   0.395   5.985   2.810  0.1803  2.4627 -3.7499
   98OSM    H6T 9557   0.528   5.909   2.728  0.2502 -0.4230 -0.2483
   98OSM    C7S 9558   0.401   5.788   2.858 -0.1757  0.1535  0.5845
   98OSM    H7S 9559   0.434   5.691   2.815 -1.0394  0.5948 -1.1457
   98OSM    H7T 9560   0.296   5.778   2.891 -0.7592  3.0276 -0.1051
   98OSM    C8S 9561   0.483   5.820   2.994 -0.0113  0.1562 -0.1434
   98OSM    H8S 9562   0.584   5.850   2.959 -0.0548  1.6076  0.8711
   98OSM    H8T 9563   0.493   5.726   3.052 -2.3269  0.3802  0.7144
   98OSM    C9S 9564   0.433   5.934   3.082  0.7822 -0.0964 -0.2429
   98OSM    H9S 9565   0.438   6.031   3.027  0.5688  0.4857  0.7364
   98OSM    H9T 9566   0.506   5.952   3.164 -1.0325  1.1384  1.2047
   98OSM   C10S 9567   0.292   5.919   3.147  0.5507 -0.1235 -0.1932
   98OSM   H10S 9568   0.204   5.920   3.079 -0.7856 -0.2264  1.4644
   98OSM   H10T 9569   0.272   6.009   3.208  2.1020 -1.9665  3.3363
   98OSM   C11S 9570   0.285   5.793   3.246 -0.5935  0.8367  0.8513
   98OSM   H11S 9571   0.352   5.718   3.199  0.6491  2.2901  0.2055
   98OSM   H11T 9572   0.191   5.735   3.232  2.5152 -4.7052  0.2848
   98OSM   C12S 9573   0.325   5.819   3.384  0.0114 -0.2506  0.1714
   98OSM   H12S 9574   0.273   5.912   3.418 -1.6141 -0.4538 -1.5797
   98OSM   H12T 9575   0.436   5.830   3.384 -0.0634  1.0168  2.1742
   98OSM   C13S 9576   0.298   5.690   3.472 -0.3368 -0.4275  0.2388
   98OSM   H13S 9577   0.366   5.607   3.442 -0.8111 -0.5555 -0.4962
   98OSM   H13T 9578   0.192   5.672   3.446 -1.1480 -2.3213  4.1010
   98OSM   C14S 9579   0.333   5.724   3.621 -0.2381  0.0387  0.7599
   98OSM   H14S 9580   0.270   5.670   3.695  2.4999 -2.9120  1.1642
   98OSM   H14T 9581   0.310   5.830   3.645 -2.4881  0.0924 -1.2540
   98OSM   C15S 9582   0.482   5.703   3.653 -0.6528  0.0795  0.4262
   98OSM   H15S 9583   0.509   5.752   3.748  0.1142  0.4174  0.0414
   98OSM   H15T 9584   0.539   5.743   3.566  0.5151 -1.7873  0.2840
   98OSM   C16S 9585   0.523   5.558   3.663  0.1021  0.3034 -0.6534
   98OSM   H16S 9586   0.478   5.502   3.579 -1.6321 -1.5652  1.3961
   98OSM   H16T 9587   0.494   5.516   3.762  1.1797  0.9052 -0.0557
   98OSM   C17S 9588   0.677   5.536   3.670  0.2723  0.8265  0.3666
   98OSM   H17S 9589   0.730   5.598   3.746 -1.3022 -0.0074  2.2484
   98OSM   H17T 9590   0.727   5.547   3.572 -1.1192  0.0755 -0.4624
   98OSM   C18S 9591   0.704   5.392   3.719  0.1189  0.7890 -0.2244
   98OSM   H18S 9592   0.639   5.318   3.667  0.9386 -0.2539  0.2063
   98OSM   H18T 9593   0.811   5.361   3.715 -0.3428 -0.8467 -1.0115
   98OSM   H18U 9594   0.666   5.389   3.823 -0.1544  2.1730 -0.2722
   98OSM    C1F 9595   0.337   5.476   2.402 -0.2240 -0.5662  0.3029
   98OSM     OF 9596   0.419   5.453   2.309 -0.3049  0.4778 -0.3722
   98OSM    C2F 9597   0.282   5.365   2.489 -0.0145 -0.7486 -0.0176
   98OSM    H2F 9598   0.245   5.280   2.428  0.2714  0.2442 -1.6281
   98OSM    H2G 9599   0.182   5.404   2.520 -1.6612 -4.4178 -0.2763
   98OSM    C3F 9600   0.379   5.329   2.596 -0.1671 -0.6436 -0.2100
   98OSM    H3F 9601   0.465   5.268   2.560  0.1572  0.9141 -2.2070
   98OSM    H3G 9602   0.328   5.264   2.670 -0.1745 -0.3237  0.0730
   98OSM    C4F 9603   0.435   5.453   2.677  0.3527  0.5531  0.5517
   98OSM    H4F 9604   0.349   5.515   2.710  0.5480  0.6454  0.8820
   98OSM    H4G 9605   0.508   5.512   2.618  2.6888 -1.1214  1.6333
   98OSM    C5F 9606   0.507   5.394   2.803 -0.2643  0.4493  0.5257
   98OSM    H5F 9607   0.584   5.468   2.833 -1.0300  0.6593  2.0537
   98OSM    H5G 9608   0.568   5.307   2.769  0.6901  2.0647 -2.2563
   98OSM    C6F 9609   0.402   5.351   2.905  0.3600 -0.6783  0.5422
   98OSM    H6F 9610   0.355   5.256   2.871 -0.3356 -1.0208  2.3748
   98OSM    H6G 9611   0.315   5.421   2.906  0.9700  0.1178 -0.3327
   98OSM    C7F 9612   0.467   5.346   3.048  0.9788 -0.5266 -0.3032
   98OSM    H7F 9613   0.492   5.453   3.066 -0.6331 -0.1146 -0.3622
   98OSM    H7G 9614   0.557   5.282   3.050  1.4202  0.0890  1.3960
   98OSM    C8F 9615   0.359   5.315   3.156 -0.3373  0.0045 -0.2434
   98OSM    H8F 9616   0.272   5.379   3.129 -0.9659 -1.2805 -1.4223
   98OSM    H8G 9617   0.390   5.350   3.257 -1.9611 -2.2953  1.1619
   98OSM    C9F 9618   0.331   5.164   3.163  0.4659  0.7092  0.2954
   98OSM    H9F 9619   0.269   5.126   3.081 -2.2642  1.5037  1.8715
   98OSM   C10F 9620   0.392   5.076   3.249 -0.2566  0.2260 -0.6157
   98OSM   H10F 9621   0.339   4.981   3.266 -0.1495  0.3295  0.3805
   98OSM   C11F 9622   0.481   5.106   3.360 -0.9251 -0.2531  0.3704
   98OSM   H11F 9623   0.487   5.212   3.393  2.2966 -0.3106  0.3215
   98OSM   H11G 9624   0.588   5.088   3.335 -0.5451  1.3960  0.6776
   98OSM   C12F 9625   0.464   5.022   3.486 -0.5270  0.8736 -0.2221
   98OSM   H12F 9626   0.553   5.025   3.553 -0.3002  2.5667 -0.5701
   98OSM   H12G 9627   0.469   4.915   3.455  1.0012  0.8686 -0.0698
   98OSM   C13F 9628   0.340   5.044   3.577  0.6041  0.0670  0.0248
   98OSM   H13F 9629   0.259   4.981   3.533  1.4266  0.1737 -1.7373
   98OSM   H13G 9630   0.308   5.150   3.577 -2.4461 -0.7344 -1.0054
   98OSM   C14F 9631   0.355   5.014   3.728 -0.0111 -0.5352  0.5075
   98OSM   H14F 9632   0.387   4.909   3.743  0.7453 -0.4863 -0.6270
   98OSM   H14G 9633   0.253   5.029   3.771  0.0305 -0.1983  0.4936
   98OSM   C15F 9634   0.455   5.110   3.807  0.6423  0.3478 -0.6698
   98OSM   H15F 9635   0.444   5.213   3.766  1.7004  0.0352 -1.8153
   98OSM   H15G 9636   0.562   5.079   3.801  0.7861  0.3400  1.2886
   98OSM   C16F 9637   0.424   5.106   3.953 -0.7777 -0.7835 -1.3510
   98OSM   H16F 9638   0.522   5.087   4.001 -0.8848 -0.3672 -0.9632
   98OSM   H16G 9639   0.369   5.011   3.971 -0.4671 -0.7172  0.0117
   98OSM   C17F 9640   0.333   5.217   4.013  0.1895 -0.0009 -0.4282
   98OSM   H17F 9641   0.317   5.204   4.123  0.5269  1.4700 -0.1906
   98OSM   H17G 9642   0.238   5.213   3.956  1.0909 -2.5292 -1.9240
   98OSM   C18F 9643   0.402   5.353   4.007  0.5380  0.4890 -0.0392
   98OSM   H18F 9644   0.335   5.439   4.030 -0.5473  0.3855 -2.4611
   98OSM   H18G 9645   0.430   5.370   3.900 -1.9387 -1.5290 -1.1196
   98OSM   H18H 9646   0.491   5.361   4.073  0.2639  0.0724  0.3868
   99OSM      N 9647   4.665   6.770   2.107  0.8107 -0.8442 -0.3141
   99OSM    C15 9648   4.712   6.731   2.247  0.3713 -0.7407  0.1856
   99OSM   H15A 9649   4.796   6.663   2.241  1.6576  0.8308 -0.3570
   99OSM   H15B 9650   4.628   6.683   2.296  2.5560 -3.0085  1.9927
   99OSM   H15C 9651   4.730   6.819   2.307  0.7596 -0.2303 -0.6616
   99OSM    C14 9652   4.640   6.642   2.029 -0.6184 -0.2927 -0.1196
   99OSM   H14A 9653   4.735   6.592   2.019  0.3847  1.6141 -0.5664
   99OSM   H14B 9654   4.605   6.665   1.930 -0.4046 -0.7833 -0.3112
   99OSM   H14C 9655   4.565   6.582   2.080 -0.8288 -0.5119 -0.6762
   99OSM    C13 9656   4.525   6.842   2.126 -0.1529  0.0436 -0.9157
   99OSM   H13A 9657   4.457   6.761   2.148 -0.1801 -0.2881 -2.1233
   99OSM   H13B 9658   4.507   6.879   2.026  0.8066  2.3452 -0.3066
   99OSM   H13C 9659   4.530   6.920   2.200 -1.7082 -0.2569 -0.4456
   99OSM    C12 9660   4.761   6.851   2.036 -0.8785 -0.2603  0.2848
   99OSM   H12A 9661   4.711   6.888   1.948  0.9380  1.6230 -0.0235
   99OSM   H12B 9662   4.838   6.786   1.997  0.5991  1.9013 -0.6338
   99OSM    C11 9663   4.823   6.968   2.114  0.0339 -0.4949  0.5238
   99OSM   H11A 9664   4.858   6.947   2.218 -0.2360  1.0326  0.9489
   99OSM   H11B 9665   4.742   7.043   2.130 -0.9101 -1.7160  1.7295
   99OSM      P 9666   5.066   6.960   1.998  0.6871  0.1523 -0.2719
   99OSM    O13 9667   5.031   6.852   1.905 -0.2297 -0.4360  0.1629
   99OSM    O14 9668   5.162   7.069   1.963  0.2518  0.0446 -0.6776
   99OSM    O11 9669   5.110   6.884   2.132 -0.4126 -0.5656  0.4351
   99OSM    O12 9670   4.938   7.031   2.048  0.8963  0.1377  0.0377
   99OSM    C1S 9671   5.177   6.970   2.232  0.1135  0.7089 -0.0031
   99OSM    H1S 9672   5.096   6.979   2.308  0.3115  1.3615  0.1356
   99OSM    H1T 9673   5.206   7.072   2.198 -0.4036  0.8840  0.0707
   99OSM     NF 9674   5.344   6.992   2.406  0.4970 -0.0218 -0.1891
   99OSM    HNF 9675   5.420   7.054   2.391 -1.2832  2.1677 -0.7609
   99OSM    C2S 9676   5.302   6.910   2.298  0.0804  0.4989  0.9203
   99OSM    H2S 9677   5.276   6.805   2.324 -0.4652 -0.5558 -3.0864
   99OSM    C3S 9678   5.418   6.883   2.198  0.0755 -0.1524 -0.4458
   99OSM    H3S 9679   5.451   6.981   2.158  1.6132  0.3025  1.7285
   99OSM     O3 9680   5.397   6.800   2.086 -0.0024  0.2568 -0.3013
   99OSM    HO3 9681   5.302   6.810   2.080 -0.1531 -0.4210  0.7395
   99OSM    C4S 9682   5.530   6.823   2.284  0.2538  0.1110  0.3969
   99OSM    H4S 9683   5.511   6.725   2.330 -0.6143  0.0250 -0.1319
   99OSM    C5S 9684   5.655   6.873   2.292 -0.0489  0.2734 -0.5548
   99OSM    H5S 9685   5.692   6.947   2.219  0.7983 -1.4955 -2.0039
   99OSM    C6S 9686   5.763   6.814   2.376 -0.0912  0.7487 -0.7761
   99OSM    H6S 9687   5.815   6.904   2.417 -1.9315  2.1485 -1.3771
   99OSM    H6T 9688   5.840   6.759   2.318 -0.6531 -0.6066 -0.2634
   99OSM    C7S 9689   5.724   6.715   2.492  0.3701  0.1892 -0.9874
   99OSM    H7S 9690   5.671   6.628   2.447 -0.1621 -0.0561  0.0939
   99OSM    H7T 9691   5.661   6.770   2.565  2.1354 -1.6851  2.1762
   99OSM    C8S 9692   5.850   6.668   2.571  0.4232 -0.2365  0.1854
   99OSM    H8S 9693   5.907   6.756   2.610  1.3024 -0.3187 -0.8710
   99OSM    H8T 9694   5.927   6.626   2.504  1.0344 -0.2644  0.8888
   99OSM    C9S 9695   5.816   6.584   2.691 -0.2491 -0.5950  0.3695
   99OSM    H9S 9696   5.724   6.634   2.728  0.8128  1.6287  0.2101
   99OSM    H9T 9697   5.897   6.599   2.766  0.2812  0.1188 -0.3200
   99OSM   C10S 9698   5.803   6.431   2.666 -0.0043  0.0292  0.5792
   99OSM   H10S 9699   5.906   6.393   2.647  0.5965  1.2764  1.1916
   99OSM   H10T 9700   5.739   6.406   2.580 -0.3739  1.2951  0.4598
   99OSM   C11S 9701   5.749   6.366   2.795  0.0483 -0.5732  0.5209
   99OSM   H11S 9702   5.766   6.256   2.792  0.7309 -0.4648 -2.2491
   99OSM   H11T 9703   5.639   6.378   2.798  0.0091  1.0064 -2.6843
   99OSM   C12S 9704   5.811   6.429   2.923  0.3462 -0.2330 -0.0719
   99OSM   H12S 9705   5.787   6.537   2.935 -0.9185 -0.7030  2.2940
   99OSM   H12T 9706   5.921   6.422   2.913  0.5864 -0.3911  2.1583
   99OSM   C13S 9707   5.768   6.351   3.048  1.2880  0.4176 -0.0843
   99OSM   H13S 9708   5.821   6.253   3.047 -1.7471 -1.3527  0.1780
   99OSM   H13T 9709   5.660   6.325   3.039  1.5191 -1.7301  2.3771
   99OSM   C14S 9710   5.794   6.433   3.179 -0.4385 -0.2452  0.1051
   99OSM   H14S 9711   5.745   6.533   3.187 -1.6079 -0.8374  0.5290
   99OSM   H14T 9712   5.905   6.431   3.193 -0.5259 -0.3555  0.8022
   99OSM   C15S 9713   5.738   6.363   3.297 -0.5458 -0.6439 -0.0759
   99OSM   H15S 9714   5.813   6.288   3.330  0.0682  0.3348  0.8296
   99OSM   H15T 9715   5.643   6.317   3.262 -0.8473  0.3136 -0.5532
   99OSM   C16S 9716   5.718   6.438   3.424  0.3918  0.2950 -0.3281
   99OSM   H16S 9717   5.639   6.516   3.414  0.7459  0.7898  0.5878
   99OSM   H16T 9718   5.814   6.465   3.474  0.2313 -2.4928  1.7028
   99OSM   C17S 9719   5.648   6.348   3.532  0.3235 -0.2418  0.0100
   99OSM   H17S 9720   5.709   6.255   3.532  0.1245 -0.3788  0.7606
   99OSM   H17T 9721   5.550   6.312   3.495  0.8009 -1.3042 -0.2735
   99OSM   C18S 9722   5.632   6.410   3.674  0.2967 -0.6116  0.0152
   99OSM   H18S 9723   5.567   6.499   3.681 -1.0944 -1.6950  1.6740
   99OSM   H18T 9724   5.727   6.442   3.723  0.0904  0.4427 -0.2618
   99OSM   H18U 9725   5.587   6.335   3.743 -1.4465 -0.2657 -0.7171
   99OSM    C1F 9726   5.272   7.016   2.515 -0.0666 -0.4748  0.6062
   99OSM     OF 9727   5.179   6.946   2.557  0.2734 -0.1580 -0.1310
   99OSM    C2F 9728   5.319   7.144   2.583  0.0721 -0.6610  0.0394
   99OSM    H2F 9729   5.250   7.229   2.564 -0.0823 -1.3709 -3.1019
   99OSM    H2G 9730   5.423   7.171   2.556  0.1266  1.0380  1.7312
   99OSM    C3F 9731   5.296   7.119   2.737  0.1085  0.3240 -0.2548
   99OSM    H3F 9732   5.355   7.032   2.773  1.4255  1.4278  0.3349
   99OSM    H3G 9733   5.189   7.092   2.745  0.5232 -1.7548 -1.0728
   99OSM    C4F 9734   5.331   7.235   2.826  0.2377  0.4081 -0.4265
   99OSM    H4F 9735   5.260   7.317   2.806  2.8122  2.8993  0.0738
   99OSM    H4G 9736   5.436   7.269   2.811  1.3099 -2.8749 -1.2081
   99OSM    C5F 9737   5.307   7.195   2.972  0.2723 -0.6810  0.4533
   99OSM    H5F 9738   5.379   7.114   2.998  0.1299 -0.8626  0.2833
   99OSM    H5G 9739   5.206   7.154   2.990  0.3668 -0.5487  1.3238
   99OSM    C6F 9740   5.345   7.301   3.075  0.5860  0.1735  0.2565
   99OSM    H6F 9741   5.265   7.377   3.079 -2.3093 -2.5622 -1.1885
   99OSM    H6G 9742   5.444   7.344   3.051  0.6010 -0.6466 -1.2758
   99OSM    C7F 9743   5.324   7.235   3.218  0.5765  0.5101 -0.0274
   99OSM    H7F 9744   5.415   7.175   3.238 -0.5861 -0.5277  2.6231
   99OSM    H7G 9745   5.234   7.171   3.204  1.4289 -1.3502  2.3710
   99OSM    C8F 9746   5.300   7.329   3.346  0.6070  0.4047  0.0963
   99OSM    H8F 9747   5.252   7.263   3.421 -0.9364 -0.4068 -1.5369
   99OSM    H8G 9748   5.220   7.397   3.309  0.2853  0.4962  0.9489
   99OSM    C9F 9749   5.416   7.403   3.394 -0.2747  0.0532 -0.0974
   99OSM    H9F 9750   5.498   7.370   3.329 -1.1778  1.9531 -2.3541
   99OSM   C10F 9751   5.411   7.496   3.484  0.2891  0.2609 -0.3486
   99OSM   H10F 9752   5.506   7.537   3.523  1.1864  0.1165 -2.2464
   99OSM   C11F 9753   5.279   7.536   3.557 -0.1389  0.4030  0.2401
   99OSM   H11F 9754   5.193   7.491   3.502 -3.0893  4.5604  0.9103
   99OSM   H11G 9755   5.274   7.647   3.549  2.8114  0.6266  0.5070
   99OSM   C12F 9756   5.286   7.508   3.711  0.6993  0.1652  0.0938
   99OSM   H12F 9757   5.382   7.557   3.740  0.8112  1.4586 -2.2113
   99OSM   H12G 9758   5.279   7.399   3.733 -0.3386 -0.1867 -1.7422
   99OSM   C13F 9759   5.175   7.575   3.789  0.0318 -0.2660 -0.0735
   99OSM   H13F 9760   5.081   7.517   3.777 -0.6952  0.8630  0.0021
   99OSM   H13G 9761   5.146   7.674   3.748  1.3376  0.6889  1.2095
   99OSM   C14F 9762   5.204   7.589   3.942 -0.1636 -0.0068  0.3822
   99OSM   H14F 9763   5.305   7.633   3.944 -1.5338  3.4559  0.7394
   99OSM   H14G 9764   5.205   7.487   3.986 -0.2453  0.3029  1.1127
   99OSM   C15F 9765   5.101   7.680   4.018 -0.6557  0.6253  0.1696
   99OSM   H15F 9766   4.995   7.647   4.007  0.2544 -2.3015 -0.7872
   99OSM   H15G 9767   5.097   7.779   3.969 -1.0419  1.0605  1.0624
   99OSM   C16F 9768   5.139   7.701   4.168  0.3361 -0.7967 -0.1204
   99OSM   H16F 9769   5.249   7.717   4.165  0.4738 -1.1612  1.7659
   99OSM   H16G 9770   5.115   7.611   4.228 -1.3112  1.2391  2.5082
   99OSM   C17F 9771   5.087   7.835   4.220  0.2185  0.1287  0.6535
   99OSM   H17F 9772   5.118   7.919   4.154  1.8286  0.6710  2.0196
   99OSM   H17G 9773   5.140   7.847   4.317  1.1980 -0.9144  0.2746
   99OSM   C18F 9774   4.934   7.838   4.240  0.0066  0.1583  0.0982
   99OSM   H18F 9775   4.889   7.829   4.138 -1.4797 -2.0939  0.8702
   99OSM   H18G 9776   4.896   7.930   4.289 -0.8737  1.0131 -2.0393
   99OSM   H18H 9777   4.897   7.748   4.293  1.7272  0.0666  1.2068
  100OSM      N 9778   1.813   0.124   1.627  0.4280  0.2605 -0.0845
  100OSM    C15 9779   1.853   0.271   1.628 -0.1591  0.1534 -0.2195
  100OSM   H15A 9780   1.854   0.311   1.528 -2.1462  1.3679  0.2078
  100OSM   H15B 9781   1.944   0.291   1.684 -1.0014 -0.2496  1.3347
  100OSM   H15C 9782   1.780   0.328   1.682 -0.2152  0.5507 -0.7114
  100OSM    C14 9783   1.775   0.089   1.490 -0.1396  0.2300  0.8240
  100OSM   H14A 9784   1.680   0.119   1.448  0.7523 -0.1074 -1.5884
  100OSM   H14B 9785   1.761  -0.017   1.476 -1.7643  0.6485 -1.3989
  100OSM   H14C 9786   1.856   0.109   1.422  0.8660 -1.3469  1.4970
  100OSM    C13 9787   1.934   0.040   1.662 -0.6287 -0.2944  0.3889
  100OSM   H13A 9788   1.968   0.081   1.756 -0.8175  2.2844 -0.5872
  100OSM   H13B 9789   2.015   0.058   1.593 -1.1512 -0.3072 -0.2329
  100OSM   H13C 9790   1.911  -0.066   1.662 -2.3055  0.0220 -1.3568
  100OSM    C12 9791   1.706   0.085   1.724  0.4791 -0.0982  1.1791
  100OSM   H12A 9792   1.693  -0.022   1.724  0.4358 -0.1100 -0.2753
  100OSM   H12B 9793   1.608   0.116   1.689  0.4795  0.2104  1.4455
  100OSM    C11 9794   1.712   0.142   1.866  0.1555  0.2177 -0.0215
  100OSM   H11A 9795   1.811   0.116   1.908  0.1123  0.1897  0.0634
  100OSM   H11B 9796   1.643   0.099   1.942  0.1640  2.0358  1.0765
  100OSM      P 9797   1.571   0.352   1.844  0.2777 -0.1353 -0.0099
  100OSM    O13 9798   1.600   0.470   1.763  0.3769  0.3860 -0.6568
  100OSM    O14 9799   1.472   0.255   1.785  0.2758  0.1151  0.1096
  100OSM    O11 9800   1.509   0.405   1.978 -0.5161  0.2292 -0.3002
  100OSM    O12 9801   1.705   0.285   1.878 -1.1142  0.4490 -0.1838
  100OSM    C1S 9802   1.553   0.352   2.107  1.0711 -0.2224  0.5193
  100OSM    H1S 9803   1.656   0.381   2.138  1.0369  1.0815 -0.5095
  100OSM    H1T 9804   1.558   0.241   2.100 -0.4970 -0.3773  1.4852
  100OSM     NF 9805   1.514   0.329   2.350 -0.0545  0.3235  0.0947
  100OSM    HNF 9806   1.497   0.231   2.360  1.7598  0.1006  1.6124
  100OSM    C2S 9807   1.452   0.378   2.227 -0.6693  0.3474  0.1553
  100OSM    H2S 9808   1.454   0.489   2.235  1.3216  0.3686 -0.1727
  100OSM    C3S 9809   1.308   0.325   2.204  0.0632  0.0484 -0.6776
  100OSM    H3S 9810   1.318   0.214   2.215  0.0040  0.2819  4.5646
  100OSM     O3 9811   1.241   0.353   2.085  0.3040  0.1482  0.6672
  100OSM    HO3 9812   1.311   0.391   2.031 -1.2270  1.5289 -0.4459
  100OSM    C4S 9813   1.226   0.363   2.324 -0.4056 -0.2618  0.2948
  100OSM    H4S 9814   1.227   0.287   2.404 -1.3606 -0.2607  0.3274
  100OSM    C5S 9815   1.171   0.483   2.352 -0.6174 -0.2268  0.5899
  100OSM    H5S 9816   1.178   0.571   2.287  0.2714 -0.6199  0.1381
  100OSM    C6S 9817   1.089   0.510   2.469 -0.4535 -1.1472  0.3138
  100OSM    H6S 9818   1.151   0.547   2.554  0.5571 -1.2836 -0.3360
  100OSM    H6T 9819   1.039   0.417   2.503  0.5575 -1.5720  0.7128
  100OSM    C7S 9820   0.977   0.609   2.433  0.7575  0.3754 -0.2546
  100OSM    H7S 9821   0.905   0.580   2.354  0.8073  1.2336 -0.6339
  100OSM    H7T 9822   1.032   0.697   2.394 -0.6322  1.4143  0.0470
  100OSM    C8S 9823   0.900   0.668   2.556 -0.4096  0.1154  0.3717
  100OSM    H8S 9824   0.810   0.719   2.515 -0.4609 -0.8961 -0.8434
  100OSM    H8T 9825   0.955   0.750   2.608 -0.7720  1.0851 -0.7034
  100OSM    C9S 9826   0.852   0.574   2.665  0.6257 -0.3393 -0.3067
  100OSM    H9S 9827   0.937   0.508   2.690  0.2286 -1.7698 -2.5089
  100OSM    H9T 9828   0.768   0.510   2.629 -2.2794  1.2005  3.0557
  100OSM   C10S 9829   0.808   0.648   2.792 -0.1151  0.1857 -0.4933
  100OSM   H10S 9830   0.726   0.718   2.768  0.2696  0.9666  0.3975
  100OSM   H10T 9831   0.899   0.700   2.828 -0.2659  0.4157 -0.4463
  100OSM   C11S 9832   0.750   0.550   2.898 -0.6498  0.1802 -0.1133
  100OSM   H11S 9833   0.831   0.487   2.942 -1.2814  0.5197  1.6346
  100OSM   H11T 9834   0.661   0.493   2.864 -2.9509  1.8915  2.6366
  100OSM   C12S 9835   0.687   0.638   3.013 -0.2867 -0.2589  0.0510
  100OSM   H12S 9836   0.599   0.693   2.974 -0.0797 -0.4041 -0.6372
  100OSM   H12T 9837   0.768   0.705   3.050  0.9425 -2.3083  1.2474
  100OSM   C13S 9838   0.653   0.544   3.137  0.0759 -0.2039  0.0458
  100OSM   H13S 9839   0.732   0.472   3.168  0.6629  0.2976 -0.2643
  100OSM   H13T 9840   0.568   0.480   3.107 -0.0552  1.5238 -3.8090
  100OSM   C14S 9841   0.593   0.630   3.255 -0.8025  0.3864 -0.3011
  100OSM   H14S 9842   0.535   0.710   3.204  2.2966  1.3777 -2.5568
  100OSM   H14T 9843   0.674   0.684   3.308 -0.4411  1.2126 -1.6627
  100OSM   C15S 9844   0.519   0.533   3.356 -0.4445  0.3407  0.2286
  100OSM   H15S 9845   0.446   0.462   3.313 -0.9485 -0.7463  2.7410
  100OSM   H15T 9846   0.455   0.603   3.414  0.0387  1.6825 -0.7923
  100OSM   C16S 9847   0.622   0.468   3.454 -0.7575  0.2143 -0.6771
  100OSM   H16S 9848   0.694   0.542   3.496 -1.7280  0.9057 -0.1968
  100OSM   H16T 9849   0.678   0.393   3.393 -3.3362 -2.4238 -0.0580
  100OSM   C17S 9850   0.558   0.387   3.569  0.3967 -0.2765  0.1462
  100OSM   H17S 9851   0.629   0.363   3.651 -0.4576 -1.9566  0.4498
  100OSM   H17T 9852   0.526   0.291   3.522  0.0514 -0.4184  0.6585
  100OSM   C18S 9853   0.449   0.457   3.641  0.1507  0.3517  0.4502
  100OSM   H18S 9854   0.477   0.563   3.657  0.0948  0.4521 -0.0806
  100OSM   H18T 9855   0.422   0.405   3.735 -2.3170 -1.4917 -1.1128
  100OSM   H18U 9856   0.359   0.461   3.576 -0.1288 -0.7738  0.7456
  100OSM    C1F 9857   1.621   0.383   2.405  0.1145 -0.2180 -0.0085
  100OSM     OF 9858   1.670   0.489   2.377  0.5123  0.2911 -0.1109
  100OSM    C2F 9859   1.686   0.303   2.508  0.2875 -0.0481 -0.0913
  100OSM    H2F 9860   1.780   0.251   2.481 -0.5630 -2.3120  0.9672
  100OSM    H2G 9861   1.617   0.219   2.535  0.2111 -0.1117 -0.4788
  100OSM    C3F 9862   1.724   0.388   2.633  0.3836  0.5655  0.0039
  100OSM    H3F 9863   1.636   0.436   2.679  1.2969  1.3347  0.9892
  100OSM    H3G 9864   1.802   0.461   2.604  1.0361  0.0180  0.3401
  100OSM    C4F 9865   1.762   0.289   2.745 -0.6232  0.0094 -0.5641
  100OSM    H4F 9866   1.834   0.212   2.711  0.5473 -0.2607  2.2504
  100OSM    H4G 9867   1.678   0.222   2.774 -0.6875  0.9115  1.5126
  100OSM    C5F 9868   1.822   0.369   2.866 -0.0436  0.1565  0.1480
  100OSM    H5F 9869   1.745   0.442   2.899 -1.8339 -2.6067  2.6695
  100OSM    H5G 9870   1.906   0.430   2.827 -0.0047  1.6940  2.4649
  100OSM    C6F 9871   1.881   0.281   2.976  0.1023  0.0352 -0.6528
  100OSM    H6F 9872   1.924   0.190   2.928  0.3963  0.3594 -1.0063
  100OSM    H6G 9873   1.802   0.241   3.043 -0.6995  1.4744 -0.6937
  100OSM    C7F 9874   1.983   0.357   3.064 -0.7810 -0.0818 -0.5093
  100OSM    H7F 9875   1.929   0.435   3.121 -2.6420 -1.4450 -0.2891
  100OSM    H7G 9876   2.050   0.410   2.993  0.3049 -0.3974  0.2541
  100OSM    C8F 9877   2.075   0.266   3.147  0.2159 -0.4106  0.3595
  100OSM    H8F 9878   2.121   0.191   3.079 -2.1932 -3.7905  2.1508
  100OSM    H8G 9879   2.011   0.211   3.220 -2.9969  2.7183  0.1418
  100OSM    C9F 9880   2.180   0.358   3.206  0.3866  0.2065 -0.4005
  100OSM    H9F 9881   2.232   0.428   3.138 -0.1831  3.0074  1.8407
  100OSM   C10F 9882   2.200   0.392   3.332  0.2611  0.3316 -1.0024
  100OSM   H10F 9883   2.282   0.462   3.353  0.9880 -1.2882  2.3017
  100OSM   C11F 9884   2.132   0.346   3.457  0.0792 -0.8652 -0.8039
  100OSM   H11F 9885   2.050   0.275   3.430 -1.4963  0.7974 -0.6123
  100OSM   H11G 9886   2.084   0.429   3.513 -1.2754 -0.3148 -2.6810
  100OSM   C12F 9887   2.229   0.275   3.555  0.0361  0.7452  1.1440
  100OSM   H12F 9888   2.330   0.318   3.537  0.4896 -0.2892  1.1073
  100OSM   H12G 9889   2.235   0.168   3.524 -0.4421  0.2254  2.7554
  100OSM   C13F 9890   2.199   0.276   3.701  0.7272  0.7361  0.4531
  100OSM   H13F 9891   2.094   0.247   3.726  1.0077 -0.4346  0.3393
  100OSM   H13G 9892   2.203   0.381   3.738  1.6174  1.5865 -1.8659
  100OSM   C14F 9893   2.301   0.191   3.779 -0.4587 -0.2701  0.4238
  100OSM   H14F 9894   2.406   0.212   3.749 -1.0045 -0.5514 -1.8284
  100OSM   H14G 9895   2.274   0.087   3.752  2.3353 -1.1432  0.6745
  100OSM   C15F 9896   2.288   0.207   3.938 -0.3352 -0.6173  0.4561
  100OSM   H15F 9897   2.178   0.205   3.957 -0.5354 -1.7718 -0.6755
  100OSM   H15G 9898   2.326   0.304   3.978 -1.7129  0.0765  0.1845
  100OSM   C16F 9899   2.327   0.087   4.024  0.3177 -0.1493 -0.4295
  100OSM   H16F 9900   2.433   0.069   3.996  0.1290  1.3719 -2.3104
  100OSM   H16G 9901   2.261   0.010   3.979 -0.0440 -0.9956  1.4651
  100OSM   C17F 9902   2.297   0.106   4.171 -0.3244  0.0488  0.2853
  100OSM   H17F 9903   2.186   0.120   4.175 -0.6242 -0.9456 -2.3540
  100OSM   H17G 9904   2.354   0.195   4.203 -1.4424  0.7167  0.4968
  100OSM   C18F 9905   2.336  -0.010   4.266 -1.0915  0.2913  0.3441
  100OSM   H18F 9906   2.275  -0.011   4.358  1.3464 -1.2637  2.0885
  100OSM   H18G 9907   2.441  -0.009   4.302 -0.6797 -1.5642 -0.6640
  100OSM   H18H 9908   2.333  -0.105   4.208  1.9196  1.7454 -2.5267
  101SLPC     N 9909   2.594   2.213   6.298  0.1277 -0.7416 -0.2850
  101SLPC   C13 9910   2.683   2.281   6.399 -0.1687 -0.5707  0.0709
  101SLPC  H13A 9911   2.742   2.213   6.459 -1.1956  0.0072  1.8008
  101SLPC  H13B 9912   2.755   2.350   6.358 -1.9054  1.2259 -0.1088
  101SLPC  H13C 9913   2.619   2.332   6.469  1.3880 -0.9682  1.8798
  101SLPC   C14 9914   2.527   2.093   6.359  0.2410 -0.4280 -0.3050
  101SLPC  H14A 9915   2.464   2.111   6.445 -0.7823  1.2572 -1.3493
  101SLPC  H14B 9916   2.469   2.043   6.282 -2.4516 -0.3120  1.4990
  101SLPC  H14C 9917   2.603   2.024   6.392 -1.1567 -1.5700  0.6639
  101SLPC   C15 9918   2.685   2.178   6.185  0.5907 -0.2586 -0.3213
  101SLPC  H15A 9919   2.771   2.122   6.217  0.0055 -0.4353  1.0073
  101SLPC  H15B 9920   2.636   2.108   6.119  0.3712 -1.9837  1.5527
  101SLPC  H15C 9921   2.731   2.265   6.141  0.0665  0.7776  1.1017
  101SLPC   C12 9922   2.488   2.309   6.247  0.5347  0.4530 -0.6611
  101SLPC  H12A 9923   2.425   2.261   6.174 -0.6455 -0.6935  1.0586
  101SLPC  H12B 9924   2.537   2.389   6.193  0.5781  0.7455 -0.1898
  101SLPC   C11 9925   2.402   2.387   6.351 -0.5093 -0.7792  0.0198
  101SLPC  H11A 9926   2.396   2.324   6.442 -0.5369 -1.4690 -0.4460
  101SLPC  H11B 9927   2.300   2.408   6.312 -0.3458  1.6097  0.7365
  101SLPC     P 9928   2.469   2.633   6.305 -0.7625 -0.1932 -0.5139
  101SLPC   O13 9929   2.338   2.698   6.336  0.0337  0.4552  0.1621
  101SLPC   O14 9930   2.594   2.713   6.320 -0.2845  0.0926 -0.3218
  101SLPC   O12 9931   2.479   2.502   6.392 -0.6108 -0.3048 -0.2004
  101SLPC   O11 9932   2.472   2.577   6.158  0.2057  0.2235  0.3917
  101SLPC    C1 9933   2.378   2.595   6.051 -0.1176 -0.4067  0.3703
  101SLPC    HA 9934   2.318   2.503   6.035 -0.8126  0.4596 -2.5919
  101SLPC    HB 9935   2.320   2.688   6.067 -3.3246 -2.2635  0.3579
  101SLPC    C2 9936   2.443   2.596   5.908 -0.2301  0.4687 -0.9128
  101SLPC    HS 9937   2.354   2.593   5.840 -2.6452  1.6331  1.9950
  101SLPC   O21 9938   2.520   2.477   5.884  0.4426  0.2486 -0.4202
  101SLPC   C21 9939   2.449   2.364   5.863  0.3345  0.5872 -0.7262
  101SLPC   O22 9940   2.325   2.365   5.849  0.0308  0.2529 -0.1327
  101SLPC   C22 9941   2.547   2.247   5.849  0.1432 -0.2125 -0.4795
  101SLPC   H2R 9942   2.608   2.247   5.942  0.5206  3.2573 -0.5924
  101SLPC   H2S 9943   2.488   2.157   5.821  1.4725 -1.2336 -0.1232
  101SLPC    C3 9944   2.528   2.722   5.898 -0.7528 -0.4411 -0.1775
  101SLPC    HX 9945   2.592   2.733   5.988  1.1983  1.8790 -1.6970
  101SLPC    HY 9946   2.456   2.806   5.895 -0.3010  0.1541  2.9288
  101SLPC   O31 9947   2.614   2.743   5.782  0.2588  0.1477  0.1504
  101SLPC   C31 9948   2.734   2.692   5.792 -0.5586  0.5452 -0.1122
  101SLPC   O32 9949   2.773   2.616   5.877  0.2826 -0.2137  0.4493
  101SLPC   C32 9950   2.818   2.731   5.671 -0.1551 -0.0976  0.6916
  101SLPC   H2X 9951   2.831   2.841   5.657  0.0411 -0.3802 -1.7581
  101SLPC   H2Y 9952   2.748   2.709   5.588 -1.0666 -0.8661  1.6466
  101SLPC   C23 9953   2.651   2.267   5.738  0.4742  0.2975  0.4172
  101SLPC   H3R 9954   2.728   2.187   5.733  1.4177  1.2521 -1.4469
  101SLPC   H3S 9955   2.707   2.363   5.746  0.6457  0.1341  1.2297
  101SLPC   C24 9956   2.584   2.264   5.594 -0.6610  0.1271  0.1545
  101SLPC   H4R 9957   2.530   2.360   5.578 -1.0621 -0.3250 -1.3146
  101SLPC   H4S 9958   2.525   2.172   5.575  1.0038 -0.9984  0.1734
  101SLPC   C25 9959   2.703   2.269   5.490  0.1835  0.2224  0.1443
  101SLPC   H5R 9960   2.766   2.178   5.497 -0.9425 -0.6403 -0.6142
  101SLPC   H5S 9961   2.771   2.352   5.520  0.4547 -0.1873  0.6915
  101SLPC   C26 9962   2.668   2.273   5.342 -0.5201 -0.1618 -0.5995
  101SLPC   H6R 9963   2.629   2.377   5.332 -1.1561 -0.3069  0.2095
  101SLPC   H6S 9964   2.590   2.195   5.325 -1.1060  0.0365  0.9764
  101SLPC   C27 9965   2.783   2.262   5.238 -0.4465 -0.1257  0.1852
  101SLPC   H7R 9966   2.839   2.166   5.242 -1.4451 -0.7500 -0.2830
  101SLPC   H7S 9967   2.857   2.340   5.264  1.0742 -0.8305 -1.8039
  101SLPC   C28 9968   2.728   2.282   5.100 -0.0059  0.1570  0.6967
  101SLPC   H8R 9969   2.678   2.382   5.101  0.3314  0.3212  1.1288
  101SLPC   H8S 9970   2.646   2.208   5.083  0.8876 -0.5446 -0.7128
  101SLPC   C29 9971   2.828   2.266   4.990  0.0577  0.5238  0.1320
  101SLPC   H9R 9972   2.932   2.272   5.024  1.0874 -1.7825 -2.2095
  101SLPC  C210 9973   2.804   2.280   4.861 -0.2810 -0.4565 -1.2550
  101SLPC  H10R 9974   2.880   2.251   4.787  0.3045  0.1242 -0.8895
  101SLPC  C211 9975   2.666   2.303   4.812  0.1076  0.0387  0.0241
  101SLPC  H11R 9976   2.586   2.281   4.885  1.2013  2.4523  2.1104
  101SLPC  H11S 9977   2.666   2.222   4.736  1.9057  0.0067  0.0168
  101SLPC  C212 9978   2.634   2.445   4.764  0.2259  0.0578  1.2532
  101SLPC  H12R 9979   2.561   2.493   4.831 -0.9419  0.0323  0.0381
  101SLPC  C213 9980   2.682   2.523   4.659  0.0150 -0.0674  0.8805
  101SLPC  H13R 9981   2.627   2.615   4.631 -0.2755 -1.1057 -2.3619
  101SLPC  C214 9982   2.784   2.469   4.561 -0.5347  0.3103  0.3628
  101SLPC  H14R 9983   2.757   2.475   4.453  4.0442 -1.4320 -1.1070
  101SLPC  H14S 9984   2.816   2.363   4.572  1.6515  0.8897 -0.0124
  101SLPC  C215 9985   2.915   2.553   4.574  0.2688  0.6588  0.1763
  101SLPC  H15R 9986   2.958   2.541   4.676 -0.3485 -1.8345  0.2172
  101SLPC  H15S 9987   2.870   2.654   4.568 -0.1437  0.3907 -1.9475
  101SLPC  C216 9988   3.012   2.533   4.453  0.6483 -0.4241 -0.0071
  101SLPC  H16R 9989   3.057   2.631   4.428  1.3068 -0.5489  0.6310
  101SLPC  H16S 9990   2.963   2.490   4.363 -0.1741 -1.5233  0.9200
  101SLPC  C217 9991   3.117   2.433   4.497 -0.1826  0.7318 -0.7542
  101SLPC  H17R 9992   3.177   2.402   4.408  1.7482 -0.8999  1.0094
  101SLPC  H17S 9993   3.062   2.347   4.540  0.9940  0.0662 -0.5350
  101SLPC  C218 9994   3.221   2.481   4.598 -0.0543  0.4814  0.3608
  101SLPC  H18R 9995   3.183   2.507   4.699  0.9066  1.0441  0.5970
  101SLPC  H18S 9996   3.278   2.563   4.549  1.5485 -0.5048  0.4933
  101SLPC  H18T 9997   3.301   2.405   4.609  0.0603  0.6768  0.9124
  101SLPC   C33 9998   2.948   2.661   5.646 -0.1612 -0.2287  0.3919
  101SLPC   H3X 9999   2.921   2.553   5.648  0.1811 -0.3172  0.3035
  101SLPC   H3Y10000   3.023   2.680   5.727  0.7580 -0.7780 -0.3067
  101SLPC   C3410001   2.995   2.685   5.507 -0.2832  0.7248  0.7065
  101SLPC   H4X10002   3.099   2.647   5.501 -0.2136  0.9503  0.3842
  101SLPC   H4Y10003   3.005   2.794   5.485 -4.3078  0.9743 -0.7356
  101SLPC   C3510004   2.914   2.615   5.397 -0.4185 -0.0492 -0.4404
  101SLPC   H5X10005   2.805   2.615   5.414 -0.0407 -0.6870  2.3616
  101SLPC   H5Y10006   2.945   2.510   5.377 -2.1320 -0.5746 -0.4694
  101SLPC   C3610007   2.912   2.689   5.260  0.0670 -0.1912  0.4376
  101SLPC   H6X10008   2.901   2.797   5.281 -0.1056 -0.7041  3.3538
  101SLPC   H6Y10009   2.822   2.662   5.201  0.2094  1.3923 -0.5766
  101SLPC   C3710010   3.033   2.663   5.173 -0.0554  0.1494 -0.0784
  101SLPC   H7X10011   3.054   2.554   5.173  1.7666  0.4348  1.7515
  101SLPC   H7Y10012   3.117   2.706   5.231  0.8200 -0.2975 -0.9938
  101SLPC   C3810013   3.026   2.731   5.037 -0.0134 -0.0666  0.3935
  101SLPC   H8X10014   2.981   2.832   5.034  1.6931  0.7163 -0.8549
  101SLPC   H8Y10015   2.957   2.668   4.976 -0.2293 -0.5153  1.0859
  101SLPC   C3910016   3.157   2.739   4.960 -0.5318  0.0651 -0.1529
  101SLPC   H9X10017   3.188   2.647   4.907  0.0221 -1.1554  2.1234
  101SLPC   H9Y10018   3.231   2.774   5.036 -0.8717  0.1267  0.1541
  101SLPC  C31010019   3.166   2.850   4.854  0.0506  0.2443  0.5223
  101SLPC  H10X10020   3.175   2.946   4.910 -0.4892  0.7569 -0.2435
  101SLPC  H10Y10021   3.069   2.848   4.800  0.3043  2.1903 -0.1039
  101SLPC  C31110022   3.270   2.849   4.742  0.0996  0.0018  0.4469
  101SLPC  H11X10023   3.272   2.745   4.701  1.1229  0.0613  0.3242
  101SLPC  H11Y10024   3.367   2.879   4.787 -0.8531  0.8751  1.9705
  101SLPC  C31210025   3.233   2.955   4.633 -0.1467  0.0318 -0.7875
  101SLPC  H12X10026   3.199   3.045   4.689  1.4737  0.5152 -0.5329
  101SLPC  H12Y10027   3.144   2.914   4.581 -0.7327 -2.0355  1.6660
  101SLPC  C31310028   3.348   3.007   4.547  1.1470  0.4603  0.0949
  101SLPC  H13X10029   3.415   3.067   4.612 -0.2189 -0.3617  2.3595
  101SLPC  H13Y10030   3.303   3.080   4.476  1.0869 -0.1963 -0.5515
  101SLPC  C31410031   3.416   2.898   4.471 -0.5472 -0.2321  0.0433
  101SLPC  H14X10032   3.335   2.847   4.417 -1.0400  1.1090 -0.5334
  101SLPC  H14Y10033   3.474   2.836   4.543 -1.4990  0.8137  1.7958
  101SLPC  C31510034   3.506   2.951   4.358  0.1326  0.9913 -0.0518
  101SLPC  H15X10035   3.437   2.966   4.273  0.5064 -3.3936 -1.3786
  101SLPC  H15Y10036   3.567   2.863   4.328 -0.5951  0.6480 -0.5311
  101SLPC  C31610037   3.594   3.071   4.394 -0.1589 -0.0465  0.7680
  101SLPC  H16X10038   3.668   3.051   4.474  0.6002  0.7187  0.2719
  101SLPC  H16Y10039   3.534   3.157   4.433 -0.2231 -0.6185  1.9824
  101SLPC  C31710040   3.671   3.131   4.267  0.1165  0.2780  0.4536
  101SLPC  H17X10041   3.736   3.051   4.226 -1.7576 -2.2531  2.1370
  101SLPC  H17Y10042   3.738   3.212   4.306 -1.7018  1.2965  1.6257
  101SLPC  C31810043   3.586   3.164   4.143  0.2440  0.1971 -0.0235
  101SLPC  H18X10044   3.535   3.260   4.168  1.6419  1.3474 -1.3849
  101SLPC  H18Y10045   3.509   3.088   4.120  0.3224 -0.1170  0.6994
  101SLPC  H18Z10046   3.647   3.186   4.053 -0.9368  1.3692 -0.5574
  102SLPC     N10047   2.741   3.374   6.329  0.4798 -0.2343 -0.0518
  102SLPC   C1310048   2.595   3.403   6.360 -0.9293  0.0900 -0.0903
  102SLPC  H13A10049   2.588   3.468   6.446  0.8521 -2.1020  1.8283
  102SLPC  H13B10050   2.545   3.446   6.275 -0.1303  2.0753  0.4026
  102SLPC  H13C10051   2.538   3.316   6.392  0.0782 -1.1087 -1.4232
  102SLPC   C1410052   2.810   3.300   6.440  0.1155 -0.0648  0.2790
  102SLPC  H14A10053   2.742   3.220   6.468 -1.8310  2.1513  2.4409
  102SLPC  H14B10054   2.911   3.270   6.417  0.1503  0.3951 -0.1633
  102SLPC  H14C10055   2.828   3.368   6.521 -0.2754  0.7156 -0.2797
  102SLPC   C1510056   2.813   3.501   6.289 -0.2778 -0.3939  0.5264
  102SLPC  H15A10057   2.829   3.560   6.378 -1.2052 -2.8334  2.4363
  102SLPC  H15B10058   2.910   3.480   6.247  0.8773  0.7519  2.5056
  102SLPC  H15C10059   2.751   3.564   6.226 -0.4706 -2.8719 -2.0006
  102SLPC   C1210060   2.749   3.264   6.218 -0.1403  0.4929  0.6773
  102SLPC  H12A10061   2.727   3.168   6.262 -1.2615  0.0887 -0.6946
  102SLPC  H12B10062   2.852   3.262   6.186 -0.0751 -0.0417  0.9031
  102SLPC   C1110063   2.668   3.273   6.089  0.2322 -0.4692  0.2601
  102SLPC  H11A10064   2.715   3.206   6.014 -0.2684 -0.9169  0.3403
  102SLPC  H11B10065   2.684   3.376   6.052 -0.4656 -1.1113 -2.0535
  102SLPC     P10066   2.497   3.096   6.092 -0.0875  0.0229  0.1187
  102SLPC   O1310067   2.592   3.017   6.178  0.5493 -0.0718  0.0137
  102SLPC   O1410068   2.351   3.072   6.115 -0.1843 -0.6400  0.2842
  102SLPC   O1210069   2.531   3.251   6.103 -0.2402 -0.1846 -0.0845
  102SLPC   O1110070   2.531   3.080   5.934  0.1991 -0.2425  0.3950
  102SLPC    C110071   2.476   3.175   5.836  0.0825 -0.1299  0.1937
  102SLPC    HA10072   2.488   3.282   5.864  0.1188  0.5650 -2.2609
  102SLPC    HB10073   2.519   3.161   5.735 -2.0543 -1.2733 -0.6090
  102SLPC    C210074   2.330   3.145   5.798  0.8189 -0.3950 -0.3617
  102SLPC    HS10075   2.267   3.165   5.887  0.2150  0.4629 -0.9650
  102SLPC   O2110076   2.312   3.009   5.744 -0.3850  0.1379  0.5534
  102SLPC   C2110077   2.196   2.962   5.749 -0.4681 -0.9515 -0.2196
  102SLPC   O2210078   2.092   3.016   5.797  0.1779 -0.3567 -0.2265
  102SLPC   C2210079   2.193   2.836   5.661  0.0157  0.1913 -0.6993
  102SLPC   H2R10080   2.162   2.756   5.732 -0.3597  0.6351 -0.3644
  102SLPC   H2S10081   2.106   2.843   5.592 -0.1644 -0.0023 -0.4917
  102SLPC    C310082   2.289   3.253   5.694  0.1053 -0.1360 -0.2023
  102SLPC    HX10083   2.316   3.352   5.739  1.5538  0.4356 -2.1864
  102SLPC    HY10084   2.180   3.249   5.671  0.0583  0.8295 -0.1990
  102SLPC   O3110085   2.375   3.247   5.577  0.0265  0.5969  0.3525
  102SLPC   C3110086   2.341   3.159   5.487 -0.2455 -0.1862 -0.6530
  102SLPC   O3210087   2.232   3.105   5.474 -0.7144 -0.5000 -0.6201
  102SLPC   C3210088   2.465   3.117   5.413 -0.0195 -0.0509  0.1716
  102SLPC   H2X10089   2.537   3.076   5.487 -0.1979  1.1835  1.0781
  102SLPC   H2Y10090   2.510   3.211   5.374 -0.1689  0.1410  0.4572
  102SLPC   C2310091   2.318   2.788   5.591  0.1764  1.1000  0.0064
  102SLPC   H3R10092   2.404   2.787   5.661  1.5031 -0.4688 -1.5363
  102SLPC   H3S10093   2.348   2.849   5.503 -0.3393 -0.3521 -1.2283
  102SLPC   C2410094   2.288   2.646   5.536  0.4879  0.3162 -0.1350
  102SLPC   H4R10095   2.182   2.641   5.501  0.0655 -0.3692  1.1488
  102SLPC   H4S10096   2.295   2.584   5.628 -0.0907 -0.0105 -0.3012
  102SLPC   C2510097   2.375   2.588   5.429 -0.0329 -0.1973  0.6636
  102SLPC   H5R10098   2.386   2.478   5.436 -0.6384 -0.4031 -1.1357
  102SLPC   H5S10099   2.476   2.634   5.424 -0.0848 -0.0166  1.2100
  102SLPC   C2610100   2.322   2.608   5.287  0.2741  0.1387 -0.0907
  102SLPC   H6R10101   2.330   2.716   5.263  0.2251  0.2038  0.1895
  102SLPC   H6S10102   2.214   2.583   5.286  0.2733  0.1472 -0.3148
  102SLPC   C2710103   2.389   2.513   5.191 -0.8547  0.2381  0.5198
  102SLPC   H7R10104   2.386   2.403   5.206  1.4926  0.0849  0.2614
  102SLPC   H7S10105   2.498   2.536   5.190 -0.8301  0.1242 -0.1460
  102SLPC   C2810106   2.348   2.547   5.039 -0.1822  0.2117 -0.6140
  102SLPC   H8R10107   2.394   2.468   4.976 -1.2267 -0.5611 -0.4362
  102SLPC   H8S10108   2.390   2.649   5.025  0.8864 -0.0474  0.4819
  102SLPC   C2910109   2.199   2.550   5.004  0.3118  0.0810 -0.2534
  102SLPC   H9R10110   2.129   2.546   5.089 -0.0350  0.5556 -0.5125
  102SLPC  C21010111   2.145   2.566   4.887 -0.1171 -0.2145  0.1686
  102SLPC  H10R10112   2.036   2.580   4.895 -0.0952 -0.7662  1.9313
  102SLPC  C21110113   2.215   2.572   4.747 -0.0101 -0.4744 -0.3069
  102SLPC  H11R10114   2.148   2.519   4.676  0.8224 -0.6738 -0.9531
  102SLPC  H11S10115   2.309   2.512   4.749 -0.1510 -0.7720 -1.8630
  102SLPC  C21210116   2.257   2.709   4.693  0.4400 -0.5798 -1.1009
  102SLPC  H12R10117   2.277   2.783   4.772 -1.2366 -0.6610 -0.5549
  102SLPC  C21310118   2.289   2.746   4.566 -0.0668  1.1649 -0.6799
  102SLPC  H13R10119   2.299   2.851   4.535  0.3110  0.8938 -1.5033
  102SLPC  C21410120   2.278   2.652   4.444  0.1698 -0.0975  0.0609
  102SLPC  H14R10121   2.193   2.678   4.378 -0.2502 -1.3718  0.0577
  102SLPC  H14S10122   2.237   2.551   4.465  2.4360 -1.4419 -1.5478
  102SLPC  C21510123   2.402   2.636   4.360 -0.1324  0.0430 -0.0416
  102SLPC  H15R10124   2.490   2.590   4.410 -1.4416 -2.0011  0.4860
  102SLPC  H15S10125   2.447   2.734   4.330 -1.3865  0.8016  0.4848
  102SLPC  C21610126   2.371   2.558   4.228 -0.7041  0.4018  0.5502
  102SLPC  H16R10127   2.281   2.614   4.196  0.5469  0.6452 -2.8876
  102SLPC  H16S10128   2.353   2.451   4.253 -0.7638  0.5664  1.2411
  102SLPC  C21710129   2.484   2.565   4.126  0.3138  0.3846  0.6331
  102SLPC  H17R10130   2.556   2.483   4.149 -0.9830 -1.0732 -0.3255
  102SLPC  H17S10131   2.533   2.665   4.131  1.3440 -0.1728  3.1798
  102SLPC  C21810132   2.431   2.540   3.980 -0.1189 -0.2716 -0.3025
  102SLPC  H18R10133   2.508   2.526   3.901  0.3584  0.5158  0.0079
  102SLPC  H18S10134   2.361   2.624   3.958 -0.9742  0.1684  3.4325
  102SLPC  H18T10135   2.371   2.447   3.984  0.9391 -0.9361  2.1099
  102SLPC   C3310136   2.452   3.028   5.281  0.5590 -0.7175 -0.5258
  102SLPC   H3X10137   2.394   3.095   5.213  1.1291 -1.6978 -2.0300
  102SLPC   H3Y10138   2.399   2.935   5.310  0.8993 -0.5330  0.7344
  102SLPC   C3410139   2.590   3.001   5.224  0.0601  0.5700  0.2186
  102SLPC   H4X10140   2.629   2.899   5.245 -1.1346  0.3771  1.6121
  102SLPC   H4Y10141   2.662   3.070   5.274  1.7286 -0.8438 -0.1187
  102SLPC   C3510142   2.605   3.013   5.075  0.5531 -0.4518 -0.6296
  102SLPC   H5X10143   2.596   3.114   5.030 -1.6070 -0.4896 -0.3721
  102SLPC   H5Y10144   2.526   2.956   5.022  1.5225 -0.9547 -1.5904
  102SLPC   C3610145   2.733   2.960   5.022 -0.7403  0.3638  0.7131
  102SLPC   H6X10146   2.757   2.869   5.081 -0.6345  1.4787  2.4563
  102SLPC   H6Y10147   2.823   3.025   5.029  0.1394 -0.8264  0.7749
  102SLPC   C3710148   2.730   2.919   4.872  0.2765 -0.2664 -0.9024
  102SLPC   H7X10149   2.653   2.843   4.849 -0.6032  0.8358 -1.7094
  102SLPC   H7Y10150   2.827   2.884   4.830  0.5088 -1.0790  0.2753
  102SLPC   C3810151   2.682   3.034   4.783  0.0056  0.6960 -0.1240
  102SLPC   H8X10152   2.748   3.118   4.813 -1.3786  1.9069 -0.3918
  102SLPC   H8Y10153   2.579   3.075   4.795  0.9427  3.4551 -0.8246
  102SLPC   C3910154   2.726   3.031   4.636  0.1949 -0.0219  0.2979
  102SLPC   H9X10155   2.833   3.006   4.628  0.6683  2.1205 -1.0733
  102SLPC   H9Y10156   2.723   3.133   4.593  0.5236  0.3631  1.1644
  102SLPC  C31010157   2.645   2.927   4.551 -0.0354 -0.3988  0.4843
  102SLPC  H10X10158   2.541   2.963   4.565  0.4274  1.1461  0.1479
  102SLPC  H10Y10159   2.654   2.829   4.602 -1.5704 -0.2876  1.0046
  102SLPC  C31110160   2.679   2.916   4.398  0.0315  0.2929 -0.9157
  102SLPC  H11X10161   2.676   3.020   4.358 -1.9935  1.0256  0.9426
  102SLPC  H11Y10162   2.594   2.858   4.356  0.7899 -2.8969  1.5645
  102SLPC  C31210163   2.816   2.854   4.376  0.2897  0.3532  0.7528
  102SLPC  H12X10164   2.810   2.749   4.413  0.9150  1.3859  4.1375
  102SLPC  H12Y10165   2.899   2.899   4.436  0.5179  2.1717 -0.8499
  102SLPC  C31310166   2.851   2.855   4.217  1.0830  0.3417  0.5076
  102SLPC  H13X10167   2.789   2.936   4.173  2.2181  1.6393  1.2139
  102SLPC  H13Y10168   2.831   2.757   4.169  0.1583  1.3426 -1.2575
  102SLPC  C31410169   3.000   2.886   4.194 -0.3640  0.3813  0.1309
  102SLPC  H14X10170   3.058   2.826   4.268 -0.3270 -1.1480 -1.0807
  102SLPC  H14Y10171   3.037   2.987   4.220  2.4574 -0.3794 -0.5727
  102SLPC  C31510172   3.051   2.868   4.050 -0.7834  0.4562 -0.5515
  102SLPC  H15X10173   3.002   2.937   3.978 -3.2174 -2.2319 -1.6485
  102SLPC  H15Y10174   3.021   2.768   4.013  1.4647 -1.2693  1.8741
  102SLPC  C31610175   3.201   2.877   4.029  0.2158 -0.1818 -0.4878
  102SLPC  H16X10176   3.267   2.800   4.076 -1.3306 -1.3829 -0.2073
  102SLPC  H16Y10177   3.242   2.972   4.070  0.3224 -0.6691  0.5712
  102SLPC  C31710178   3.228   2.860   3.876  0.0526 -0.1420  0.1551
  102SLPC  H17X10179   3.167   2.928   3.814  1.1818  0.3995 -0.3998
  102SLPC  H17Y10180   3.197   2.761   3.837 -0.0863 -0.1802  0.3610
  102SLPC  C31810181   3.375   2.875   3.833  0.3993  0.3342  0.5358
  102SLPC  H18X10182   3.436   2.840   3.919 -0.5183  0.5880  1.2932
  102SLPC  H18Y10183   3.397   2.984   3.832 -1.0076  0.6291 -0.4621
  102SLPC  H18Z10184   3.406   2.829   3.737  1.0700  0.2830  0.7697
  103SLPC     N10185   2.753   1.474   6.115 -0.3243 -0.0513 -0.0536
  103SLPC   C1310186   2.607   1.457   6.133 -0.9477 -0.7047  0.7129
  103SLPC  H13A10187   2.575   1.360   6.166 -2.4153  0.3983  2.8245
  103SLPC  H13B10188   2.573   1.522   6.213  0.0918  1.3311 -0.4175
  103SLPC  H13C10189   2.549   1.489   6.048  0.7222  2.7344  0.6632
  103SLPC   C1410190   2.805   1.371   6.024  0.6528  0.2183 -0.7317
  103SLPC  H14A10191   2.910   1.349   6.042  1.0185  1.2480 -1.4837
  103SLPC  H14B10192   2.746   1.283   6.040  1.0871  0.0206 -0.1400
  103SLPC  H14C10193   2.795   1.390   5.918 -0.8349  1.8552 -0.3457
  103SLPC   C1510194   2.826   1.439   6.246  0.1337 -0.3554 -0.8857
  103SLPC  H15A10195   2.805   1.515   6.319  3.6054  0.6357 -0.7272
  103SLPC  H15B10196   2.808   1.337   6.278  1.4595 -0.5863 -0.8070
  103SLPC  H15C10197   2.933   1.447   6.235  0.0451  0.3440 -1.3413
  103SLPC   C1210198   2.781   1.617   6.064  0.5940  0.1483  0.0308
  103SLPC  H12A10199   2.737   1.625   5.966 -0.4737  0.3932  0.5105
  103SLPC  H12B10200   2.888   1.632   6.052  0.2659  1.6149 -1.5312
  103SLPC   C1110201   2.735   1.734   6.153 -0.4836 -0.2793 -0.0789
  103SLPC  H11A10202   2.773   1.831   6.115 -0.0364  0.0895  1.2512
  103SLPC  H11B10203   2.790   1.719   6.248 -0.2467  2.2528  0.2518
  103SLPC     P10204   2.496   1.779   6.057 -0.0561 -0.3826  0.0824
  103SLPC   O1310205   2.360   1.776   6.107  0.1945  0.1162  0.0586
  103SLPC   O1410206   2.543   1.911   6.002  0.2006 -0.6548 -0.0099
  103SLPC   O1210207   2.594   1.735   6.179 -0.3130 -0.4567 -0.1498
  103SLPC   O1110208   2.521   1.666   5.949  0.4776 -1.0896  0.3490
  103SLPC    C110209   2.557   1.702   5.816  0.4315  1.0362  0.3445
  103SLPC    HA10210   2.524   1.805   5.789 -2.0129  0.1832 -0.2019
  103SLPC    HB10211   2.666   1.684   5.810 -0.0789 -3.0521  0.3885
  103SLPC    C210212   2.485   1.610   5.718 -0.4265  0.0323  0.2367
  103SLPC    HS10213   2.544   1.515   5.718 -0.6929 -0.1428 -0.7299
  103SLPC   O2110214   2.482   1.675   5.589  0.4130 -0.2067 -0.2270
  103SLPC   C2110215   2.597   1.686   5.519 -0.3280  0.0079 -0.0881
  103SLPC   O2210216   2.706   1.635   5.551  0.0328 -0.0398  0.3982
  103SLPC   C2210217   2.584   1.802   5.414  0.3967 -0.0297 -0.5817
  103SLPC   H2R10218   2.491   1.790   5.355  0.7924  2.7993 -1.9365
  103SLPC   H2S10219   2.562   1.893   5.473  0.4813 -0.8696  0.7935
  103SLPC    C310220   2.344   1.565   5.759  0.1424 -0.0611 -0.1028
  103SLPC    HX10221   2.285   1.648   5.802  0.8539  0.2075  0.3790
  103SLPC    HY10222   2.343   1.499   5.849  2.7471  1.8867  1.5149
  103SLPC   O3110223   2.263   1.518   5.645 -0.2243 -0.1178 -0.0967
  103SLPC   C3110224   2.248   1.384   5.637 -0.3468  0.5595  0.3827
  103SLPC   O3210225   2.296   1.300   5.712  0.5417 -0.3585  0.0730
  103SLPC   C3210226   2.155   1.344   5.515 -0.6063 -0.5070 -0.0563
  103SLPC   H2X10227   2.056   1.389   5.534 -0.8573 -1.0017 -0.1905
  103SLPC   H2Y10228   2.156   1.234   5.506  1.6477 -0.4492 -1.5673
  103SLPC   C2310229   2.699   1.811   5.320  0.2001 -0.0481  0.1926
  103SLPC   H3R10230   2.728   1.705   5.302  1.9313  0.6036 -1.1887
  103SLPC   H3S10231   2.788   1.869   5.353 -0.0552 -0.4403  1.6573
  103SLPC   C2410232   2.655   1.866   5.183  0.4480  0.3479 -0.1048
  103SLPC   H4R10233   2.658   1.977   5.196  1.6145  0.2280  0.8426
  103SLPC   H4S10234   2.561   1.828   5.139  0.5439 -3.3232  2.4316
  103SLPC   C2510235   2.757   1.840   5.073 -0.6120  0.5574 -0.1336
  103SLPC   H5R10236   2.755   1.730   5.060 -2.0141  0.2805  1.8540
  103SLPC   H5S10237   2.859   1.864   5.109  0.1301  0.0846 -1.8421
  103SLPC   C2610238   2.726   1.904   4.933 -0.2939 -0.4232  1.1912
  103SLPC   H6R10239   2.713   2.013   4.945  3.8954  0.4398 -0.5373
  103SLPC   H6S10240   2.649   1.852   4.872 -0.1415  2.3693 -1.6210
  103SLPC   C2710241   2.839   1.885   4.833  0.1223  1.1262 -0.8406
  103SLPC   H7R10242   2.930   1.900   4.895  0.7352 -2.6674 -0.5825
  103SLPC   H7S10243   2.843   1.964   4.755 -0.5014  0.1911 -1.8589
  103SLPC   C2810244   2.832   1.746   4.767 -1.0440 -0.1616 -0.2901
  103SLPC   H8R10245   2.741   1.741   4.703  0.3593 -0.3575 -2.3534
  103SLPC   H8S10246   2.834   1.672   4.850  0.9552  0.6705  0.4661
  103SLPC   C2910247   2.955   1.718   4.684 -0.5422  0.0551 -0.3428
  103SLPC   H9R10248   3.046   1.698   4.743  0.3674  1.1027 -1.3486
  103SLPC  C21010249   2.971   1.706   4.549  0.2327 -0.1800  0.1607
  103SLPC  H10R10250   3.070   1.699   4.502  0.1575  0.3210 -0.0848
  103SLPC  C21110251   2.853   1.733   4.456 -0.1883 -0.4592  0.1460
  103SLPC  H11R10252   2.814   1.835   4.477 -0.8999 -0.9862  1.4439
  103SLPC  H11S10253   2.769   1.664   4.478  0.3424 -1.3925 -0.6530
  103SLPC  C21210254   2.898   1.713   4.313  0.3511 -0.2488  0.2702
  103SLPC  H12R10255   2.886   1.607   4.286  0.6471 -0.0371 -0.7427
  103SLPC  C21310256   2.945   1.800   4.222  0.5710 -0.1583 -0.1285
  103SLPC  H13R10257   3.001   1.761   4.136 -0.4230 -0.8516 -0.4720
  103SLPC  C21410258   2.976   1.943   4.259  0.3710  0.3404  0.9776
  103SLPC  H14R10259   3.085   1.956   4.275  0.2250  0.6190  1.8101
  103SLPC  H14S10260   2.936   1.976   4.358 -1.9850 -2.1867  0.9876
  103SLPC  C21510261   2.930   2.034   4.144  0.2470 -0.0445 -0.5365
  103SLPC  H15R10262   2.820   2.048   4.146  0.0723 -1.4105  0.9018
  103SLPC  H15S10263   2.961   1.997   4.044 -0.1453 -0.0208 -0.6708
  103SLPC  C21610264   3.003   2.172   4.159  0.1107  0.7544 -0.2019
  103SLPC  H16R10265   3.111   2.157   4.138 -0.0632 -1.8760  0.4597
  103SLPC  H16S10266   2.992   2.230   4.254 -0.4611 -0.0718  0.2490
  103SLPC  C21710267   2.949   2.260   4.045 -0.0227  0.4762  0.2212
  103SLPC  H17R10268   2.841   2.239   4.030  0.1453 -0.3038  0.0813
  103SLPC  H17S10269   2.988   2.226   3.947  0.7489  1.9702 -0.0171
  103SLPC  C21810270   2.981   2.408   4.067  0.1739 -0.4477  0.6382
  103SLPC  H18R10271   2.927   2.461   4.149 -3.0041  1.1700 -2.2251
  103SLPC  H18S10272   2.960   2.471   3.977  2.3190 -1.6954 -0.8176
  103SLPC  H18T10273   3.091   2.418   4.074  0.6058 -3.9959  0.8735
  103SLPC   C3310274   2.206   1.392   5.371  0.4884 -0.3817 -0.0160
  103SLPC   H3X10275   2.311   1.357   5.358  0.7970 -0.0204  1.3844
  103SLPC   H3Y10276   2.214   1.503   5.370  3.6731 -0.5345 -1.2682
  103SLPC   C3410277   2.113   1.338   5.266 -0.1999  0.3599  0.9396
  103SLPC   H4X10278   2.008   1.369   5.285  0.0651  0.7531  1.8284
  103SLPC   H4Y10279   2.125   1.228   5.257  0.2327  0.4725  0.0914
  103SLPC   C3510280   2.162   1.389   5.130  0.2940  0.1735 -0.2115
  103SLPC   H5X10281   2.260   1.345   5.103  0.9993  0.5494  1.5979
  103SLPC   H5Y10282   2.181   1.498   5.135  0.4569  0.2908 -2.6154
  103SLPC   C3610283   2.060   1.352   5.026  0.0301 -0.0982  0.7535
  103SLPC   H6X10284   1.964   1.402   5.050 -0.1305  0.7138 -1.3544
  103SLPC   H6Y10285   2.045   1.242   5.039  2.5758 -0.5700  0.3497
  103SLPC   C3710286   2.114   1.388   4.885  0.8150 -0.3725 -0.1101
  103SLPC   H7X10287   2.197   1.325   4.847 -0.5149 -1.7907 -0.7796
  103SLPC   H7Y10288   2.151   1.492   4.896 -1.5869  0.4469  0.8614
  103SLPC   C3810289   1.999   1.388   4.785 -0.0320  0.6130  0.0338
  103SLPC   H8X10290   1.920   1.463   4.807  1.3585  2.3528 -0.6524
  103SLPC   H8Y10291   1.963   1.283   4.782  1.0482  0.2366 -2.4869
  103SLPC   C3910292   2.052   1.415   4.640  0.2946  0.4565 -0.2759
  103SLPC   H9X10293   2.130   1.337   4.628 -1.0255 -1.4583  2.3878
  103SLPC   H9Y10294   2.102   1.514   4.644 -0.8709  1.1031 -0.9405
  103SLPC  C31010295   1.948   1.426   4.525 -0.9519  0.2865 -0.4902
  103SLPC  H10X10296   1.884   1.515   4.542  1.4093  2.1040 -0.4488
  103SLPC  H10Y10297   1.880   1.341   4.507 -0.5459  0.0674 -1.0242
  103SLPC  C31110298   2.018   1.456   4.394  0.3729  0.1089 -0.2751
  103SLPC  H11X10299   1.959   1.434   4.302 -0.2372 -1.3058  0.4093
  103SLPC  H11Y10300   2.105   1.389   4.377  0.1778 -0.2420  0.1015
  103SLPC  C31210301   2.054   1.605   4.377 -0.1153 -0.4175 -0.6840
  103SLPC  H12X10302   2.141   1.624   4.444 -1.4842  0.1007  1.0236
  103SLPC  H12Y10303   1.974   1.677   4.405  1.1577  0.1774  1.7231
  103SLPC  C31310304   2.102   1.643   4.235 -0.4582  0.0024 -0.1725
  103SLPC  H13X10305   2.011   1.636   4.172  0.3654  2.0699 -1.6748
  103SLPC  H13Y10306   2.182   1.574   4.201  0.5908  1.4184 -0.6839
  103SLPC  C31410307   2.170   1.781   4.236 -0.0051  0.5506 -0.0475
  103SLPC  H14X10308   2.240   1.773   4.322  1.3779 -1.7292 -1.3076
  103SLPC  H14Y10309   2.088   1.852   4.262 -1.0331 -0.9976  1.2007
  103SLPC  C31510310   2.234   1.813   4.105 -0.7130  0.3857  1.2817
  103SLPC  H15X10311   2.313   1.737   4.084  1.3078  2.4390  1.0728
  103SLPC  H15Y10312   2.276   1.916   4.104  0.0700  0.2518 -3.5466
  103SLPC  C31610313   2.145   1.799   3.984  0.0601 -0.6955 -0.2526
  103SLPC  H16X10314   2.038   1.818   4.007  0.6702  1.9158  0.7155
  103SLPC  H16Y10315   2.143   1.694   3.948 -1.0651 -0.9384  0.4748
  103SLPC  C31710316   2.182   1.881   3.858  0.1090 -0.0482  0.4651
  103SLPC  H17X10317   2.275   1.847   3.809 -0.9571 -2.1264 -0.2230
  103SLPC  H17Y10318   2.201   1.988   3.881 -1.8711  1.6469 -4.4647
  103SLPC  C31810319   2.060   1.881   3.755 -0.0803 -0.4839  0.6173
  103SLPC  H18X10320   1.974   1.932   3.803  0.5715  0.8906  0.3974
  103SLPC  H18Y10321   2.053   1.779   3.711  2.9908 -0.3924 -0.3901
  103SLPC  H18Z10322   2.091   1.941   3.666  1.1131  0.7433  1.8223
  104SLPC     N10323   3.018   0.882   6.050 -0.0035 -0.2452  0.1596
  104SLPC   C1310324   2.946   0.808   6.156  0.5078  0.1827 -0.1312
  104SLPC  H13A10325   2.840   0.826   6.151  0.4809  0.3655  0.9499
  104SLPC  H13B10326   2.963   0.701   6.147 -1.0370  0.0569 -2.6709
  104SLPC  H13C10327   2.972   0.833   6.257 -1.0796 -0.6178  0.5042
  104SLPC   C1410328   3.163   0.869   6.082 -0.0354  0.1713  0.0130
  104SLPC  H14A10329   3.226   0.908   6.004  0.7120  2.3870  1.6045
  104SLPC  H14B10330   3.188   0.926   6.171 -1.2088  0.0188  0.4667
  104SLPC  H14C10331   3.191   0.766   6.095  0.0891  0.2584  0.4678
  104SLPC   C1510332   2.975   1.026   6.049  0.1261 -0.1876  0.0057
  104SLPC  H15A10333   2.869   1.031   6.030 -0.2477 -1.2371  1.6397
  104SLPC  H15B10334   2.991   1.078   6.142 -0.4963 -0.0944  0.0681
  104SLPC  H15C10335   3.032   1.095   5.989  0.5005  1.0050  1.6706
  104SLPC   C1210336   2.979   0.813   5.922 -0.4449  0.3289 -0.1616
  104SLPC  H12A10337   2.982   0.707   5.937 -0.5570  0.0891 -1.6670
  104SLPC  H12B10338   3.050   0.846   5.848  0.3281 -1.7251 -0.3747
  104SLPC   C1110339   2.845   0.841   5.856  0.7445  0.0336 -0.0772
  104SLPC  H11A10340   2.833   0.765   5.776  3.3653 -0.3458 -0.2036
  104SLPC  H11B10341   2.852   0.936   5.798 -2.8831  0.4807 -0.0316
  104SLPC     P10342   2.641   0.734   5.990  0.2415 -0.3347  0.2756
  104SLPC   O1310343   2.717   0.611   5.974 -0.4496 -0.2015  0.5799
  104SLPC   O1410344   2.578   0.758   6.125 -0.2323 -0.3332  0.4898
  104SLPC   O1210345   2.746   0.848   5.958 -0.6754 -0.7369  0.0528
  104SLPC   O1110346   2.541   0.749   5.873  0.0044 -0.4416  0.4795
  104SLPC    C110347   2.478   0.645   5.799  0.0783  0.0970 -0.5201
  104SLPC    HA10348   2.459   0.557   5.864 -1.3914  0.0324 -1.0184
  104SLPC    HB10349   2.378   0.680   5.766 -3.0400 -3.7764  3.5391
  104SLPC    C210350   2.565   0.606   5.677 -0.1791 -0.3449 -1.0459
  104SLPC    HS10351   2.664   0.596   5.726  0.2766  2.1737 -1.3473
  104SLPC   O2110352   2.567   0.719   5.588 -0.0321 -0.3037  0.7077
  104SLPC   C2110353   2.654   0.708   5.492 -0.4273 -0.0236 -0.5374
  104SLPC   O2210354   2.744   0.629   5.495 -0.1122 -0.1764  0.6938
  104SLPC   C2210355   2.626   0.809   5.385 -0.1154 -0.4822 -1.4644
  104SLPC   H2R10356   2.530   0.768   5.345 -1.3880  2.4854 -1.6632
  104SLPC   H2S10357   2.610   0.910   5.427  0.0858 -1.0675  0.0869
  104SLPC    C310358   2.514   0.475   5.613 -0.0101 -0.1335  0.2140
  104SLPC    HX10359   2.539   0.387   5.676 -0.7962 -0.8617 -0.4668
  104SLPC    HY10360   2.568   0.449   5.520 -0.3227 -0.9724  0.2670
  104SLPC   O3110361   2.378   0.494   5.586 -0.5381 -0.3205  0.6935
  104SLPC   C3110362   2.300   0.379   5.588 -0.2867  0.2475  0.2291
  104SLPC   O3210363   2.333   0.271   5.631  0.0631 -0.1110 -0.1621
  104SLPC   C3210364   2.166   0.421   5.520 -0.9409  0.4033  0.5276
  104SLPC   H2X10365   2.129   0.513   5.570 -0.5718  0.3742  0.8485
  104SLPC   H2Y10366   2.090   0.341   5.533 -1.0687  0.7565  2.0587
  104SLPC   C2310367   2.727   0.794   5.275 -0.3008 -0.4105  0.6884
  104SLPC   H3R10368   2.737   0.690   5.235 -0.0187  0.3333 -1.2921
  104SLPC   H3S10369   2.826   0.835   5.305 -0.3521  0.4902 -0.3175
  104SLPC   C2410370   2.689   0.877   5.154  0.5409  0.5292 -0.4867
  104SLPC   H4R10371   2.687   0.981   5.192  1.2843 -0.4228  2.3575
  104SLPC   H4S10372   2.585   0.862   5.118  0.4591 -2.2911  0.6892
  104SLPC   C2510373   2.782   0.867   5.036 -0.3040  0.4204 -0.0163
  104SLPC   H5R10374   2.768   0.766   4.992 -0.0416  1.5979 -3.0155
  104SLPC   H5S10375   2.887   0.881   5.070 -0.5932  2.0865  0.2758
  104SLPC   C2610376   2.767   0.960   4.913  0.0138  0.3153 -0.4938
  104SLPC   H6R10377   2.827   0.922   4.827  3.3406  0.4626  1.5918
  104SLPC   H6S10378   2.806   1.059   4.945  2.4843 -0.7112 -0.0575
  104SLPC   C2710379   2.621   0.987   4.870 -0.0385 -0.7410 -0.1789
  104SLPC   H7R10380   2.624   1.062   4.788  0.8350 -0.1283  0.4092
  104SLPC   H7S10381   2.561   1.024   4.956 -1.2249  0.2227 -1.3693
  104SLPC   C2810382   2.541   0.867   4.812 -0.3868  0.5160  0.4591
  104SLPC   H8R10383   2.438   0.889   4.775 -0.3855 -0.4430 -0.1260
  104SLPC   H8S10384   2.527   0.794   4.895  1.2014 -0.7427 -0.3364
  104SLPC   C2910385   2.614   0.790   4.704  0.0408 -0.9899  0.7732
  104SLPC   H9R10386   2.677   0.708   4.741  0.8199 -1.0782 -0.7086
  104SLPC  C21010387   2.617   0.827   4.574 -0.2151  0.4269  0.5566
  104SLPC  H10R10388   2.668   0.758   4.506 -0.6512  0.2559  0.4027
  104SLPC  C21110389   2.549   0.939   4.500  0.0675  0.6243  0.9535
  104SLPC  H11R10390   2.474   0.983   4.570 -1.0244  0.9908 -0.3930
  104SLPC  H11S10391   2.487   0.885   4.425  2.9818 -1.7881  0.1157
  104SLPC  C21210392   2.642   1.043   4.441  0.3858 -0.0577 -0.4302
  104SLPC  H12R10393   2.662   1.127   4.509 -2.3306  0.2273  0.1329
  104SLPC  C21310394   2.700   1.040   4.323 -0.6136  0.2874  0.1577
  104SLPC  H13R10395   2.778   1.114   4.301  0.0588 -0.0162  1.3834
  104SLPC  C21410396   2.676   0.932   4.219  0.8341  0.1794  0.0958
  104SLPC  H14R10397   2.667   0.973   4.116 -2.5899 -2.1030 -0.7258
  104SLPC  H14S10398   2.572   0.892   4.225  0.3240  0.6958 -3.1563
  104SLPC  C21510399   2.775   0.812   4.204  0.3442  0.0528  0.3268
  104SLPC  H15R10400   2.742   0.732   4.134  0.5210 -0.2184  0.5525
  104SLPC  H15S10401   2.772   0.765   4.304  0.4526 -0.5794  0.0380
  104SLPC  C21610402   2.912   0.849   4.179  0.0391 -0.5087  0.0729
  104SLPC  H16R10403   2.959   0.903   4.264  0.4896 -1.8961  0.7396
  104SLPC  H16S10404   2.915   0.926   4.098 -1.4218 -0.9175 -0.4100
  104SLPC  C21710405   2.996   0.729   4.130  0.7346  0.7690 -0.8984
  104SLPC  H17R10406   2.937   0.681   4.050  0.4529 -0.6787  0.1409
  104SLPC  H17S10407   3.001   0.655   4.213 -1.8153 -0.2102 -1.5406
  104SLPC  C21810408   3.138   0.776   4.090 -0.1156 -0.7277  0.6665
  104SLPC  H18R10409   3.127   0.868   4.030  1.5211 -0.5229  0.6226
  104SLPC  H18S10410   3.181   0.702   4.018 -0.1227  0.5621 -0.7143
  104SLPC  H18T10411   3.205   0.809   4.172  0.9626  2.8427 -1.4029
  104SLPC   C3310412   2.198   0.444   5.372 -0.5716 -0.9384  0.9091
  104SLPC   H3X10413   2.278   0.520   5.357  0.2925 -2.1865 -1.2392
  104SLPC   H3Y10414   2.105   0.478   5.321 -1.0369 -2.0596  0.9868
  104SLPC   C3410415   2.217   0.313   5.292 -0.8730 -0.0530 -0.2448
  104SLPC   H4X10416   2.130   0.246   5.308 -1.2801  0.7715  1.2444
  104SLPC   H4Y10417   2.306   0.251   5.312 -1.5393 -1.0834 -0.4072
  104SLPC   C3510418   2.216   0.340   5.139 -0.1425 -0.1920 -0.4998
  104SLPC   H5X10419   2.305   0.397   5.106  1.3848 -2.6071 -0.7382
  104SLPC   H5Y10420   2.129   0.405   5.112  0.9081  1.7883  0.6787
  104SLPC   C3610421   2.225   0.224   5.047  0.0621  0.7832 -0.8930
  104SLPC   H6X10422   2.138   0.157   5.061  0.0606  0.1470 -3.4446
  104SLPC   H6Y10423   2.319   0.165   5.058  2.0046  3.9434  0.7837
  104SLPC   C3710424   2.210   0.270   4.905 -0.0035  0.0979  0.0402
  104SLPC   H7X10425   2.305   0.327   4.894  1.6997 -2.6148 -0.1315
  104SLPC   H7Y10426   2.125   0.340   4.890 -2.0201 -2.4805 -1.1616
  104SLPC   C3810427   2.207   0.155   4.809  0.4907  0.1442 -0.4210
  104SLPC   H8X10428   2.117   0.096   4.836 -0.9399  2.2821 -0.2703
  104SLPC   H8Y10429   2.285   0.078   4.825 -1.1463 -1.0549  2.5250
  104SLPC   C3910430   2.196   0.194   4.661 -0.3204  0.0276  0.8280
  104SLPC   H9X10431   2.106   0.260   4.658  0.1796  0.7511  1.4406
  104SLPC   H9Y10432   2.179   0.111   4.589  2.3092 -0.6906  0.9492
  104SLPC  C31010433   2.317   0.274   4.609  0.5014  0.3693  0.1905
  104SLPC  H10X10434   2.310   0.369   4.667  1.0492  0.8100 -0.4282
  104SLPC  H10Y10435   2.294   0.302   4.503  0.2581  0.5932  0.3022
  104SLPC  C31110436   2.462   0.209   4.618  0.0169 -0.9913  0.4890
  104SLPC  H11X10437   2.466   0.137   4.534 -0.1454  2.1659 -2.4516
  104SLPC  H11Y10438   2.473   0.157   4.716  1.7058 -1.2226  0.2062
  104SLPC  C31210439   2.570   0.317   4.593 -0.3049  0.2904  0.5204
  104SLPC  H12X10440   2.661   0.254   4.607  0.0378  0.7461  0.3683
  104SLPC  H12Y10441   2.583   0.391   4.675  2.8847 -0.7365  1.0905
  104SLPC  C31310442   2.548   0.374   4.459 -0.1384  0.1664 -0.2584
  104SLPC  H13X10443   2.475   0.454   4.486 -0.5883 -0.6903  1.1726
  104SLPC  H13Y10444   2.498   0.301   4.392 -1.9178  2.3755 -1.4738
  104SLPC  C31410445   2.670   0.439   4.399 -0.0302 -0.2863  0.4547
  104SLPC  H14X10446   2.736   0.492   4.471  1.9394  0.2389 -1.6234
  104SLPC  H14Y10447   2.648   0.510   4.316 -0.5175 -1.3279 -0.3285
  104SLPC  C31510448   2.775   0.343   4.338  0.6074 -0.6718 -0.6727
  104SLPC  H15X10449   2.788   0.253   4.402 -0.4980  0.1909  0.8300
  104SLPC  H15Y10450   2.876   0.389   4.330  0.6821 -0.4128  1.1591
  104SLPC  C31610451   2.732   0.300   4.195 -0.2351 -0.1306 -0.1869
  104SLPC  H16X10452   2.707   0.396   4.145 -0.1071 -0.3351 -0.6466
  104SLPC  H16Y10453   2.635   0.246   4.198 -0.0591 -0.4262  1.0550
  104SLPC  C31710454   2.842   0.242   4.105 -0.3135  0.0225  0.2502
  104SLPC  H17X10455   2.881   0.149   4.153 -1.5079  0.4305  2.0976
  104SLPC  H17Y10456   2.933   0.305   4.109 -1.3704  1.5116  2.0730
  104SLPC  C31810457   2.795   0.221   3.964 -0.0740  0.4874 -0.2193
  104SLPC  H18X10458   2.742   0.309   3.921 -0.9858 -0.5456 -1.2726
  104SLPC  H18Y10459   2.728   0.133   3.956 -0.8226  1.0797 -0.6176
  104SLPC  H18Z10460   2.877   0.200   3.893  0.3185 -0.1172  0.4027
  105SLPC     N10461   3.178   0.468   6.434  0.0344 -0.2518 -0.1090
  105SLPC   C1310462   3.128   0.575   6.339 -0.0308  0.4382  0.1632
  105SLPC  H13A10463   3.022   0.559   6.324 -0.0268  1.2934 -0.8227
  105SLPC  H13B10464   3.147   0.675   6.374 -0.7457  0.0825  1.6673
  105SLPC  H13C10465   3.165   0.561   6.238 -3.3990  0.4805 -1.2324
  105SLPC   C1410466   3.138   0.518   6.567  0.5207 -0.2912  0.2269
  105SLPC  H14A10467   3.031   0.513   6.584  0.8444 -0.5695  2.4469
  105SLPC  H14B10468   3.179   0.460   6.648 -0.0841 -1.8544 -0.5393
  105SLPC  H14C10469   3.157   0.623   6.582  2.7528 -0.3065 -1.8256
  105SLPC   C1510470   3.328   0.474   6.438 -0.2208 -0.0693  0.3836
  105SLPC  H15A10471   3.373   0.401   6.373  2.7551  1.3611  0.6725
  105SLPC  H15B10472   3.357   0.570   6.399 -2.1299  0.0483 -0.8769
  105SLPC  H15C10473   3.370   0.466   6.537 -0.6737  2.2179  0.8263
  105SLPC   C1210474   3.127   0.333   6.399 -0.0062  0.0871 -0.1511
  105SLPC  H12A10475   3.020   0.347   6.405  0.0332 -0.1149  1.0837
  105SLPC  H12B10476   3.147   0.264   6.479  0.2047  1.2569  0.8310
  105SLPC   C1110477   3.158   0.283   6.266  0.1260  0.5013  0.0891
  105SLPC  H11A10478   3.264   0.259   6.245  0.1118 -0.9407  1.4148
  105SLPC  H11B10479   3.126   0.355   6.188  0.1677  2.1929  1.5449
  105SLPC     P10480   2.966   0.116   6.159  0.0196 -0.1511 -0.0307
  105SLPC   O1310481   2.863   0.043   6.236 -0.3398 -0.0666  0.5030
  105SLPC   O1410482   2.927   0.221   6.065 -0.4957 -0.5635 -0.3340
  105SLPC   O1210483   3.083   0.162   6.261  0.7647  0.1975  0.3118
  105SLPC   O1110484   3.048   0.015   6.078  0.1342 -0.0762  0.4257
  105SLPC    C110485   3.183   0.041   6.029  0.1816 -0.3231  0.2966
  105SLPC    HA10486   3.214   0.147   6.042  2.0027 -0.7273 -0.4839
  105SLPC    HB10487   3.257  -0.030   6.073  0.7644 -0.5463 -1.0148
  105SLPC    C210488   3.185   0.012   5.878  0.2755 -0.1438  0.4422
  105SLPC    HS10489   3.268   0.057   5.820  0.3272  0.7554  1.1969
  105SLPC   O2110490   3.055   0.051   5.821  0.8784 -0.0177 -0.1688
  105SLPC   C2110491   3.059   0.184   5.803  0.3335 -0.2437  0.5848
  105SLPC   O2210492   3.153   0.261   5.823 -0.0791  0.6218  0.1928
  105SLPC   C2210493   2.920   0.225   5.737  0.2584 -0.0124  0.4125
  105SLPC   H2R10494   2.890   0.145   5.666 -1.3209  0.8352  0.0793
  105SLPC   H2S10495   2.854   0.237   5.826 -1.2417  2.3887 -0.8953
  105SLPC    C310496   3.202  -0.141   5.858 -0.8714  0.4786 -0.6126
  105SLPC    HX10497   3.134  -0.188   5.932 -0.9525  0.5392 -0.6493
  105SLPC    HY10498   3.304  -0.170   5.891 -1.3983  1.6523  2.4162
  105SLPC   O3110499   3.175  -0.182   5.723  0.0070 -0.4077 -0.5124
  105SLPC   C3110500   3.073  -0.258   5.705 -0.2938  0.5306 -0.0750
  105SLPC   O3210501   3.002  -0.302   5.788 -0.2015  0.0177  0.4803
  105SLPC   C3210502   3.063  -0.287   5.555 -0.2859 -0.8490 -0.1311
  105SLPC   H2X10503   3.095  -0.392   5.541  0.8984 -0.4358 -0.6271
  105SLPC   H2Y10504   3.125  -0.219   5.494 -2.6823  0.4470 -1.2793
  105SLPC   C2310505   2.936   0.358   5.667 -0.6801 -0.2495  0.1959
  105SLPC   H3R10506   3.007   0.433   5.709 -0.5527 -0.3237  0.1149
  105SLPC   H3S10507   2.833   0.399   5.665 -0.8982 -0.8113 -0.2338
  105SLPC   C2410508   2.978   0.340   5.520 -1.0931  0.1589  0.0040
  105SLPC   H4R10509   2.934   0.420   5.455  0.5167  2.2354  1.3263
  105SLPC   H4S10510   2.935   0.244   5.485  0.8140 -0.5045 -0.6366
  105SLPC   C2510511   3.131   0.332   5.485  0.3900  0.7400 -0.3385
  105SLPC   H5R10512   3.187   0.266   5.555  1.6227  1.5764 -0.5047
  105SLPC   H5S10513   3.169   0.434   5.508 -0.0051  0.7515  0.2812
  105SLPC   C2610514   3.147   0.303   5.332  0.0004 -0.3758  0.0632
  105SLPC   H6R10515   3.257   0.293   5.318 -0.0841 -0.3602 -0.6596
  105SLPC   H6S10516   3.116   0.399   5.285  3.3361  0.4472 -0.6931
  105SLPC   C2710517   3.077   0.185   5.277  0.3742  0.1690  0.5033
  105SLPC   H7R10518   2.966   0.191   5.284  0.5080  1.0583  3.2590
  105SLPC   H7S10519   3.112   0.097   5.336 -0.9172  0.5885  1.9609
  105SLPC   C2810520   3.099   0.161   5.121 -0.1408  0.1683 -0.4489
  105SLPC   H8R10521   3.119   0.262   5.078 -0.4786  0.9392  1.1581
  105SLPC   H8S10522   2.999   0.132   5.082 -1.3033  0.2152  2.3050
  105SLPC   C2910523   3.212   0.065   5.084  0.1125  0.4040 -0.9985
  105SLPC   H9R10524   3.282   0.029   5.161 -1.2040  0.8596  0.4747
  105SLPC  C21010525   3.241   0.040   4.959 -0.6255  0.4370  0.0169
  105SLPC  H10R10526   3.329  -0.025   4.947 -0.4153  0.6195  0.5548
  105SLPC  C21110527   3.181   0.120   4.840 -0.1942 -0.0622 -1.0218
  105SLPC  H11R10528   3.225   0.223   4.838  2.5932 -1.1171  0.3745
  105SLPC  H11S10529   3.071   0.127   4.851 -0.7576 -3.0876 -3.4462
  105SLPC  C21210530   3.226   0.048   4.711  0.1260 -0.1369  0.5437
  105SLPC  H12R10531   3.326   0.068   4.670 -0.0989  0.1003  0.1113
  105SLPC  C21310532   3.134  -0.009   4.629 -0.0517  0.0899 -0.6323
  105SLPC  H13R10533   3.169  -0.050   4.533 -0.9318  1.5511 -1.6093
  105SLPC  C21410534   2.983  -0.026   4.643  0.2201 -0.3867  0.8413
  105SLPC  H14R10535   2.943   0.053   4.710 -0.3913  1.1464 -1.2102
  105SLPC  H14S10536   2.959  -0.126   4.686 -0.6964  0.1985  1.7431
  105SLPC  C21510537   2.900  -0.012   4.515 -0.1702 -0.5445 -0.9401
  105SLPC  H15R10538   2.919   0.087   4.468  2.1781 -1.2766 -1.6781
  105SLPC  H15S10539   2.794  -0.015   4.549  0.0940  1.6226  0.2994
  105SLPC  C21610540   2.921  -0.114   4.410  0.7515 -0.4619  0.1161
  105SLPC  H16R10541   2.909  -0.211   4.463  1.7971  0.7452  2.7140
  105SLPC  H16S10542   3.028  -0.110   4.379  1.2901  0.2172  1.9433
  105SLPC  C21710543   2.822  -0.106   4.292 -0.7119 -0.0135  0.5696
  105SLPC  H17R10544   2.865  -0.028   4.226 -0.3001  0.6046  1.5371
  105SLPC  H17S10545   2.720  -0.071   4.317 -0.6093  0.5384  0.2297
  105SLPC  C21810546   2.819  -0.234   4.205  0.0206 -0.7748 -0.1585
  105SLPC  H18R10547   2.741  -0.225   4.126  1.2454 -0.6258 -1.3825
  105SLPC  H18S10548   2.799  -0.325   4.265  1.2934 -0.1948  1.1912
  105SLPC  H18T10549   2.903  -0.256   4.136 -1.8828  0.8380 -3.2422
  105SLPC   C3310550   2.925  -0.262   5.505  0.6565 -0.1869  0.0736
  105SLPC   H3X10551   2.888  -0.159   5.524 -2.5177 -1.4527  1.3732
  105SLPC   H3Y10552   2.848  -0.323   5.557  0.6596 -2.0406 -1.9525
  105SLPC   C3410553   2.907  -0.291   5.351  0.2398 -0.1217  0.2766
  105SLPC   H4X10554   2.800  -0.280   5.323  0.5179  0.1659 -0.7331
  105SLPC   H4Y10555   2.940  -0.395   5.327 -0.1965  0.0867 -1.3731
  105SLPC   C3510556   2.987  -0.190   5.260 -0.2560 -0.2145 -0.0862
  105SLPC   H5X10557   3.098  -0.199   5.259 -0.2203  0.1602  0.2811
  105SLPC   H5Y10558   2.967  -0.095   5.313  2.2484 -0.1969  0.9836
  105SLPC   C3610559   2.945  -0.195   5.104 -0.3165 -0.0966 -0.1396
  105SLPC   H6X10560   2.927  -0.299   5.070 -3.7321  0.1926  0.3971
  105SLPC   H6Y10561   3.029  -0.154   5.044  1.9279 -2.0708  1.4712
  105SLPC   C3710562   2.807  -0.131   5.079  0.4789 -0.7753 -0.4334
  105SLPC   H7X10563   2.817  -0.025   5.049 -4.2095 -0.3209 -1.0559
  105SLPC   H7Y10564   2.741  -0.137   5.168 -1.9747 -0.6818 -2.1376
  105SLPC   C3810565   2.734  -0.204   4.963  0.1656 -0.3492  0.3172
  105SLPC   H8X10566   2.721  -0.307   5.003  2.7240 -1.7665 -2.1802
  105SLPC   H8Y10567   2.800  -0.208   4.874 -0.1387  2.4909 -0.1395
  105SLPC   C3910568   2.596  -0.141   4.929  0.2773  0.7814 -0.7043
  105SLPC   H9X10569   2.578  -0.043   4.979  0.1080  0.8459 -0.8905
  105SLPC   H9Y10570   2.526  -0.208   4.983  0.1902  0.7612 -0.8394
  105SLPC  C31010571   2.548  -0.138   4.779 -0.2115  0.1948  0.0742
  105SLPC  H10X10572   2.622  -0.089   4.712  0.5373  1.0851  1.4960
  105SLPC  H10Y10573   2.449  -0.088   4.779 -0.1711  0.2821 -0.5066
  105SLPC  C31110574   2.533  -0.282   4.730  0.8544  0.6534 -0.7096
  105SLPC  H11X10575   2.469  -0.341   4.798  0.9203  1.0912 -0.2630
  105SLPC  H11Y10576   2.632  -0.331   4.738 -0.1918 -1.6093 -1.0323
  105SLPC  C31210577   2.477  -0.299   4.582  0.0345 -0.8625  0.5208
  105SLPC  H12X10578   2.555  -0.247   4.521  0.3213 -0.6682  1.0373
  105SLPC  H12Y10579   2.379  -0.247   4.573 -1.6290 -4.0567 -1.4981
  105SLPC  C31310580   2.460  -0.445   4.545 -0.3473  0.5659  0.4084
  105SLPC  H13X10581   2.358  -0.487   4.557  0.9009 -3.4905 -1.3966
  105SLPC  H13Y10582   2.527  -0.507   4.609 -0.4507  0.7389  0.6857
  105SLPC  C31410583   2.505  -0.474   4.397 -0.8533 -0.0304 -0.8465
  105SLPC  H14X10584   2.506  -0.584   4.380 -2.3896 -0.0502 -0.9353
  105SLPC  H14Y10585   2.602  -0.430   4.366 -0.6946 -0.6108 -1.1939
  105SLPC  C31510586   2.412  -0.404   4.293  0.0460  0.1129 -0.2756
  105SLPC  H15X10587   2.404  -0.294   4.301  0.9001  0.3352 -1.9696
  105SLPC  H15Y10588   2.311  -0.447   4.312 -0.2096  0.9746  0.4076
  105SLPC  C31610589   2.468  -0.433   4.154  0.8458 -0.6503  0.3748
  105SLPC  H16X10590   2.481  -0.543   4.154 -0.5117 -0.8247  0.4754
  105SLPC  H16Y10591   2.567  -0.384   4.140 -0.2617  1.7244  0.3043
  105SLPC  C31710592   2.368  -0.381   4.046  0.2665 -0.0952 -0.1247
  105SLPC  H17X10593   2.264  -0.411   4.068  0.3258  1.4185  2.8350
  105SLPC  H17Y10594   2.373  -0.270   4.053  2.1905  0.1749 -3.7095
  105SLPC  C31810595   2.402  -0.417   3.910  0.5420  0.0968  0.3409
  105SLPC  H18X10596   2.466  -0.508   3.912  2.3646  1.3500  1.2606
  105SLPC  H18Y10597   2.450  -0.340   3.847 -0.2653 -1.3250 -2.1724
  105SLPC  H18Z10598   2.311  -0.437   3.849 -0.0523 -1.2459  1.6064
  106SLPC     N10599   6.494   0.970   6.212 -0.5313  0.1229  0.1313
  106SLPC   C1310600   6.409   1.066   6.280 -0.3763 -0.0268  0.2653
  106SLPC  H13A10601   6.383   1.039   6.382 -0.0558  1.8324  0.8702
  106SLPC  H13B10602   6.451   1.164   6.294 -0.7970 -0.0601  2.1330
  106SLPC  H13C10603   6.313   1.075   6.231  0.9689  0.5431 -2.3971
  106SLPC   C1410604   6.636   0.987   6.254 -0.1062  0.6187 -0.4664
  106SLPC  H14A10605   6.647   0.980   6.362 -1.9091  2.3791 -0.1078
  106SLPC  H14B10606   6.692   0.915   6.197 -0.9857 -1.0230  0.6443
  106SLPC  H14C10607   6.675   1.084   6.226 -1.6083  0.7384 -2.3284
  106SLPC   C1510608   6.494   1.009   6.068  0.0418 -0.1382 -0.7506
  106SLPC  H15A10609   6.532   1.109   6.060 -0.9212  0.3436  0.4292
  106SLPC  H15B10610   6.553   0.934   6.017 -1.1158 -1.2448 -0.5305
  106SLPC  H15C10611   6.390   1.024   6.044 -0.4107  2.0134  1.9680
  106SLPC   C1210612   6.445   0.829   6.222  0.2948 -0.0186  0.1761
  106SLPC  H12A10613   6.337   0.824   6.212  0.0059  2.1903  1.5196
  106SLPC  H12B10614   6.460   0.796   6.323  0.5776  0.8789  0.4363
  106SLPC   C1110615   6.495   0.723   6.133 -0.2863  0.8343 -0.8654
  106SLPC  H11A10616   6.457   0.731   6.029 -1.8088 -0.2822 -0.4336
  106SLPC  H11B10617   6.463   0.620   6.161 -0.4992  1.7824  2.9042
  106SLPC     P10618   6.715   0.647   6.266 -0.1344 -0.3393 -0.2509
  106SLPC   O1310619   6.820   0.729   6.339 -0.1460 -0.5034  0.1572
  106SLPC   O1410620   6.619   0.586   6.361  0.1410  0.1210  0.3277
  106SLPC   O1210621   6.637   0.724   6.146  0.2008  0.5745  0.1031
  106SLPC   O1110622   6.779   0.536   6.183 -0.3050 -0.2487  0.0411
  106SLPC    C110623   6.714   0.457   6.077 -0.5672  0.3232 -0.0956
  106SLPC    HA10624   6.748   0.351   6.081 -1.7447 -0.1200 -1.1832
  106SLPC    HB10625   6.605   0.445   6.096 -0.4321 -1.7566 -0.4653
  106SLPC    C210626   6.727   0.520   5.948 -0.2982 -0.1221 -0.2049
  106SLPC    HS10627   6.650   0.598   5.931  2.7591  3.2393  0.2381
  106SLPC   O2110628   6.724   0.420   5.849 -0.1451  0.1423 -0.0264
  106SLPC   C2110629   6.604   0.388   5.807 -0.2616 -0.6319  0.7436
  106SLPC   O2210630   6.497   0.434   5.834  0.0290 -0.3262  0.0502
  106SLPC   C2210631   6.626   0.294   5.696  0.5103  0.4169  0.2339
  106SLPC   H2R10632   6.731   0.288   5.661  0.3629  1.8963 -0.5457
  106SLPC   H2S10633   6.611   0.192   5.738 -1.0862  0.7033  0.4182
  106SLPC    C310634   6.862   0.600   5.942 -0.2834  1.0593  0.1956
  106SLPC    HX10635   6.944   0.529   5.968 -1.1689  0.5806  1.8269
  106SLPC    HY10636   6.878   0.685   6.012 -0.4062  2.5985 -1.5723
  106SLPC   O3110637   6.873   0.657   5.808  0.2135 -0.2525 -0.3281
  106SLPC   C3110638   6.788   0.750   5.771  0.0398 -1.5024 -0.2266
  106SLPC   O3210639   6.712   0.809   5.848 -0.3193 -0.5502 -0.7319
  106SLPC   C3210640   6.789   0.776   5.619 -0.2418  0.2819  0.7861
  106SLPC   H2X10641   6.894   0.798   5.589 -0.5347  1.8932  0.8644
  106SLPC   H2Y10642   6.712   0.847   5.583  0.7467  0.7722 -0.4177
  106SLPC   C2310643   6.529   0.316   5.583 -0.9371 -0.7550  0.4978
  106SLPC   H3R10644   6.513   0.425   5.566 -0.7681 -0.9121 -0.7413
  106SLPC   H3S10645   6.431   0.273   5.613 -1.7103  0.5871 -0.0011
  106SLPC   C2410646   6.588   0.237   5.460 -0.4450  0.5365 -0.4524
  106SLPC   H4R10647   6.604   0.127   5.466 -0.6253  0.4316 -1.7218
  106SLPC   H4S10648   6.688   0.285   5.450  0.6232 -1.3008  0.5839
  106SLPC   C2510649   6.511   0.263   5.330  0.4370 -0.6108  1.0513
  106SLPC   H5R10650   6.498   0.372   5.315 -1.3273 -0.5077  2.8603
  106SLPC   H5S10651   6.404   0.236   5.346 -0.7262  2.0986 -1.2075
  106SLPC   C2610652   6.574   0.199   5.200  0.1629  0.2348  0.2698
  106SLPC   H6R10653   6.580   0.091   5.225 -1.4872 -0.1336 -0.6979
  106SLPC   H6S10654   6.671   0.250   5.183  0.3945 -0.2210  0.2160
  106SLPC   C2710655   6.472   0.204   5.070 -0.3379  0.7463  0.1314
  106SLPC   H7R10656   6.398   0.129   5.104  1.4463 -0.4362  1.6242
  106SLPC   H7S10657   6.534   0.164   4.987  0.7668  0.0372  1.2590
  106SLPC   C2810658   6.416   0.336   5.046 -0.0364 -0.3717 -0.5240
  106SLPC   H8R10659   6.380   0.377   5.143 -0.4805 -1.4363 -0.2208
  106SLPC   H8S10660   6.329   0.323   4.979 -0.2670  0.1168 -0.3206
  106SLPC   C2910661   6.524   0.430   4.995 -0.6044  1.0947  1.1465
  106SLPC   H9R10662   6.608   0.456   5.060  1.4217  0.2814 -1.0035
  106SLPC  C21010663   6.525   0.478   4.866 -0.1887  0.0087 -0.3521
  106SLPC  H10R10664   6.616   0.531   4.835  0.7535  0.7877  3.2890
  106SLPC  C21110665   6.426   0.459   4.758  0.3617  0.1037  0.7444
  106SLPC  H11R10666   6.385   0.553   4.715 -0.0097  0.3292  1.5812
  106SLPC  H11S10667   6.340   0.418   4.814  1.8140 -2.3336  1.3519
  106SLPC  C21210668   6.488   0.356   4.654  0.5887  0.0951  0.1657
  106SLPC  H12R10669   6.583   0.312   4.686  0.8830  0.5277 -0.1082
  106SLPC  C21310670   6.436   0.327   4.534 -0.5386 -0.3405  0.4278
  106SLPC  H13R10671   6.476   0.240   4.480  1.3120  1.7593 -1.7549
  106SLPC  C21410672   6.305   0.387   4.489 -0.6625 -0.0800 -0.1195
  106SLPC  H14R10673   6.253   0.439   4.573  2.7530  1.5621  1.1602
  106SLPC  H14S10674   6.241   0.299   4.468 -0.8789 -0.0898  0.5612
  106SLPC  C21510675   6.309   0.475   4.361 -0.1114  0.3020 -0.2104
  106SLPC  H15R10676   6.380   0.429   4.288  1.8310  0.2890  1.5944
  106SLPC  H15S10677   6.336   0.578   4.390  0.6009  0.5977 -1.7914
  106SLPC  C21610678   6.173   0.483   4.297  0.0783  0.0889  0.3281
  106SLPC  H16R10679   6.093   0.509   4.370 -0.2046  5.6905 -1.4818
  106SLPC  H16S10680   6.145   0.379   4.268  0.5923 -0.9283  3.1709
  106SLPC  C21710681   6.152   0.583   4.178  0.3081 -0.1181  0.0930
  106SLPC  H17R10682   6.232   0.556   4.105  1.1161  1.3040  0.4281
  106SLPC  H17S10683   6.174   0.682   4.223  0.3650 -0.3535  0.5874
  106SLPC  C21810684   6.014   0.570   4.120 -0.0120  0.0577 -0.1217
  106SLPC  H18R10685   5.942   0.574   4.203  0.4003  2.6080  0.2156
  106SLPC  H18S10686   6.017   0.471   4.070 -0.1496 -0.5562  1.0642
  106SLPC  H18T10687   6.005   0.648   4.040 -0.9827  1.4334  1.2692
  106SLPC   C3310688   6.761   0.644   5.539  0.0399 -0.1525 -0.4355
  106SLPC   H3X10689   6.652   0.620   5.542  0.0737 -0.9059  4.4867
  106SLPC   H3Y10690   6.797   0.559   5.602  0.4807  0.9473  0.8493
  106SLPC   C3410691   6.829   0.635   5.405 -0.2985 -0.3244 -0.4596
  106SLPC   H4X10692   6.812   0.538   5.354 -1.2616 -1.0234  1.1086
  106SLPC   H4Y10693   6.939   0.648   5.418 -0.2247 -0.8093 -0.5927
  106SLPC   C3510694   6.777   0.744   5.306  0.8933  0.5644 -0.3172
  106SLPC   H5X10695   6.814   0.842   5.342  1.4523  0.3972 -0.4162
  106SLPC   H5Y10696   6.666   0.742   5.298  0.8804 -0.8456 -0.0984
  106SLPC   C3610697   6.834   0.725   5.166  0.9594  0.1404  0.2108
  106SLPC   H6X10698   6.824   0.619   5.135 -2.3205  0.0781  1.0354
  106SLPC   H6Y10699   6.943   0.745   5.172  0.8278  0.5354  2.8347
  106SLPC   C3710700   6.757   0.792   5.055  0.5155 -0.3563  0.8497
  106SLPC   H7X10701   6.749   0.901   5.076  1.4158 -0.4217  1.5686
  106SLPC   H7Y10702   6.651   0.767   5.078  0.0317  0.4315 -0.4299
  106SLPC   C3810703   6.804   0.767   4.906 -0.0934  0.2874  0.0497
  106SLPC   H8X10704   6.806   0.658   4.887  2.2164 -0.1176  2.1085
  106SLPC   H8Y10705   6.909   0.800   4.889  0.3114 -1.7966 -1.9425
  106SLPC   C3910706   6.719   0.846   4.811 -0.3906  0.5997 -0.1155
  106SLPC   H9X10707   6.721   0.955   4.831  1.8099  0.9589 -1.9095
  106SLPC   H9Y10708   6.612   0.815   4.815 -0.0879 -0.4872  0.0062
  106SLPC  C31010709   6.750   0.839   4.657  0.3305 -0.3792 -0.2742
  106SLPC  H10X10710   6.733   0.741   4.608  0.7017 -0.5265 -0.1051
  106SLPC  H10Y10711   6.856   0.869   4.641 -0.0442  1.3086  0.1653
  106SLPC  C31110712   6.672   0.948   4.573 -0.1639  0.1328 -0.0864
  106SLPC  H11X10713   6.671   1.053   4.608  0.5694  0.8337 -2.0153
  106SLPC  H11Y10714   6.567   0.912   4.573 -0.0484 -0.2050  0.0784
  106SLPC  C31210715   6.738   0.941   4.434  1.1714  0.6203 -0.0569
  106SLPC  H12X10716   6.707   0.844   4.390 -1.2850  0.2582  2.2482
  106SLPC  H12Y10717   6.847   0.959   4.447  1.4148 -0.9704  0.3247
  106SLPC  C31310718   6.660   1.049   4.351  0.2619 -0.5309 -0.2300
  106SLPC  H13X10719   6.671   1.141   4.413 -1.0880 -1.2150  1.0705
  106SLPC  H13Y10720   6.554   1.016   4.346 -0.0980  0.5733 -0.1701
  106SLPC  C31410721   6.720   1.086   4.220  0.1937 -0.7584  0.3288
  106SLPC  H14X10722   6.827   1.114   4.232  0.3769 -1.0630 -0.4697
  106SLPC  H14Y10723   6.675   1.176   4.172  1.0865  0.0909  1.0443
  106SLPC  C31510724   6.714   0.961   4.117 -0.2079 -0.1147  0.1019
  106SLPC  H15X10725   6.612   0.945   4.076  0.1267 -0.1575 -0.7249
  106SLPC  H15Y10726   6.745   0.863   4.158 -1.7569  0.0327  1.8038
  106SLPC  C31610727   6.813   0.983   4.003  0.0687 -0.1191  0.7233
  106SLPC  H16X10728   6.854   0.886   3.970  1.5911  0.8807 -0.4570
  106SLPC  H16Y10729   6.896   1.055   4.019  1.7695 -1.6612 -0.8263
  106SLPC  C31710730   6.746   1.040   3.878  0.6821  0.9769 -0.1554
  106SLPC  H17X10731   6.716   1.145   3.896  0.3870  1.0554 -1.0505
  106SLPC  H17Y10732   6.646   0.992   3.883  1.6472 -1.0731  0.6073
  106SLPC  C31810733   6.824   1.006   3.751  0.2872  0.2403  0.3627
  106SLPC  H18X10734   6.913   1.073   3.745  0.6536 -0.2310  0.4528
  106SLPC  H18Y10735   6.767   1.028   3.658  0.1014 -0.5137  0.2936
  106SLPC  H18Z10736   6.870   0.905   3.752 -0.6557 -0.2048 -0.0193
  107SLPC     N10737   4.904   3.804   1.859 -0.5560  0.1979  0.1165
  107SLPC   C1310738   5.038   3.813   1.794 -0.3597 -0.6376 -0.3634
  107SLPC  H13A10739   5.050   3.915   1.762 -2.7768  0.2720  1.3134
  107SLPC  H13B10740   5.116   3.799   1.867 -2.2601 -1.8006  1.5763
  107SLPC  H13C10741   5.052   3.740   1.717  1.2815 -1.2364  0.4484
  107SLPC   C1410742   4.801   3.865   1.767 -0.4276  0.1292 -0.9447
  107SLPC  H14A10743   4.799   3.809   1.675  1.0291  0.4854 -1.2241
  107SLPC  H14B10744   4.700   3.871   1.805 -0.1115 -1.0600  0.1704
  107SLPC  H14C10745   4.840   3.963   1.743 -0.5282  0.4939  0.3165
  107SLPC   C1510746   4.906   3.888   1.987  0.0391  0.3350 -0.5366
  107SLPC  H15A10747   4.949   3.987   1.976  0.3859  0.9796  4.2797
  107SLPC  H15B10748   4.809   3.908   2.029  1.5851  1.2357  2.9711
  107SLPC  H15C10749   4.961   3.848   2.071 -0.2023 -0.6797 -0.8568
  107SLPC   C1210750   4.874   3.656   1.895  0.1081 -0.3026 -0.6006
  107SLPC  H12A10751   4.929   3.626   1.984 -0.2485 -1.9182 -0.9051
  107SLPC  H12B10752   4.908   3.583   1.824  0.2215 -0.1423 -0.7116
  107SLPC   C1110753   4.729   3.616   1.937 -0.5172  0.0883 -0.4029
  107SLPC  H11A10754   4.722   3.505   1.931  3.1880 -0.2398 -1.0752
  107SLPC  H11B10755   4.663   3.642   1.852  0.3543  0.1651 -1.0740
  107SLPC     P10756   4.564   3.748   2.099 -0.4926 -0.0675  0.3612
  107SLPC   O1310757   4.581   3.889   2.054 -0.4565  0.1090  0.2787
  107SLPC   O1410758   4.442   3.679   2.052 -0.2633  0.4700 -0.2523
  107SLPC   O1210759   4.687   3.659   2.067 -0.3637  0.1989  0.1737
  107SLPC   O1110760   4.567   3.748   2.258  0.0349  0.1985 -0.0778
  107SLPC    C110761   4.610   3.865   2.319  0.1434 -0.1559  0.0353
  107SLPC    HA10762   4.712   3.894   2.286  0.5658 -1.4768  0.1286
  107SLPC    HB10763   4.536   3.948   2.326  0.1578 -0.2999  2.9076
  107SLPC    C210764   4.627   3.823   2.466 -0.9739  0.1811  0.2525
  107SLPC    HS10765   4.620   3.915   2.529 -2.1624 -0.0038  0.4224
  107SLPC   O2110766   4.749   3.751   2.491 -0.5714 -0.2941 -0.0903
  107SLPC   C2110767   4.856   3.824   2.519  0.3486 -0.0798  0.1745
  107SLPC   O2210768   4.857   3.947   2.511 -0.3748  0.2871 -0.3883
  107SLPC   C2210769   4.968   3.741   2.582 -0.2776  0.1256  0.6342
  107SLPC   H2R10770   4.925   3.639   2.578 -3.3863  1.1875  2.9242
  107SLPC   H2S10771   5.052   3.736   2.510 -3.4050  2.4939 -3.5937
  107SLPC    C310772   4.510   3.732   2.511 -0.3531 -0.2235 -0.3354
  107SLPC    HX10773   4.503   3.638   2.452 -1.5798 -0.5417  0.2935
  107SLPC    HY10774   4.418   3.789   2.486 -0.5250  0.9813  2.6010
  107SLPC   O3110775   4.509   3.695   2.648  0.1836  0.3073 -0.2931
  107SLPC   C3110776   4.477   3.796   2.733  0.0896  0.7759 -0.2061
  107SLPC   O3210777   4.420   3.900   2.707 -0.5038 -0.1176  0.1683
  107SLPC   C3210778   4.515   3.764   2.881 -0.4396  0.4064  0.3781
  107SLPC   H2X10779   4.622   3.776   2.908 -0.3259 -2.9561  2.0340
  107SLPC   H2Y10780   4.495   3.655   2.894 -0.0609  0.3889  0.8525
  107SLPC   C2310781   5.022   3.793   2.719  0.8184 -0.2951 -0.7353
  107SLPC   H3R10782   5.077   3.889   2.718 -0.4121  0.4364 -1.3370
  107SLPC   H3S10783   5.098   3.718   2.749 -0.4463 -0.7513  1.5683
  107SLPC   C2410784   4.925   3.777   2.830 -0.0058  0.0852 -0.0574
  107SLPC   H4R10785   4.894   3.671   2.831  1.5280 -0.3855 -0.1365
  107SLPC   H4S10786   4.828   3.830   2.814  0.3397  0.6198 -0.4201
  107SLPC   C2510787   4.981   3.812   2.970 -0.2678  0.2464  0.1563
  107SLPC   H5R10788   5.044   3.903   2.955 -1.9286  1.7702  1.9819
  107SLPC   H5S10789   5.048   3.732   3.009  1.4531  1.1599 -0.7860
  107SLPC   C2610790   4.867   3.834   3.075  0.5335 -1.2778  1.0519
  107SLPC   H6R10791   4.795   3.750   3.070 -1.1531  0.0925  1.3354
  107SLPC   H6S10792   4.800   3.909   3.029 -0.0238 -3.4550 -2.0039
  107SLPC   C2710793   4.904   3.873   3.217  0.1233 -0.0457 -0.1817
  107SLPC   H7R10794   4.993   3.939   3.221 -0.9909  1.4439  1.0705
  107SLPC   H7S10795   4.931   3.779   3.270 -3.1460  0.2441  2.2985
  107SLPC   C2810796   4.789   3.953   3.286 -0.2509 -0.3205  0.3127
  107SLPC   H8R10797   4.714   3.876   3.315 -0.0465 -0.9592 -0.8054
  107SLPC   H8S10798   4.735   4.016   3.212 -0.4372  0.5769  1.1923
  107SLPC   C2910799   4.824   4.044   3.405 -0.6688 -0.3892 -0.1914
  107SLPC   H9R10800   4.858   3.981   3.489  1.0769  0.5435 -0.1580
  107SLPC  C21010801   4.802   4.174   3.430  0.2229 -0.4678  0.3673
  107SLPC  H10R10802   4.847   4.212   3.523  0.8931 -0.2121 -0.0519
  107SLPC  C21110803   4.731   4.264   3.339 -0.0664 -0.0901 -0.4126
  107SLPC  H11R10804   4.775   4.241   3.240 -1.0501  1.4973 -1.2585
  107SLPC  H11S10805   4.756   4.366   3.374  0.1934 -0.0398 -0.7441
  107SLPC  C21210806   4.579   4.264   3.331  0.2560 -0.0801  0.1839
  107SLPC  H12R10807   4.523   4.228   3.418 -1.6511 -0.9610 -1.3359
  107SLPC  C21310808   4.508   4.291   3.223  0.2170 -0.6294  0.4720
  107SLPC  H13R10809   4.399   4.277   3.217  0.2291 -0.3064 -1.0253
  107SLPC  C21410810   4.563   4.332   3.094 -0.2324  0.5891 -0.2376
  107SLPC  H14R10811   4.670   4.360   3.096  1.1028 -3.8148 -0.4236
  107SLPC  H14S10812   4.512   4.423   3.055 -0.7334  0.7781  0.8484
  107SLPC  C21510813   4.556   4.213   2.998 -0.3033  0.2955  0.4157
  107SLPC  H15R10814   4.450   4.181   2.994 -0.1616 -0.1358  0.0374
  107SLPC  H15S10815   4.611   4.125   3.039  0.3319 -0.4433 -1.8923
  107SLPC  C21610816   4.616   4.256   2.864  0.1596  0.4351 -1.0588
  107SLPC  H16R10817   4.648   4.362   2.867  1.2588  0.1127  1.6594
  107SLPC  H16S10818   4.541   4.251   2.782 -0.5932 -0.9936 -0.3261
  107SLPC  C21710819   4.747   4.179   2.817 -0.9635 -0.3461 -0.3992
  107SLPC  H17R10820   4.775   4.216   2.716  2.1885  1.5651  1.0192
  107SLPC  H17S10821   4.716   4.073   2.815  0.5762 -0.8034 -1.1041
  107SLPC  C21810822   4.871   4.184   2.912  0.6489  0.2142  0.5546
  107SLPC  H18R10823   4.941   4.103   2.880 -0.6468 -0.2955 -1.1405
  107SLPC  H18S10824   4.839   4.149   3.012  2.1972 -4.8339 -0.3940
  107SLPC  H18T10825   4.914   4.286   2.904 -0.6627  0.7277 -0.1078
  107SLPC   C3310826   4.437   3.846   2.983 -0.1534 -0.4995 -0.4253
  107SLPC   H3X10827   4.328   3.826   2.983 -0.2768 -0.0082  1.3416
  107SLPC   H3Y10828   4.462   3.953   2.970 -0.4588 -0.3041  0.5190
  107SLPC   C3410829   4.480   3.805   3.120 -0.0764 -0.4971 -0.2798
  107SLPC   H4X10830   4.590   3.821   3.120 -0.3175  1.5994  0.9488
  107SLPC   H4Y10831   4.454   3.701   3.148  1.5560 -0.0835  3.4279
  107SLPC   C3510832   4.411   3.901   3.223 -0.1391  0.4772 -0.1410
  107SLPC   H5X10833   4.301   3.893   3.206 -0.1165  1.1746 -0.6543
  107SLPC   H5Y10834   4.459   4.001   3.218 -1.3512  1.0399 -1.6728
  107SLPC   C3610835   4.428   3.834   3.356  0.1663  0.6638 -0.9490
  107SLPC   H6X10836   4.537   3.834   3.374 -0.2974 -1.2415  3.1321
  107SLPC   H6Y10837   4.395   3.728   3.360  0.5371  0.5625 -0.5435
  107SLPC   C3710838   4.351   3.915   3.466  0.5770  0.5251  0.3149
  107SLPC   H7X10839   4.242   3.905   3.446  0.7500 -0.0826 -0.3474
  107SLPC   H7Y10840   4.378   4.023   3.460  0.4421  0.6279  1.2921
  107SLPC   C3810841   4.373   3.860   3.610 -0.7066  0.1009 -0.0997
  107SLPC   H8X10842   4.344   3.753   3.615  1.5538 -0.5310  0.8893
  107SLPC   H8Y10843   4.315   3.922   3.682 -2.4908  0.5583 -1.8423
  107SLPC   C3910844   4.515   3.873   3.656 -0.6580  0.6183 -0.9808
  107SLPC   H9X10845   4.519   3.981   3.681 -2.5566  1.1830 -2.8370
  107SLPC   H9Y10846   4.593   3.852   3.580  1.4972  3.2557  0.3379
  107SLPC  C31010847   4.545   3.777   3.769 -0.1064  0.2404  0.7810
  107SLPC  H10X10848   4.532   3.671   3.739  0.5706  0.6071 -0.9299
  107SLPC  H10Y10849   4.482   3.787   3.860 -1.5005 -0.3834 -0.0857
  107SLPC  C31110850   4.691   3.790   3.813  0.0201 -0.2713 -0.7731
  107SLPC  H11X10851   4.765   3.791   3.730  3.4101  0.0283  1.9810
  107SLPC  H11Y10852   4.729   3.709   3.880 -0.3967  0.4039  0.3046
  107SLPC  C31210853   4.704   3.919   3.902 -0.6898  0.4213  0.5155
  107SLPC  H12X10854   4.638   3.898   3.989 -1.3118 -1.3566 -0.3300
  107SLPC  H12Y10855   4.655   4.007   3.854  0.0664 -0.1210 -1.3584
  107SLPC  C31310856   4.848   3.966   3.932 -0.1580 -0.3948 -0.0006
  107SLPC  H13X10857   4.918   3.886   3.965 -0.9475 -0.8652  0.5576
  107SLPC  H13Y10858   4.851   4.042   4.013 -0.6007  0.7430 -1.0216
  107SLPC  C31410859   4.910   4.035   3.806 -0.2035  0.4545  0.2729
  107SLPC  H14X10860   4.829   4.088   3.751 -1.2467  0.2082  1.5075
  107SLPC  H14Y10861   4.938   3.947   3.745  1.5265  1.1141  0.0577
  107SLPC  C31510862   5.041   4.115   3.823  0.4889  1.0032  0.2590
  107SLPC  H15X10863   5.024   4.196   3.897  2.0912  3.5708 -1.9907
  107SLPC  H15Y10864   5.069   4.164   3.728 -1.6317  3.0628  0.6038
  107SLPC  C31610865   5.161   4.022   3.864 -0.3055 -0.3706  0.2126
  107SLPC  H16X10866   5.191   3.959   3.777  1.6839  0.5374  0.1903
  107SLPC  H16Y10867   5.118   3.965   3.949  0.8036 -1.1793  0.2617
  107SLPC  C31710868   5.278   4.102   3.919  0.2661  0.6299 -0.8951
  107SLPC  H17X10869   5.228   4.173   3.987  0.4209  0.2319 -0.3563
  107SLPC  H17Y10870   5.319   4.160   3.834 -1.1217  0.3101 -1.8179
  107SLPC  C31810871   5.389   4.022   3.992 -0.6473  0.5751 -0.1813
  107SLPC  H18X10872   5.455   4.082   4.058  1.7276 -1.3977 -0.6241
  107SLPC  H18Y10873   5.444   3.963   3.916  0.5481 -0.2118  1.2178
  107SLPC  H18Z10874   5.341   3.947   4.059 -2.4659  2.5674  0.8669
  108SLPC     N10875   4.147   5.059   2.144 -0.5414  0.9202  0.0699
  108SLPC   C1310876   4.271   5.147   2.163  0.1222  0.1113 -0.4319
  108SLPC  H13A10877   4.261   5.232   2.097  0.4443 -0.1934 -0.8751
  108SLPC  H13B10878   4.279   5.181   2.265  0.2901 -1.5488  0.1310
  108SLPC  H13C10879   4.358   5.089   2.138 -0.9382 -2.5232  1.5400
  108SLPC   C1410880   4.144   4.944   2.243 -0.2209  0.5569 -0.0047
  108SLPC  H14A10881   4.241   4.896   2.238 -0.5280 -0.0917  0.0880
  108SLPC  H14B10882   4.124   4.975   2.344  1.8586 -0.1679  0.6904
  108SLPC  H14C10883   4.082   4.863   2.207  1.5977 -0.7474 -0.3515
  108SLPC   C1510884   4.153   5.006   2.002  0.6055  0.6095  0.5311
  108SLPC  H15A10885   4.243   4.947   1.995 -0.3378 -0.9480  1.1074
  108SLPC  H15B10886   4.070   4.942   1.975  2.0160 -0.5613 -1.3188
  108SLPC  H15C10887   4.170   5.096   1.945  1.9674  0.4280  0.6110
  108SLPC   C1210888   4.026   5.143   2.152 -0.0245  0.4999 -0.0160
  108SLPC  H12A10889   3.937   5.102   2.107  0.0758  0.8518 -0.5436
  108SLPC  H12B10890   4.044   5.235   2.098 -3.1587  1.1586 -0.1258
  108SLPC   C1110891   3.972   5.177   2.290 -0.5071 -0.5186 -0.7050
  108SLPC  H11A10892   3.910   5.268   2.293  1.9521  1.2297  0.4520
  108SLPC  H11B10893   4.054   5.192   2.363  0.2660 -2.4545 -1.1040
  108SLPC     P10894   3.736   5.057   2.294 -0.5335  0.3111 -0.1280
  108SLPC   O1310895   3.724   5.092   2.149 -1.0011  0.0993 -0.2280
  108SLPC   O1410896   3.685   4.926   2.333 -0.0111  0.2067  0.2232
  108SLPC   O1210897   3.885   5.076   2.344 -0.1514 -0.0757  0.3746
  108SLPC   O1110898   3.655   5.172   2.372 -0.8668  0.8986 -0.4828
  108SLPC    C110899   3.695   5.202   2.507  0.3377  0.1750 -0.0133
  108SLPC    HA10900   3.700   5.104   2.559  0.2605 -0.3809 -1.0287
  108SLPC    HB10901   3.797   5.247   2.506  0.0551  0.8354 -0.9390
  108SLPC    C210902   3.591   5.285   2.590 -0.6584 -0.2583 -0.1634
  108SLPC    HS10903   3.602   5.390   2.555  0.7742 -0.2333  0.3014
  108SLPC   O2110904   3.613   5.273   2.732  0.2695  0.4003 -0.1779
  108SLPC   C2110905   3.579   5.377   2.810 -0.0715  0.1600 -0.3986
  108SLPC   O2210906   3.557   5.490   2.770  0.1205  0.3963 -0.6913
  108SLPC   C2210907   3.565   5.328   2.959 -0.3493  0.4874  0.0396
  108SLPC   H2R10908   3.468   5.279   2.982  0.3823 -0.7944  0.4853
  108SLPC   H2S10909   3.640   5.249   2.976 -2.1601 -0.8718  2.4609
  108SLPC    C310910   3.447   5.248   2.562  0.4397 -0.3810 -0.4490
  108SLPC    HX10911   3.448   5.137   2.571 -3.1894 -0.5535 -0.4893
  108SLPC    HY10912   3.415   5.281   2.461  0.5894  2.8033  0.4312
  108SLPC   O3110913   3.354   5.290   2.667 -0.2932  0.3554 -0.8433
  108SLPC   C3110914   3.280   5.398   2.633 -0.1168  0.5818 -0.3437
  108SLPC   O3210915   3.287   5.446   2.519  0.6053 -0.5286  0.4672
  108SLPC   C3210916   3.182   5.434   2.747  0.1720 -0.0214  0.6729
  108SLPC   H2X10917   3.238   5.487   2.828 -1.2496  3.2498 -0.2979
  108SLPC   H2Y10918   3.155   5.338   2.797  1.2041 -1.9866 -2.3028
  108SLPC   C2310919   3.587   5.451   3.043  0.0648 -0.4535 -0.8728
  108SLPC   H3R10920   3.506   5.523   3.024  0.5844  0.4618  0.2209
  108SLPC   H3S10921   3.679   5.505   3.011 -0.5753  0.3316 -1.4014
  108SLPC   C2410922   3.605   5.410   3.183 -0.1796  0.1229 -0.5011
  108SLPC   H4R10923   3.665   5.317   3.186 -0.6833 -0.1884 -0.0203
  108SLPC   H4S10924   3.513   5.370   3.230  0.6826  1.0681  2.1815
  108SLPC   C2510925   3.667   5.519   3.268 -0.8495 -0.2151  0.3747
  108SLPC   H5R10926   3.644   5.494   3.374  0.5279 -1.7591  0.3421
  108SLPC   H5S10927   3.612   5.614   3.250 -0.3879 -0.0522 -0.2436
  108SLPC   C2610928   3.818   5.548   3.261 -0.7382  0.3899 -0.3705
  108SLPC   H6R10929   3.853   5.586   3.163  1.0395 -0.9253 -0.2901
  108SLPC   H6S10930   3.857   5.444   3.269 -2.2219 -0.2005 -0.3739
  108SLPC   C2710931   3.870   5.629   3.387  0.4678 -0.4960  0.3147
  108SLPC   H7R10932   3.981   5.617   3.391  0.8078  2.0857  0.0546
  108SLPC   H7S10933   3.818   5.579   3.472 -1.6334 -0.0850 -0.6852
  108SLPC   C2810934   3.838   5.777   3.369  0.2233 -0.2027 -0.1247
  108SLPC   H8R10935   3.808   5.812   3.470 -0.7198 -1.0956 -0.0785
  108SLPC   H8S10936   3.756   5.793   3.296  0.5933  1.6891 -0.1755
  108SLPC   C2910937   3.959   5.861   3.322 -0.3941 -0.1926  0.0607
  108SLPC   H9R10938   3.982   5.851   3.215  0.3278 -0.3870  0.2323
  108SLPC  C21010939   4.043   5.940   3.392 -0.3506  0.7109 -0.4572
  108SLPC  H10R10940   4.125   5.988   3.337  1.7712 -1.6003  0.4998
  108SLPC  C21110941   4.047   5.961   3.539  0.6984 -0.3723 -0.3930
  108SLPC  H11R10942   3.969   5.896   3.585  1.1210 -0.4588  0.2213
  108SLPC  H11S10943   4.021   6.066   3.567  1.3156 -0.0211 -1.1020
  108SLPC  C21210944   4.164   5.914   3.622 -0.4320 -0.4112  0.6651
  108SLPC  H12R10945   4.233   5.849   3.567  0.4279 -0.6437  1.9666
  108SLPC  C21310946   4.195   5.938   3.757 -0.1517 -1.3826  0.8171
  108SLPC  H13R10947   4.290   5.909   3.805  0.8883  0.9474  0.2928
  108SLPC  C21410948   4.110   6.018   3.841 -0.4424 -0.3562 -0.1887
  108SLPC  H14R10949   4.045   6.085   3.781  1.7622  1.4012 -0.7329
  108SLPC  H14S10950   4.168   6.086   3.906 -0.4238  0.2511 -0.8399
  108SLPC  C21510951   4.003   5.955   3.935  0.0042 -0.4489 -0.0481
  108SLPC  H15R10952   3.910   5.922   3.883  0.2775 -1.3149  0.0013
  108SLPC  H15S10953   3.968   6.033   4.006  2.3975  0.4980  0.1851
  108SLPC  C21610954   4.043   5.850   4.043 -1.1549 -0.2154 -0.0814
  108SLPC  H16R10955   4.053   5.749   3.997  0.9709 -0.8448  1.5578
  108SLPC  H16S10956   3.971   5.846   4.128  0.6267  1.3569  1.6144
  108SLPC  C21710957   4.173   5.861   4.118  0.0167  0.0250  0.3563
  108SLPC  H17R10958   4.179   5.960   4.170  0.1645 -0.6428  1.6474
  108SLPC  H17S10959   4.259   5.858   4.047 -1.1416  0.6219 -1.1208
  108SLPC  C21810960   4.199   5.767   4.242  0.8617 -0.0023 -0.0964
  108SLPC  H18R10961   4.219   5.663   4.207 -2.4402 -0.7658 -0.0274
  108SLPC  H18S10962   4.103   5.760   4.297 -0.4493 -0.7551 -2.3232
  108SLPC  H18T10963   4.288   5.798   4.301  2.2007 -0.3359 -1.8341
  108SLPC   C3310964   3.053   5.498   2.696  0.1937 -0.1262 -0.3262
  108SLPC   H3X10965   3.003   5.436   2.618  0.5339 -0.3909 -0.3358
  108SLPC   H3Y10966   3.087   5.591   2.646 -0.6951  1.1675  1.3915
  108SLPC   C3410967   2.958   5.540   2.809 -0.7981 -0.1615 -0.2698
  108SLPC   H4X10968   2.883   5.606   2.760  0.8575  1.9531 -0.1217
  108SLPC   H4Y10969   2.993   5.627   2.870 -2.2206 -0.0967  0.4951
  108SLPC   C3510970   2.886   5.428   2.886 -0.1730  0.5018  0.0675
  108SLPC   H5X10971   2.891   5.332   2.830 -2.9953 -0.5764  1.4149
  108SLPC   H5Y10972   2.780   5.455   2.908  0.0001  0.1503  1.4144
  108SLPC   C3610973   2.950   5.413   3.028 -0.6596 -0.4503 -0.5207
  108SLPC   H6X10974   2.953   5.511   3.080  0.3402 -1.1703  0.8324
  108SLPC   H6Y10975   3.049   5.366   3.011 -1.3744 -1.9916 -0.6138
  108SLPC   C3710976   2.887   5.306   3.114 -0.0191 -0.6931  0.9068
  108SLPC   H7X10977   2.886   5.210   3.058 -0.4483 -1.2142  1.7877
  108SLPC   H7Y10978   2.780   5.327   3.138  0.2494  0.3201  1.2776
  108SLPC   C3810979   2.973   5.284   3.242 -0.3416 -0.1085  0.3064
  108SLPC   H8X10980   2.893   5.251   3.313 -1.0281  0.3510 -0.2373
  108SLPC   H8Y10981   3.015   5.382   3.274  0.9031 -1.0399  1.6239
  108SLPC   C3910982   3.079   5.171   3.218  0.2354  0.2374 -0.1548
  108SLPC   H9X10983   3.137   5.190   3.125  1.4552 -1.4993  0.1996
  108SLPC   H9Y10984   3.022   5.077   3.203  1.6043 -0.9314  1.5166
  108SLPC  C31010985   3.180   5.156   3.337  0.0640 -0.3487  0.4058
  108SLPC  H10X10986   3.137   5.107   3.427 -1.4529 -0.8210 -0.5309
  108SLPC  H10Y10987   3.209   5.256   3.376 -0.4973  0.6629 -1.6494
  108SLPC  C31110988   3.309   5.087   3.302 -0.5401 -0.4095 -0.2354
  108SLPC  H11X10989   3.356   5.141   3.217 -3.1618 -1.2204 -2.3472
  108SLPC  H11Y10990   3.283   4.986   3.265 -2.5194  0.4230 -1.2722
  108SLPC  C31210991   3.415   5.074   3.418 -0.2648  0.2317  0.7392
  108SLPC  H12X10992   3.511   5.026   3.388 -0.9521 -0.7492  0.0481
  108SLPC  H12Y10993   3.378   4.998   3.490  1.8398 -0.3165  1.3250
  108SLPC  C31310994   3.462   5.203   3.493  0.0901  0.4611  0.0498
  108SLPC  H13X10995   3.377   5.273   3.508  0.5042  0.6712  1.6539
  108SLPC  H13Y10996   3.524   5.255   3.417 -0.2440  0.2893 -0.3441
  108SLPC  C31410997   3.538   5.184   3.616  0.0331  0.2380  0.3784
  108SLPC  H14X10998   3.557   5.284   3.659  1.0507 -1.3742  4.0369
  108SLPC  H14Y10999   3.636   5.134   3.600  0.1385 -0.3093  2.5084
  108SLPC  C31511000   3.466   5.099   3.721  0.2018  0.0015 -0.1443
  108SLPC  H15X11001   3.445   4.998   3.680  1.3886 -0.0387 -0.7016
  108SLPC  H15Y11002   3.368   5.146   3.742  0.7789  1.4870 -0.6066
  108SLPC  C31611003   3.537   5.073   3.847  0.7036  0.1797 -0.5185
  108SLPC  H16X11004   3.628   5.015   3.821 -0.5748 -1.5614 -1.2356
  108SLPC  H16Y11005   3.473   5.016   3.918 -3.0292  3.8111 -0.6028
  108SLPC  C31711006   3.568   5.197   3.927 -0.7472 -0.2386  0.0580
  108SLPC  H17X11007   3.474   5.250   3.954 -1.4264 -0.4541 -1.7645
  108SLPC  H17Y11008   3.630   5.267   3.866  0.3817 -0.2924  1.0976
  108SLPC  C31811009   3.646   5.171   4.065  0.2519 -0.5329 -0.1304
  108SLPC  H18X11010   3.584   5.121   4.142  1.6069  0.2501  1.5440
  108SLPC  H18Y11011   3.661   5.271   4.110 -1.7101 -1.9638  4.2512
  108SLPC  H18Z11012   3.742   5.115   4.054  1.3365  1.0662  0.8767
  109SLPC     N11013   2.219   5.227   1.907 -0.2788  0.1774  0.3667
  109SLPC   C1311014   2.072   5.206   1.873  0.0609  0.3469 -0.1454
  109SLPC  H13A11015   2.068   5.123   1.805 -0.0276 -1.5596  2.0477
  109SLPC  H13B11016   2.025   5.172   1.964  1.4595 -0.5849  0.2755
  109SLPC  H13C11017   2.019   5.289   1.830 -0.0513  0.0680 -0.5459
  109SLPC   C1411018   2.294   5.290   1.785  0.5703 -0.0858 -0.4207
  109SLPC  H14A11019   2.397   5.313   1.806  0.2060  0.7437  0.5096
  109SLPC  H14B11020   2.305   5.220   1.703  1.9542  0.7744 -0.9956
  109SLPC  H14C11021   2.254   5.385   1.753 -0.4143 -0.2441  0.3211
  109SLPC   C1511022   2.285   5.105   1.952  0.0378  0.9083 -0.4053
  109SLPC  H15A11023   2.387   5.125   1.979  0.3028 -0.1636 -0.5406
  109SLPC  H15B11024   2.239   5.075   2.045 -3.0661 -0.4478 -2.2144
  109SLPC  H15C11025   2.288   5.020   1.884  2.8700 -0.2138  0.9552
  109SLPC   C1211026   2.220   5.323   2.026  0.6037 -0.9872 -0.5608
  109SLPC  H12A11027   2.204   5.426   1.998  0.2310 -1.2622 -1.4034
  109SLPC  H12B11028   2.324   5.326   2.056  0.7139 -0.2696 -0.9849
  109SLPC   C1111029   2.117   5.297   2.150 -0.0729  0.0853  0.0871
  109SLPC  H11A11030   2.016   5.308   2.105 -0.4170 -1.2367  0.4706
  109SLPC  H11B11031   2.118   5.375   2.228 -1.1325  0.6296 -0.4263
  109SLPC     P11032   2.227   5.123   2.315 -0.6199 -0.0927  0.7170
  109SLPC   O1311033   2.282   4.995   2.266  0.5938 -0.2492 -0.2491
  109SLPC   O1411034   2.315   5.237   2.345  0.6797 -0.9371  0.4381
  109SLPC   O1211035   2.126   5.163   2.197  0.3358  0.3969  0.0700
  109SLPC   O1111036   2.123   5.093   2.428  0.3929  0.2715  0.1486
  109SLPC    C111037   2.030   4.982   2.428  0.5395 -0.4320 -0.1461
  109SLPC    HA11038   1.928   5.023   2.438  0.6569  0.4375 -2.1654
  109SLPC    HB11039   2.039   4.924   2.334  1.4493 -3.6497  1.7646
  109SLPC    C211040   2.059   4.881   2.542  0.2025 -0.0827  0.3885
  109SLPC    HS11041   1.962   4.836   2.571  0.5698 -1.3669 -0.2963
  109SLPC   O2111042   2.134   4.958   2.644 -0.2373 -0.0456  0.1953
  109SLPC   C2111043   2.045   4.999   2.734  0.2983 -0.1585  0.3586
  109SLPC   O2211044   1.927   4.964   2.735 -0.6180 -0.7416  0.3271
  109SLPC   C2211045   2.108   5.085   2.839 -0.5850 -0.0295 -0.4952
  109SLPC   H2R11046   2.181   5.022   2.894 -2.5441 -2.7851 -0.8612
  109SLPC   H2S11047   2.175   5.152   2.781 -0.9479 -2.1147 -3.5292
  109SLPC    C311048   2.148   4.763   2.493 -0.2245  0.3967 -0.0395
  109SLPC    HX11049   2.236   4.791   2.431  0.5861  1.2607  1.4355
  109SLPC    HY11050   2.081   4.696   2.435 -0.8884  0.3942  0.7108
  109SLPC   O3111051   2.188   4.683   2.608 -0.1337 -0.1417 -0.2140
  109SLPC   C3111052   2.308   4.706   2.658  0.1781 -0.4112  0.6766
  109SLPC   O3211053   2.394   4.777   2.610 -0.3657  0.0114  0.1235
  109SLPC   C3211054   2.314   4.642   2.790 -0.6629 -0.1357  0.6550
  109SLPC   H2X11055   2.420   4.617   2.816  0.0775  2.4787  0.3781
  109SLPC   H2Y11056   2.245   4.555   2.795  0.7435 -1.3824 -0.5976
  109SLPC   C2311057   2.009   5.158   2.922  0.0939  0.3936 -0.8232
  109SLPC   H3R11058   1.961   5.093   2.998  0.0275  2.0363  0.6112
  109SLPC   H3S11059   1.936   5.209   2.855 -0.5014 -0.4118 -0.8009
  109SLPC   C2411060   2.072   5.277   2.992 -0.0726  0.3196  0.6684
  109SLPC   H4R11061   2.000   5.359   3.012  1.1310  1.6564 -0.2408
  109SLPC   H4S11062   2.130   5.336   2.918 -2.7146 -1.2556 -2.9724
  109SLPC   C2511063   2.156   5.244   3.107 -1.1197 -0.8673  0.9271
  109SLPC   H5R11064   2.196   5.342   3.140  1.4455 -1.9538  1.2773
  109SLPC   H5S11065   2.247   5.187   3.079  0.6782  1.4439  1.7117
  109SLPC   C2611066   2.077   5.168   3.208  0.3433 -0.3024 -0.1493
  109SLPC   H6R11067   2.145   5.144   3.293 -1.1269 -0.3082  1.0827
  109SLPC   H6S11068   2.044   5.071   3.164  0.4559 -1.0858  1.3974
  109SLPC   C2711069   1.951   5.233   3.263 -0.0050  0.4937 -0.2312
  109SLPC   H7R11070   1.892   5.279   3.181  1.0818  1.8786 -0.2660
  109SLPC   H7S11071   1.989   5.311   3.332  0.7333 -0.4493  0.4577
  109SLPC   C2811072   1.866   5.132   3.345 -0.0319 -0.2130  0.2625
  109SLPC   H8R11073   1.942   5.090   3.414 -0.5101 -2.7736 -0.6326
  109SLPC   H8S11074   1.824   5.049   3.283 -1.6876 -0.4392  1.6224
  109SLPC   C2911075   1.746   5.196   3.414 -0.4485 -0.0984 -0.1891
  109SLPC   H9R11076   1.653   5.185   3.357  0.4917  1.4022 -2.1406
  109SLPC  C21011077   1.747   5.262   3.535 -0.1144  0.4952  0.5480
  109SLPC  H10R11078   1.653   5.317   3.555 -1.4474 -0.3493 -2.6259
  109SLPC  C21111079   1.865   5.278   3.622 -0.1060  0.2231 -0.3708
  109SLPC  H11R11080   1.869   5.386   3.649 -0.6061 -0.3791  2.4464
  109SLPC  H11S11081   1.965   5.251   3.583  0.6062  0.8262  0.9711
  109SLPC  C21211082   1.842   5.202   3.755 -0.2944  0.4857 -0.1869
  109SLPC  H12R11083   1.738   5.169   3.768 -0.4068 -0.1869 -2.4779
  109SLPC  C21311084   1.945   5.172   3.843 -0.3797  0.3787 -0.6447
  109SLPC  H13R11085   1.930   5.132   3.944  1.1043 -0.8909 -0.8855
  109SLPC  C21411086   2.087   5.207   3.825 -0.4843 -0.1636  0.1951
  109SLPC  H14R11087   2.090   5.312   3.787 -3.5375 -0.4573 -1.1895
  109SLPC  H14S11088   2.129   5.143   3.745  0.7661 -0.2298  0.8788
  109SLPC  C21511089   2.175   5.174   3.949  0.4048 -0.3153 -0.3309
  109SLPC  H15R11090   2.165   5.069   3.983  2.5296 -0.3847  0.2367
  109SLPC  H15S11091   2.144   5.234   4.036 -2.4906  0.3409 -1.7067
  109SLPC  C21611092   2.323   5.205   3.927  0.1763  0.6920 -0.2467
  109SLPC  H16R11093   2.342   5.315   3.922 -0.4580  0.9488  1.9018
  109SLPC  H16S11094   2.358   5.168   3.829 -1.9874  2.7849 -1.9237
  109SLPC  C21711095   2.407   5.129   4.034 -0.4089  0.0121  0.3863
  109SLPC  H17R11096   2.380   5.022   4.020 -1.4888  0.3075  0.1179
  109SLPC  H17S11097   2.375   5.151   4.138 -1.1947 -4.6239  1.3301
  109SLPC  C21811098   2.560   5.146   4.009  0.6517 -0.5513 -0.0248
  109SLPC  H18R11099   2.615   5.083   4.082 -1.0599 -1.7461  0.2738
  109SLPC  H18S11100   2.581   5.255   4.019  1.2691 -0.5013 -1.5747
  109SLPC  H18T11101   2.586   5.121   3.903  1.3346  1.5161 -0.3918
  109SLPC   C3311102   2.283   4.738   2.912  0.3969 -0.8444 -0.0988
  109SLPC   H3X11103   2.190   4.797   2.896 -0.0334 -0.1979  3.7471
  109SLPC   H3Y11104   2.356   4.819   2.934  0.9396 -1.1885 -0.6301
  109SLPC   C3411105   2.245   4.665   3.041  0.3322  0.0193  0.1119
  109SLPC   H4X11106   2.332   4.600   3.066  0.4369  0.3093  0.5144
  109SLPC   H4Y11107   2.148   4.612   3.030 -0.3321  1.3759 -0.7944
  109SLPC   C3511108   2.232   4.757   3.162  0.4003  0.4170  0.3426
  109SLPC   H5X11109   2.162   4.834   3.123 -0.7681 -1.3621 -1.2700
  109SLPC   H5Y11110   2.329   4.806   3.181  1.2248  0.5017 -3.3480
  109SLPC   C3611111   2.193   4.675   3.290  0.4093 -0.2683 -0.1576
  109SLPC   H6X11112   2.230   4.732   3.378  0.8515 -1.3326  0.3726
  109SLPC   H6Y11113   2.254   4.581   3.284  1.3905  0.3859 -0.6968
  109SLPC   C3711114   2.044   4.621   3.293 -0.3572  0.1949  0.2865
  109SLPC   H7X11115   2.027   4.590   3.398 -0.8008  1.2677  0.5349
  109SLPC   H7Y11116   2.040   4.528   3.232 -1.0529 -1.0818  2.1989
  109SLPC   C3811117   1.954   4.734   3.241  1.0637  0.4860 -0.0860
  109SLPC   H8X11118   1.953   4.749   3.131  2.2043  0.1791 -0.1495
  109SLPC   H8Y11119   1.975   4.829   3.294  0.8649  1.0252 -0.9416
  109SLPC   C3911120   1.804   4.701   3.267  0.3991  0.1718  0.6048
  109SLPC   H9X11121   1.768   4.615   3.206  0.2098  1.6697 -1.5238
  109SLPC   H9Y11122   1.744   4.783   3.222 -0.0902 -0.5134 -0.0152
  109SLPC  C31011123   1.770   4.674   3.412  0.4218  0.1941  0.0287
  109SLPC  H10X11124   1.825   4.584   3.445 -3.2382 -1.4814  2.1512
  109SLPC  H10Y11125   1.666   4.635   3.409  0.7193 -0.5704 -0.8640
  109SLPC  C31111126   1.780   4.788   3.511  0.1038  0.0812  0.3638
  109SLPC  H11X11127   1.716   4.872   3.477  2.0180  1.0628 -0.9973
  109SLPC  H11Y11128   1.886   4.821   3.512  0.1268  0.1614 -1.3442
  109SLPC  C31211129   1.762   4.744   3.657 -0.3293  0.1024 -0.1758
  109SLPC  H12X11130   1.836   4.665   3.682  1.9268  2.1666  0.0377
  109SLPC  H12Y11131   1.662   4.696   3.653  0.2434 -1.0591 -2.0985
  109SLPC  C31311132   1.780   4.859   3.758  0.0669  0.2382  0.4898
  109SLPC  H13X11133   1.720   4.951   3.740 -0.2215 -0.4523 -2.4916
  109SLPC  H13Y11134   1.883   4.898   3.757 -0.3712  1.4160  0.4459
  109SLPC  C31411135   1.763   4.813   3.905  0.3896  0.3526 -0.2540
  109SLPC  H14X11136   1.856   4.773   3.951  0.2142 -0.3165 -0.4702
  109SLPC  H14Y11137   1.695   4.726   3.901  1.5619 -0.5801 -0.5009
  109SLPC  C31511138   1.689   4.908   4.006 -0.1908 -0.5535  0.0707
  109SLPC  H15X11139   1.589   4.942   3.972  0.9109  2.1252 -0.7341
  109SLPC  H15Y11140   1.750   5.000   4.010 -1.0288 -0.0155  0.9632
  109SLPC  C31611141   1.684   4.853   4.153  0.1831  0.2663 -0.1563
  109SLPC  H16X11142   1.655   4.937   4.219 -1.7385 -0.3565 -0.1475
  109SLPC  H16Y11143   1.781   4.805   4.178  1.2689  0.7580 -3.0317
  109SLPC  C31711144   1.577   4.744   4.184 -0.6076 -0.3521 -0.2417
  109SLPC  H17X11145   1.552   4.747   4.292 -2.4309 -0.4348 -0.6327
  109SLPC  H17Y11146   1.627   4.648   4.157  0.7414  0.5013 -0.8924
  109SLPC  C31811147   1.453   4.766   4.105  0.4285 -0.1959  0.7460
  109SLPC  H18X11148   1.395   4.671   4.100 -2.1132  1.3485 -1.8537
  109SLPC  H18Y11149   1.464   4.806   4.002  1.9765  0.2010  1.0350
  109SLPC  H18Z11150   1.380   4.834   4.154 -0.6017 -0.0321 -0.9521
  110SLPC     N11151   6.257   3.605   2.226 -0.2298 -0.3076  0.2915
  110SLPC   C1311152   6.137   3.528   2.254  0.3934 -0.1414  0.9398
  110SLPC  H13A11153   6.056   3.574   2.200  1.4417  0.7032  0.0240
  110SLPC  H13B11154   6.168   3.430   2.220  3.3536  1.0772 -0.1918
  110SLPC  H13C11155   6.118   3.527   2.360  0.2264 -0.4781  0.9083
  110SLPC   C1411156   6.233   3.747   2.248  0.0464 -0.8816  0.5185
  110SLPC  H14A11157   6.139   3.773   2.202  0.4140 -2.4637 -1.2726
  110SLPC  H14B11158   6.235   3.766   2.354 -0.0502  0.7760  0.2427
  110SLPC  H14C11159   6.322   3.795   2.210 -1.0679  1.5124  0.7613
  110SLPC   C1511160   6.280   3.603   2.073  0.4137 -0.7399 -0.0472
  110SLPC  H15A11161   6.303   3.502   2.043 -0.5974 -1.3352  1.0918
  110SLPC  H15B11162   6.193   3.646   2.026  1.4388  1.3885 -0.1107
  110SLPC  H15C11163   6.371   3.658   2.054  0.9220 -1.8980 -1.1023
  110SLPC   C1211164   6.382   3.555   2.307 -0.5346  0.1892 -0.3012
  110SLPC  H12A11165   6.365   3.554   2.414  1.0436 -0.5811 -0.0182
  110SLPC  H12B11166   6.465   3.623   2.294 -1.7031  1.7832  0.2271
  110SLPC   C1111167   6.439   3.419   2.258 -0.0817 -0.0962 -0.0475
  110SLPC  H11A11168   6.539   3.414   2.307  0.4541  1.0510 -0.9937
  110SLPC  H11B11169   6.441   3.410   2.148  0.0159  2.6071 -0.3172
  110SLPC     P11170   6.367   3.270   2.467  0.0685 -0.0941  0.1546
  110SLPC   O1311171   6.328   3.386   2.553 -0.0595 -0.2565  0.1896
  110SLPC   O1411172   6.287   3.143   2.479 -0.3171  0.2769 -0.2557
  110SLPC   O1211173   6.356   3.317   2.313 -0.4001 -0.0748 -0.1972
  110SLPC   O1111174   6.525   3.242   2.469  0.0931 -0.9732 -0.6880
  110SLPC    C111175   6.566   3.164   2.578  0.2163  0.8032  0.0661
  110SLPC    HA11176   6.485   3.145   2.651  3.0315  1.2697  3.6049
  110SLPC    HB11177   6.592   3.062   2.540 -1.0124  0.7636 -0.7239
  110SLPC    C211178   6.670   3.224   2.675 -0.0201 -0.6436 -0.3510
  110SLPC    HS11179   6.771   3.232   2.629  0.9028  1.4744  1.8223
  110SLPC   O2111180   6.675   3.157   2.792 -0.6723  0.3641 -0.0257
  110SLPC   C2111181   6.783   3.104   2.838 -0.8774 -0.2590  0.1661
  110SLPC   O2211182   6.896   3.112   2.788 -0.2723 -0.2126 -0.7023
  110SLPC   C2211183   6.745   3.029   2.967 -0.8402 -0.5404 -0.7588
  110SLPC   H2R11184   6.647   2.980   2.949 -0.0512 -2.0417 -1.1721
  110SLPC   H2S11185   6.817   2.947   2.991  0.9668  1.2193  0.0501
  110SLPC    C311186   6.620   3.370   2.710 -0.4529 -0.8654  0.8502
  110SLPC    HX11187   6.519   3.343   2.747 -0.9411 -0.7140 -0.3161
  110SLPC    HY11188   6.611   3.429   2.616 -1.4297 -2.5073 -0.1408
  110SLPC   O3111189   6.718   3.436   2.798 -0.3337 -0.2313  0.2415
  110SLPC   C3111190   6.678   3.503   2.901  0.2728 -0.7330 -0.0726
  110SLPC   O3211191   6.563   3.540   2.923 -0.0940  0.6300  0.8500
  110SLPC   C3211192   6.791   3.532   2.993  0.3814 -0.5219 -0.3596
  110SLPC   H2X11193   6.876   3.575   2.936 -0.2370  0.9723 -0.1785
  110SLPC   H2Y11194   6.807   3.433   3.041 -2.8597 -2.7605 -3.3742
  110SLPC   C2311195   6.742   3.135   3.085  0.4424  0.2321  0.8348
  110SLPC   H3R11196   6.689   3.229   3.056 -1.7582 -0.7596  1.3898
  110SLPC   H3S11197   6.843   3.162   3.123 -0.3037  0.4834  2.7813
  110SLPC   C2411198   6.666   3.079   3.206  0.8318 -0.1141  0.1807
  110SLPC   H4R11199   6.568   3.048   3.163  1.3126  0.9531 -1.8170
  110SLPC   H4S11200   6.641   3.156   3.282  0.6723  0.2911 -0.2815
  110SLPC   C2511201   6.735   2.965   3.282  0.1164 -0.1091  0.0289
  110SLPC   H5R11202   6.827   3.004   3.331 -0.0924  0.7063 -0.2150
  110SLPC   H5S11203   6.763   2.901   3.195 -2.8263  2.0134 -2.7266
  110SLPC   C2611204   6.638   2.901   3.377  0.0811  0.7516 -0.3531
  110SLPC   H6R11205   6.547   2.862   3.325 -0.7371 -0.2432  1.6982
  110SLPC   H6S11206   6.593   2.978   3.444  0.9069  0.7145  0.2583
  110SLPC   C2711207   6.696   2.786   3.457 -0.1074  0.5166 -0.0999
  110SLPC   H7R11208   6.788   2.826   3.503 -0.8132 -0.2733  2.1029
  110SLPC   H7S11209   6.735   2.704   3.392  1.2965  1.3767 -0.3947
  110SLPC   C2811210   6.612   2.705   3.558 -1.5435  0.3768  0.6032
  110SLPC   H8R11211   6.686   2.639   3.607  0.3627  1.7990 -0.2343
  110SLPC   H8S11212   6.533   2.645   3.506  1.2149 -2.1478 -0.9567
  110SLPC   C2911213   6.554   2.808   3.651  0.0700 -0.1736 -0.0343
  110SLPC   H9R11214   6.493   2.889   3.608 -0.5012 -0.5146  0.1275
  110SLPC  C21011215   6.586   2.827   3.782 -0.2118  1.2298  0.0114
  110SLPC  H10R11216   6.542   2.913   3.834  0.5748  1.1214  0.8752
  110SLPC  C21111217   6.680   2.740   3.865 -0.7446 -0.0523 -0.7022
  110SLPC  H11R11218   6.757   2.696   3.799  0.0806  0.9124 -0.4087
  110SLPC  H11S11219   6.627   2.652   3.909  0.8125 -0.2376  0.9564
  110SLPC  C21211220   6.755   2.822   3.973  0.0788  0.5452 -0.1867
  110SLPC  H12R11221   6.799   2.914   3.932  2.9229 -0.2346  0.8533
  110SLPC  C21311222   6.771   2.789   4.108 -0.3543  0.6491  0.0171
  110SLPC  H13R11223   6.818   2.868   4.167  1.4462 -0.2274 -0.2002
  110SLPC  C21411224   6.706   2.670   4.181 -0.9721  0.3519  0.2346
  110SLPC  H14R11225   6.771   2.659   4.270  2.0032  1.2111 -1.6710
  110SLPC  H14S11226   6.723   2.574   4.127 -1.6067  0.6547 -0.5222
  110SLPC  C21511227   6.558   2.681   4.205  0.1970 -0.0095 -0.3366
  110SLPC  H15R11228   6.521   2.578   4.229 -1.3774  0.7567  0.6986
  110SLPC  H15S11229   6.507   2.689   4.107  0.5007 -2.0083 -0.7125
  110SLPC  C21611230   6.518   2.789   4.305 -0.1010 -0.3428  0.1747
  110SLPC  H16R11231   6.557   2.887   4.272 -2.2319  0.1726 -0.9991
  110SLPC  H16S11232   6.567   2.768   4.402 -2.6879  0.1655  1.6917
  110SLPC  C21711233   6.367   2.810   4.331  0.0773 -0.2917 -0.2584
  110SLPC  H17R11234   6.320   2.856   4.242  1.7424 -0.3297 -1.1848
  110SLPC  H17S11235   6.353   2.875   4.420  0.1348 -2.5974  1.5452
  110SLPC  C21811236   6.284   2.684   4.369  0.0481  0.2416 -0.1314
  110SLPC  H18R11237   6.333   2.625   4.450  1.9947  1.5645 -0.2896
  110SLPC  H18S11238   6.278   2.622   4.277  0.2262 -0.1152  0.0907
  110SLPC  H18T11239   6.179   2.713   4.388 -0.7046 -2.4643  0.3009
  110SLPC   C3311240   6.738   3.640   3.091 -0.0386  0.2540 -0.8879
  110SLPC   H3X11241   6.650   3.601   3.147  1.4600 -1.7921  0.1754
  110SLPC   H3Y11242   6.715   3.730   3.031 -1.1847  0.2938 -0.4179
  110SLPC   C3411243   6.838   3.665   3.194 -0.4660 -0.0803 -0.6223
  110SLPC   H4X11244   6.935   3.698   3.150  0.1278  1.6377  1.7326
  110SLPC   H4Y11245   6.865   3.564   3.230 -0.4439 -0.3741 -1.4461
  110SLPC   C3511246   6.804   3.775   3.297  0.2115  0.5198 -0.4046
  110SLPC   H5X11247   6.729   3.738   3.371  0.6281 -0.9135 -0.6580
  110SLPC   H5Y11248   6.756   3.860   3.244 -0.6086  0.1749 -0.2327
  110SLPC   C3611249   6.934   3.815   3.370  0.2355  0.0170 -0.4887
  110SLPC   H6X11250   7.023   3.794   3.306  0.2730 -1.2736 -0.0376
  110SLPC   H6Y11251   6.949   3.755   3.462  1.7833  1.6937  0.4442
  110SLPC   C3711252   6.931   3.962   3.416 -0.3550 -0.7171 -0.1073
  110SLPC   H7X11253   6.829   3.978   3.456 -0.9908 -0.7230 -1.6662
  110SLPC   H7Y11254   6.935   4.020   3.321  2.5746  2.5705  1.7839
  110SLPC   C3811255   7.038   4.004   3.520  0.6066  0.2565  0.2340
  110SLPC   H8X11256   7.033   4.113   3.543  0.6368 -0.4040  4.0468
  110SLPC   H8Y11257   7.141   3.974   3.489  0.2485 -1.7141  0.8206
  110SLPC   C3911258   7.010   3.933   3.661 -0.2443 -0.0184  0.3632
  110SLPC   H9X11259   7.058   3.833   3.652 -1.1036 -0.4346  0.3082
  110SLPC   H9Y11260   6.902   3.907   3.661 -0.5888  1.2099 -1.2163
  110SLPC  C31011261   7.045   4.023   3.775 -0.2228  0.3048 -0.5470
  110SLPC  H10X11262   6.990   4.119   3.770 -1.9058 -0.5723  0.4365
  110SLPC  H10Y11263   7.154   4.043   3.781  0.1909 -1.9574  0.9184
  110SLPC  C31111264   6.998   3.965   3.910 -0.2892 -0.0329  0.4061
  110SLPC  H11X11265   7.064   3.879   3.934  3.0653  2.1676 -0.3104
  110SLPC  H11Y11266   6.896   3.924   3.895  0.2559 -1.3280  0.0960
  110SLPC  C31211267   7.007   4.062   4.026  0.2360  0.0610  0.5959
  110SLPC  H12X11268   6.950   4.155   4.006  0.8349  0.3798  0.3422
  110SLPC  H12Y11269   7.114   4.092   4.029  0.2321  0.3055 -0.9792
  110SLPC  C31311270   6.973   4.001   4.163  0.6367 -0.0938  0.2796
  110SLPC  H13X11271   7.055   3.934   4.197  0.6354  0.4409  1.3529
  110SLPC  H13Y11272   6.883   3.937   4.155 -0.8809  1.2404  4.4443
  110SLPC  C31411273   6.940   4.096   4.275  0.3527 -0.7696  0.0250
  110SLPC  H14X11274   6.848   4.147   4.240  1.4553  0.4854 -1.1146
  110SLPC  H14Y11275   7.023   4.170   4.279 -2.0995  2.1674  3.5673
  110SLPC  C31511276   6.910   4.045   4.415 -0.5712  0.1521 -0.0321
  110SLPC  H15X11277   6.841   3.959   4.402  1.0896 -1.6944  2.4084
  110SLPC  H15Y11278   6.860   4.130   4.465  0.0203  1.6671 -1.9186
  110SLPC  C31611279   7.033   4.012   4.505  0.6982 -1.1295  0.0242
  110SLPC  H16X11280   7.122   4.070   4.472 -1.7430  2.0180 -1.5903
  110SLPC  H16Y11281   7.074   3.911   4.487 -1.0510 -1.6117 -1.6026
  110SLPC  C31711282   7.002   4.019   4.658  0.4505  0.0873 -0.3587
  110SLPC  H17X11283   6.990   4.126   4.687 -0.0161  0.6486 -2.4112
  110SLPC  H17Y11284   7.081   3.979   4.724  0.7344  1.1758 -0.0200
  110SLPC  C31811285   6.877   3.928   4.689 -0.0204 -0.0436 -1.0092
  110SLPC  H18X11286   6.866   3.926   4.799  1.5167 -0.3897 -0.8291
  110SLPC  H18Y11287   6.896   3.824   4.655  0.0866 -0.5844  0.6488
  110SLPC  H18Z11288   6.789   3.957   4.629 -0.2431  1.7172  0.1098
  111SLPC     N11289   4.268   1.115   2.244 -0.1703 -0.3557  0.0562
  111SLPC   C1311290   4.400   1.126   2.158  0.0698  0.5637  0.2284
  111SLPC  H13A11291   4.397   1.067   2.067  0.7856  2.0766 -0.8266
  111SLPC  H13B11292   4.411   1.228   2.124  0.3813  0.7513  0.8864
  111SLPC  H13C11293   4.489   1.111   2.216 -1.4775  2.0460  3.2058
  111SLPC   C1411294   4.278   1.224   2.353 -0.1593 -0.0668  0.2759
  111SLPC  H14A11295   4.352   1.196   2.426  2.7604 -0.1598 -2.5073
  111SLPC  H14B11296   4.303   1.320   2.311  1.3385 -0.1581  0.9080
  111SLPC  H14C11297   4.187   1.233   2.411  0.9487 -0.6510  2.2175
  111SLPC   C1511298   4.260   0.981   2.295  0.0466  0.0568  0.2168
  111SLPC  H15A11299   4.341   0.960   2.364 -0.0312 -1.6919 -0.1614
  111SLPC  H15B11300   4.160   0.961   2.330  0.2701  0.2438  0.9888
  111SLPC  H15C11301   4.274   0.912   2.213  1.3314  1.4731 -0.7909
  111SLPC   C1211302   4.147   1.152   2.155 -0.6658  0.1178 -0.3837
  111SLPC  H12A11303   4.150   1.091   2.065  2.6820  0.0730 -0.3530
  111SLPC  H12B11304   4.150   1.251   2.113  0.9094  0.1703 -0.1871
  111SLPC   C1111305   4.006   1.150   2.215 -0.1690 -0.3383  0.1527
  111SLPC  H11A11306   3.999   1.048   2.257  0.7546 -0.0781  0.9763
  111SLPC  H11B11307   3.930   1.169   2.136  1.8695  2.2562 -1.3559
  111SLPC     P11308   3.945   1.399   2.269 -0.4173  0.0751 -0.1774
  111SLPC   O1311309   4.064   1.449   2.208  0.0702 -0.6128  0.4421
  111SLPC   O1411310   3.823   1.393   2.191  0.6123 -0.3830  0.9562
  111SLPC   O1211311   3.982   1.245   2.315  0.7150 -0.6104 -0.1759
  111SLPC   O1111312   3.924   1.478   2.402  0.2323 -0.5117 -0.0419
  111SLPC    C111313   3.891   1.426   2.531 -0.0235 -0.9099 -0.3960
  111SLPC    HA11314   3.845   1.511   2.584  1.9792 -0.3151  0.4599
  111SLPC    HB11315   3.816   1.344   2.526 -0.0198 -0.8979 -0.7007
  111SLPC    C211316   4.004   1.383   2.630  0.4230  0.2268 -0.1337
  111SLPC    HS11317   4.056   1.289   2.600  1.8892  0.5658  1.2059
  111SLPC   O2111318   3.943   1.368   2.753  0.0253 -0.2183 -0.6860
  111SLPC   C2111319   3.983   1.278   2.840  0.8753 -0.5942  0.1509
  111SLPC   O2211320   4.078   1.202   2.816 -1.0467 -0.3648 -0.1340
  111SLPC   C2211321   3.914   1.312   2.970  0.3843 -0.3597 -0.2162
  111SLPC   H2R11322   3.960   1.407   3.004 -1.4185  0.0531  1.2582
  111SLPC   H2S11323   3.808   1.341   2.952  0.7548  1.8640  0.7727
  111SLPC    C311324   4.110   1.496   2.649  0.4223 -0.5685  0.4606
  111SLPC    HX11325   4.065   1.593   2.678  1.1464 -0.8623  2.7023
  111SLPC    HY11326   4.148   1.509   2.545 -1.0452 -0.4344 -0.0828
  111SLPC   O3111327   4.202   1.466   2.757 -0.3041 -0.5579  0.3917
  111SLPC   C3111328   4.299   1.379   2.729  0.2637  0.1377 -0.6902
  111SLPC   O3211329   4.312   1.318   2.626 -0.4326  0.1208  0.8410
  111SLPC   C3211330   4.385   1.354   2.857  0.5857 -0.1904  0.2422
  111SLPC   H2X11331   4.448   1.445   2.855 -1.2590  1.1577  0.8798
  111SLPC   H2Y11332   4.436   1.259   2.829  2.2847  0.6973  0.1897
  111SLPC   C2311333   3.942   1.209   3.079  0.2403  0.2532 -0.0069
  111SLPC   H3R11334   4.050   1.186   3.084  0.0360 -0.4446  2.4866
  111SLPC   H3S11335   3.886   1.119   3.047  0.0340  0.6901 -0.9216
  111SLPC   C2411336   3.895   1.252   3.225 -0.0235  0.3666  0.8140
  111SLPC   H4R11337   3.790   1.219   3.243  0.1631 -0.2579  0.7975
  111SLPC   H4S11338   3.890   1.363   3.227  0.3380  0.3759  1.5512
  111SLPC   C2511339   3.980   1.207   3.337 -0.1528  0.4868 -0.0581
  111SLPC   H5R11340   4.082   1.243   3.312 -0.3292  1.3855  0.4854
  111SLPC   H5S11341   3.988   1.096   3.342 -0.7566  0.4461  0.1762
  111SLPC   C2611342   3.921   1.256   3.468  0.3139 -0.2406 -0.3832
  111SLPC   H6R11343   3.811   1.240   3.465  0.0474  1.5063 -1.8559
  111SLPC   H6S11344   3.943   1.365   3.482 -0.9221 -0.1238  0.8784
  111SLPC   C2711345   3.986   1.178   3.587  0.9658 -0.0773 -0.4690
  111SLPC   H7R11346   4.095   1.164   3.571  1.5737 -0.1253  3.0695
  111SLPC   H7S11347   3.945   1.074   3.595  0.1231  0.3885  1.9447
  111SLPC   C2811348   3.952   1.263   3.713 -0.3368  1.2797 -0.4251
  111SLPC   H8R11349   3.842   1.279   3.710 -0.3368  1.1965 -1.9138
  111SLPC   H8S11350   4.002   1.361   3.700 -0.2244  1.1223 -1.2385
  111SLPC   C2911351   4.004   1.216   3.844  0.1492 -0.1616 -0.2056
  111SLPC   H9R11352   4.114   1.202   3.840  0.3240  1.2481 -2.7000
  111SLPC  C21011353   3.940   1.196   3.958  1.1902  0.7149  0.0805
  111SLPC  H10R11354   3.993   1.145   4.039 -1.0516  0.1140  1.2536
  111SLPC  C21111355   3.787   1.203   3.985 -0.2275 -0.7389  0.1639
  111SLPC  H11R11356   3.761   1.126   4.061 -0.7988 -2.1095 -1.3825
  111SLPC  H11S11357   3.738   1.183   3.888  0.7687  3.3891 -1.4130
  111SLPC  C21211358   3.744   1.339   4.023 -0.0492  0.3520 -0.7085
  111SLPC  H12R11359   3.728   1.395   3.930 -1.0934 -1.2344 -1.5098
  111SLPC  C21311360   3.717   1.392   4.145  0.1802 -0.3765 -0.4602
  111SLPC  H13R11361   3.671   1.491   4.156  0.1775 -0.4182 -0.0680
  111SLPC  C21411362   3.742   1.308   4.267  0.2111  0.4551  0.2477
  111SLPC  H14R11363   3.682   1.214   4.264  1.9594 -0.6700 -1.3435
  111SLPC  H14S11364   3.713   1.357   4.362  0.9615 -0.7874  1.1614
  111SLPC  C21511365   3.886   1.265   4.301  0.6259 -0.0123  0.4625
  111SLPC  H15R11366   3.957   1.346   4.272 -1.9359  1.7833 -1.2327
  111SLPC  H15S11367   3.912   1.171   4.248 -1.6807 -0.2424 -0.3671
  111SLPC  C21611368   3.892   1.231   4.448  0.5231  0.1682 -0.7808
  111SLPC  H16R11369   3.819   1.151   4.469  0.8119 -0.0487 -0.5919
  111SLPC  H16S11370   3.868   1.322   4.507 -0.4051 -1.8032  2.0540
  111SLPC  C21711371   4.033   1.181   4.486 -0.0706  0.1132  0.2288
  111SLPC  H17R11372   4.115   1.255   4.467  1.2186 -1.1819  0.5461
  111SLPC  H17S11373   4.056   1.088   4.430  1.9390  0.9366 -0.4438
  111SLPC  C21811374   4.056   1.144   4.639  0.3403 -0.4706 -0.1598
  111SLPC  H18R11375   4.163   1.118   4.649 -0.0285 -2.0639 -0.0146
  111SLPC  H18S11376   4.000   1.052   4.669 -1.2279  0.2219 -0.8126
  111SLPC  H18T11377   4.027   1.220   4.714  0.6748 -1.5529  1.1104
  111SLPC   C3311378   4.308   1.348   2.990 -0.0092 -0.6433  0.5472
  111SLPC   H3X11379   4.241   1.259   2.996 -2.3758  1.0647  1.5304
  111SLPC   H3Y11380   4.240   1.437   2.996 -1.7885 -1.9243  0.1910
  111SLPC   C3411381   4.402   1.343   3.109  0.2970 -0.4177 -0.6148
  111SLPC   H4X11382   4.444   1.444   3.126  0.1847 -0.3560 -0.7040
  111SLPC   H4Y11383   4.481   1.266   3.098  0.3131 -0.2923 -1.3918
  111SLPC   C3511384   4.338   1.300   3.245  0.4984 -0.7953 -0.1123
  111SLPC   H5X11385   4.275   1.211   3.224 -0.6712  0.0156 -0.1465
  111SLPC   H5Y11386   4.263   1.382   3.256  1.6525  0.6666 -2.2880
  111SLPC   C3611387   4.436   1.273   3.352 -0.0341  0.2716  0.3353
  111SLPC   H6X11388   4.514   1.352   3.354 -0.2200  0.4678 -0.1374
  111SLPC   H6Y11389   4.500   1.182   3.342  0.3286  0.2863  2.1685
  111SLPC   C3711390   4.371   1.266   3.489 -0.3864  0.0493 -0.0328
  111SLPC   H7X11391   4.333   1.162   3.503  3.1651 -1.4602 -0.3796
  111SLPC   H7Y11392   4.289   1.340   3.501 -0.3231 -0.0328  0.9548
  111SLPC   C3811393   4.479   1.294   3.590 -0.4153  0.6557  0.1205
  111SLPC   H8X11394   4.508   1.402   3.589  0.4823  0.4243  0.2169
  111SLPC   H8Y11395   4.565   1.235   3.553 -1.6496 -1.1059 -0.0574
  111SLPC   C3911396   4.438   1.251   3.728  0.5827 -0.5053  0.2801
  111SLPC   H9X11397   4.407   1.144   3.735 -1.5960  0.1711  1.7653
  111SLPC   H9Y11398   4.353   1.315   3.759 -0.7739 -1.8955 -0.4348
  111SLPC  C31011399   4.558   1.267   3.818  0.1331 -0.2632 -0.3909
  111SLPC  H10X11400   4.637   1.198   3.780  0.7088  0.5891 -0.7709
  111SLPC  H10Y11401   4.517   1.221   3.911  0.7651 -2.3363 -1.0788
  111SLPC  C31111402   4.597   1.410   3.844 -0.4517  0.3441  0.0122
  111SLPC  H11X11403   4.503   1.466   3.864 -0.6062 -0.2623  1.0763
  111SLPC  H11Y11404   4.641   1.454   3.752  2.6657  2.2117  2.2086
  111SLPC  C31211405   4.688   1.401   3.965 -0.1658 -0.4877  0.0569
  111SLPC  H12X11406   4.761   1.319   3.946  3.6074  1.9778  2.3786
  111SLPC  H12Y11407   4.630   1.371   4.054  0.8430 -1.7863  0.3087
  111SLPC  C31311408   4.772   1.538   4.001  0.3269  0.4766  0.6697
  111SLPC  H13X11409   4.827   1.558   3.907  1.2455 -0.5897  0.9559
  111SLPC  H13Y11410   4.846   1.510   4.079  1.1245  0.7855  0.0316
  111SLPC  C31411411   4.676   1.644   4.056 -0.0384 -0.6148 -0.1371
  111SLPC  H14X11412   4.632   1.605   4.150 -2.1315  0.0845 -0.7632
  111SLPC  H14Y11413   4.587   1.649   3.989  0.0932 -1.3763 -0.3767
  111SLPC  C31511414   4.730   1.788   4.081  0.2466  0.1793 -0.0706
  111SLPC  H15X11415   4.786   1.826   3.993 -1.3636  1.8404 -0.4610
  111SLPC  H15Y11416   4.800   1.775   4.166  0.9831  1.9758 -0.3499
  111SLPC  C31611417   4.618   1.884   4.134 -0.0514  0.2751  0.1238
  111SLPC  H16X11418   4.578   1.826   4.220  0.5016 -0.5958 -0.1941
  111SLPC  H16Y11419   4.530   1.903   4.069 -1.3478  2.2951  2.3098
  111SLPC  C31711420   4.665   2.019   4.175  0.2215 -0.1373  0.9983
  111SLPC  H17X11421   4.700   2.059   4.078  2.4740  1.6124  2.4180
  111SLPC  H17Y11422   4.743   2.014   4.254 -0.2481 -3.4773  1.3768
  111SLPC  C31811423   4.559   2.123   4.218 -0.8912 -0.8153  0.2900
  111SLPC  H18X11424   4.616   2.206   4.265  0.9938 -2.3752  0.9238
  111SLPC  H18Y11425   4.492   2.074   4.291 -3.1947  1.7984  0.1123
  111SLPC  H18Z11426   4.509   2.170   4.130 -2.1761 -1.2764  0.7597
  112SLPC     N11427   0.088   4.945   2.129  0.8112  0.3048 -0.5076
  112SLPC   C1311428   0.172   4.916   2.013 -0.8158 -0.4134 -0.4286
  112SLPC  H13A11429   0.106   4.874   1.939 -1.8298 -0.0362  0.2287
  112SLPC  H13B11430   0.210   5.010   1.976  0.6946 -0.0241  1.8637
  112SLPC  H13C11431   0.253   4.847   2.030  1.8630  2.6901  0.4184
  112SLPC   C1411432  -0.007   5.056   2.097 -0.3908  0.5443  0.5288
  112SLPC  H14A11433   0.048   5.137   2.052 -0.9307 -0.3881 -1.9823
  112SLPC  H14B11434  -0.072   5.027   2.015  0.2428 -0.3762  0.3369
  112SLPC  H14C11435  -0.064   5.080   2.185 -3.5406 -0.9957 -0.9214
  112SLPC   C1511436   0.168   4.995   2.243 -0.2680 -0.3069 -0.6361
  112SLPC  H15A11437   0.241   4.926   2.282  0.9855  1.2473 -0.1109
  112SLPC  H15B11438   0.224   5.085   2.221  1.6274 -1.5784 -1.2832
  112SLPC  H15C11439   0.102   5.009   2.327  0.4395 -2.2858  0.3155
  112SLPC   C1211440   0.010   4.817   2.169 -0.2986  0.3701 -0.0528
  112SLPC  H12A11441   0.078   4.733   2.175 -0.6831  0.1420  1.7452
  112SLPC  H12B11442  -0.049   4.789   2.083  1.0794 -2.9248 -0.0721
  112SLPC   C1111443  -0.080   4.819   2.299 -0.1452  0.2751  0.2145
  112SLPC  H11A11444  -0.022   4.867   2.381 -0.3842 -1.3935  1.4157
  112SLPC  H11B11445  -0.105   4.719   2.339 -1.1871  0.8861  1.1566
  112SLPC     P11446  -0.334   4.849   2.226  0.2491  0.4158 -0.1473
  112SLPC   O1311447  -0.442   4.953   2.222 -0.4060  0.1979  0.2340
  112SLPC   O1411448  -0.304   4.777   2.101 -0.3911  0.0416 -0.0661
  112SLPC   O1211449  -0.192   4.902   2.288  0.0137  0.3579  0.4850
  112SLPC   O1111450  -0.373   4.747   2.339 -0.4056  0.1192  0.0498
  112SLPC    C111451  -0.499   4.687   2.351 -0.1154  0.2131  0.5033
  112SLPC    HA11452  -0.547   4.670   2.253  0.9387  0.0260  0.0072
  112SLPC    HB11453  -0.483   4.590   2.402  1.3490 -0.1523 -0.5806
  112SLPC    C211454  -0.584   4.779   2.441  0.0138  0.5705  0.1338
  112SLPC    HS11455  -0.600   4.874   2.384  0.1827  0.7463  0.3799
  112SLPC   O2111456  -0.500   4.804   2.561  0.2822 -0.1260  0.4563
  112SLPC   C2111457  -0.537   4.912   2.629 -0.3024  0.2071  0.5541
  112SLPC   O2211458  -0.626   4.985   2.592  0.0015  0.2817 -0.5567
  112SLPC   C2211459  -0.467   4.922   2.762 -0.0074 -0.2142 -0.2541
  112SLPC   H2R11460  -0.520   4.844   2.821 -1.6372 -0.4947 -2.0001
  112SLPC   H2S11461  -0.362   4.889   2.751  0.5781  1.2491  0.7005
  112SLPC    C311462  -0.729   4.719   2.473 -0.1526  0.4813  0.8600
  112SLPC    HX11463  -0.708   4.612   2.451 -0.4699  0.5469  0.2150
  112SLPC    HY11464  -0.796   4.768   2.399 -0.4818  3.3151  2.8918
  112SLPC   O3111465  -0.775   4.742   2.603 -0.4347 -0.1708 -0.1137
  112SLPC   C3111466  -0.907   4.769   2.609 -0.7919 -0.1865  0.2306
  112SLPC   O3211467  -0.992   4.761   2.519 -0.0651 -0.3368  0.2501
  112SLPC   C3211468  -0.945   4.800   2.754  0.3981 -0.0743 -0.2220
  112SLPC   H2X11469  -0.932   4.709   2.817  1.5718 -0.6681 -1.2918
  112SLPC   H2Y11470  -1.052   4.831   2.755  0.8743  1.9091 -2.1437
  112SLPC   C2311471  -0.463   5.062   2.831  0.2043  0.1881 -0.2284
  112SLPC   H3R11472  -0.558   5.119   2.818 -0.3581 -0.1723  1.8810
  112SLPC   H3S11473  -0.377   5.119   2.791  0.5976 -0.3668 -0.1870
  112SLPC   C2411474  -0.452   5.051   2.990 -0.7845  0.2581  0.7504
  112SLPC   H4R11475  -0.356   5.003   3.018  0.9672  3.1877  0.2279
  112SLPC   H4S11476  -0.529   4.975   3.015 -1.3017  0.1870 -0.8937
  112SLPC   C2511477  -0.483   5.180   3.068 -0.0141 -0.1922 -0.4213
  112SLPC   H5R11478  -0.584   5.217   3.037 -0.5487 -0.6596  0.7242
  112SLPC   H5S11479  -0.414   5.259   3.030  0.5630  0.1884  1.3158
  112SLPC   C2611480  -0.487   5.160   3.216 -0.0337 -0.0840  0.0439
  112SLPC   H6R11481  -0.517   5.256   3.264 -0.6022 -0.0550 -0.3552
  112SLPC   H6S11482  -0.391   5.122   3.257  0.3424  0.4526 -0.3383
  112SLPC   C2711483  -0.583   5.048   3.251  0.2890 -0.6603  0.5984
  112SLPC   H7R11484  -0.534   4.949   3.240  0.7174 -0.9508  3.9557
  112SLPC   H7S11485  -0.671   5.047   3.183  0.3038 -0.5450  0.5776
  112SLPC   C2811486  -0.619   5.040   3.404  0.0059  0.7004  0.4148
  112SLPC   H8R11487  -0.681   4.949   3.419  1.9042 -0.5127  1.2714
  112SLPC   H8S11488  -0.699   5.113   3.430  2.0082  2.0228  3.4481
  112SLPC   C2911489  -0.505   5.044   3.499 -0.1429 -0.1469 -0.1255
  112SLPC   H9R11490  -0.433   4.961   3.489  1.2373  1.1857 -2.0117
  112SLPC  C21011491  -0.483   5.140   3.589 -0.5984  0.2312 -0.4408
  112SLPC  H10R11492  -0.396   5.127   3.655 -1.4811  0.4310  0.7941
  112SLPC  C21111493  -0.565   5.260   3.613  0.2186 -0.1571 -0.0267
  112SLPC  H11R11494  -0.661   5.258   3.557  1.3798 -0.8022 -2.1033
  112SLPC  H11S11495  -0.502   5.340   3.570  2.9152 -1.1158  1.8836
  112SLPC  C21211496  -0.593   5.292   3.756 -0.1023 -0.0378 -0.7471
  112SLPC  H12R11497  -0.568   5.203   3.816  0.3274  0.3757 -0.3033
  112SLPC  C21311498  -0.649   5.402   3.810 -0.0320  0.2445 -0.3123
  112SLPC  H13R11499  -0.663   5.400   3.919  0.4574 -1.1920 -0.2479
  112SLPC  C21411500  -0.696   5.522   3.727  0.1362  0.7312 -0.3027
  112SLPC  H14R11501  -0.684   5.509   3.618  1.2106 -4.1859  0.1578
  112SLPC  H14S11502  -0.631   5.607   3.759 -0.3800  0.1625  2.5846
  112SLPC  C21511503  -0.839   5.569   3.763 -0.0506 -0.4210  0.5689
  112SLPC  H15R11504  -0.907   5.482   3.779  0.4460 -0.7347  0.9811
  112SLPC  H15S11505  -0.867   5.630   3.674  2.5033 -0.9588 -0.6804
  112SLPC  C21611506  -0.849   5.652   3.889  0.8622 -0.3806 -0.0674
  112SLPC  H16R11507  -0.798   5.751   3.892  0.9586 -0.4530  0.8172
  112SLPC  H16S11508  -0.789   5.591   3.959 -0.5858 -0.9331  0.7369
  112SLPC  C21711509  -0.996   5.659   3.943 -0.9557  0.8363  0.7540
  112SLPC  H17R11510  -0.988   5.683   4.051  0.4708 -1.7802  1.2994
  112SLPC  H17S11511  -1.032   5.554   3.934 -2.4160  1.4325 -1.2874
  112SLPC  C21811512  -1.087   5.771   3.882  0.0238 -0.4061  0.5503
  112SLPC  H18R11513  -1.124   5.742   3.781 -0.9824  0.4052  0.6709
  112SLPC  H18S11514  -1.040   5.871   3.877  0.4035 -0.5820  0.4955
  112SLPC  H18T11515  -1.175   5.768   3.950  0.3124  1.1634  1.0310
  112SLPC   C3311516  -0.877   4.921   2.818  0.3700 -0.3884  0.4640
  112SLPC   H3X11517  -0.894   5.002   2.743  1.7342 -2.0400 -1.7748
  112SLPC   H3Y11518  -0.768   4.915   2.838  0.4650  1.0976  0.5185
  112SLPC   C3411519  -0.946   4.975   2.948  0.6093 -0.1125  0.1412
  112SLPC   H4X11520  -1.026   5.049   2.926  2.1145  1.4140 -0.4731
  112SLPC   H4Y11521  -0.866   5.030   3.003  2.1134  0.8090 -2.7781
  112SLPC   C3511522  -1.000   4.862   3.039  0.2427 -0.7554 -0.1066
  112SLPC   H5X11523  -0.917   4.791   3.058  1.5918  0.5990 -0.7185
  112SLPC   H5Y11524  -1.081   4.807   2.986 -1.6356  0.9605  0.8272
  112SLPC   C3611525  -1.066   4.918   3.171  0.2124  1.0122  0.2935
  112SLPC   H6X11526  -1.094   4.830   3.233 -1.8990  0.0385 -1.8699
  112SLPC   H6Y11527  -1.163   4.964   3.142 -0.6722 -1.1757 -0.5027
  112SLPC   C3711528  -0.987   5.017   3.258  0.1785 -0.1405  0.1733
  112SLPC   H7X11529  -0.963   5.115   3.213 -2.5832  0.5008 -0.1016
  112SLPC   H7Y11530  -0.889   4.966   3.268 -0.0623 -0.5134  0.6927
  112SLPC   C3811531  -1.051   5.054   3.388 -0.0024 -0.3429 -0.1350
  112SLPC   H8X11532  -1.141   5.116   3.369  0.8463  0.6951 -0.9138
  112SLPC   H8Y11533  -0.982   5.128   3.435 -1.5332  0.7130  0.5569
  112SLPC   C3911534  -1.063   4.938   3.486  0.1845  0.7730 -0.4683
  112SLPC   H9X11535  -0.998   4.853   3.458 -0.1302  0.6133 -0.7217
  112SLPC   H9Y11536  -1.171   4.911   3.490  0.6482 -1.0225  0.6518
  112SLPC  C31011537  -1.032   4.977   3.636  0.0623 -0.1811  0.5437
  112SLPC  H10X11538  -1.120   5.040   3.660 -0.3583  0.9128 -3.1970
  112SLPC  H10Y11539  -0.937   5.033   3.645 -0.0812 -0.2305  3.1838
  112SLPC  C31111540  -1.024   4.855   3.731 -0.4629  0.4031  0.1861
  112SLPC  H11X11541  -0.936   4.793   3.705 -0.9145  0.1902 -0.8996
  112SLPC  H11Y11542  -1.121   4.802   3.716  0.9800 -2.2855 -0.1508
  112SLPC  C31211543  -0.999   4.883   3.880 -0.3943 -0.7571  0.3768
  112SLPC  H12X11544  -0.908   4.945   3.893 -0.5852 -0.4995  0.4886
  112SLPC  H12Y11545  -0.953   4.792   3.925  2.3864  1.1326  1.6519
  112SLPC  C31311546  -1.121   4.911   3.971 -0.4560 -0.2262  0.8527
  112SLPC  H13X11547  -1.123   4.848   4.062  0.1068  0.5014  1.3767
  112SLPC  H13Y11548  -1.200   4.877   3.900  1.1198 -0.6409 -0.7815
  112SLPC  C31411549  -1.146   5.060   4.000  0.2302  0.0979 -0.0056
  112SLPC  H14X11550  -1.243   5.069   4.053 -0.6275 -0.1536 -1.4935
  112SLPC  H14Y11551  -1.157   5.129   3.914  0.7429  2.4916  1.7346
  112SLPC  C31511552  -1.047   5.127   4.098 -0.5781 -0.8572  0.5591
  112SLPC  H15X11553  -0.950   5.135   4.044 -1.3646 -1.6310 -1.0269
  112SLPC  H15Y11554  -1.041   5.065   4.190  2.5100 -0.5329  0.6775
  112SLPC  C31611555  -1.089   5.273   4.135  0.8328 -0.0802  0.6451
  112SLPC  H16X11556  -1.190   5.262   4.179 -0.5280 -0.1309 -2.2700
  112SLPC  H16Y11557  -1.099   5.321   4.035 -1.7309 -0.5737  0.6080
  112SLPC  C31711558  -0.994   5.365   4.210 -0.0223  0.6601 -0.1224
  112SLPC  H17X11559  -0.907   5.399   4.150  0.7108 -0.8102  0.0772
  112SLPC  H17Y11560  -0.953   5.317   4.301  1.3401  3.2430  0.7182
  112SLPC  C31811561  -1.078   5.492   4.255 -0.0937  0.2883 -0.9551
  112SLPC  H18X11562  -1.173   5.454   4.299  0.8670 -0.7831  0.3032
  112SLPC  H18Y11563  -1.106   5.552   4.166 -1.8287 -0.4356 -0.9366
  112SLPC  H18Z11564  -1.025   5.547   4.336  1.8118 -0.8446 -1.3784
  113SAPC     N11565   4.558   4.098   6.263  0.1064  0.5053  0.3428
  113SAPC   C1211566   4.548   4.001   6.144  0.0020 -0.0115 -0.7247
  113SAPC  H12A11567   4.499   3.915   6.187 -1.2506  0.7915 -0.4866
  113SAPC  H12B11568   4.647   3.965   6.119 -0.7478 -1.3525 -1.9023
  113SAPC   C1311569   4.618   4.039   6.382 -0.5433  0.4956  0.0358
  113SAPC  H13A11570   4.552   3.969   6.430  1.4982 -2.0382 -0.6251
  113SAPC  H13B11571   4.705   3.979   6.360 -1.5954 -0.8336 -0.6449
  113SAPC  H13C11572   4.648   4.116   6.452  2.6678  1.3086 -1.9853
  113SAPC   C1411573   4.632   4.223   6.221 -0.3910  0.0564  0.0270
  113SAPC  H14A11574   4.599   4.264   6.127 -0.6933 -0.2088  0.0134
  113SAPC  H14B11575   4.620   4.305   6.289  2.0837  0.7547 -0.2791
  113SAPC  H14C11576   4.738   4.208   6.206 -0.3853  1.3300 -1.4747
  113SAPC   C1511577   4.420   4.147   6.306 -0.8796 -0.5217  0.3468
  113SAPC  H15A11578   4.363   4.176   6.219 -1.1049  0.8407  0.9231
  113SAPC  H15B11579   4.366   4.082   6.373 -0.9435 -1.7447 -0.8502
  113SAPC  H15C11580   4.437   4.235   6.365 -0.4517 -0.5519  0.2692
  113SAPC   C1111581   4.461   4.048   6.025 -0.3214  0.0603  0.5070
  113SAPC  H11A11582   4.355   4.045   6.057  0.0101  1.8850  1.9539
  113SAPC  H11B11583   4.478   3.973   5.944  0.7986 -2.3183  2.7802
  113SAPC     P11584   4.394   4.300   5.969 -0.3994 -0.0773 -0.0073
  113SAPC   O1311585   4.302   4.287   6.078 -0.3687 -0.1485  0.3908
  113SAPC   O1411586   4.478   4.423   5.947  0.2434 -0.0435 -0.1520
  113SAPC   O1211587   4.492   4.179   5.972  0.3342  0.2703 -0.9786
  113SAPC   O1111588   4.316   4.281   5.837 -0.1328  0.0117 -0.3996
  113SAPC    C111589   4.361   4.202   5.730  0.5452 -0.1024  0.3645
  113SAPC    HA11590   4.410   4.109   5.765  0.9141  0.3084  0.9614
  113SAPC    HB11591   4.276   4.174   5.665 -0.8689  0.0649  2.0615
  113SAPC    C211592   4.461   4.277   5.638 -0.1508 -0.1708  1.0600
  113SAPC    HS11593   4.540   4.315   5.707  1.4025 -1.2048 -0.0841
  113SAPC   O2111594   4.387   4.388   5.579  0.3695 -0.2413  0.3550
  113SAPC   C2111595   4.463   4.493   5.540 -0.0431 -0.3081  0.2880
  113SAPC   O2211596   4.584   4.496   5.547 -0.1394  0.6094 -0.0546
  113SAPC   C2211597   4.376   4.598   5.471  0.5265 -0.3934 -0.6747
  113SAPC   H2R11598   4.293   4.539   5.427 -0.6584  0.1607  0.7392
  113SAPC   H2S11599   4.334   4.673   5.540 -0.5652  0.6322 -2.3691
  113SAPC    C311600   4.522   4.197   5.520 -0.6576  0.5114 -0.2373
  113SAPC    HX11601   4.603   4.128   5.553 -2.7548 -1.4220  1.1960
  113SAPC    HY11602   4.570   4.260   5.443  2.8494  0.6961  1.8484
  113SAPC   O3111603   4.416   4.114   5.460  0.1858  0.5253 -0.4505
  113SAPC   C3111604   4.416   4.106   5.326 -0.0557 -0.1448 -0.1969
  113SAPC   O3211605   4.502   4.154   5.256  0.0541 -0.2217  0.3533
  113SAPC   C3211606   4.302   4.024   5.280  0.9281 -0.1144  0.7393
  113SAPC   H2X11607   4.303   3.930   5.340 -0.7171  1.3917  3.3208
  113SAPC   H2Y11608   4.318   4.004   5.172 -3.1063 -2.3253  0.3737
  113SAPC   C2311609   4.457   4.669   5.368 -0.4329 -0.4945  1.0344
  113SAPC   H3R11610   4.550   4.704   5.419  0.0211 -2.4191  1.6167
  113SAPC   H3S11611   4.393   4.753   5.334 -0.0251 -0.2577  0.8349
  113SAPC   C2411612   4.502   4.588   5.243  0.2161 -0.5330 -0.7066
  113SAPC   H4R11613   4.413   4.563   5.182 -0.0188  3.0857 -2.0885
  113SAPC   H4S11614   4.542   4.495   5.288 -1.6930 -0.2813  1.7405
  113SAPC   C2511615   4.607   4.663   5.171 -0.0964 -0.0056  0.3765
  113SAPC   H5R11616   4.686   4.700   5.237  0.7453 -1.4444  0.2101
  113SAPC   C2611617   4.623   4.661   5.038 -0.6019 -0.2141  0.5987
  113SAPC   H6R11618   4.703   4.724   4.996 -2.7251  0.7581 -2.2086
  113SAPC   C2711619   4.534   4.604   4.929  0.8176  0.6801  0.3259
  113SAPC   H7R11620   4.557   4.650   4.831  1.2369 -0.6698 -0.2374
  113SAPC   H7S11621   4.427   4.623   4.954  0.8868 -1.2147  2.4111
  113SAPC   C2811622   4.561   4.452   4.917  0.2858 -0.4751 -0.7011
  113SAPC   H8R11623   4.591   4.402   5.011 -3.5509  0.8907  1.4479
  113SAPC   C2911624   4.499   4.382   4.817  0.9277  0.3064  0.5220
  113SAPC   H9R11625   4.511   4.273   4.820  0.0005  0.2287  1.8722
  113SAPC  C21011626   4.406   4.439   4.706  0.0864 -0.2224  0.3260
  113SAPC  H10R11627   4.366   4.541   4.723 -1.2613 -0.5819 -0.4720
  113SAPC  H10S11628   4.319   4.370   4.696  1.0473 -1.5115  0.6138
  113SAPC  C21111629   4.476   4.446   4.577 -0.0163 -0.0539  0.3461
  113SAPC  H11R11630   4.586   4.444   4.580  0.0210 -1.3025 -0.7720
  113SAPC  C21211631   4.410   4.465   4.459 -0.5235 -0.0961 -0.2060
  113SAPC  H12R11632   4.473   4.472   4.370  2.5884  0.0632  1.8749
  113SAPC  C21311633   4.262   4.479   4.441  0.4484 -0.6301  0.0418
  113SAPC  H13R11634   4.200   4.469   4.533  1.0665  2.9175  1.0220
  113SAPC  H13S11635   4.234   4.402   4.367 -0.3839 -1.7686  1.4805
  113SAPC  C21411636   4.220   4.618   4.392  0.7226 -0.0913 -0.2612
  113SAPC  H14R11637   4.299   4.690   4.364 -0.4683  0.2235 -3.2458
  113SAPC  C21511638   4.101   4.676   4.406 -0.2491 -0.5714  0.0374
  113SAPC  H15R11639   4.090   4.773   4.356  2.2202  0.1033  0.6864
  113SAPC  C21611640   3.970   4.610   4.455 -0.2451 -0.6554  0.5550
  113SAPC  H16R11641   3.996   4.503   4.473 -1.7032 -1.2186 -0.4450
  113SAPC  H16S11642   3.891   4.615   4.376  0.0337  0.5566  0.3352
  113SAPC  C21711643   3.925   4.663   4.596 -0.2285 -0.2751 -0.3820
  113SAPC  H17R11644   3.832   4.612   4.629  0.0627 -0.7881 -0.3363
  113SAPC  H17S11645   3.907   4.772   4.588 -2.8557 -0.6068  0.0582
  113SAPC  C21811646   4.041   4.650   4.709  0.2477  0.3949  0.7247
  113SAPC  H18R11647   4.132   4.701   4.671 -0.1176  1.1545  0.8511
  113SAPC  H18S11648   4.067   4.542   4.716  0.7110  0.5178  0.8959
  113SAPC  C21911649   4.001   4.711   4.847 -0.4261 -0.6167  0.3980
  113SAPC  H19R11650   3.897   4.674   4.862  0.0968 -1.8839  1.1290
  113SAPC  H19S11651   3.991   4.821   4.838  0.0659 -0.6525 -0.7312
  113SAPC  C22011652   4.084   4.661   4.968 -0.8062  0.1136  0.6833
  113SAPC  H20R11653   4.187   4.702   4.959 -0.3553 -0.8386  1.3602
  113SAPC  H20S11654   4.099   4.552   4.978 -2.3388 -0.1393  0.5734
  113SAPC  H20T11655   4.047   4.699   5.066 -1.1541  0.3833  0.4520
  113SAPC   C3311656   4.176   4.103   5.297  0.7803  0.1906  0.3201
  113SAPC   H3X11657   4.183   4.152   5.396  2.3872 -0.5787  0.6289
  113SAPC   H3Y11658   4.088   4.036   5.286 -0.2856  1.8139 -1.9819
  113SAPC   C3411659   4.158   4.211   5.185 -0.3513 -0.4833  0.2926
  113SAPC   H4X11660   4.158   4.173   5.081  0.8260  2.1682 -0.7837
  113SAPC   H4Y11661   4.250   4.273   5.194  0.8691 -2.1656 -0.0546
  113SAPC   C3511662   4.039   4.304   5.207  0.1544  0.6914  0.1594
  113SAPC   H5X11663   3.947   4.243   5.215 -1.3047  2.6616 -0.7067
  113SAPC   H5Y11664   4.017   4.368   5.118  0.2228  2.5385  1.4107
  113SAPC   C3611665   4.045   4.396   5.336 -0.0221  0.6747  0.4559
  113SAPC   H6X11666   4.151   4.400   5.367  0.4337  0.5729 -1.0301
  113SAPC   H6Y11667   3.984   4.353   5.418  1.1582  0.5431  1.2734
  113SAPC   C3711668   3.991   4.531   5.311 -0.3967  0.1565  1.3306
  113SAPC   H7X11669   3.943   4.526   5.211 -1.8033  0.5510  1.9697
  113SAPC   H7Y11670   4.075   4.605   5.308 -0.7230  0.5028  0.3330
  113SAPC   C3811671   3.882   4.569   5.414 -0.0246 -0.0709 -0.6720
  113SAPC   H8X11672   3.928   4.551   5.514  1.2835 -0.2392 -1.2880
  113SAPC   H8Y11673   3.800   4.495   5.408 -0.9219  0.7250  0.9520
  113SAPC   C3911674   3.832   4.708   5.414 -0.1845 -0.5662  0.3086
  113SAPC   H9X11675   3.912   4.769   5.461 -1.1238 -1.4429  3.2962
  113SAPC   H9Y11676   3.744   4.715   5.481  0.1264  0.5697  0.6248
  113SAPC  C31011677   3.804   4.780   5.283 -0.2227  0.4555  0.5141
  113SAPC  H10X11678   3.759   4.705   5.214 -0.1515 -0.8309  1.8216
  113SAPC  H10Y11679   3.901   4.810   5.237  1.9269 -3.0347  2.2884
  113SAPC  C31111680   3.712   4.900   5.290 -0.6261  0.1736 -0.1585
  113SAPC  H11X11681   3.741   4.974   5.368  1.4736 -1.4771  0.7230
  113SAPC  H11Y11682   3.617   4.857   5.327 -0.2688  1.0760  1.9575
  113SAPC  C31211683   3.684   4.978   5.151  0.3524  0.1652 -0.2720
  113SAPC  H12X11684   3.619   5.062   5.183 -0.0183 -0.2872  0.1948
  113SAPC  H12Y11685   3.616   4.908   5.096 -0.6893 -0.8546  2.1476
  113SAPC  C31311686   3.804   5.015   5.061  0.0784 -0.7109 -0.1963
  113SAPC  H13X11687   3.856   4.917   5.048 -0.1848 -1.0635  1.2590
  113SAPC  H13Y11688   3.860   5.077   5.134 -0.2659 -2.5942  1.7786
  113SAPC  C31411689   3.780   5.085   4.923  0.1344 -0.0413 -0.2162
  113SAPC  H14X11690   3.879   5.127   4.893  1.1272 -1.6540  0.6396
  113SAPC  H14Y11691   3.704   5.163   4.944 -1.0008 -1.0442 -0.5531
  113SAPC  C31511692   3.751   4.999   4.799 -0.2511  0.3782  0.5256
  113SAPC  H15X11693   3.648   4.957   4.806  0.3204 -1.3838 -0.8272
  113SAPC  H15Y11694   3.821   4.913   4.790 -0.3133  0.5201 -3.1035
  113SAPC  C31611695   3.764   5.064   4.660 -0.0734  1.0473  0.4288
  113SAPC  H16X11696   3.773   4.997   4.572  1.7538  0.4877  0.9994
  113SAPC  H16Y11697   3.859   5.119   4.668  0.1930  0.5093  1.1029
  113SAPC  C31711698   3.663   5.169   4.624 -0.3028 -0.1163  0.4885
  113SAPC  H17X11699   3.682   5.209   4.522  0.1931  1.4134  1.1573
  113SAPC  H17Y11700   3.660   5.248   4.702 -0.8813 -0.4826  0.8472
  113SAPC  C31811701   3.527   5.106   4.612  0.2746 -0.2318 -0.5032
  113SAPC  H18X11702   3.474   5.100   4.709  1.1489  0.4835  0.0290
  113SAPC  H18Y11703   3.532   5.005   4.565 -0.2880 -0.3333 -0.3530
  113SAPC  H18Z11704   3.461   5.174   4.554 -1.3652 -1.2004  0.1512
  114SAPC     N11705   0.986   3.922   6.337  0.0755  0.4213  0.3176
  114SAPC   C1211706   1.061   4.034   6.274 -0.8700  0.4682 -0.6972
  114SAPC  H12A11707   1.134   4.001   6.202  0.5600  2.5997 -0.3357
  114SAPC  H12B11708   1.127   4.089   6.340  1.5200 -3.2906  0.2934
  114SAPC   C1311709   0.880   3.980   6.428  0.0509  0.2260 -0.0634
  114SAPC  H13A11710   0.808   4.032   6.368  0.1236  0.4300  0.0223
  114SAPC  H13B11711   0.835   3.897   6.481 -0.1075 -0.6221 -1.4947
  114SAPC  H13C11712   0.932   4.050   6.492  3.7274 -2.8407  0.6749
  114SAPC   C1411713   0.917   3.843   6.233 -0.0293  0.4764  0.2414
  114SAPC  H14A11714   0.865   3.910   6.166  1.8526  1.8359  0.0629
  114SAPC  H14B11715   0.995   3.794   6.176  0.3417  0.1985  0.9809
  114SAPC  H14C11716   0.848   3.771   6.276 -0.4019  0.1263 -0.8971
  114SAPC   C1511717   1.077   3.836   6.415  0.5442  0.0561 -0.4096
  114SAPC  H15A11718   1.165   3.807   6.359 -0.7376 -3.0115 -1.0424
  114SAPC  H15B11719   1.114   3.884   6.504  3.7424 -2.2824 -0.2996
  114SAPC  H15C11720   1.038   3.749   6.466  3.7945 -0.0084  2.3409
  114SAPC   C1111721   0.978   4.137   6.184 -0.4062 -0.7255 -0.0344
  114SAPC  H11A11722   0.911   4.079   6.116 -0.5224 -1.5885  0.7910
  114SAPC  H11B11723   1.046   4.190   6.114 -0.3560 -1.7233 -0.7764
  114SAPC     P11724   0.960   4.353   6.331 -0.2662  0.5783  0.0963
  114SAPC   O1311725   0.848   4.444   6.359 -0.3356 -0.2472 -0.2743
  114SAPC   O1411726   1.029   4.311   6.457  0.2669  0.7879 -0.3915
  114SAPC   O1211727   0.897   4.226   6.261 -0.1102 -1.1668  0.0901
  114SAPC   O1111728   1.068   4.411   6.229 -0.2581  0.1298 -0.2797
  114SAPC    C111729   1.047   4.450   6.098  0.0301 -0.2411  0.7316
  114SAPC    HA11730   1.122   4.397   6.036 -0.7304 -0.7818  0.2489
  114SAPC    HB11731   0.959   4.392   6.061  0.9707 -1.4167  0.2706
  114SAPC    C211732   1.052   4.601   6.057  1.0927 -0.0647  0.3930
  114SAPC    HS11733   0.958   4.653   6.084  1.0765 -1.3238  3.1139
  114SAPC   O2111734   1.084   4.604   5.916 -0.2870  0.3864  0.2388
  114SAPC   C2111735   1.051   4.711   5.849 -0.3678  0.1446 -0.3673
  114SAPC   O2211736   1.011   4.812   5.898 -0.3577  0.0871 -0.3385
  114SAPC   C2211737   1.077   4.676   5.703  0.3451 -0.6170  0.3282
  114SAPC   H2R11738   1.179   4.631   5.695  0.0077 -1.2126 -0.8183
  114SAPC   H2S11739   0.997   4.601   5.687 -1.6038  1.6296 -1.0259
  114SAPC    C311740   1.161   4.673   6.141  0.4394  0.3687 -0.5250
  114SAPC    HX11741   1.128   4.661   6.247  1.3672 -1.2444 -0.3777
  114SAPC    HY11742   1.149   4.780   6.114 -1.5842  0.3394  0.0869
  114SAPC   O3111743   1.295   4.617   6.136 -0.2593 -0.2776 -0.9523
  114SAPC   C3111744   1.383   4.665   6.047  0.2537 -0.3058 -1.0141
  114SAPC   O3211745   1.368   4.768   5.981 -0.3575 -0.2333  0.2323
  114SAPC   C3211746   1.517   4.593   6.056  0.1661  0.1351 -0.5204
  114SAPC   H2X11747   1.500   4.489   6.092 -3.2088  1.3856  2.0780
  114SAPC   H2Y11748   1.570   4.653   6.133 -0.2956 -0.6013  0.3883
  114SAPC   C2311749   1.055   4.789   5.596 -0.8652  0.0383 -0.6456
  114SAPC   H3R11750   1.133   4.868   5.597 -1.1938  0.3698  0.4817
  114SAPC   H3S11751   0.961   4.838   5.630 -1.3754  0.0809 -2.0410
  114SAPC   C2411752   1.032   4.733   5.455 -0.4625  0.6701 -1.0484
  114SAPC   H4R11753   0.948   4.661   5.464  0.0107  0.1661 -0.5113
  114SAPC   H4S11754   1.121   4.683   5.411  0.1952  0.1929  0.7205
  114SAPC   C2511755   1.000   4.851   5.370  0.0696 -0.9787  0.5838
  114SAPC   H5R11756   1.029   4.942   5.423  0.9363 -0.6706 -0.3875
  114SAPC   C2611757   0.932   4.856   5.252 -0.1439  0.5264  0.4352
  114SAPC   H6R11758   0.948   4.950   5.196  1.6806 -1.2813 -2.3153
  114SAPC   C2711759   0.875   4.740   5.174 -0.2083  0.1302  0.1395
  114SAPC   H7R11760   0.910   4.640   5.208  1.2955  0.0708 -1.4039
  114SAPC   H7S11761   0.937   4.752   5.082  0.3614 -1.0349  0.3515
  114SAPC   C2811762   0.727   4.736   5.145  0.0313  0.0204 -0.1079
  114SAPC   H8R11763   0.662   4.743   5.233 -1.4116 -0.1325 -1.1276
  114SAPC   C2911764   0.664   4.744   5.023  0.3389  0.0632 -0.3519
  114SAPC   H9R11765   0.554   4.745   5.020  0.2065  0.7251  2.0539
  114SAPC  C21011766   0.721   4.768   4.886  0.4363 -0.4346 -0.3596
  114SAPC  H10R11767   0.830   4.793   4.887  0.9875 -2.6127  0.9373
  114SAPC  H10S11768   0.666   4.852   4.838 -0.9908 -0.5263  1.0370
  114SAPC  C21111769   0.708   4.651   4.787  0.3934  0.5909  0.1476
  114SAPC  H11R11770   0.686   4.555   4.836 -1.4253  0.2735 -1.1806
  114SAPC  C21211771   0.711   4.654   4.651 -0.0798 -0.7543 -0.2494
  114SAPC  H12R11772   0.668   4.572   4.593  0.5435 -0.7572 -0.7216
  114SAPC  C21311773   0.734   4.775   4.570  0.5418  0.1014 -0.3088
  114SAPC  H13R11774   0.797   4.753   4.480  0.9361  1.7800 -0.4788
  114SAPC  H13S11775   0.782   4.856   4.629 -0.2201  1.3922 -1.3943
  114SAPC  C21411776   0.604   4.833   4.515 -0.0880  0.2097  0.3729
  114SAPC  H14R11777   0.530   4.824   4.596 -0.4789 -2.2123 -0.1980
  114SAPC  C21511778   0.567   4.865   4.391 -0.2353 -0.2072  0.7692
  114SAPC  H15R11779   0.466   4.901   4.368 -0.3666 -0.8441  0.3286
  114SAPC  C21611780   0.645   4.861   4.264 -0.6273  0.3521  0.8028
  114SAPC  H16R11781   0.755   4.871   4.276 -0.7684  1.3005  1.3951
  114SAPC  H16S11782   0.607   4.948   4.207 -1.8259 -0.3318  0.5253
  114SAPC  C21711783   0.615   4.739   4.182  0.6443  0.4411  0.4833
  114SAPC  H17R11784   0.507   4.714   4.172  0.4212  2.1512 -2.5991
  114SAPC  H17S11785   0.649   4.646   4.232 -1.0981  0.9309  2.7620
  114SAPC  C21811786   0.663   4.751   4.042  0.3189 -0.7682 -0.0022
  114SAPC  H18R11787   0.772   4.775   4.038  0.0769  0.1882 -1.9045
  114SAPC  H18S11788   0.607   4.838   4.001  2.1243 -0.0402 -1.0643
  114SAPC  C21911789   0.636   4.628   3.960 -0.3818  0.4689  0.1250
  114SAPC  H19R11790   0.539   4.582   3.990  1.5302 -3.7479  0.5303
  114SAPC  H19S11791   0.716   4.554   3.981 -0.0733  0.3177 -1.4793
  114SAPC  C22011792   0.629   4.640   3.805 -0.0298 -0.5147  0.0200
  114SAPC  H20R11793   0.582   4.547   3.764 -2.1371  1.8353 -3.4297
  114SAPC  H20S11794   0.730   4.650   3.758  0.3895 -2.5337  0.3822
  114SAPC  H20T11795   0.564   4.722   3.767 -1.5941 -2.3020 -1.3793
  114SAPC   C3311796   1.610   4.602   5.933 -0.5578 -0.0613  0.8726
  114SAPC   H3X11797   1.709   4.557   5.956  0.2244  1.5731  0.9104
  114SAPC   H3Y11798   1.629   4.707   5.901 -0.0089 -0.6480 -0.8332
  114SAPC   C3411799   1.543   4.539   5.813  0.6804  0.5525  0.0513
  114SAPC   H4X11800   1.467   4.611   5.777  0.8957  1.5948  1.6176
  114SAPC   H4Y11801   1.489   4.447   5.843 -0.0701  0.9309 -0.1369
  114SAPC   C3511802   1.645   4.504   5.707 -0.0697  0.2001  0.0204
  114SAPC   H5X11803   1.716   4.438   5.761 -0.7633  0.4791  1.3079
  114SAPC   H5Y11804   1.697   4.593   5.666  0.8239 -0.6032 -0.6273
  114SAPC   C3611805   1.572   4.437   5.585  0.1111 -0.4804  0.1938
  114SAPC   H6X11806   1.536   4.341   5.628  1.0544 -0.5321  0.9141
  114SAPC   H6Y11807   1.649   4.418   5.508  0.6296  1.3211  0.2418
  114SAPC   C3711808   1.458   4.511   5.524  0.4559  0.1940  0.0744
  114SAPC   H7X11809   1.484   4.619   5.522  1.4715 -0.0447  0.0181
  114SAPC   H7Y11810   1.366   4.502   5.585  1.1027  2.3246  1.4521
  114SAPC   C3811811   1.424   4.477   5.375 -0.0543  0.4025  0.0257
  114SAPC   H8X11812   1.335   4.412   5.383  1.7602 -1.9709  2.9204
  114SAPC   H8Y11813   1.514   4.426   5.334  0.2338  2.1053 -1.6070
  114SAPC   C3911814   1.407   4.589   5.282 -0.1440 -0.6492 -0.4440
  114SAPC   H9X11815   1.496   4.657   5.289 -1.3676  0.8655  1.9847
  114SAPC   H9Y11816   1.317   4.647   5.312  0.5239 -1.5196  3.9157
  114SAPC  C31011817   1.405   4.549   5.133  1.1854  0.0382 -0.6788
  114SAPC  H10X11818   1.307   4.497   5.132  1.6733 -0.9228 -0.6628
  114SAPC  H10Y11819   1.488   4.475   5.125  0.0378 -1.3896  0.1936
  114SAPC  C31111820   1.419   4.662   5.037  0.4902  0.2541  0.3119
  114SAPC  H11X11821   1.463   4.613   4.946  0.1876 -1.7840  1.2066
  114SAPC  H11Y11822   1.498   4.731   5.074  1.0143 -1.0296  1.6919
  114SAPC  C31211823   1.290   4.728   5.006 -0.0361  0.0965  0.0614
  114SAPC  H12X11824   1.245   4.768   5.099 -0.1706  2.0488 -0.8099
  114SAPC  H12Y11825   1.223   4.649   4.965 -1.7728 -0.0252  2.8596
  114SAPC  C31311826   1.294   4.842   4.895 -0.0480 -0.4021  0.2376
  114SAPC  H13X11827   1.327   4.785   4.805 -0.3761 -1.5416  0.8283
  114SAPC  H13Y11828   1.376   4.909   4.928 -0.4562 -0.2294  0.9057
  114SAPC  C31411829   1.168   4.929   4.861 -0.1706 -0.7340 -0.2683
  114SAPC  H14X11830   1.081   4.864   4.834 -1.1263  0.4636 -0.1650
  114SAPC  H14Y11831   1.203   4.981   4.769 -2.3409 -1.1174 -1.3957
  114SAPC  C31511832   1.132   5.035   4.968 -0.7174 -0.3573 -0.1398
  114SAPC  H15X11833   1.228   5.088   4.984  0.6485 -2.2623 -1.5811
  114SAPC  H15Y11834   1.091   4.978   5.054 -1.2712  1.3515  0.7755
  114SAPC  C31611835   1.038   5.145   4.913  0.3255  0.6246 -0.2259
  114SAPC  H16X11836   0.940   5.109   4.875 -0.1387 -0.0711  1.5059
  114SAPC  H16Y11837   1.084   5.188   4.822 -0.2805 -0.9476 -1.3203
  114SAPC  C31711838   1.024   5.258   5.019 -0.0398 -0.7856  0.8892
  114SAPC  H17X11839   0.944   5.331   4.990  0.7179 -0.2194  0.1704
  114SAPC  H17Y11840   1.125   5.302   5.028  0.3044 -1.2140 -0.6658
  114SAPC  C31811841   0.984   5.207   5.160  0.5432 -0.2144  0.1159
  114SAPC  H18X11842   1.069   5.151   5.203  2.0552  1.9015  0.0104
  114SAPC  H18Y11843   0.892   5.146   5.145 -0.2522  1.6245 -3.6254
  114SAPC  H18Z11844   0.963   5.295   5.225  0.8102 -1.1229  1.4702
  115SAPC     N11845   6.245   2.851   6.364  0.1577  0.4746 -0.3037
  115SAPC   C1211846   6.372   2.773   6.393 -0.0985  0.1609  0.0687
  115SAPC  H12A11847   6.453   2.841   6.415  0.9268 -0.4825 -1.4988
  115SAPC  H12B11848   6.397   2.713   6.307  0.7649  0.5640  0.0284
  115SAPC   C1311849   6.274   2.928   6.237 -0.1685 -0.1909 -0.1211
  115SAPC  H13A11850   6.291   2.850   6.165  1.6671 -2.5752  2.6446
  115SAPC  H13B11851   6.190   2.983   6.198  0.2684  0.3374 -0.3224
  115SAPC  H13C11852   6.361   2.987   6.262  0.1233 -1.8514  3.4044
  115SAPC   C1411853   6.125   2.768   6.339 -0.1040  0.5301  0.2157
  115SAPC  H14A11854   6.034   2.823   6.320 -0.9367 -0.6807  0.5841
  115SAPC  H14B11855   6.148   2.703   6.256  0.8179  1.4038 -0.2293
  115SAPC  H14C11856   6.100   2.705   6.423  0.9219  0.0232  0.1594
  115SAPC   C1511857   6.221   2.945   6.473  0.5363  0.1514  0.4154
  115SAPC  H15A11858   6.309   3.002   6.497 -0.0407  0.9880  0.5934
  115SAPC  H15B11859   6.143   3.017   6.452  0.6526 -0.1692 -1.2521
  115SAPC  H15C11860   6.179   2.898   6.561  1.3646  0.7461  1.1462
  115SAPC   C1111861   6.366   2.675   6.518 -0.5148  0.2546  0.2021
  115SAPC  H11A11862   6.336   2.728   6.611  2.7089 -1.1764  2.2006
  115SAPC  H11B11863   6.472   2.651   6.541 -0.6878 -0.5417  0.1953
  115SAPC     P11864   6.332   2.424   6.437 -0.1114 -0.1489 -0.3869
  115SAPC   O1311865   6.356   2.339   6.558  0.3647 -0.4675  0.0367
  115SAPC   O1411866   6.221   2.385   6.349  0.4128  0.0829 -0.6096
  115SAPC   O1211867   6.293   2.569   6.483  0.1122 -0.0352  0.7538
  115SAPC   O1111868   6.470   2.451   6.357  0.3288 -0.0208  0.0935
  115SAPC    C111869   6.523   2.335   6.284  0.3351  0.2876  0.4645
  115SAPC    HA11870   6.521   2.249   6.354 -1.9319  0.6846  0.9794
  115SAPC    HB11871   6.470   2.316   6.188  1.5647 -0.0035 -0.1734
  115SAPC    C211872   6.669   2.357   6.239  0.0936  0.3154  0.1833
  115SAPC    HS11873   6.738   2.319   6.317  0.5690 -0.6272 -0.6740
  115SAPC   O2111874   6.688   2.497   6.228  0.7422 -0.8332 -0.1909
  115SAPC   C2111875   6.762   2.555   6.310 -0.3128  0.4792 -0.8368
  115SAPC   O2211876   6.844   2.503   6.388  0.3744 -0.1387 -0.4556
  115SAPC   C2211877   6.752   2.706   6.292  0.0784 -0.4729  0.2025
  115SAPC   H2R11878   6.648   2.745   6.286  0.6616  0.9058 -2.8470
  115SAPC   H2S11879   6.805   2.741   6.382 -2.0634 -2.1240  2.2367
  115SAPC    C311880   6.699   2.278   6.110  0.1354 -0.3512 -0.0485
  115SAPC    HX11881   6.698   2.169   6.133  0.7214 -0.2022  0.7319
  115SAPC    HY11882   6.806   2.309   6.105 -0.6133  2.9135  1.3385
  115SAPC   O3111883   6.620   2.319   5.993 -0.4333 -0.0028 -0.1184
  115SAPC   C3111884   6.531   2.233   5.941 -0.0361  0.6482 -0.2739
  115SAPC   O3211885   6.509   2.124   5.988  0.1454 -0.7181 -0.5580
  115SAPC   C3211886   6.473   2.280   5.813  0.0992 -0.0198 -0.2233
  115SAPC   H2X11887   6.559   2.296   5.744  2.2700 -0.3356  2.2761
  115SAPC   H2Y11888   6.432   2.382   5.830  1.2701  0.9698 -2.7580
  115SAPC   C2311889   6.835   2.767   6.176  0.2396  0.4580  0.8332
  115SAPC   H3R11890   6.938   2.724   6.183  0.4900  1.2361  2.4677
  115SAPC   H3S11891   6.848   2.876   6.194 -1.6871  1.4407 -2.7433
  115SAPC   C2411892   6.772   2.746   6.040 -0.1143  0.8023 -0.7312
  115SAPC   H4R11893   6.685   2.813   6.027 -3.4730 -2.2010  3.1554
  115SAPC   H4S11894   6.729   2.643   6.040  0.2934  0.6279 -0.3280
  115SAPC   C2511895   6.879   2.749   5.940 -0.2181 -0.4288 -0.7973
  115SAPC   H5R11896   6.961   2.680   5.965  0.1078  0.0113 -0.6434
  115SAPC   C2611897   6.876   2.808   5.819  0.1399 -0.2796 -0.6763
  115SAPC   H6R11898   6.961   2.793   5.751  1.4787  2.5363  0.2336
  115SAPC   C2711899   6.766   2.900   5.763 -0.0014 -0.1601  0.3453
  115SAPC   H7R11900   6.812   2.985   5.709 -1.1415  0.8564  0.9218
  115SAPC   H7S11901   6.710   2.956   5.841  1.9032  0.7857  1.0772
  115SAPC   C2811902   6.679   2.824   5.673  0.3767 -0.0800  0.3690
  115SAPC   H8R11903   6.594   2.772   5.719 -1.3555  0.0394 -2.4407
  115SAPC   C2911904   6.693   2.827   5.539  0.3601  0.3223 -0.1276
  115SAPC   H9R11905   6.626   2.768   5.476  1.4219  0.9546 -1.9387
  115SAPC  C21011906   6.788   2.902   5.448 -0.0998  0.1570 -0.4184
  115SAPC  H10R11907   6.787   3.004   5.493 -1.6277 -0.1531  0.3208
  115SAPC  H10S11908   6.746   2.907   5.346  0.4452  1.3677 -0.5964
  115SAPC  C21111909   6.929   2.850   5.443 -0.5916  0.2382  0.0189
  115SAPC  H11R11910   6.949   2.781   5.527 -0.4071 -0.6398 -0.7336
  115SAPC  C21211911   7.016   2.861   5.337 -0.7761  0.1115 -0.2813
  115SAPC  H12R11912   7.119   2.820   5.341 -0.8428  0.0047  0.4412
  115SAPC  C21311913   6.986   2.926   5.208 -0.1374 -0.1807 -0.2491
  115SAPC  H13R11914   6.879   2.905   5.189 -0.7200 -1.3273  3.5515
  115SAPC  H13S11915   7.050   2.870   5.136  1.0093  0.6468  0.0841
  115SAPC  C21411916   7.004   3.079   5.200 -0.7022  0.2554 -0.7284
  115SAPC  H14R11917   7.009   3.137   5.294 -1.2732 -0.1100 -0.4649
  115SAPC  C21511918   7.025   3.148   5.085 -0.0946  0.5201  0.1514
  115SAPC  H15R11919   7.054   3.253   5.099 -3.2992  1.4004  0.9612
  115SAPC  C21611920   7.027   3.105   4.940  0.1167 -0.0928 -0.2895
  115SAPC  H16R11921   6.922   3.100   4.906 -0.2595  0.0336  0.8373
  115SAPC  H16S11922   7.076   3.005   4.933  1.7810  0.5126  1.7313
  115SAPC  C21711923   7.085   3.214   4.846  0.2479 -0.4197 -0.7649
  115SAPC  H17R11924   7.103   3.172   4.745  0.0887 -2.6676  0.0933
  115SAPC  H17S11925   7.184   3.244   4.887 -0.0245  0.5114 -0.7492
  115SAPC  C21811926   7.002   3.336   4.842 -0.0310  0.1276 -0.0494
  115SAPC  H18R11927   6.953   3.373   4.934 -0.4951 -2.1884  0.7057
  115SAPC  H18S11928   6.915   3.325   4.774 -0.4844  3.6534 -0.2214
  115SAPC  C21911929   7.087   3.453   4.779  1.1269  0.0035 -0.0332
  115SAPC  H19R11930   7.177   3.477   4.839 -0.7986  1.1953  2.6318
  115SAPC  H19S11931   7.024   3.545   4.783  0.5709 -0.3636 -0.1396
  115SAPC  C22011932   7.131   3.432   4.634  0.1718  0.2725  0.0390
  115SAPC  H20R11933   7.037   3.404   4.582  0.7264  3.4168 -3.0056
  115SAPC  H20S11934   7.194   3.340   4.629 -0.7363 -0.3869  0.5120
  115SAPC  H20T11935   7.171   3.523   4.585  1.5159 -0.4837 -0.3419
  115SAPC   C3311936   6.363   2.185   5.750 -0.2352  0.0369 -0.4237
  115SAPC   H3X11937   6.288   2.180   5.831  1.3026 -2.9061  0.9862
  115SAPC   H3Y11938   6.392   2.079   5.734 -1.7713 -0.4453 -0.1296
  115SAPC   C3411939   6.290   2.250   5.634  0.0731 -0.1742  0.9737
  115SAPC   H4X11940   6.270   2.355   5.665 -1.8258 -0.6378  1.4315
  115SAPC   H4Y11941   6.189   2.208   5.615 -0.7569  1.8956  0.6051
  115SAPC   C3511942   6.360   2.236   5.501 -0.3806 -0.6768  0.8652
  115SAPC   H5X11943   6.284   2.211   5.424 -0.4226  2.1945 -0.1414
  115SAPC   H5Y11944   6.433   2.152   5.501 -0.0134 -0.4092 -0.9175
  115SAPC   C3611945   6.444   2.355   5.455 -0.1023 -0.4494  0.6947
  115SAPC   H6X11946   6.500   2.328   5.363 -1.0813 -0.0109 -0.0440
  115SAPC   H6Y11947   6.521   2.381   5.531  0.1530 -3.5816  1.6482
  115SAPC   C3711948   6.363   2.477   5.422 -0.1004 -0.8573 -0.7111
  115SAPC   H7X11949   6.328   2.542   5.504  1.0515  0.1341 -0.9687
  115SAPC   H7Y11950   6.275   2.435   5.369 -0.9627 -2.7896  1.9921
  115SAPC   C3811951   6.450   2.564   5.333 -1.1396 -0.2039 -0.7744
  115SAPC   H8X11952   6.480   2.506   5.243  0.3347 -0.2520 -0.2880
  115SAPC   H8Y11953   6.542   2.583   5.394 -0.4850  0.0867 -1.8145
  115SAPC   C3911954   6.391   2.700   5.282 -0.1173 -0.2541 -0.7114
  115SAPC   H9X11955   6.474   2.751   5.231 -0.4403 -0.9841 -2.0223
  115SAPC   H9Y11956   6.368   2.766   5.369  0.0482  1.3141 -1.8382
  115SAPC  C31011957   6.275   2.705   5.180 -0.5091 -0.7083 -0.4959
  115SAPC  H10X11958   6.216   2.798   5.196 -1.6505 -1.1827 -1.7877
  115SAPC  H10Y11959   6.200   2.633   5.221 -0.2355 -0.3817  0.6249
  115SAPC  C31111960   6.311   2.705   5.033 -0.3249  0.2145  0.2690
  115SAPC  H11X11961   6.374   2.614   5.023 -0.8023  0.0741 -2.0587
  115SAPC  H11Y11962   6.375   2.793   5.009  1.8377 -1.8593 -2.2617
  115SAPC  C31211963   6.185   2.684   4.944  0.7808  0.0314  0.3978
  115SAPC  H12X11964   6.111   2.764   4.966  0.3442  0.2998 -1.7928
  115SAPC  H12Y11965   6.150   2.584   4.977  0.4229  0.2462  0.6764
  115SAPC  C31311966   6.195   2.689   4.788  0.2101 -0.3422 -0.0901
  115SAPC  H13X11967   6.092   2.686   4.746  0.8598 -2.4869 -1.7369
  115SAPC  H13Y11968   6.249   2.604   4.740  0.6010 -1.2101  1.8169
  115SAPC  C31411969   6.257   2.825   4.747 -0.6331  0.0891  0.2190
  115SAPC  H14X11970   6.262   2.816   4.637 -0.7504 -1.8391  0.3364
  115SAPC  H14Y11971   6.356   2.828   4.797  0.1236 -0.8600 -1.1855
  115SAPC  C31511972   6.191   2.957   4.797 -0.0423  0.0466  0.5536
  115SAPC  H15X11973   6.185   2.954   4.908  1.2162  0.6481  0.6554
  115SAPC  H15Y11974   6.091   2.948   4.751  0.9155 -0.7326 -1.4982
  115SAPC  C31611975   6.259   3.092   4.763  0.1777  0.1145 -0.1028
  115SAPC  H16X11976   6.335   3.127   4.836  1.1290  0.9220 -1.4367
  115SAPC  H16Y11977   6.187   3.176   4.770 -0.6894 -0.5715 -0.5898
  115SAPC  C31711978   6.325   3.089   4.621 -0.4946  0.6891 -1.0178
  115SAPC  H17X11979   6.247   3.052   4.550 -1.7649  0.4312  0.4576
  115SAPC  H17Y11980   6.409   3.016   4.612 -1.3663 -0.2875 -1.5701
  115SAPC  C31811981   6.373   3.228   4.583  0.3606 -0.0633 -0.2044
  115SAPC  H18X11982   6.381   3.238   4.473 -0.9548 -0.5797 -0.3645
  115SAPC  H18Y11983   6.482   3.238   4.602  0.5894 -0.9420 -1.0024
  115SAPC  H18Z11984   6.318   3.318   4.618  1.1697  0.0051  0.9507
  116SAPC     N11985   4.478   6.455   6.782 -0.4735  0.2151 -0.2723
  116SAPC   C1211986   4.408   6.432   6.652  0.0947  0.4280  0.5027
  116SAPC  H12A11987   4.401   6.325   6.639  1.0354  0.5085 -0.8707
  116SAPC  H12B11988   4.476   6.463   6.574  1.0018  1.0347  1.5123
  116SAPC   C1311989   4.612   6.396   6.776  0.2205 -0.2405  0.3113
  116SAPC  H13A11990   4.662   6.420   6.682 -0.3847  2.5279  0.6061
  116SAPC  H13B11991   4.675   6.431   6.856 -1.1706  0.3112  1.1904
  116SAPC  H13C11992   4.603   6.288   6.776  0.6475 -0.3151 -1.4290
  116SAPC   C1411993   4.494   6.606   6.799  0.6385 -0.7543 -0.3678
  116SAPC  H14A11994   4.404   6.664   6.785  0.8515  0.1129  1.5102
  116SAPC  H14B11995   4.530   6.627   6.899 -0.6227  1.4157 -0.3116
  116SAPC  H14C11996   4.565   6.635   6.723  0.6176 -1.4511 -0.6643
  116SAPC   C1511997   4.407   6.387   6.896 -0.1568  0.3965  0.0471
  116SAPC  H15A11998   4.300   6.399   6.893 -0.3982 -1.4491  0.4330
  116SAPC  H15B11999   4.409   6.281   6.879 -0.7408 -0.0323  2.3273
  116SAPC  H15C12000   4.453   6.398   6.993 -0.8169  0.6573  0.3336
  116SAPC   C1112001   4.275   6.503   6.623 -0.1680 -1.0532 -0.6064
  116SAPC  H11A12002   4.211   6.494   6.713  1.1946  0.4581  0.5816
  116SAPC  H11B12003   4.211   6.458   6.544 -0.1705  0.3186 -1.4218
  116SAPC     P12004   4.354   6.682   6.454  0.0974  0.3320 -0.5665
  116SAPC   O1312005   4.389   6.828   6.463 -0.1892 -0.2589 -0.3012
  116SAPC   O1412006   4.466   6.595   6.423 -0.2219  0.6683  0.4346
  116SAPC   O1212007   4.291   6.644   6.593 -0.3211 -0.2354 -0.7037
  116SAPC   O1112008   4.234   6.659   6.354  0.2426  0.3269  0.5217
  116SAPC    C112009   4.110   6.728   6.384  0.4456 -0.2717  0.2214
  116SAPC    HA12010   4.082   6.702   6.488  0.3626 -0.4919  0.1448
  116SAPC    HB12011   4.129   6.837   6.377 -1.0250 -0.0227 -0.4834
  116SAPC    C212012   3.989   6.699   6.288  0.0260  0.7095 -0.1814
  116SAPC    HS12013   3.937   6.610   6.330  0.8724  0.2923  0.0062
  116SAPC   O2112014   4.043   6.670   6.159 -0.1018 -0.3274  0.0348
  116SAPC   C2112015   3.950   6.632   6.073 -0.2342 -0.0717 -0.0098
  116SAPC   O2212016   3.828   6.621   6.094 -0.4642 -0.6078  0.3316
  116SAPC   C2212017   4.013   6.632   5.935 -0.7001  0.1068  0.1991
  116SAPC   H2R12018   4.095   6.703   5.914 -0.9272  0.2390 -0.2608
  116SAPC   H2S12019   4.060   6.534   5.911  0.2688  0.9458 -1.5006
  116SAPC    C312020   3.884   6.813   6.300  0.2101  0.0102  0.1004
  116SAPC    HX12021   3.860   6.827   6.407  1.0847 -0.7849  0.4244
  116SAPC    HY12022   3.787   6.797   6.249 -0.1747  4.8978 -1.2040
  116SAPC   O3112023   3.941   6.941   6.253 -0.4720 -0.2217  0.1533
  116SAPC   C3112024   3.902   6.983   6.135 -0.0127  0.5331 -0.7592
  116SAPC   O3212025   3.796   6.959   6.081 -1.0942  0.2406  0.0625
  116SAPC   C3212026   4.003   7.090   6.093 -0.0930 -0.0442  0.4650
  116SAPC   H2X12027   4.104   7.043   6.100  1.2505  2.6243  0.0814
  116SAPC   H2Y12028   4.004   7.172   6.168  1.5496 -0.7361  1.2782
  116SAPC   C2312029   3.906   6.662   5.826 -0.9548  0.6059 -0.2223
  116SAPC   H3R12030   3.851   6.754   5.852 -0.9927  0.0481  1.8042
  116SAPC   H3S12031   3.838   6.574   5.815  0.8159 -0.9724  0.7615
  116SAPC   C2412032   3.960   6.683   5.680 -0.4555  0.6244  0.0894
  116SAPC   H4R12033   4.000   6.587   5.641 -1.6009  0.4038 -0.5688
  116SAPC   H4S12034   4.056   6.738   5.688 -0.9192  1.4483  0.1204
  116SAPC   C2512035   3.846   6.754   5.601 -0.2350  0.3877 -0.0520
  116SAPC   H5R12036   3.759   6.789   5.660  0.2444 -0.6975  1.3357
  116SAPC   C2612037   3.856   6.773   5.470  0.0624 -0.3575 -0.2780
  116SAPC   H6R12038   3.777   6.813   5.405  1.5359 -1.9892 -3.2870
  116SAPC   C2712039   3.968   6.737   5.388 -0.5991 -0.6757  0.4146
  116SAPC   H7R12040   3.996   6.631   5.374  1.7282 -0.0982  0.1728
  116SAPC   H7S12041   4.061   6.785   5.427  0.3644 -1.2871 -1.0674
  116SAPC   C2812042   3.955   6.793   5.244 -0.4278  0.3543 -0.0237
  116SAPC   H8R12043   4.007   6.889   5.233  2.2512 -0.8656  1.3009
  116SAPC   C2912044   3.903   6.729   5.139 -0.0918  0.0305 -0.0273
  116SAPC   H9R12045   3.929   6.768   5.039 -0.7403  1.5528  0.3665
  116SAPC  C21012046   3.838   6.590   5.150  0.1968 -0.1878  0.1637
  116SAPC  H10R12047   3.836   6.548   5.253 -0.1034  0.5884  0.4812
  116SAPC  H10S12048   3.911   6.523   5.100 -0.4230 -0.0470 -0.9698
  116SAPC  C21112049   3.706   6.601   5.082  0.7212 -0.1102  0.1269
  116SAPC  H11R12050   3.624   6.629   5.150 -1.2591 -1.3983 -1.5892
  116SAPC  C21212051   3.674   6.576   4.955  0.7831 -0.4988 -0.1898
  116SAPC  H12R12052   3.565   6.582   4.935  0.7826  0.2432  0.0025
  116SAPC  C21312053   3.775   6.544   4.844  0.9480  0.4269  0.3096
  116SAPC  H13R12054   3.880   6.535   4.879  1.5840 -0.9424 -1.7779
  116SAPC  H13S12055   3.772   6.628   4.772  1.0248 -0.1999 -0.4342
  116SAPC  C21412056   3.734   6.423   4.767  0.5252 -0.5667 -0.5903
  116SAPC  H14R12057   3.783   6.327   4.790  1.2766 -0.0907 -0.1656
  116SAPC  C21512058   3.632   6.433   4.675 -0.9093 -0.5170  0.1020
  116SAPC  H15R12059   3.594   6.345   4.620  1.6797 -2.5069  1.3179
  116SAPC  C21612060   3.564   6.564   4.632 -0.6630  0.0066 -0.2726
  116SAPC  H16R12061   3.644   6.618   4.576 -0.1550  1.6358  1.8710
  116SAPC  H16S12062   3.533   6.636   4.711  3.1682  0.3615  1.1635
  116SAPC  C21712063   3.452   6.526   4.540  0.3092  0.8787 -0.1839
  116SAPC  H17R12064   3.376   6.481   4.608 -0.5204  0.2278 -1.4854
  116SAPC  H17S12065   3.471   6.444   4.467  1.0586  0.2697  0.6747
  116SAPC  C21812066   3.387   6.642   4.455 -0.2906  0.2375 -0.4125
  116SAPC  H18R12067   3.457   6.669   4.374 -1.0573  1.9830 -0.5322
  116SAPC  H18S12068   3.375   6.729   4.524 -0.5571 -0.6807  0.7487
  116SAPC  C21912069   3.256   6.592   4.395  0.2371  0.9790  0.0494
  116SAPC  H19R12070   3.177   6.569   4.470  0.1970  0.1095 -0.2506
  116SAPC  H19S12071   3.284   6.499   4.342  1.4834  1.5710 -0.3740
  116SAPC  C22012072   3.208   6.689   4.291  0.0137 -0.0804  0.0976
  116SAPC  H20R12073   3.171   6.783   4.338  1.6078  0.8573 -0.4126
  116SAPC  H20S12074   3.132   6.646   4.223 -0.4167 -0.7670  0.9901
  116SAPC  H20T12075   3.290   6.711   4.219  0.9608 -1.3564  0.7350
  116SAPC   C3312076   3.982   7.149   5.955 -0.1609 -0.1236  0.3769
  116SAPC   H3X12077   4.044   7.241   5.958 -0.5167  0.1140  0.4597
  116SAPC   H3Y12078   3.875   7.177   5.948 -0.7060 -2.3788 -1.4268
  116SAPC   C3412079   4.028   7.066   5.839  0.4099  0.1465 -0.5777
  116SAPC   H4X12080   3.960   6.978   5.842  0.1649  0.3203 -0.9591
  116SAPC   H4Y12081   4.131   7.031   5.862  1.3313  2.9161 -0.1780
  116SAPC   C3512082   4.022   7.152   5.706  0.1699 -0.2348 -0.0149
  116SAPC   H5X12083   4.069   7.252   5.718 -1.2122  0.7145 -1.9522
  116SAPC   H5Y12084   3.915   7.172   5.684  0.0952  0.9830  1.3187
  116SAPC   C3612085   4.094   7.082   5.587  0.5017 -0.2798 -0.3596
  116SAPC   H6X12086   4.034   6.989   5.572  1.0971 -0.5372 -1.2081
  116SAPC   H6Y12087   4.197   7.060   5.621  0.1182 -0.6540  0.6121
  116SAPC   C3712088   4.091   7.161   5.453  0.1818 -0.0107  1.0249
  116SAPC   H7X12089   4.156   7.103   5.384 -2.0910 -1.2179 -0.1915
  116SAPC   H7Y12090   4.132   7.262   5.475  2.6045 -0.8071  0.5523
  116SAPC   C3812091   3.957   7.178   5.383  0.3688  0.5635 -0.7363
  116SAPC   H8X12092   3.899   7.249   5.445  0.6336 -0.2766  0.4984
  116SAPC   H8Y12093   3.900   7.083   5.379 -2.3151  2.0809 -0.9963
  116SAPC   C3912094   3.971   7.250   5.247 -0.3260 -0.5940  1.2417
  116SAPC   H9X12095   4.004   7.356   5.254  0.6655 -0.5210 -2.2887
  116SAPC   H9Y12096   3.868   7.260   5.209 -0.6138 -1.3249  1.8070
  116SAPC  C31012097   4.061   7.183   5.134  0.3584  0.1543  0.4936
  116SAPC  H10X12098   4.001   7.098   5.094  0.6276  0.5776 -0.8624
  116SAPC  H10Y12099   4.154   7.140   5.177  0.1404  1.1657  2.0495
  116SAPC  C31112100   4.065   7.269   5.009 -0.4627 -0.2189  0.1836
  116SAPC  H11X12101   4.148   7.226   4.948 -1.3315 -1.2383 -0.3031
  116SAPC  H11Y12102   4.097   7.371   5.040 -0.6868  0.3471 -1.3551
  116SAPC  C31212103   3.938   7.282   4.927  0.1312 -0.2166  0.3659
  116SAPC  H12X12104   3.888   7.375   4.964  1.7577  0.1581  1.7776
  116SAPC  H12Y12105   3.874   7.191   4.919 -1.4699  1.0488 -3.2245
  116SAPC  C31312106   3.974   7.317   4.777  1.3009 -0.5357 -0.0812
  116SAPC  H13X12107   4.023   7.232   4.725 -0.3699 -0.6273 -1.6071
  116SAPC  H13Y12108   4.041   7.405   4.776  0.8210 -0.1041  1.8518
  116SAPC  C31412109   3.857   7.353   4.683  0.8137  0.3712 -0.1476
  116SAPC  H14X12110   3.787   7.424   4.731 -0.5627  0.2945 -1.9304
  116SAPC  H14Y12111   3.799   7.259   4.670 -1.8661  1.9045  0.0030
  116SAPC  C31512112   3.887   7.402   4.542 -0.6697  0.1636  0.0206
  116SAPC  H15X12113   3.950   7.493   4.539 -0.5563  0.0611 -1.5543
  116SAPC  H15Y12114   3.794   7.435   4.491  0.4031  1.0761 -1.4229
  116SAPC  C31612115   3.964   7.308   4.451  0.7277  0.0628 -0.2122
  116SAPC  H16X12116   3.895   7.221   4.441 -1.2415  1.8105 -3.4026
  116SAPC  H16Y12117   4.063   7.283   4.496  0.3446  1.1280  1.2869
  116SAPC  C31712118   3.993   7.365   4.310  0.0259 -0.6868 -0.3135
  116SAPC  H17X12119   3.907   7.421   4.268  0.8414 -1.0163 -2.5565
  116SAPC  H17Y12120   4.012   7.271   4.253  0.8999 -0.6827 -0.0480
  116SAPC  C31812121   4.125   7.452   4.310  0.1798  0.1769  0.0611
  116SAPC  H18X12122   4.147   7.478   4.204  0.2699 -0.9913 -0.2215
  116SAPC  H18Y12123   4.202   7.386   4.355 -2.0555 -1.3670  1.8500
  116SAPC  H18Z12124   4.110   7.552   4.356 -2.2743  0.8444 -1.9582
  117SAPC     N12125   6.073   4.826   6.483  0.0482  0.5838 -0.1581
  117SAPC   C1212126   6.076   4.836   6.332  0.2721  0.8009 -0.0854
  117SAPC  H12A12127   5.979   4.871   6.297  0.4965  0.8721 -0.6514
  117SAPC  H12B12128   6.080   4.734   6.297 -0.1623  0.6862  0.1912
  117SAPC   C1312129   5.995   4.927   6.551  0.2698 -0.5317 -0.0514
  117SAPC  H13A12130   6.037   4.942   6.649 -0.5349  0.7655  0.1261
  117SAPC  H13B12131   5.999   5.018   6.492 -0.6306 -0.6756 -0.3557
  117SAPC  H13C12132   5.895   4.888   6.560  0.5084 -1.5785 -1.4968
  117SAPC   C1412133   6.011   4.691   6.521  0.2014 -0.8759  0.5105
  117SAPC  H14A12134   5.927   4.680   6.454  0.9733  0.5086 -0.7585
  117SAPC  H14B12135   6.085   4.615   6.498  0.0152 -0.6299 -1.0441
  117SAPC  H14C12136   5.981   4.685   6.624  0.7905 -2.2046  0.6277
  117SAPC   C1512137   6.209   4.830   6.541  0.3581 -0.0839  0.1805
  117SAPC  H15A12138   6.253   4.924   6.512  1.2196 -0.2458  0.9558
  117SAPC  H15B12139   6.222   4.818   6.647 -0.9886  2.5130  0.7251
  117SAPC  H15C12140   6.270   4.769   6.475 -0.1259 -0.5864  0.1857
  117SAPC   C1112141   6.187   4.925   6.272 -0.3060  0.2248  0.0470
  117SAPC  H11A12142   6.194   4.900   6.164  1.2233  2.4894 -0.4276
  117SAPC  H11B12143   6.286   4.893   6.311 -0.1454 -2.0852 -2.0422
  117SAPC     P12144   6.058   5.153   6.233 -0.2658  0.1202  0.5203
  117SAPC   O1312145   5.924   5.086   6.233 -0.1014 -0.4357  0.0972
  117SAPC   O1412146   6.063   5.294   6.280  0.3214  0.3874  1.0707
  117SAPC   O1212147   6.166   5.060   6.306 -0.6651 -0.0967 -0.0400
  117SAPC   O1112148   6.097   5.144   6.084  0.7659  0.4946 -0.0885
  117SAPC    C112149   6.221   5.134   6.018  0.1126  0.4504  0.1695
  117SAPC    HA12150   6.301   5.187   6.074  0.1400  0.7650 -0.1683
  117SAPC    HB12151   6.248   5.027   6.009  0.7313  0.7192 -1.4049
  117SAPC    C212152   6.212   5.175   5.871  0.1599 -0.1332  0.6319
  117SAPC    HS12153   6.311   5.195   5.825 -1.2322 -0.1642 -2.6374
  117SAPC   O2112154   6.131   5.293   5.863  0.7289  0.2042 -0.1539
  117SAPC   C2112155   6.192   5.406   5.907 -0.5100  0.5141 -0.1774
  117SAPC   O2212156   6.310   5.406   5.937 -0.3210 -0.1782 -0.7498
  117SAPC   C2212157   6.093   5.517   5.937 -0.3092  0.1126 -0.2506
  117SAPC   H2R12158   6.012   5.509   5.861  1.5114 -0.9782 -2.1873
  117SAPC   H2S12159   6.053   5.501   6.040 -1.5942  0.2341 -0.7127
  117SAPC    C312160   6.151   5.056   5.784 -0.4149  0.2291 -0.0590
  117SAPC    HX12161   6.067   5.013   5.843  0.0391 -0.0269  0.4012
  117SAPC    HY12162   6.221   4.972   5.767  0.4164  1.2527 -1.9837
  117SAPC   O3112163   6.102   5.105   5.653 -0.3584 -0.1110 -0.4056
  117SAPC   C3112164   6.194   5.127   5.567  0.6168  0.1929 -0.3236
  117SAPC   O3212165   6.302   5.070   5.561 -0.7466 -0.0786  0.1130
  117SAPC   C3212166   6.147   5.231   5.466  0.4102 -0.3641  0.3740
  117SAPC   H2X12167   6.238   5.272   5.417 -0.6373 -0.0449 -1.3982
  117SAPC   H2Y12168   6.095   5.313   5.520  0.1822 -0.6703  0.6188
  117SAPC   C2312169   6.140   5.665   5.949  0.1705 -0.7145  0.5182
  117SAPC   H3R12170   6.235   5.671   6.006 -0.3001  1.1125  1.1894
  117SAPC   H3S12171   6.057   5.722   5.996 -1.3696 -1.6549 -0.9456
  117SAPC   C2412172   6.160   5.732   5.812  0.0646 -0.4933  0.1429
  117SAPC   H4R12173   6.160   5.842   5.827 -2.4196 -0.3842 -0.1581
  117SAPC   H4S12174   6.072   5.700   5.751 -0.1804  1.2640 -0.5037
  117SAPC   C2512175   6.284   5.678   5.736 -0.1343 -0.0026 -0.4379
  117SAPC   H5R12176   6.379   5.659   5.789 -0.1461  0.1035 -0.3760
  117SAPC   C2612177   6.301   5.666   5.604  0.7748 -0.5873 -0.1149
  117SAPC   H6R12178   6.401   5.641   5.566  1.2135 -1.1675  1.3662
  117SAPC   C2712179   6.203   5.687   5.489 -0.4344 -0.6164 -0.0526
  117SAPC   H7R12180   6.266   5.675   5.399  1.5598  3.0024  0.6544
  117SAPC   H7S12181   6.174   5.794   5.492 -0.7289 -0.7069  0.8636
  117SAPC   C2812182   6.081   5.596   5.488 -0.5586 -0.3456 -0.1013
  117SAPC   H8R12183   6.083   5.514   5.561 -0.8871 -0.1499  0.1295
  117SAPC   C2912184   5.985   5.602   5.395  0.0189  0.5444  0.4628
  117SAPC   H9R12185   5.912   5.520   5.403 -0.1501  0.5906 -0.5556
  117SAPC  C21012186   5.978   5.690   5.272  0.2069 -0.1939 -0.4452
  117SAPC  H10R12187   5.987   5.626   5.181 -1.0643 -0.5727 -0.3242
  117SAPC  H10S12188   6.069   5.751   5.258  1.0048 -1.4351 -0.8663
  117SAPC  C21112189   5.854   5.775   5.252 -0.7687  0.1456  0.2679
  117SAPC  H11R12190   5.861   5.883   5.271  0.2681  0.5184 -1.9125
  117SAPC  C21212191   5.737   5.731   5.187 -0.8965 -0.4078 -0.4065
  117SAPC  H12R12192   5.655   5.799   5.161 -2.6588 -0.8127  3.4100
  117SAPC  C21312193   5.709   5.589   5.139 -0.3487  0.2045 -1.0315
  117SAPC  H13R12194   5.686   5.538   5.235  0.5067  1.4970 -0.1020
  117SAPC  H13S12195   5.793   5.520   5.114 -0.5390 -1.2673  1.9316
  117SAPC  C21412196   5.599   5.568   5.044  0.5337 -0.2674  0.1549
  117SAPC  H14R12197   5.506   5.523   5.083 -0.3781 -0.4728 -2.0839
  117SAPC  C21512198   5.606   5.601   4.914 -0.0791  0.0176  0.6339
  117SAPC  H15R12199   5.524   5.581   4.843  0.3808 -1.3654  0.4673
  117SAPC  C21612200   5.725   5.667   4.852  0.0431 -0.2793  0.2454
  117SAPC  H16R12201   5.792   5.588   4.812  2.7366  0.9987  1.9131
  117SAPC  H16S12202   5.789   5.712   4.931  0.4277 -0.3745 -0.0106
  117SAPC  C21712203   5.684   5.771   4.747 -0.2517 -0.0088  0.4747
  117SAPC  H17R12204   5.765   5.847   4.737 -0.8956  0.4308 -1.8571
  117SAPC  H17S12205   5.602   5.840   4.778  1.4257  2.6793 -0.7508
  117SAPC  C21812206   5.666   5.705   4.609 -0.0594 -0.6558 -0.9967
  117SAPC  H18R12207   5.573   5.646   4.622  0.5343 -1.4121  0.0127
  117SAPC  H18S12208   5.754   5.641   4.587  0.3595 -1.3978  2.2991
  117SAPC  C21912209   5.650   5.808   4.491 -0.6540  0.2987 -0.2668
  117SAPC  H19R12210   5.743   5.869   4.482 -0.9931  0.7934 -0.5038
  117SAPC  H19S12211   5.558   5.866   4.514  1.0819  2.6564  1.3014
  117SAPC  C22012212   5.643   5.729   4.362 -0.3966 -0.5691  0.1897
  117SAPC  H20R12213   5.612   5.803   4.286 -0.1125 -0.8597 -0.2094
  117SAPC  H20S12214   5.577   5.639   4.358 -0.5108 -0.4668 -3.9130
  117SAPC  H20T12215   5.744   5.696   4.330 -0.9901 -1.0159 -1.2863
  117SAPC   C3312216   6.051   5.161   5.365  0.4019 -0.2717  0.2122
  117SAPC   H3X12217   5.963   5.131   5.425  0.9132  0.6787  1.4971
  117SAPC   H3Y12218   6.104   5.072   5.324  2.7200  2.4296 -3.2888
  117SAPC   C3412219   6.021   5.242   5.238  0.1358  0.7945 -0.1997
  117SAPC   H4X12220   5.964   5.332   5.268  0.5688  1.4856 -1.3796
  117SAPC   H4Y12221   5.953   5.183   5.174 -2.1450  2.0929  0.9260
  117SAPC   C3512222   6.153   5.284   5.162 -0.2243  0.7156  0.3572
  117SAPC   H5X12223   6.211   5.197   5.125 -0.1546  1.2238 -0.7908
  117SAPC   H5Y12224   6.223   5.328   5.235  0.9155 -1.8196  0.8593
  117SAPC   C3612225   6.135   5.365   5.037  0.6579 -0.6030  0.4066
  117SAPC   H6X12226   6.221   5.414   4.986  0.0806  0.0251  0.0256
  117SAPC   H6Y12227   6.072   5.452   5.066  0.3009 -1.0880  1.1069
  117SAPC   C3712228   6.053   5.292   4.919 -0.3338  0.5829 -0.4798
  117SAPC   H7X12229   5.951   5.279   4.961  0.4054  0.3075  1.2827
  117SAPC   H7Y12230   6.102   5.195   4.898  0.2259  0.2671  2.0770
  117SAPC   C3812231   6.044   5.400   4.810 -0.0669  0.1809  0.0693
  117SAPC   H8X12232   6.036   5.506   4.842  1.3875  0.7874 -1.3970
  117SAPC   H8Y12233   5.954   5.384   4.747  1.1530  1.3805 -2.1259
  117SAPC   C3912234   6.159   5.390   4.713  0.1689 -0.2917 -0.2703
  117SAPC   H9X12235   6.182   5.284   4.691 -2.6584 -0.9198 -0.6127
  117SAPC   H9Y12236   6.250   5.436   4.757  0.1271  0.3781 -0.8730
  117SAPC  C31012237   6.136   5.466   4.591  0.0543  0.3123 -0.4239
  117SAPC  H10X12238   6.104   5.571   4.606  1.7064  0.6500  0.9277
  117SAPC  H10Y12239   6.055   5.415   4.534 -0.4394 -0.7812  1.1912
  117SAPC  C31112240   6.260   5.477   4.492  1.0132  0.0749  0.4516
  117SAPC  H11X12241   6.241   5.460   4.384  3.0293 -0.6290  0.1633
  117SAPC  H11Y12242   6.336   5.402   4.523 -0.6980 -0.9633  2.4295
  117SAPC  C31212243   6.316   5.625   4.500 -0.4043 -0.6877  0.6666
  117SAPC  H12X12244   6.361   5.638   4.601  1.4137 -2.6512  0.1899
  117SAPC  H12Y12245   6.231   5.696   4.485 -0.6799 -1.0654  0.4150
  117SAPC  C31312246   6.424   5.654   4.389 -0.0551  0.5198 -0.1103
  117SAPC  H13X12247   6.516   5.594   4.404  0.9494  2.1091  0.3759
  117SAPC  H13Y12248   6.462   5.758   4.394 -0.0309  0.6713 -2.3476
  117SAPC  C31412249   6.370   5.637   4.248 -0.8017  0.1782  0.4996
  117SAPC  H14X12250   6.263   5.668   4.248 -0.7290  0.4804 -0.9217
  117SAPC  H14Y12251   6.371   5.528   4.225  0.7952  0.3353 -0.2983
  117SAPC  C31512252   6.443   5.708   4.135 -0.0027  0.2246 -0.1836
  117SAPC  H15X12253   6.430   5.818   4.149 -0.7083  0.0415  0.6998
  117SAPC  H15Y12254   6.394   5.690   4.038 -1.1548 -2.4922  0.8202
  117SAPC  C31612255   6.593   5.676   4.127  0.4194 -0.1936  0.0520
  117SAPC  H16X12256   6.654   5.695   4.218 -0.0487 -0.1360  0.3566
  117SAPC  H16Y12257   6.629   5.739   4.043 -1.0830  0.1477 -0.3707
  117SAPC  C31712258   6.627   5.540   4.083  0.0197 -0.3415 -0.0691
  117SAPC  H17X12259   6.563   5.510   3.998  1.2257 -1.9142 -0.4724
  117SAPC  H17Y12260   6.603   5.467   4.164 -2.1508 -0.4811 -0.7764
  117SAPC  C31812261   6.772   5.535   4.030  0.7701 -0.1806 -0.7776
  117SAPC  H18X12262   6.801   5.441   3.979 -0.5476 -2.3180  2.1455
  117SAPC  H18Y12263   6.840   5.562   4.114 -1.4917 -1.5916  1.6899
  117SAPC  H18Z12264   6.791   5.612   3.952 -0.9674  2.6417  1.3511
  118SAPC     N12265   1.511   6.341   6.568 -0.3271  1.1379 -0.1296
  118SAPC   C1212266   1.590   6.253   6.472  0.2186  0.1530 -1.2049
  118SAPC  H12A12267   1.684   6.219   6.512  0.1177  0.6822 -0.4917
  118SAPC  H12B12268   1.620   6.316   6.390 -0.0884  0.9114 -0.7482
  118SAPC   C1312269   1.446   6.266   6.679  0.2244 -0.0728 -0.1113
  118SAPC  H13A12270   1.398   6.328   6.753 -0.3558  0.6541 -1.0736
  118SAPC  H13B12271   1.368   6.203   6.641 -0.4282  1.0720 -0.7170
  118SAPC  H13C12272   1.514   6.201   6.733 -1.0879 -2.1354 -0.8246
  118SAPC   C1412273   1.611   6.435   6.629 -0.1050  0.6414 -0.2299
  118SAPC  H14A12274   1.567   6.488   6.712  1.0907  1.3507 -0.0333
  118SAPC  H14B12275   1.709   6.396   6.652 -0.7310 -2.4746 -2.1719
  118SAPC  H14C12276   1.649   6.503   6.554  0.3611 -0.6497 -1.2110
  118SAPC   C1512277   1.400   6.420   6.507  0.1449  0.8108  0.0209
  118SAPC  H15A12278   1.374   6.509   6.563 -1.7485  0.7526 -0.7268
  118SAPC  H15B12279   1.433   6.442   6.407  0.5964 -0.1657 -0.0600
  118SAPC  H15C12280   1.318   6.352   6.493  0.8965 -0.3081  0.8284
  118SAPC   C1112281   1.507   6.144   6.400  0.3509  0.2186  0.4473
  118SAPC  H11A12282   1.419   6.191   6.350  1.5165  2.4695  0.3869
  118SAPC  H11B12283   1.473   6.072   6.477  0.2055  0.9333  1.0675
  118SAPC     P12284   1.539   5.940   6.235  0.0705  0.1379  0.2371
  118SAPC   O1312285   1.596   5.830   6.321 -0.0329  0.3868 -0.0808
  118SAPC   O1412286   1.395   5.935   6.217  0.2101 -0.1940  0.0899
  118SAPC   O1212287   1.580   6.081   6.300  0.0526  0.8483 -0.3512
  118SAPC   O1112288   1.624   5.949   6.097 -0.5809 -0.1976 -0.8202
  118SAPC    C112289   1.553   5.975   5.977  0.7595  0.0734  0.0519
  118SAPC    HA12290   1.468   6.045   5.992 -1.5675 -2.3144 -1.2299
  118SAPC    HB12291   1.620   6.022   5.902 -0.1438 -0.9722 -1.4751
  118SAPC    C212292   1.509   5.842   5.912  0.4716 -0.5917 -0.4715
  118SAPC    HS12293   1.436   5.797   5.984 -0.5269  3.1912  1.1212
  118SAPC   O2112294   1.632   5.774   5.877 -0.0849  0.5632  0.0233
  118SAPC   C2112295   1.674   5.687   5.970 -0.5104 -1.0279 -0.5463
  118SAPC   O2212296   1.606   5.635   6.059 -0.2949 -0.0644 -0.0817
  118SAPC   C2212297   1.823   5.646   5.948  0.1516 -0.0464  0.1942
  118SAPC   H2R12298   1.843   5.620   6.054  0.0945  1.0209  0.4806
  118SAPC   H2S12299   1.817   5.547   5.897 -1.8277 -0.1313  0.5211
  118SAPC    C312300   1.417   5.857   5.782 -0.4926  0.0875 -0.4779
  118SAPC    HX12301   1.379   5.756   5.754 -1.2189 -0.5575  2.4729
  118SAPC    HY12302   1.482   5.896   5.701  0.9534  0.8117  0.9963
  118SAPC   O3112303   1.310   5.955   5.801  0.0447  0.4951  0.1463
  118SAPC   C3112304   1.204   5.900   5.866  0.3094 -0.3307  0.1230
  118SAPC   O3212305   1.196   5.784   5.904 -0.2129  0.0019 -0.1901
  118SAPC   C3212306   1.094   6.005   5.875  0.0309  0.1504  0.6172
  118SAPC   H2X12307   1.123   6.104   5.833 -2.7388 -0.0397 -2.1017
  118SAPC   H2Y12308   1.075   6.014   5.984 -1.3965 -2.0094  0.6076
  118SAPC   C2312309   1.920   5.747   5.882  0.4909 -1.2166 -0.2521
  118SAPC   H3R12310   1.897   5.753   5.773  1.6277  0.1646 -0.4369
  118SAPC   H3S12311   2.024   5.709   5.890  1.6237  1.7803  0.5419
  118SAPC   C2412312   1.906   5.894   5.946  0.3560  0.1983  0.0728
  118SAPC   H4R12313   1.925   5.908   6.055  0.4617 -0.2394  0.1138
  118SAPC   H4S12314   1.804   5.931   5.922 -0.0580 -1.5879 -1.0759
  118SAPC   C2512315   2.020   5.976   5.891  0.3231 -0.6158 -0.3460
  118SAPC   H5R12316   2.105   5.984   5.961  0.7115  2.0367 -1.0301
  118SAPC   C2612317   2.032   6.034   5.770 -0.0434 -0.2353 -0.1094
  118SAPC   H6R12318   2.127   6.081   5.745  0.9198 -0.9479  1.9765
  118SAPC   C2712319   1.932   6.018   5.659 -0.1658  0.3361 -0.2963
  118SAPC   H7R12320   1.846   5.959   5.700  1.6993 -1.8463  0.6913
  118SAPC   H7S12321   1.971   5.960   5.573 -0.4250  0.9427 -0.8320
  118SAPC   C2812322   1.882   6.145   5.600  0.0650 -0.3859  0.0447
  118SAPC   H8R12323   1.943   6.235   5.615 -0.3317 -0.2391  0.8479
  118SAPC   C2912324   1.772   6.174   5.524  0.1707  0.0774 -0.0331
  118SAPC   H9R12325   1.750   6.272   5.480 -2.5651 -0.9121 -1.0808
  118SAPC  C21012326   1.675   6.067   5.499  0.1338 -0.5907 -0.5270
  118SAPC  H10R12327   1.701   5.977   5.558 -1.6667 -0.5022  0.4850
  118SAPC  H10S12328   1.677   6.041   5.391  0.8961  0.7371 -0.8559
  118SAPC  C21112329   1.532   6.114   5.528  0.1004 -0.3385 -0.5840
  118SAPC  H11R12330   1.518   6.209   5.581 -0.0880 -1.0744  0.7448
  118SAPC  C21212331   1.421   6.049   5.496 -0.4962 -0.5084 -0.1835
  118SAPC  H12R12332   1.328   6.100   5.524 -0.4147 -1.3663  1.8415
  118SAPC  C21312333   1.418   5.920   5.422 -0.2944  0.3496  1.1052
  118SAPC  H13R12334   1.367   5.838   5.477 -0.2186  0.9777  2.1337
  118SAPC  H13S12335   1.522   5.889   5.397  0.0766 -0.3064  3.2678
  118SAPC  C21412336   1.329   5.931   5.297 -0.1537  0.4826  0.3137
  118SAPC  H14R12337   1.236   5.873   5.308 -0.5720  0.9981 -0.3578
  118SAPC  C21512338   1.359   5.980   5.173  0.1651  0.3611  0.2677
  118SAPC  H15R12339   1.276   5.998   5.103 -0.0436 -1.3372  0.0435
  118SAPC  C21612340   1.487   6.042   5.125  0.1773  0.0253 -0.1424
  118SAPC  H16R12341   1.569   6.044   5.200  0.6295  0.8655 -0.6527
  118SAPC  H16S12342   1.455   6.142   5.090 -0.1652 -0.3896 -1.0629
  118SAPC  C21712343   1.555   5.964   5.011  0.0796 -0.6954  0.2167
  118SAPC  H17R12344   1.582   5.862   5.044  1.3741 -0.9971 -1.5831
  118SAPC  H17S12345   1.644   6.023   4.979 -1.0892  1.0661  0.0426
  118SAPC  C21812346   1.472   5.952   4.882 -0.7177 -0.3512 -0.0751
  118SAPC  H18R12347   1.439   6.054   4.854  1.1834  0.1088 -0.8170
  118SAPC  H18S12348   1.386   5.896   4.925 -2.0032  2.5832  1.4413
  118SAPC  C21912349   1.538   5.882   4.765 -0.0608  0.6525  0.3314
  118SAPC  H19R12350   1.593   5.791   4.798 -0.3866  0.4891  0.4259
  118SAPC  H19S12351   1.605   5.951   4.710  0.6804 -0.1050  0.2643
  118SAPC  C22012352   1.434   5.833   4.658  0.5422 -0.2374 -0.0440
  118SAPC  H20R12353   1.485   5.798   4.566  0.7129  1.9757 -0.8511
  118SAPC  H20S12354   1.374   5.917   4.617  2.6966  0.9056 -0.9979
  118SAPC  H20T12355   1.369   5.749   4.690 -2.0781  2.0148  0.9201
  118SAPC   C3312356   0.964   5.960   5.797  0.6255 -0.7580  0.4021
  118SAPC   H3X12357   0.882   6.028   5.830  1.1361  0.3603 -0.5591
  118SAPC   H3Y12358   0.934   5.862   5.840  2.7700 -0.4407  2.8955
  118SAPC   C3412359   0.967   5.959   5.648 -0.7122  0.4211  0.7075
  118SAPC   H4X12360   1.042   5.891   5.602 -0.8842  1.6848 -1.6350
  118SAPC   H4Y12361   0.988   6.060   5.607  0.4689 -0.6999 -1.6515
  118SAPC   C3512362   0.834   5.907   5.584 -0.0106  0.1024 -0.1542
  118SAPC   H5X12363   0.760   5.933   5.663 -0.2059 -1.2449  0.1213
  118SAPC   H5Y12364   0.832   5.796   5.582  1.0944  0.0868 -1.7722
  118SAPC   C3612365   0.805   5.967   5.448  0.4292  0.0120 -0.4875
  118SAPC   H6X12366   0.792   6.078   5.456 -1.2713 -0.1422 -0.7314
  118SAPC   H6Y12367   0.704   5.929   5.425 -0.1059 -0.1754  1.9024
  118SAPC   C3712368   0.897   5.932   5.337  0.4299 -0.6215  0.9286
  118SAPC   H7X12369   0.909   5.824   5.318 -1.0163 -0.9720  1.8338
  118SAPC   H7Y12370   0.999   5.959   5.372 -0.1301 -0.3350  2.4112
  118SAPC   C3812371   0.867   6.018   5.210 -0.4290 -0.6543  0.5536
  118SAPC   H8X12372   0.888   6.124   5.234 -3.1412  0.4113 -1.2678
  118SAPC   H8Y12373   0.756   6.022   5.205 -0.5566  2.9804  2.6589
  118SAPC   C3912374   0.951   5.984   5.090  0.1640  0.3458  0.1989
  118SAPC   H9X12375   0.940   5.877   5.061 -1.8068  0.9356 -1.4203
  118SAPC   H9Y12376   1.056   5.994   5.126  0.0507 -0.2638  0.7187
  118SAPC  C31012377   0.932   6.072   4.969  0.0980  0.5022  0.4325
  118SAPC  H10X12378   0.952   6.179   4.991  0.2752  0.9254 -1.6463
  118SAPC  H10Y12379   0.824   6.070   4.943 -0.0934 -1.2941  1.1999
  118SAPC  C31112380   1.032   6.037   4.855  0.0676 -0.0525 -0.2423
  118SAPC  H11X12381   1.016   5.932   4.825 -1.1449 -0.2902  1.1006
  118SAPC  H11Y12382   1.135   6.058   4.890  0.2192  1.6495 -1.5545
  118SAPC  C31212383   0.999   6.121   4.724  0.3254 -0.5114 -0.2630
  118SAPC  H12X12384   1.006   6.231   4.740  0.8935 -0.4084 -1.1554
  118SAPC  H12Y12385   0.900   6.088   4.686  0.1068  0.1405 -0.2665
  118SAPC  C31312386   1.088   6.083   4.609  0.1811  0.5145 -0.3899
  118SAPC  H13X12387   1.088   5.972   4.621  0.9710  0.4629 -0.8161
  118SAPC  H13Y12388   1.187   6.129   4.628  0.6097 -0.6890  0.4575
  118SAPC  C31412389   1.033   6.115   4.467  0.0025  0.6450 -0.2092
  118SAPC  H14X12390   0.991   6.218   4.471 -1.1281  0.1611  2.2842
  118SAPC  H14Y12391   0.959   6.036   4.443  1.1618 -1.0858  1.6136
  118SAPC  C31512392   1.140   6.124   4.359  0.5536 -0.1864 -0.1100
  118SAPC  H15X12393   1.194   6.220   4.370 -0.1924  0.3347 -0.8866
  118SAPC  H15Y12394   1.099   6.147   4.258  0.5790  0.2681 -0.0199
  118SAPC  C31612395   1.228   6.000   4.354 -0.2710  0.5606  0.3272
  118SAPC  H16X12396   1.264   5.981   4.458  0.3469  0.6852  0.1379
  118SAPC  H16Y12397   1.316   6.039   4.298 -0.9294 -0.6170 -1.5997
  118SAPC  C31712398   1.162   5.875   4.299  0.5752 -1.1570  0.7873
  118SAPC  H17X12399   1.103   5.899   4.209  1.0423 -2.1113  0.2068
  118SAPC  H17Y12400   1.092   5.827   4.371  0.2209  0.7330  1.7662
  118SAPC  C31812401   1.275   5.765   4.266 -0.0662 -0.0383 -0.3017
  118SAPC  H18X12402   1.327   5.785   4.170 -1.1558 -1.8846 -1.3369
  118SAPC  H18Y12403   1.231   5.664   4.259  0.5736 -0.3533  0.0556
  118SAPC  H18Z12404   1.350   5.767   4.348  0.3447  1.3407 -0.6900
  119SAPC     N12405   3.160   4.720   2.094 -0.1268 -0.3187 -1.0757
  119SAPC   C1212406   3.211   4.663   2.224  0.7738 -0.8754  0.0259
  119SAPC  H12A12407   3.250   4.748   2.278 -0.1772 -0.7558  0.5517
  119SAPC  H12B12408   3.289   4.591   2.206  0.2039 -1.2392 -1.0895
  119SAPC   C1312409   3.118   4.606   2.008 -0.6945 -0.3439 -0.3312
  119SAPC  H13A12410   3.200   4.538   1.990  0.3124  0.8316 -0.3208
  119SAPC  H13B12411   3.033   4.549   2.043 -1.4133  0.9478  0.1122
  119SAPC  H13C12412   3.101   4.649   1.910  0.5082  2.1751  0.4606
  119SAPC   C1412413   3.037   4.797   2.110 -0.0140  0.2546 -0.1050
  119SAPC  H14A12414   3.051   4.892   2.159 -0.8674  0.2243  0.2266
  119SAPC  H14B12415   2.993   4.817   2.013 -0.7594  1.4646  0.4494
  119SAPC  H14C12416   2.965   4.746   2.173 -2.5050  1.0775 -2.0924
  119SAPC   C1512417   3.266   4.806   2.029 -0.0530  0.4017  0.3126
  119SAPC  H15A12418   3.239   4.824   1.926 -0.4524 -0.5504  0.2383
  119SAPC  H15B12419   3.272   4.895   2.089 -1.3628  0.9332 -0.2896
  119SAPC  H15C12420   3.363   4.763   2.042 -1.2938 -2.1281  1.8786
  119SAPC   C1112421   3.098   4.599   2.309  0.2953  0.5558  0.6879
  119SAPC  H11A12422   3.019   4.677   2.320 -0.7454 -0.5233  1.0962
  119SAPC  H11B12423   3.137   4.592   2.413  0.8924  0.6961  0.4735
  119SAPC     P12424   3.173   4.355   2.268  0.0405 -0.0039  0.5040
  119SAPC   O1312425   3.104   4.227   2.240  0.4203 -0.1264  0.3432
  119SAPC   O1412426   3.291   4.381   2.182 -0.0507 -0.1155 -0.6281
  119SAPC   O1212427   3.066   4.469   2.256  0.5096 -0.1108 -0.4143
  119SAPC   O1112428   3.217   4.366   2.413  0.1976 -0.4238  1.1019
  119SAPC    C112429   3.180   4.268   2.509  0.4668  0.9941  0.0735
  119SAPC    HA12430   3.184   4.165   2.467 -0.4572  0.8153  0.3908
  119SAPC    HB12431   3.259   4.262   2.586 -0.3567 -2.0656  0.8350
  119SAPC    C212432   3.035   4.297   2.559  0.4408 -0.0201 -0.3259
  119SAPC    HS12433   2.976   4.306   2.465 -0.9638  2.5799  0.6907
  119SAPC   O2112434   3.032   4.412   2.645  0.2486  0.5458  0.3802
  119SAPC   C2112435   2.912   4.463   2.663  0.2881 -0.0372 -0.5799
  119SAPC   O2212436   2.811   4.421   2.605 -0.4254  0.1495 -0.3274
  119SAPC   C2212437   2.920   4.568   2.771  0.5575 -0.0759 -0.2964
  119SAPC   H2R12438   2.993   4.536   2.848  0.7077  0.3058 -0.2745
  119SAPC   H2S12439   2.969   4.652   2.717  2.0421 -2.1515 -2.3548
  119SAPC    C312440   2.980   4.174   2.629 -0.2809  0.0656 -0.1567
  119SAPC    HX12441   2.956   4.091   2.559  0.4784 -2.6160  2.5156
  119SAPC    HY12442   2.877   4.181   2.671  0.4670  1.8760  1.5140
  119SAPC   O3112443   3.079   4.128   2.728 -1.1576 -0.6237  0.0596
  119SAPC   C3112444   3.059   4.166   2.855  0.4447  0.4326  0.2170
  119SAPC   O3212445   2.980   4.251   2.887 -0.8950 -0.1542  0.4048
  119SAPC   C3212446   3.152   4.086   2.936  0.1961  0.4034 -0.4933
  119SAPC   H2X12447   3.254   4.092   2.892  0.2359 -0.8001 -0.5974
  119SAPC   H2Y12448   3.127   3.978   2.939  2.3850 -0.1856 -1.3042
  119SAPC   C2312449   2.779   4.600   2.839 -0.0189 -0.4471  0.5218
  119SAPC   H3R12450   2.711   4.614   2.753  2.1212  1.3804 -1.0165
  119SAPC   H3S12451   2.776   4.696   2.895 -1.2687 -0.4960  0.5594
  119SAPC   C2412452   2.748   4.484   2.934 -0.0236  0.2455 -0.4185
  119SAPC   H4R12453   2.819   4.467   3.018 -0.3981  0.2886 -0.0915
  119SAPC   H4S12454   2.724   4.390   2.879 -1.1555 -0.1489  0.6917
  119SAPC   C2512455   2.620   4.517   3.011  0.5513 -0.4271 -0.2215
  119SAPC   H5R12456   2.526   4.521   2.954 -0.3837  2.1368  1.3441
  119SAPC   C2612457   2.608   4.546   3.145 -0.0651  0.4540  0.4713
  119SAPC   H6R12458   2.511   4.580   3.186 -0.1444  0.3193  0.3944
  119SAPC   C2712459   2.713   4.558   3.256 -0.2368 -0.1210  0.2734
  119SAPC   H7R12460   2.686   4.633   3.333 -0.3608  0.0462  0.0680
  119SAPC   H7S12461   2.801   4.596   3.201  1.3656 -1.1163  2.0377
  119SAPC   C2812462   2.773   4.432   3.316  0.9453  0.6451  0.2568
  119SAPC   H8R12463   2.806   4.355   3.245  1.4681 -0.3903  1.5819
  119SAPC   C2912464   2.767   4.397   3.447 -0.0798  0.3297  0.1536
  119SAPC   H9R12465   2.821   4.308   3.481  1.5667  1.0019 -0.6243
  119SAPC  C21012466   2.706   4.483   3.558  0.1203 -0.0336 -0.0623
  119SAPC  H10R12467   2.692   4.588   3.526  1.5843  1.2726  3.1130
  119SAPC  H10S12468   2.780   4.493   3.640  0.1426 -0.6136 -0.0040
  119SAPC  C21112469   2.590   4.411   3.623  0.1086 -0.0852  0.6764
  119SAPC  H11R12470   2.623   4.326   3.684 -0.0092 -1.4447 -1.0861
  119SAPC  C21212471   2.455   4.446   3.618 -0.6923  0.0734  0.7018
  119SAPC  H12R12472   2.385   4.381   3.672  0.2303 -0.3619  1.4067
  119SAPC  C21312473   2.396   4.556   3.541 -0.2756 -0.5147  0.7926
  119SAPC  H13R12474   2.287   4.540   3.527 -0.6581  2.3403 -0.2372
  119SAPC  H13S12475   2.436   4.540   3.439  1.6934  0.9851  1.2636
  119SAPC  C21412476   2.433   4.693   3.589 -0.1261  0.1316  0.1651
  119SAPC  H14R12477   2.535   4.721   3.557  0.0341  1.2830  1.6119
  119SAPC  C21512478   2.357   4.769   3.662  0.1175 -0.2524 -0.4525
  119SAPC  H15R12479   2.407   4.858   3.700 -0.3982 -0.8580  1.8150
  119SAPC  C21612480   2.220   4.756   3.722  0.1499  1.1891  0.4646
  119SAPC  H16R12481   2.178   4.657   3.696  0.0952  1.1980  0.5195
  119SAPC  H16S12482   2.156   4.831   3.672 -0.1813  0.5355 -0.1148
  119SAPC  C21712483   2.214   4.782   3.875 -0.0719  0.1148 -0.2832
  119SAPC  H17R12484   2.113   4.804   3.916  1.4555  2.7807  2.5144
  119SAPC  H17S12485   2.273   4.875   3.892 -0.0822  0.0650  0.0326
  119SAPC  C21812486   2.268   4.668   3.955  0.2909 -0.0376 -0.7724
  119SAPC  H18R12487   2.365   4.660   3.901  0.5165  0.2777 -0.4192
  119SAPC  H18S12488   2.204   4.582   3.926  1.4316 -1.2726  0.2448
  119SAPC  C21912489   2.287   4.695   4.101 -0.2513 -0.3693  0.1713
  119SAPC  H19R12490   2.191   4.732   4.142  0.0392  1.9750 -1.1054
  119SAPC  H19S12491   2.358   4.780   4.112 -1.0826  0.3511 -0.0131
  119SAPC  C22012492   2.339   4.569   4.164 -0.1345 -0.3518  0.0611
  119SAPC  H20R12493   2.377   4.595   4.265 -0.4374 -0.8944  0.3219
  119SAPC  H20S12494   2.421   4.522   4.105 -0.4227 -3.5267  1.9717
  119SAPC  H20T12495   2.257   4.503   4.199  1.7027 -1.2860  3.0025
  119SAPC   C3312496   3.160   4.134   3.084  0.9152  0.0237  0.2837
  119SAPC   H3X12497   3.213   4.069   3.157  0.4196 -0.0168  0.6116
  119SAPC   H3Y12498   3.056   4.141   3.122  1.6165 -2.5704  3.0038
  119SAPC   C3412499   3.230   4.271   3.093  0.9382  0.2433  0.3551
  119SAPC   H4X12500   3.181   4.333   3.171 -0.8031  0.5697 -0.9146
  119SAPC   H4Y12501   3.224   4.325   2.995 -0.1809 -0.5502 -0.0354
  119SAPC   C3512502   3.377   4.261   3.133  0.2068  0.1546 -0.3010
  119SAPC   H5X12503   3.381   4.222   3.237 -0.7621  1.0233  0.0840
  119SAPC   H5Y12504   3.411   4.367   3.131 -0.2963  0.3424  0.3570
  119SAPC   C3612505   3.472   4.176   3.046  0.1055 -0.5154  0.5346
  119SAPC   H6X12506   3.450   4.215   2.944  3.5439 -1.7131 -0.8178
  119SAPC   H6Y12507   3.435   4.071   3.044 -1.1990 -0.0678 -0.6879
  119SAPC   C3712508   3.621   4.200   3.062 -0.1511 -0.0322 -0.1957
  119SAPC   H7X12509   3.650   4.307   3.054 -0.9089  0.1975  0.1026
  119SAPC   H7Y12510   3.667   4.131   2.988  0.7585 -0.3133  0.6073
  119SAPC   C3812511   3.686   4.152   3.192  0.0630  0.6799 -0.1523
  119SAPC   H8X12512   3.696   4.042   3.205  0.6425  0.8601  1.0786
  119SAPC   H8Y12513   3.609   4.176   3.268 -1.9417  2.8406 -2.6905
  119SAPC   C3912514   3.817   4.221   3.212 -0.5916  0.1288  0.0587
  119SAPC   H9X12515   3.808   4.330   3.230  3.2981  0.6036  0.0456
  119SAPC   H9Y12516   3.884   4.201   3.125 -0.4460 -1.4661  0.4910
  119SAPC  C31012517   3.889   4.175   3.335 -0.0788 -0.6874  0.5167
  119SAPC  H10X12518   3.899   4.067   3.313 -0.2993 -0.3950 -1.2314
  119SAPC  H10Y12519   3.830   4.210   3.422 -0.0900  1.9139 -0.4324
  119SAPC  C31112520   4.027   4.240   3.342 -0.7445 -0.6090 -0.3855
  119SAPC  H11X12521   4.023   4.345   3.379  1.1398 -0.8538  0.6805
  119SAPC  H11Y12522   4.071   4.254   3.241 -1.4344  2.1736 -0.3907
  119SAPC  C31212523   4.122   4.161   3.441  0.8624  0.3639 -0.0825
  119SAPC  H12X12524   4.227   4.194   3.427  0.2911  2.7106  0.7757
  119SAPC  H12Y12525   4.122   4.054   3.409  0.4516  0.7273 -1.3549
  119SAPC  C31312526   4.093   4.168   3.588  0.2038 -0.9798 -0.0336
  119SAPC  H13X12527   4.163   4.102   3.644  0.4576 -0.5082  0.2106
  119SAPC  H13Y12528   3.991   4.134   3.616 -0.5821  2.5050  1.7984
  119SAPC  C31412529   4.099   4.313   3.644  0.0214  0.2794 -0.2365
  119SAPC  H14X12530   4.027   4.368   3.579  3.1181  1.2828 -3.1470
  119SAPC  H14Y12531   4.200   4.354   3.623 -0.0680  0.4641 -0.3046
  119SAPC  C31512532   4.065   4.326   3.795 -0.2427  0.1708  0.3528
  119SAPC  H15X12533   4.146   4.286   3.858 -0.7936 -0.5060  0.6442
  119SAPC  H15Y12534   3.990   4.247   3.818 -1.6919  0.6452 -2.2670
  119SAPC  C31612535   4.014   4.463   3.841  0.1681  0.2895  0.0995
  119SAPC  H16X12536   3.928   4.501   3.781 -1.0108 -2.2811  0.0603
  119SAPC  H16Y12537   4.097   4.537   3.840 -0.1769  0.6802 -0.9989
  119SAPC  C31712538   3.955   4.468   3.982 -0.6679 -0.6105  0.2763
  119SAPC  H17X12539   3.861   4.409   3.992 -0.3367 -1.6000 -1.9054
  119SAPC  H17Y12540   3.930   4.572   4.012 -0.4814 -0.7161  0.8212
  119SAPC  C31812541   4.055   4.417   4.089  0.2096 -0.1534  0.1797
  119SAPC  H18X12542   4.096   4.316   4.070  0.5105 -0.0917  0.4895
  119SAPC  H18Y12543   3.997   4.401   4.182 -1.5590 -1.2183 -1.0331
  119SAPC  H18Z12544   4.136   4.492   4.103  0.3736  0.3079 -2.5844
  120SAPC     N12545   4.707   4.901   1.690  0.9708  0.7322 -0.4373
  120SAPC   C1212546   4.687   4.851   1.827  0.1774  0.2776 -0.7943
  120SAPC  H12A12547   4.722   4.749   1.842  0.6667  0.8225  2.5131
  120SAPC  H12B12548   4.582   4.844   1.851 -0.2660  1.6361 -2.1785
  120SAPC   C1312549   4.850   4.882   1.651 -0.2769  0.2002 -0.0283
  120SAPC  H13A12550   4.908   4.918   1.735 -0.3017 -2.5104  1.2509
  120SAPC  H13B12551   4.885   4.782   1.632  1.9901  1.2586 -1.9924
  120SAPC  H13C12552   4.874   4.938   1.562 -2.3035  1.7191  0.3058
  120SAPC   C1412553   4.633   4.820   1.589  0.2614  0.1788 -0.3633
  120SAPC  H14A12554   4.527   4.841   1.592  0.4961  1.4686  2.1421
  120SAPC  H14B12555   4.681   4.838   1.494  2.0648 -0.9445  0.2866
  120SAPC  H14C12556   4.643   4.714   1.609 -4.0336 -0.2180  0.7381
  120SAPC   C1512557   4.666   5.042   1.682  0.1268 -0.0229 -0.0286
  120SAPC  H15A12558   4.722   5.102   1.752  0.5985 -1.3747  0.8029
  120SAPC  H15B12559   4.695   5.086   1.587 -2.5946  2.2558  0.0914
  120SAPC  H15C12560   4.561   5.051   1.704  0.1989 -0.8094  0.6861
  120SAPC   C1112561   4.762   4.924   1.944 -0.2291  0.0073  0.5670
  120SAPC  H11A12562   4.713   4.870   2.029 -2.6816 -0.3104 -0.9535
  120SAPC  H11B12563   4.729   5.030   1.944 -0.8650 -0.1875  0.3474
  120SAPC     P12564   4.984   4.820   2.037 -0.1420 -0.0658  0.0336
  120SAPC   O1312565   4.963   4.674   2.007  0.1374 -0.4520  0.7316
  120SAPC   O1412566   5.125   4.878   2.037 -0.0276 -0.0755 -0.2330
  120SAPC   O1212567   4.905   4.903   1.929  0.0090  0.2098  0.6559
  120SAPC   O1112568   4.902   4.860   2.168  0.5876  0.1340  0.1084
  120SAPC    C112569   4.942   4.974   2.247 -0.2179 -0.2348 -0.2951
  120SAPC    HA12570   4.964   5.064   2.185 -0.0352  1.7469  2.4497
  120SAPC    HB12571   4.849   5.010   2.296 -1.8449  0.5833 -3.6474
  120SAPC    C212572   5.061   4.952   2.352  0.3380 -0.0832  0.2944
  120SAPC    HS12573   5.150   4.918   2.295  1.7248  2.5165  0.7711
  120SAPC   O2112574   5.016   4.854   2.450 -0.4347 -0.2906  0.1212
  120SAPC   C2112575   5.117   4.807   2.521 -0.4225  0.4185 -0.3594
  120SAPC   O2212576   5.234   4.843   2.510 -0.1618 -0.6493  0.3833
  120SAPC   C2212577   5.078   4.694   2.618  0.2061  0.1632  0.2535
  120SAPC   H2R12578   5.023   4.746   2.698  0.5966  2.0848 -0.6780
  120SAPC   H2S12579   5.015   4.619   2.565 -0.0868 -0.5251  1.5311
  120SAPC    C312580   5.094   5.093   2.417  0.6078  0.3107 -0.1538
  120SAPC    HX12581   5.093   5.163   2.331  0.1110  1.8603  1.0442
  120SAPC    HY12582   5.198   5.096   2.457  1.2099 -0.0517 -1.6313
  120SAPC   O3112583   4.986   5.142   2.502 -0.4151 -0.1779 -0.2518
  120SAPC   C3112584   5.015   5.146   2.633 -0.2166  0.3743  0.0211
  120SAPC   O3212585   5.124   5.154   2.680 -0.3295 -0.4091 -0.7230
  120SAPC   C3212586   4.893   5.123   2.711 -0.0981  0.0111 -0.2115
  120SAPC   H2X12587   4.916   5.044   2.786 -0.8518 -1.9627 -1.9493
  120SAPC   H2Y12588   4.808   5.094   2.645 -1.1797  0.4108  0.9592
  120SAPC   C2312589   5.212   4.630   2.677 -0.1010  0.0693 -0.4169
  120SAPC   H3R12590   5.239   4.704   2.756 -2.2732 -0.3315  0.7705
  120SAPC   H3S12591   5.290   4.617   2.598  0.6558 -2.2614  0.6274
  120SAPC   C2412592   5.184   4.495   2.742  0.8642 -0.5654 -0.0600
  120SAPC   H4R12593   5.285   4.460   2.774  0.9326 -0.4137 -0.1085
  120SAPC   H4S12594   5.149   4.432   2.658  1.3343  0.4315 -1.0359
  120SAPC   C2512595   5.083   4.498   2.854  0.1925 -0.2129 -0.4579
  120SAPC   H5R12596   4.979   4.487   2.818 -0.0302 -1.4778  0.4869
  120SAPC   C2612597   5.099   4.540   2.983  0.4880 -0.2244 -0.0594
  120SAPC   H6R12598   5.021   4.521   3.057  1.7680  1.6176  1.8977
  120SAPC   C2712599   5.231   4.589   3.038 -0.7441 -0.0452 -0.5594
  120SAPC   H7R12600   5.303   4.598   2.954 -0.5097  1.6146 -0.2232
  120SAPC   H7S12601   5.282   4.515   3.104 -1.6432  0.6992  1.0510
  120SAPC   C2812602   5.226   4.721   3.112 -0.4036 -0.0977 -0.7476
  120SAPC   H8R12603   5.262   4.809   3.057 -1.7504  0.1818 -1.2298
  120SAPC   C2912604   5.200   4.737   3.244  0.0511 -0.2598  0.3950
  120SAPC   H9R12605   5.215   4.831   3.299 -0.1107 -1.3078  2.3140
  120SAPC  C21012606   5.177   4.628   3.348  0.2832 -0.6079  0.2265
  120SAPC  H10R12607   5.237   4.642   3.441  2.1646 -0.8334 -0.9079
  120SAPC  H10S12608   5.204   4.525   3.316  0.5928 -0.7969  1.0454
  120SAPC  C21112609   5.031   4.614   3.382 -0.1066  0.3783 -1.2882
  120SAPC  H11R12610   4.967   4.636   3.295 -0.4179 -0.1804 -1.2072
  120SAPC  C21212611   4.984   4.554   3.498  0.2558 -0.1143  1.7671
  120SAPC  H12R12612   4.874   4.549   3.500  0.1595 -0.8205 -1.3682
  120SAPC  C21312613   5.063   4.490   3.615 -0.6846  0.1004  0.4320
  120SAPC  H13R12614   5.133   4.569   3.651 -1.3077  0.5458  0.6775
  120SAPC  H13S12615   5.123   4.403   3.582 -0.3844  0.2603  0.5507
  120SAPC  C21412616   4.973   4.435   3.733 -0.0383 -0.2169 -0.2722
  120SAPC  H14R12617   4.899   4.361   3.698  1.7133 -1.3000 -1.9384
  120SAPC  C21512618   4.971   4.466   3.863  0.2631  0.5376 -0.0945
  120SAPC  H15R12619   4.898   4.419   3.931  2.6168 -1.3125  1.3060
  120SAPC  C21612620   5.057   4.567   3.934 -0.1067 -0.2955 -0.9756
  120SAPC  H16R12621   5.045   4.668   3.888 -1.4539 -0.2856 -0.6595
  120SAPC  H16S12622   5.165   4.542   3.939  0.5066  2.0175 -1.3800
  120SAPC  C21712623   5.005   4.580   4.082 -0.0017  0.3930 -1.1898
  120SAPC  H17R12624   5.023   4.489   4.143 -0.6278  2.5858  2.6652
  120SAPC  H17S12625   4.895   4.587   4.087 -0.0422  0.1112 -1.7155
  120SAPC  C21812626   5.062   4.714   4.148  0.3544  0.6645  0.2789
  120SAPC  H18R12627   5.006   4.744   4.239  2.4531  2.9079  0.9432
  120SAPC  H18S12628   5.040   4.788   4.067 -0.9614 -0.3958 -0.3653
  120SAPC  C21912629   5.201   4.720   4.192 -0.5713  0.0546 -0.1702
  120SAPC  H19R12630   5.266   4.676   4.113  1.2481  0.7548  0.8598
  120SAPC  H19S12631   5.206   4.662   4.287 -0.9795 -0.2749 -0.3482
  120SAPC  C22012632   5.255   4.855   4.222  0.3249 -0.8225  0.1491
  120SAPC  H20R12633   5.255   4.928   4.138 -0.1755 -0.0541  0.8009
  120SAPC  H20S12634   5.361   4.839   4.252  0.6726 -0.5081 -0.8599
  120SAPC  H20T12635   5.212   4.892   4.317  2.1491 -0.6557  0.9573
  120SAPC   C3312636   4.846   5.246   2.789 -0.3133  0.6505  0.4472
  120SAPC   H3X12637   4.791   5.297   2.707  0.1170 -2.3786 -1.8961
  120SAPC   H3Y12638   4.934   5.306   2.819 -0.1341  0.8936 -0.5548
  120SAPC   C3412639   4.760   5.196   2.900  1.2536 -0.0235 -0.5098
  120SAPC   H4X12640   4.823   5.158   2.983 -0.7280  1.3040  1.7367
  120SAPC   H4Y12641   4.691   5.121   2.857  0.2659  0.1754  0.6696
  120SAPC   C3512642   4.665   5.309   2.956 -0.3665  0.1022 -0.7880
  120SAPC   H5X12643   4.578   5.330   2.890 -0.4067  1.8858 -0.2160
  120SAPC   H5Y12644   4.732   5.397   2.966  1.1710 -1.0369 -0.6512
  120SAPC   C3612645   4.598   5.285   3.096 -0.2576  0.9372 -0.2503
  120SAPC   H6X12646   4.686   5.277   3.162 -0.0952  0.4056 -0.5301
  120SAPC   H6Y12647   4.541   5.190   3.099  0.4387  0.3889 -2.3996
  120SAPC   C3712648   4.508   5.394   3.151 -0.0718 -0.1023 -0.4802
  120SAPC   H7X12649   4.442   5.429   3.069 -1.1084  0.0324  0.3926
  120SAPC   H7Y12650   4.586   5.471   3.173 -0.5555  0.8189 -1.8190
  120SAPC   C3812651   4.425   5.359   3.279  0.5962 -0.0125 -0.4138
  120SAPC   H8X12652   4.323   5.326   3.249 -0.8194  1.3456  2.4576
  120SAPC   H8Y12653   4.404   5.444   3.347 -1.0035 -0.4382 -0.3433
  120SAPC   C3912654   4.494   5.253   3.372  0.0891 -1.4213  0.0160
  120SAPC   H9X12655   4.600   5.285   3.386 -0.0800 -0.4594 -0.7859
  120SAPC   H9Y12656   4.506   5.156   3.320 -0.1508 -1.4091 -0.0594
  120SAPC  C31012657   4.432   5.246   3.510 -0.0424  0.1003  0.7610
  120SAPC  H10X12658   4.414   5.344   3.559  1.7228 -0.6485  3.0921
  120SAPC  H10Y12659   4.517   5.204   3.567  2.1810  1.1942 -1.5301
  120SAPC  C31112660   4.301   5.160   3.525 -0.1493 -0.2040  1.1310
  120SAPC  H11X12661   4.323   5.063   3.476 -1.5134 -0.5952  1.2294
  120SAPC  H11Y12662   4.226   5.213   3.462  0.4030 -0.4310  0.2726
  120SAPC  C31212663   4.256   5.144   3.670 -0.4948 -0.0055  1.0924
  120SAPC  H12X12664   4.347   5.116   3.727 -1.1656  0.2076  2.3030
  120SAPC  H12Y12665   4.182   5.064   3.688  0.5234 -1.2012  0.0975
  120SAPC  C31312666   4.202   5.273   3.743  0.0151 -0.2685  0.3356
  120SAPC  H13X12667   4.267   5.358   3.714 -0.3115 -0.3117 -0.5390
  120SAPC  H13Y12668   4.214   5.249   3.851 -2.0500  0.1759  0.7157
  120SAPC  C31412669   4.059   5.305   3.710  0.9058  0.5380  0.1682
  120SAPC  H14X12670   3.996   5.214   3.707 -1.5741  2.1604 -0.7988
  120SAPC  H14Y12671   4.055   5.346   3.607 -4.2746 -2.2033 -1.0192
  120SAPC  C31512672   4.001   5.414   3.804  0.3508 -0.7007 -0.7082
  120SAPC  H15X12673   4.082   5.484   3.833 -0.7058 -0.2656  1.3554
  120SAPC  H15Y12674   3.952   5.365   3.890 -1.8688 -1.5050 -2.3342
  120SAPC  C31612675   3.895   5.504   3.732  0.2564  0.0007  0.4204
  120SAPC  H16X12676   3.823   5.438   3.679  1.0749 -0.2096 -0.4724
  120SAPC  H16Y12677   3.955   5.556   3.654  0.2322  0.0045  0.4047
  120SAPC  C31712678   3.822   5.600   3.825  0.6782  0.6093  0.0765
  120SAPC  H17X12679   3.878   5.646   3.909 -1.1112  0.5246  1.3904
  120SAPC  H17Y12680   3.752   5.535   3.882  1.2963 -0.0539  0.0852
  120SAPC  C31812681   3.736   5.709   3.750  0.0443 -0.1594  0.1811
  120SAPC  H18X12682   3.699   5.795   3.809  1.8165  2.3307 -2.0609
  120SAPC  H18Y12683   3.647   5.659   3.707  2.5055 -1.8968 -3.5320
  120SAPC  H18Z12684   3.799   5.751   3.668  1.3944 -3.3657 -0.6135
  121SAPC     N12685   2.264   1.739   1.381  0.2815  0.9590 -0.3032
  121SAPC   C1212686   2.161   1.704   1.485 -0.2829 -0.0151  0.2799
  121SAPC  H12A12687   2.122   1.605   1.468  0.3722 -0.0242 -1.2734
  121SAPC  H12B12688   2.082   1.773   1.461 -2.1242 -2.3610 -0.7750
  121SAPC   C1312689   2.301   1.886   1.383 -0.6899 -0.6079 -0.5903
  121SAPC  H13A12690   2.341   1.924   1.476 -2.2116  2.4180 -1.0428
  121SAPC  H13B12691   2.365   1.906   1.299  2.3337 -1.2010  1.4283
  121SAPC  H13C12692   2.213   1.942   1.355  0.1142  0.4707 -1.0313
  121SAPC   C1412693   2.383   1.650   1.405 -0.1675 -0.2390 -0.5871
  121SAPC  H14A12694   2.353   1.547   1.414 -1.5944  0.0939 -1.3549
  121SAPC  H14B12695   2.468   1.672   1.342  0.7027 -1.1060  0.2384
  121SAPC  H14C12696   2.424   1.683   1.500  3.2034 -0.8342 -1.6865
  121SAPC   C1512697   2.206   1.712   1.243  0.3565 -0.0081  0.1944
  121SAPC  H15A12698   2.269   1.764   1.171  0.8203 -3.3662 -2.0706
  121SAPC  H15B12699   2.211   1.606   1.223 -3.8510 -0.9070  2.8013
  121SAPC  H15C12700   2.102   1.736   1.226  0.3925 -1.6710 -3.2600
  121SAPC   C1112701   2.201   1.719   1.638  0.6805 -0.2639 -0.4973
  121SAPC  H11A12702   2.272   1.639   1.669  0.1352 -0.2606  0.8596
  121SAPC  H11B12703   2.107   1.696   1.693  1.2921 -0.3435  0.5370
  121SAPC     P12704   2.174   1.977   1.715 -0.0497  0.1920 -0.0872
  121SAPC   O1312705   2.246   2.080   1.643  0.2651 -0.3872  0.4067
  121SAPC   O1412706   2.033   1.960   1.680 -0.2700  0.8683 -0.6782
  121SAPC   O1212707   2.263   1.850   1.678  0.6545 -0.1967 -0.0102
  121SAPC   O1112708   2.186   1.991   1.871 -0.3029  0.3200 -0.2276
  121SAPC    C112709   2.180   1.876   1.958  0.8459 -0.0763 -0.1850
  121SAPC    HA12710   2.181   1.782   1.897 -1.2845 -0.6913  0.6476
  121SAPC    HB12711   2.270   1.869   2.023  0.1112 -0.6590  0.7916
  121SAPC    C212712   2.055   1.872   2.038 -0.5657 -0.0855  0.0902
  121SAPC    HS12713   1.979   1.936   1.987  1.7789  3.0067  0.2118
  121SAPC   O2112714   2.084   1.937   2.166 -0.0680 -0.1289 -0.4147
  121SAPC   C2112715   1.980   1.976   2.238  0.0696  0.1764 -0.2867
  121SAPC   O2212716   1.867   1.991   2.190  0.2408 -0.2103 -0.8681
  121SAPC   C2212717   2.031   2.007   2.384  0.1999  0.2108 -0.2771
  121SAPC   H2R12718   2.082   1.911   2.410 -1.0317 -0.2302  0.6685
  121SAPC   H2S12719   2.096   2.096   2.374 -0.7399  1.0489  0.7690
  121SAPC    C312720   2.005   1.733   2.067  0.0301 -0.9909  0.0575
  121SAPC    HX12721   2.001   1.676   1.972  1.8939 -0.3388 -0.4371
  121SAPC    HY12722   1.898   1.737   2.097  0.1292  2.2615  0.3161
  121SAPC   O3112723   2.099   1.665   2.150  0.0033 -0.0460 -0.1489
  121SAPC   C3112724   2.060   1.635   2.271 -0.7836  0.2878  0.8377
  121SAPC   O3212725   1.958   1.671   2.322 -0.3422  0.1181  0.3441
  121SAPC   C3212726   2.166   1.543   2.328 -0.5132  0.3327 -0.1422
  121SAPC   H2X12727   2.268   1.581   2.308 -0.1868  0.8185  2.0943
  121SAPC   H2Y12728   2.158   1.442   2.284 -0.9482 -0.0810  0.8409
  121SAPC   C2312729   1.924   2.038   2.485  0.5845  0.7907 -0.5390
  121SAPC   H3R12730   1.823   2.005   2.454  0.8743 -0.0376 -0.6246
  121SAPC   H3S12731   1.920   2.148   2.497  1.7737  0.6742  1.4588
  121SAPC   C2412732   1.951   1.972   2.623 -0.8643  0.0308  0.2509
  121SAPC   H4R12733   2.052   1.994   2.664 -0.5223 -0.5071 -0.2820
  121SAPC   H4S12734   1.954   1.861   2.612 -0.5422  0.0326  0.2876
  121SAPC   C2512735   1.840   2.010   2.717 -0.1126  1.1617  0.0640
  121SAPC   H5R12736   1.752   2.029   2.655 -0.0712  1.2036  0.0177
  121SAPC   C2612737   1.830   2.011   2.853  0.4362 -0.0054 -0.3866
  121SAPC   H6R12738   1.727   2.033   2.887 -0.0194  0.4961 -1.9921
  121SAPC   C2712739   1.944   1.975   2.949 -0.0666  0.5352 -0.1519
  121SAPC   H7R12740   2.039   2.019   2.912 -0.7742 -0.2483 -3.1758
  121SAPC   H7S12741   1.961   1.866   2.937 -2.2427  0.1640 -0.2497
  121SAPC   C2812742   1.904   2.013   3.091  0.4106 -0.5654  0.0410
  121SAPC   H8R12743   1.844   2.105   3.099  0.5936 -0.5297  1.0564
  121SAPC   C2912744   1.931   1.950   3.207 -0.5838  0.6789  0.6060
  121SAPC   H9R12745   1.883   1.985   3.299 -1.0707 -0.5896  0.8589
  121SAPC  C21012746   2.010   1.813   3.219  0.2889 -0.0179  0.5550
  121SAPC  H10R12747   1.991   1.760   3.123  1.1540  0.0882  0.3172
  121SAPC  H10S12748   1.967   1.749   3.298  0.6000  1.5038  2.0238
  121SAPC  C21112749   2.155   1.836   3.246  0.1346 -1.4951  0.6113
  121SAPC  H11R12750   2.186   1.939   3.224 -1.6672 -0.5591  2.2429
  121SAPC  C21212751   2.251   1.749   3.283 -0.6844 -0.9769  0.5955
  121SAPC  H12R12752   2.346   1.784   3.327 -0.4616 -0.9228  0.0769
  121SAPC  C21312753   2.211   1.603   3.309 -0.1464 -0.1224 -0.1853
  121SAPC  H13R12754   2.218   1.545   3.215 -0.5252 -0.3301 -0.0872
  121SAPC  H13S12755   2.101   1.602   3.328 -0.9473  2.1919 -3.7832
  121SAPC  C21412756   2.303   1.523   3.400  0.0322 -0.2674 -0.9747
  121SAPC  H14R12757   2.409   1.548   3.417 -0.4536  0.5627  1.1888
  121SAPC  C21512758   2.270   1.411   3.469  0.3151 -0.6946  0.6798
  121SAPC  H15R12759   2.318   1.378   3.562  0.3851 -1.1509  0.4842
  121SAPC  C21612760   2.131   1.352   3.459  0.1446 -0.1674  0.7133
  121SAPC  H16R12761   2.142   1.246   3.428  1.0652  0.4937 -1.4714
  121SAPC  H16S12762   2.072   1.392   3.373  0.1344  0.0025  0.7992
  121SAPC  C21712763   2.043   1.364   3.587  0.3847 -0.3033 -0.4800
  121SAPC  H17R12764   1.940   1.330   3.565  1.5796 -4.1227 -0.9171
  121SAPC  H17S12765   2.027   1.465   3.631  2.1154 -1.4589  3.2178
  121SAPC  C21812766   2.095   1.289   3.715  0.0162 -0.2834 -0.1550
  121SAPC  H18R12767   2.187   1.337   3.753  0.9604 -0.9253 -1.5353
  121SAPC  H18S12768   2.127   1.186   3.688 -0.0470 -0.0567 -1.1347
  121SAPC  C21912769   1.986   1.290   3.820 -0.2457  0.2308 -0.3449
  121SAPC  H19R12770   2.009   1.198   3.879 -0.6877  1.1785  1.3588
  121SAPC  H19S12771   1.888   1.276   3.770 -0.5311  1.3202 -0.1119
  121SAPC  C22012772   1.983   1.404   3.922 -0.2365 -0.2025  0.0150
  121SAPC  H20R12773   1.941   1.496   3.875 -2.1159 -0.8859  0.2728
  121SAPC  H20S12774   2.085   1.421   3.961 -0.5282  1.3408  0.1673
  121SAPC  H20T12775   1.927   1.371   4.012 -1.9725 -1.3639 -1.4180
  121SAPC   C3312776   2.177   1.554   2.482 -0.6281  0.7038  0.0814
  121SAPC   H3X12777   2.195   1.659   2.513 -0.9990  1.0938 -0.9606
  121SAPC   H3Y12778   2.264   1.495   2.517 -2.1001 -1.8637 -0.3868
  121SAPC   C3412779   2.056   1.500   2.558  0.2025  0.5594 -0.2846
  121SAPC   H4X12780   2.027   1.401   2.519 -0.3403  1.5878 -2.6428
  121SAPC   H4Y12781   1.971   1.570   2.544  0.2469  0.5777 -0.4614
  121SAPC   C3512782   2.097   1.483   2.706 -0.0386  0.1987  0.8469
  121SAPC   H5X12783   2.005   1.480   2.769 -0.8417  0.0999 -0.3042
  121SAPC   H5Y12784   2.159   1.569   2.740  0.9753  0.4374 -1.4010
  121SAPC   C3612785   2.184   1.355   2.726 -0.4659 -0.1253 -0.6821
  121SAPC   H6X12786   2.277   1.357   2.667 -0.4745  0.8311 -0.6796
  121SAPC   H6Y12787   2.122   1.270   2.689 -2.5287  2.0214 -2.4933
  121SAPC   C3712788   2.230   1.354   2.865  0.8131 -0.5681  0.6545
  121SAPC   H7X12789   2.147   1.310   2.925 -0.4075 -1.1551 -1.3666
  121SAPC   H7Y12790   2.245   1.459   2.899 -1.1653 -0.3383  0.9075
  121SAPC   C3812791   2.359   1.269   2.880 -0.7394  0.4505  1.2111
  121SAPC   H8X12792   2.449   1.332   2.864 -0.1405 -0.2425  1.7507
  121SAPC   H8Y12793   2.342   1.193   2.800 -0.8294  1.5843  0.1297
  121SAPC   C3912794   2.371   1.197   3.011  0.8229 -0.0478 -0.2258
  121SAPC   H9X12795   2.461   1.132   3.007  1.1596  0.4234 -0.4164
  121SAPC   H9Y12796   2.280   1.135   3.006  1.6877 -1.2865 -2.5060
  121SAPC  C31012797   2.384   1.282   3.144  0.6383 -0.0849 -0.1980
  121SAPC  H10X12798   2.349   1.217   3.228 -1.1103  0.5138 -0.4140
  121SAPC  H10Y12799   2.302   1.357   3.149 -1.4896 -2.3427  1.3289
  121SAPC  C31112800   2.526   1.327   3.180 -0.1981 -0.0853  0.6946
  121SAPC  H11X12801   2.530   1.424   3.234  2.1472 -0.3008  0.9945
  121SAPC  H11Y12802   2.568   1.352   3.080  1.1212 -0.6997  1.0720
  121SAPC  C31212803   2.622   1.231   3.237  0.2153 -0.1845 -0.6933
  121SAPC  H12X12804   2.636   1.154   3.158  1.9544  1.5954 -2.2244
  121SAPC  H12Y12805   2.579   1.185   3.329 -1.4372 -2.2559 -2.4152
  121SAPC  C31312806   2.757   1.296   3.268 -0.0981 -0.0790 -0.6395
  121SAPC  H13X12807   2.779   1.365   3.184 -1.3318 -0.4072 -1.2558
  121SAPC  H13Y12808   2.831   1.220   3.302 -0.3376  1.1975  3.2498
  121SAPC  C31412809   2.755   1.377   3.400  0.0152 -0.1783  0.2549
  121SAPC  H14X12810   2.677   1.456   3.389 -1.0316 -1.1972  0.1756
  121SAPC  H14Y12811   2.850   1.433   3.411 -0.1319  0.5542 -1.7914
  121SAPC  C31512812   2.728   1.297   3.527  1.0624  0.4914  0.3247
  121SAPC  H15X12813   2.812   1.225   3.534  1.6319  0.9489 -1.4638
  121SAPC  H15Y12814   2.629   1.247   3.520  1.3230  0.1729 -1.6758
  121SAPC  C31612815   2.744   1.370   3.654  0.0767 -0.2074  0.1989
  121SAPC  H16X12816   2.827   1.443   3.642  0.2601 -0.3075  0.8220
  121SAPC  H16Y12817   2.787   1.294   3.723 -0.3962 -0.9856 -0.3560
  121SAPC  C31712818   2.626   1.442   3.708 -0.3443  0.6848 -0.4352
  121SAPC  H17X12819   2.536   1.377   3.719  0.0871  0.4911  3.3955
  121SAPC  H17Y12820   2.588   1.526   3.646  0.5628  0.5025 -1.2687
  121SAPC  C31812821   2.657   1.501   3.849  0.1809 -0.0396  0.3776
  121SAPC  H18X12822   2.711   1.421   3.904 -0.1119 -2.0476 -2.0772
  121SAPC  H18Y12823   2.567   1.537   3.904  1.5650  2.3066  1.2799
  121SAPC  H18Z12824   2.725   1.589   3.846 -0.4937  0.6519  2.7622
  122SAPC     N12825   3.566   5.940   1.525 -0.4850  0.6754  0.6238
  122SAPC   C1212826   3.498   6.049   1.606 -0.0720 -0.1361 -0.0787
  122SAPC  H12A12827   3.419   5.999   1.661 -0.3219 -0.8472 -1.0537
  122SAPC  H12B12828   3.458   6.125   1.540  3.1335  0.7628 -1.1474
  122SAPC   C1312829   3.696   5.988   1.470  0.2373 -0.0037 -0.4379
  122SAPC  H13A12830   3.682   6.048   1.382 -0.3263 -2.1450 -1.8848
  122SAPC  H13B12831   3.757   6.036   1.546 -0.3612  0.5807 -0.3239
  122SAPC  H13C12832   3.753   5.902   1.439  0.5448  0.4178 -1.0577
  122SAPC   C1412833   3.598   5.825   1.622  0.5687 -0.2189  0.5126
  122SAPC  H14A12834   3.668   5.759   1.574  1.3988  1.9625 -1.4837
  122SAPC  H14B12835   3.620   5.865   1.720  2.6898  1.1844 -0.4616
  122SAPC  H14C12836   3.509   5.767   1.643  0.8632 -0.3864  1.3072
  122SAPC   C1512837   3.481   5.895   1.410 -0.2651 -0.7710 -0.3459
  122SAPC  H15A12838   3.484   5.791   1.383 -0.6488 -1.0761  0.7583
  122SAPC  H15B12839   3.379   5.906   1.444  0.2591  0.1363  0.9994
  122SAPC  H15C12840   3.498   5.957   1.323 -0.3109 -0.5166 -0.1753
  122SAPC   C1112841   3.583   6.124   1.711 -0.3670  0.0563  0.5221
  122SAPC  H11A12842   3.533   6.219   1.740  1.9078  1.6842 -0.6799
  122SAPC  H11B12843   3.677   6.164   1.668  0.1212 -3.0947 -1.7001
  122SAPC     P12844   3.742   6.013   1.893 -0.5005  0.1697  0.4825
  122SAPC   O1312845   3.736   5.867   1.925  0.3637  0.0239  0.1235
  122SAPC   O1412846   3.854   6.053   1.803 -0.8008 -0.1242 -0.1533
  122SAPC   O1212847   3.606   6.041   1.828  0.1105  0.9757 -0.3219
  122SAPC   O1112848   3.730   6.111   2.025 -0.2450  0.8173  0.6114
  122SAPC    C112849   3.740   6.258   2.024  0.0840  1.2387  0.4573
  122SAPC    HA12850   3.843   6.289   2.052 -0.2213  1.4582  1.3713
  122SAPC    HB12851   3.700   6.299   1.929  0.8017  0.1813 -0.3247
  122SAPC    C212852   3.646   6.314   2.139  0.6545  1.0475 -0.6511
  122SAPC    HS12853   3.684   6.415   2.166  1.2641  0.4645  0.7512
  122SAPC   O2112854   3.667   6.232   2.253 -0.0378 -0.7235  0.0578
  122SAPC   C2112855   3.771   6.263   2.328  0.1969  1.1714 -0.9018
  122SAPC   O2212856   3.859   6.340   2.301 -0.3596  0.5068  0.4927
  122SAPC   C2212857   3.765   6.208   2.466  0.7389  0.5228 -0.3661
  122SAPC   H2R12858   3.665   6.160   2.475  0.8196  0.6075  1.1654
  122SAPC   H2S12859   3.845   6.132   2.481  0.7513  0.2940 -1.4610
  122SAPC    C312860   3.500   6.333   2.098  0.2195  0.1814  0.7458
  122SAPC    HX12861   3.474   6.232   2.059  1.9825  0.3428 -0.9720
  122SAPC    HY12862   3.499   6.415   2.024  1.2517  0.2207  0.7689
  122SAPC   O3112863   3.425   6.376   2.209 -0.6545 -0.3620  0.1265
  122SAPC   C3112864   3.368   6.285   2.281  0.2437  0.2023  0.6814
  122SAPC   O3212865   3.361   6.166   2.255  0.1561 -0.6505 -0.5136
  122SAPC   C3212866   3.309   6.339   2.409 -1.0863  0.6731  0.1592
  122SAPC   H2X12867   3.270   6.442   2.396  1.4601  1.8457  1.0227
  122SAPC   H2Y12868   3.397   6.357   2.475  0.5534 -1.5367 -1.2858
  122SAPC   C2312869   3.760   6.318   2.569 -0.3425  0.3877  0.0466
  122SAPC   H3R12870   3.673   6.383   2.547 -0.6655  0.5210  1.5873
  122SAPC   H3S12871   3.853   6.379   2.565 -0.8748  1.2542  0.6405
  122SAPC   C2412872   3.734   6.251   2.707 -0.4887  0.6166  0.0778
  122SAPC   H4R12873   3.795   6.159   2.719 -1.2363  0.1424  0.3622
  122SAPC   H4S12874   3.634   6.202   2.699  0.7076 -1.8347 -0.9082
  122SAPC   C2512875   3.726   6.342   2.830 -0.5712 -0.0465  0.1879
  122SAPC   H5R12876   3.822   6.360   2.881  0.2548  1.3846 -1.7394
  122SAPC   C2612877   3.618   6.400   2.879  0.2287 -0.4304 -0.8997
  122SAPC   H6R12878   3.640   6.479   2.953  0.9275  1.8473 -3.3953
  122SAPC   C2712879   3.479   6.389   2.835 -0.1271 -0.6901  0.4954
  122SAPC   H7R12880   3.429   6.304   2.887 -1.3350 -0.1223  0.3104
  122SAPC   H7S12881   3.480   6.369   2.726  0.0335  1.1011  0.1286
  122SAPC   C2812882   3.385   6.509   2.840  0.3355 -1.2102  0.8137
  122SAPC   H8R12883   3.351   6.557   2.747 -1.8288 -0.3564  1.9892
  122SAPC   C2912884   3.341   6.560   2.952 -0.2440  0.2175  0.1757
  122SAPC   H9R12885   3.271   6.644   2.959 -1.7520 -0.8616 -1.1528
  122SAPC  C21012886   3.376   6.509   3.088  0.7722  0.4361  0.0633
  122SAPC  H10R12887   3.414   6.406   3.072 -0.5355  0.1573 -1.5754
  122SAPC  H10S12888   3.283   6.496   3.148  1.3956  0.7301  1.1064
  122SAPC  C21112889   3.486   6.571   3.165  0.7530 -0.6969  0.4151
  122SAPC  H11R12890   3.545   6.637   3.099 -0.6888  0.8580  0.6080
  122SAPC  C21212891   3.505   6.576   3.299  0.0671  0.2843 -0.1749
  122SAPC  H12R12892   3.594   6.625   3.340 -0.5570 -0.7888  2.6931
  122SAPC  C21312893   3.415   6.512   3.403  0.2229  0.0801  0.5509
  122SAPC  H13R12894   3.471   6.473   3.491 -0.1814  0.4024  0.9572
  122SAPC  H13S12895   3.367   6.418   3.368 -0.6103  0.7335 -0.0941
  122SAPC  C21412896   3.300   6.600   3.448  0.0356  0.0278  0.0432
  122SAPC  H14R12897   3.258   6.667   3.372 -1.7630 -1.3318 -0.2463
  122SAPC  C21512898   3.239   6.592   3.570  0.8665  0.3126  0.8089
  122SAPC  H15R12899   3.148   6.654   3.577 -0.3813 -1.4168  0.6806
  122SAPC  C21612900   3.260   6.500   3.686 -0.7183 -0.1873 -0.5921
  122SAPC  H16R12901   3.339   6.430   3.650 -1.6832 -0.6976 -1.8030
  122SAPC  H16S12902   3.172   6.437   3.712 -1.9847  2.0606  0.9442
  122SAPC  C21712903   3.306   6.577   3.814 -0.3818 -0.3339  0.5913
  122SAPC  H17R12904   3.220   6.608   3.877 -0.9896 -1.0517  0.1173
  122SAPC  H17S12905   3.371   6.665   3.792 -1.5497  0.4443  0.1623
  122SAPC  C21812906   3.398   6.480   3.894  0.1472  0.1664 -0.6471
  122SAPC  H18R12907   3.484   6.451   3.829  0.4273 -1.0263  0.2347
  122SAPC  H18S12908   3.345   6.387   3.922 -1.2365  1.3928  1.0025
  122SAPC  C21912909   3.459   6.553   4.017  0.3082 -0.6655  0.1061
  122SAPC  H19R12910   3.367   6.560   4.079 -0.6209 -2.0985 -1.0591
  122SAPC  H19S12911   3.489   6.657   3.993  1.0488  0.6602  5.4946
  122SAPC  C22012912   3.567   6.478   4.086  0.3262  0.4887 -0.0665
  122SAPC  H20R12913   3.532   6.380   4.125 -0.6336  0.8626  0.0457
  122SAPC  H20S12914   3.606   6.521   4.181 -1.8966  0.5453  0.8822
  122SAPC  H20T12915   3.659   6.475   4.024 -0.9154  0.2607 -1.9870
  122SAPC   C3312916   3.201   6.252   2.471  1.0023 -0.5635  0.6190
  122SAPC   H3X12917   3.130   6.207   2.399 -0.7456 -0.8365  2.4327
  122SAPC   H3Y12918   3.135   6.325   2.522  1.3528 -0.0406  0.3344
  122SAPC   C3412919   3.250   6.143   2.563 -0.3783 -0.6706 -0.1885
  122SAPC   H4X12920   3.176   6.127   2.644  1.5496  1.0190  2.0548
  122SAPC   H4Y12921   3.351   6.171   2.600  1.0803 -2.6531 -2.3431
  122SAPC   C3512922   3.276   6.003   2.499 -0.5635 -0.0844 -0.3988
  122SAPC   H5X12923   3.367   6.012   2.436  1.3283 -0.6822  2.0549
  122SAPC   H5Y12924   3.209   5.975   2.415  0.2875 -2.1838 -0.4213
  122SAPC   C3612925   3.288   5.894   2.601  0.1213  0.2063  0.8325
  122SAPC   H6X12926   3.285   5.793   2.554 -0.7415  0.5036  0.2070
  122SAPC   H6Y12927   3.199   5.902   2.668 -1.0804 -2.3619 -0.2889
  122SAPC   C3712928   3.399   5.895   2.707  0.1164 -0.1012 -0.0088
  122SAPC   H7X12929   3.382   5.992   2.757 -1.8180  0.6122 -1.9097
  122SAPC   H7Y12930   3.500   5.900   2.660 -0.6841  0.0031 -1.8009
  122SAPC   C3812931   3.381   5.781   2.808 -0.2186  0.1718 -1.0987
  122SAPC   H8X12932   3.473   5.774   2.871  0.0399  0.2821 -1.4615
  122SAPC   H8Y12933   3.368   5.682   2.759  0.4378  0.0114 -0.9543
  122SAPC   C3912934   3.261   5.794   2.909 -0.5848  0.4203 -0.2242
  122SAPC   H9X12935   3.171   5.755   2.856  0.4714  0.1937 -1.9471
  122SAPC   H9Y12936   3.235   5.900   2.928 -1.2472  0.3962 -0.9490
  122SAPC  C31012937   3.280   5.718   3.039 -0.3956 -0.4555  0.1521
  122SAPC  H10X12938   3.378   5.743   3.085 -0.8589 -0.1402  0.9932
  122SAPC  H10Y12939   3.267   5.608   3.037 -2.2209 -0.2652 -0.6304
  122SAPC  C31112940   3.175   5.767   3.141 -0.4917 -0.4174 -0.1532
  122SAPC  H11X12941   3.077   5.717   3.129 -0.8347  0.4472 -1.0985
  122SAPC  H11Y12942   3.156   5.877   3.137 -1.7027 -0.6446 -1.3381
  122SAPC  C31212943   3.219   5.736   3.286 -0.4640 -0.1704 -0.4120
  122SAPC  H12X12944   3.188   5.820   3.352  1.3961  0.4317 -0.2506
  122SAPC  H12Y12945   3.329   5.718   3.292 -0.4870 -0.6624 -1.2262
  122SAPC  C31312946   3.135   5.620   3.347  0.2391 -0.5588 -0.3975
  122SAPC  H13X12947   3.180   5.521   3.328  1.8856 -0.3658  2.0450
  122SAPC  H13Y12948   3.031   5.633   3.308  0.9470  1.8037 -1.7301
  122SAPC  C31412949   3.124   5.634   3.503  0.3570 -0.2345  0.0548
  122SAPC  H14X12950   3.033   5.578   3.532  0.7980 -1.0477 -0.1063
  122SAPC  H14Y12951   3.104   5.741   3.526  1.7413  0.5226 -1.9180
  122SAPC  C31512952   3.249   5.592   3.574  0.1641  0.1631 -0.1624
  122SAPC  H15X12953   3.325   5.658   3.528 -0.0916  0.4481 -0.1726
  122SAPC  H15Y12954   3.275   5.487   3.545  1.0538  0.5638 -0.8753
  122SAPC  C31612955   3.233   5.590   3.721  0.0130 -0.0270 -0.2987
  122SAPC  H16X12956   3.142   5.533   3.751 -0.5428  0.9974  0.0415
  122SAPC  H16Y12957   3.221   5.694   3.758 -0.0073  1.3185 -3.7438
  122SAPC  C31712958   3.351   5.524   3.794  0.4746  0.4613 -0.1826
  122SAPC  H17X12959   3.430   5.601   3.782 -2.6521  4.1172  0.6054
  122SAPC  H17Y12960   3.383   5.430   3.745  0.3686  0.5046 -0.3399
  122SAPC  C31812961   3.348   5.505   3.942 -0.5216  0.2464  0.2295
  122SAPC  H18X12962   3.309   5.597   3.992 -3.3893  0.0285 -1.3554
  122SAPC  H18Y12963   3.450   5.485   3.981  0.2427  1.7150 -0.8783
  122SAPC  H18Z12964   3.286   5.415   3.962  2.8467 -2.1854  0.5045
  123SAPC     N12965   4.141   6.225   2.014  0.4886 -0.2574  0.2869
  123SAPC   C1212966   4.144   6.279   2.156  0.4343 -0.2071  0.1293
  123SAPC  H12A12967   4.041   6.285   2.188  0.4006 -2.9230  0.7205
  123SAPC  H12B12968   4.194   6.375   2.148  3.2935 -1.5417  0.6925
  123SAPC   C1312969   4.277   6.200   1.964  0.3278 -0.3969 -0.1517
  123SAPC  H13A12970   4.273   6.144   1.873 -2.0151 -0.7091  0.0989
  123SAPC  H13B12971   4.332   6.291   1.945 -0.3808  0.1016  0.1384
  123SAPC  H13C12972   4.332   6.136   2.031 -1.0995 -1.1926  0.2975
  123SAPC   C1412973   4.069   6.091   2.012 -0.4305 -0.2234 -0.3639
  123SAPC  H14A12974   3.976   6.104   2.066 -1.0759 -0.9498 -1.2685
  123SAPC  H14B12975   4.049   6.054   1.912  0.6072  0.6638 -0.9261
  123SAPC  H14C12976   4.122   6.017   2.070 -1.2407 -0.3623  0.2200
  123SAPC   C1512977   4.077   6.320   1.923  0.5034 -0.3109 -0.2585
  123SAPC  H15A12978   4.067   6.285   1.821 -2.0052 -0.4365 -0.0089
  123SAPC  H15B12979   3.975   6.335   1.955 -0.3377 -4.1203 -0.7337
  123SAPC  H15C12980   4.140   6.408   1.916  2.4155 -1.7028 -1.5907
  123SAPC   C1112981   4.226   6.193   2.257 -0.1952 -0.2390  0.0121
  123SAPC  H11A12982   4.189   6.089   2.267  0.6750 -0.3521  2.8563
  123SAPC  H11B12983   4.201   6.246   2.351  0.3292  1.6111 -0.8535
  123SAPC     P12984   4.451   6.323   2.248  0.2517  0.3720  0.0083
  123SAPC   O1312985   4.586   6.290   2.201  0.0024  0.3700 -0.2046
  123SAPC   O1412986   4.383   6.428   2.172 -0.5375 -0.0431 -0.5543
  123SAPC   O1212987   4.370   6.188   2.247 -0.7192  1.2839  0.1971
  123SAPC   O1112988   4.455   6.357   2.401  0.1542  0.2488  0.3470
  123SAPC    C112989   4.504   6.259   2.500 -0.9095 -0.4390  0.0970
  123SAPC    HA12990   4.453   6.273   2.598  0.9298 -3.5159  1.6501
  123SAPC    HB12991   4.478   6.155   2.471  1.7387 -0.6770 -1.7217
  123SAPC    C212992   4.655   6.275   2.537 -0.2348 -0.1164 -0.4907
  123SAPC    HS12993   4.709   6.221   2.457  1.1187 -1.3751  1.1732
  123SAPC   O2112994   4.695   6.220   2.667  0.7160  0.1592  0.0094
  123SAPC   C2112995   4.672   6.083   2.686 -0.0759 -0.3908  0.3913
  123SAPC   O2212996   4.642   6.006   2.595 -0.0092  0.0306 -0.8027
  123SAPC   C2212997   4.729   6.055   2.828 -0.7779 -0.8178 -0.1803
  123SAPC   H2R12998   4.711   5.945   2.830 -2.1035 -0.6128  1.5113
  123SAPC   H2S12999   4.837   6.079   2.834 -0.7778 -0.5626 -1.0366
  123SAPC    C313000   4.707   6.425   2.538  0.4717  0.4908  0.3012
  123SAPC    HX13001   4.705   6.466   2.435  0.2660 -1.7064 -0.6079
  123SAPC    HY13002   4.814   6.416   2.564 -0.1106 -0.7900  2.5115
  123SAPC   O3113003   4.639   6.502   2.639  0.2844  0.4652 -0.2363
  123SAPC   C3113004   4.560   6.593   2.598  0.6500 -0.2306  0.5762
  123SAPC   O3213005   4.538   6.624   2.482 -0.1093 -0.3897  0.2607
  123SAPC   C3213006   4.476   6.653   2.712 -0.5035 -0.9757 -0.4498
  123SAPC   H2X13007   4.387   6.699   2.663 -0.3734  0.5091  0.6689
  123SAPC   H2Y13008   4.536   6.741   2.742  0.3834 -1.8027  0.2515
  123SAPC   C2313009   4.639   6.118   2.941 -0.0113 -0.8194  0.2350
  123SAPC   H3R13010   4.627   6.045   3.023  0.0127  0.4338  1.3919
  123SAPC   H3S13011   4.539   6.137   2.897  0.6627 -0.2503 -1.1049
  123SAPC   C2413012   4.699   6.241   3.012 -0.0269 -0.4627  0.2776
  123SAPC   H4R13013   4.723   6.317   2.934 -3.2503  1.7633  1.2665
  123SAPC   H4S13014   4.795   6.197   3.048  1.4145  1.9395 -0.3787
  123SAPC   C2513015   4.610   6.309   3.115 -1.1634  1.4880  0.1522
  123SAPC   H5R13016   4.520   6.359   3.077 -0.6791  3.1101  1.0742
  123SAPC   C2613017   4.643   6.310   3.246 -0.0252 -0.2404  0.8309
  123SAPC   H6R13018   4.574   6.359   3.317  0.6990 -1.3101  2.3104
  123SAPC   C2713019   4.763   6.253   3.318 -0.0686  0.0521 -0.2215
  123SAPC   H7R13020   4.772   6.299   3.419 -0.1676 -0.5399  0.0646
  123SAPC   H7S13021   4.857   6.291   3.273  0.0967 -0.3061 -0.1852
  123SAPC   C2813022   4.773   6.108   3.309 -0.0410  0.1799 -1.1628
  123SAPC   H8R13023   4.746   6.067   3.211  0.0816  0.4429 -1.3083
  123SAPC   C2913024   4.835   6.028   3.396 -0.0125 -0.2867 -0.1294
  123SAPC   H9R13025   4.817   5.920   3.388  3.0923 -0.8715 -0.2353
  123SAPC  C21013026   4.904   6.078   3.523 -0.1486  0.1855 -0.6346
  123SAPC  H10R13027   4.908   6.189   3.528 -2.0320  0.2212  0.6234
  123SAPC  H10S13028   5.008   6.042   3.540  0.6178  2.2425 -0.6975
  123SAPC  C21113029   4.816   6.059   3.648  0.3081 -0.4523  0.1913
  123SAPC  H11R13030   4.710   6.086   3.632  0.7122 -0.1551 -2.4294
  123SAPC  C21213031   4.857   6.022   3.769  0.3781 -0.3269 -0.0902
  123SAPC  H12R13032   4.777   6.023   3.845  0.9862  0.3040  0.5500
  123SAPC  C21313033   5.001   5.996   3.822 -0.0078 -0.0425  0.4759
  123SAPC  H13R13034   5.032   6.090   3.873 -1.5799  1.6931 -1.5939
  123SAPC  H13S13035   5.081   5.963   3.752  2.5137  0.5554  2.8837
  123SAPC  C21413036   4.993   5.885   3.924 -0.1976 -0.6147 -0.1345
  123SAPC  H14R13037   4.965   5.917   4.025  2.3953 -0.7751  0.6829
  123SAPC  C21513038   5.023   5.759   3.914  0.0357 -0.2774  0.0680
  123SAPC  H15R13039   5.029   5.697   4.005 -1.1823 -1.6328 -0.7346
  123SAPC  C21613040   5.090   5.689   3.796 -0.4891 -0.1404 -0.4090
  123SAPC  H16R13041   5.122   5.764   3.721  0.3065 -1.1408 -1.0955
  123SAPC  H16S13042   5.010   5.621   3.759 -2.0099 -0.3912  2.9453
  123SAPC  C21713043   5.223   5.621   3.838  0.5736 -1.1726  0.2890
  123SAPC  H17R13044   5.210   5.537   3.909  2.6019  0.5458  2.8841
  123SAPC  H17S13045   5.277   5.699   3.897  1.3531  0.5199 -2.4682
  123SAPC  C21813046   5.318   5.597   3.717  0.4715  0.2741 -0.7229
  123SAPC  H18R13047   5.418   5.573   3.758 -0.4124  1.8005  2.7471
  123SAPC  H18S13048   5.327   5.689   3.656  1.1250 -0.6833 -2.1266
  123SAPC  C21913049   5.262   5.478   3.633  0.3290  0.7870  0.4225
  123SAPC  H19R13050   5.165   5.517   3.595  0.0924 -0.8885 -0.7929
  123SAPC  H19S13051   5.247   5.381   3.686 -1.6049  1.0884  0.4919
  123SAPC  C22013052   5.351   5.444   3.519  0.2031  0.0961  0.1727
  123SAPC  H20R13053   5.340   5.337   3.490  1.0734  0.5565 -2.1150
  123SAPC  H20S13054   5.456   5.465   3.546  0.9157 -2.6137 -0.1758
  123SAPC  H20T13055   5.319   5.508   3.434 -0.6876  0.9484  1.1179
  123SAPC   C3313056   4.431   6.562   2.829  0.2363  0.1596  0.1954
  123SAPC   H3X13057   4.522   6.533   2.886 -0.0002  1.6402  1.3685
  123SAPC   H3Y13058   4.389   6.471   2.780  3.1339 -0.2308 -1.8231
  123SAPC   C3413059   4.338   6.631   2.940  0.2635 -0.5163  0.3459
  123SAPC   H4X13060   4.232   6.612   2.913 -0.3902  3.5946 -0.7378
  123SAPC   H4Y13061   4.343   6.742   2.931 -0.1972 -0.4989  0.2765
  123SAPC   C3513062   4.374   6.592   3.089 -0.3793 -0.3145  0.7173
  123SAPC   H5X13063   4.476   6.572   3.129  0.5931  1.2301 -0.8313
  123SAPC   H5Y13064   4.316   6.498   3.092 -2.4602  0.6759 -2.7674
  123SAPC   C3613065   4.321   6.692   3.192 -0.2843 -0.9110  0.3782
  123SAPC   H6X13066   4.224   6.736   3.164 -0.7442 -1.6911  0.7042
  123SAPC   H6Y13067   4.393   6.775   3.178 -0.6315 -0.7831 -0.7787
  123SAPC   C3713068   4.331   6.648   3.339  0.5056 -0.7601  0.2005
  123SAPC   H7X13069   4.283   6.720   3.408 -1.5655 -1.7425 -0.1590
  123SAPC   H7Y13070   4.437   6.648   3.374  0.2998 -3.2870  1.0309
  123SAPC   C3813071   4.270   6.508   3.379  0.1680  1.2783  0.0317
  123SAPC   H8X13072   4.334   6.427   3.338  0.6196  2.1191 -0.9696
  123SAPC   H8Y13073   4.166   6.495   3.342 -0.0958 -2.1228  1.6343
  123SAPC   C3913074   4.257   6.477   3.532  0.6819  0.7826 -0.3450
  123SAPC   H9X13075   4.160   6.510   3.576 -0.1877  0.5070 -1.9560
  123SAPC   H9Y13076   4.337   6.529   3.587  1.2715  1.0543 -1.4214
  123SAPC  C31013077   4.264   6.330   3.573 -0.7540  0.6324  0.0879
  123SAPC  H10X13078   4.225   6.276   3.484  0.7110 -1.9144  0.8879
  123SAPC  H10Y13079   4.204   6.295   3.660  0.2869  0.5174  0.7832
  123SAPC  C31113080   4.407   6.276   3.588  0.5141 -0.0779 -0.3670
  123SAPC  H11X13081   4.463   6.320   3.503  3.5096 -1.7494  0.6086
  123SAPC  H11Y13082   4.409   6.166   3.572 -0.9368 -0.0699 -0.8018
  123SAPC  C31213083   4.482   6.315   3.719  0.2657  0.9220 -0.6896
  123SAPC  H12X13084   4.468   6.423   3.745 -0.9353  0.0187  3.1505
  123SAPC  H12Y13085   4.592   6.304   3.713  0.2706  0.2590  0.3956
  123SAPC  C31313086   4.436   6.244   3.844  0.1970 -0.0673  0.3576
  123SAPC  H13X13087   4.421   6.134   3.832  0.2022 -0.0603  0.2863
  123SAPC  H13Y13088   4.336   6.288   3.865  0.5038  1.2887 -0.8864
  123SAPC  C31413089   4.535   6.260   3.957 -0.2080  0.2104 -0.2765
  123SAPC  H14X13090   4.544   6.368   3.978 -0.9825  0.0192  1.1160
  123SAPC  H14Y13091   4.637   6.220   3.939 -0.8129 -3.2751  2.7018
  123SAPC  C31513092   4.482   6.199   4.087 -0.0948  0.3978  0.1253
  123SAPC  H15X13093   4.393   6.257   4.121 -1.8935 -2.5152  0.8232
  123SAPC  H15Y13094   4.558   6.205   4.167 -0.3767 -1.5418  0.6026
  123SAPC  C31613095   4.455   6.047   4.073  0.4596 -0.2174  0.2805
  123SAPC  H16X13096   4.371   6.023   4.005  2.2071 -2.0734 -1.3398
  123SAPC  H16Y13097   4.428   6.005   4.172 -1.1942  0.8579  0.3230
  123SAPC  C31713098   4.571   5.967   4.011  0.1302 -0.2814 -0.0241
  123SAPC  H17X13099   4.661   6.006   4.063  0.2622 -0.1766 -0.3349
  123SAPC  H17Y13100   4.569   5.994   3.904  0.9907  2.1333  0.5085
  123SAPC  C31813101   4.557   5.812   4.018 -0.2129  0.1865 -0.2087
  123SAPC  H18X13102   4.571   5.773   4.121 -2.5515 -1.5563 -0.4590
  123SAPC  H18Y13103   4.640   5.769   3.958  0.9049  1.2571  0.5359
  123SAPC  H18Z13104   4.466   5.764   3.976  0.0039 -1.1170  0.7272
  124SAPC     N13105   6.962   3.845   1.945 -0.8660 -0.1937 -0.2971
  124SAPC   C1213106   6.957   3.943   2.059 -0.1043  0.4552 -0.5037
  124SAPC  H12A13107   6.912   4.035   2.023 -0.4683  0.1854 -0.7419
  124SAPC  H12B13108   7.055   3.954   2.103  0.8432 -2.5368 -1.6234
  124SAPC   C1313109   7.085   3.869   1.856 -0.2113 -0.9370 -0.1824
  124SAPC  H13A13110   7.095   3.974   1.834  1.5309 -1.2167 -0.8605
  124SAPC  H13B13111   7.177   3.835   1.902  1.3858  0.7114 -2.0167
  124SAPC  H13C13112   7.080   3.830   1.756  0.2486 -0.5644 -0.3500
  124SAPC   C1413113   6.964   3.697   1.986  0.4862 -1.1760 -0.3007
  124SAPC  H14A13114   6.899   3.673   2.069  0.2555 -1.6737 -0.6236
  124SAPC  H14B13115   6.946   3.634   1.901  0.0893 -1.5640  0.0668
  124SAPC  H14C13116   7.062   3.677   2.027  0.8354  2.3601  0.9899
  124SAPC   C1513117   6.857   3.867   1.846  0.2381 -0.0928 -0.3680
  124SAPC  H15A13118   6.881   3.809   1.759  1.1718  0.0770 -0.2343
  124SAPC  H15B13119   6.763   3.825   1.881 -0.1133 -0.2040 -1.4020
  124SAPC  H15C13120   6.843   3.974   1.836  0.1535  0.0822  1.3096
  124SAPC   C1113121   6.870   3.909   2.177  0.9750 -0.0120 -0.8800
  124SAPC  H11A13122   6.903   3.970   2.264 -0.5442 -0.5880  0.1600
  124SAPC  H11B13123   6.884   3.801   2.199 -2.0621 -0.5852 -1.2747
  124SAPC     P13124   6.608   3.846   2.146  0.1151 -0.0382 -0.0788
  124SAPC   O1313125   6.494   3.913   2.075 -0.2563  0.4084  0.2176
  124SAPC   O1413126   6.641   3.710   2.107 -0.5216  0.2222  0.1408
  124SAPC   O1213127   6.735   3.945   2.141 -0.1653 -0.4999 -0.1071
  124SAPC   O1113128   6.582   3.836   2.305  0.1640  0.3777  0.7407
  124SAPC    C113129   6.533   3.936   2.384  0.2926 -0.1593 -0.3188
  124SAPC    HA13130   6.471   4.008   2.325  3.2879  3.5502  0.6368
  124SAPC    HB13131   6.466   3.895   2.463  1.3139 -0.1635  0.5546
  124SAPC    C213132   6.633   4.020   2.466  0.8422  0.0966 -0.1953
  124SAPC    HS13133   6.694   4.068   2.387 -1.1924  0.8734 -1.3680
  124SAPC   O2113134   6.719   3.929   2.539 -0.3383 -0.0642  0.4451
  124SAPC   C2113135   6.847   3.947   2.561  0.3371 -0.9895 -0.2330
  124SAPC   O2213136   6.907   4.050   2.527  0.0392  0.1189 -0.2987
  124SAPC   C2213137   6.904   3.827   2.635 -0.1294  0.3782  0.8648
  124SAPC   H2R13138   6.829   3.799   2.712 -0.7906  1.4612  0.6361
  124SAPC   H2S13139   6.901   3.737   2.569  0.6145  1.4180 -0.6280
  124SAPC    C313140   6.566   4.130   2.558  0.4514 -0.1022  0.4087
  124SAPC    HX13141   6.481   4.180   2.506  0.0936 -2.2530 -1.2048
  124SAPC    HY13142   6.651   4.199   2.578  1.2331 -0.3938 -1.6555
  124SAPC   O3113143   6.523   4.062   2.681 -0.0801 -0.7757  0.7188
  124SAPC   C3113144   6.402   4.007   2.691 -0.0832 -1.0399 -0.7854
  124SAPC   O3213145   6.316   4.020   2.601 -0.2401 -0.2647  0.2749
  124SAPC   C3213146   6.384   3.924   2.817 -0.1459  0.3369  0.0830
  124SAPC   H2X13147   6.474   3.859   2.823 -0.4413 -0.2430 -1.3554
  124SAPC   H2Y13148   6.299   3.853   2.804 -0.8102  1.0599  0.3881
  124SAPC   C2313149   7.047   3.852   2.674  0.1148 -0.4376 -0.2564
  124SAPC   H3R13150   7.116   3.876   2.590 -1.2074 -1.6717 -1.7538
  124SAPC   H3S13151   7.073   3.756   2.724  0.3858 -0.0765  0.3068
  124SAPC   C2413152   7.068   3.965   2.775  0.1681  0.0934 -0.2341
  124SAPC   H4R13153   7.036   4.064   2.736  0.1587  0.3523  0.4161
  124SAPC   H4S13154   7.173   3.981   2.807 -0.0162 -1.5298  1.3742
  124SAPC   C2513155   6.993   3.929   2.899  0.0571  0.1089 -0.8215
  124SAPC   H5R13156   7.038   3.848   2.957  1.1583  1.0434 -0.3413
  124SAPC   C2613157   6.880   3.983   2.949  0.5684  0.1885 -0.8114
  124SAPC   H6R13158   6.863   3.968   3.057 -0.5826 -1.1212 -1.1449
  124SAPC   C2713159   6.803   4.097   2.886 -0.3496 -0.1772  0.6348
  124SAPC   H7R13160   6.698   4.065   2.869 -1.0217  1.4969  1.3950
  124SAPC   H7S13161   6.846   4.115   2.786  1.2092 -1.0285  1.1009
  124SAPC   C2813162   6.806   4.228   2.962  0.6229  0.8558 -0.2248
  124SAPC   H8R13163   6.843   4.310   2.898 -0.8057  1.4952 -0.2882
  124SAPC   C2913164   6.747   4.259   3.079  0.2755  0.1172 -0.2778
  124SAPC   H9R13165   6.739   4.363   3.112 -0.6090 -0.2062  0.5901
  124SAPC  C21013166   6.667   4.165   3.168  0.8171 -0.1273 -0.0322
  124SAPC  H10R13167   6.715   4.172   3.268 -2.3935  1.6336  1.5357
  124SAPC  H10S13168   6.681   4.058   3.142  0.4397 -0.0157 -0.7160
  124SAPC  C21113169   6.520   4.216   3.189 -0.1927 -0.4996  0.4093
  124SAPC  H11R13170   6.465   4.244   3.098  0.6035  0.4759  0.2029
  124SAPC  C21213171   6.457   4.226   3.312  0.1342 -0.1368  0.5082
  124SAPC  H12R13172   6.358   4.273   3.323 -0.0537 -0.0511 -1.3362
  124SAPC  C21313173   6.517   4.207   3.450  0.5878  0.9173 -0.4401
  124SAPC  H13R13174   6.601   4.279   3.454 -0.8151  2.6662 -1.0413
  124SAPC  H13S13175   6.553   4.102   3.450 -1.8858 -0.0046 -0.3481
  124SAPC  C21413176   6.412   4.218   3.560  0.3652  0.4052 -0.5026
  124SAPC  H14R13177   6.308   4.238   3.530  0.4904 -0.6656 -1.7625
  124SAPC  C21513178   6.442   4.211   3.691 -0.2585  0.5607  0.3870
  124SAPC  H15R13179   6.372   4.224   3.774  0.8859 -0.6128  1.5814
  124SAPC  C21613180   6.580   4.207   3.756 -0.4734  0.1516  0.3674
  124SAPC  H16R13181   6.606   4.307   3.797 -2.0979  1.2617 -1.1764
  124SAPC  H16S13182   6.649   4.183   3.672  2.0180 -0.8168  2.5473
  124SAPC  C21713183   6.620   4.102   3.869  0.0774 -0.2839  0.0874
  124SAPC  H17R13184   6.578   4.149   3.961 -0.6202 -1.5894  0.4612
  124SAPC  H17S13185   6.729   4.086   3.881  0.0851 -1.0013 -0.8144
  124SAPC  C21813186   6.575   3.960   3.836  0.4973 -0.3462 -0.0057
  124SAPC  H18R13187   6.637   3.915   3.756  0.3012  2.2030 -1.6853
  124SAPC  H18S13188   6.472   3.971   3.795 -0.6529  0.1909  2.7942
  124SAPC  C21913189   6.571   3.871   3.961 -0.1153  0.5968  0.4643
  124SAPC  H19R13190   6.497   3.907   4.036 -1.3877  0.1360 -0.5354
  124SAPC  H19S13191   6.674   3.882   4.000 -0.2004  2.0401  0.3213
  124SAPC  C22013192   6.526   3.731   3.926 -0.7586 -0.1785 -0.2781
  124SAPC  H20R13193   6.507   3.676   4.020 -2.4620  2.0347  0.7802
  124SAPC  H20S13194   6.596   3.679   3.857  0.3733 -0.2902  0.9169
  124SAPC  H20T13195   6.434   3.731   3.863  0.5607 -3.7632 -2.5136
  124SAPC   C3313196   6.370   4.002   2.951 -0.1052  0.7352  0.5122
  124SAPC   H3X13197   6.302   4.089   2.937 -1.9353 -1.0137 -2.5597
  124SAPC   H3Y13198   6.474   4.024   2.983 -0.1753 -0.4099  1.5839
  124SAPC   C3413199   6.304   3.916   3.065 -0.5857 -0.4805 -0.4427
  124SAPC   H4X13200   6.337   3.812   3.041 -1.5542 -0.5925 -1.3490
  124SAPC   H4Y13201   6.194   3.903   3.055 -0.4889 -0.8247 -1.1241
  124SAPC   C3513202   6.336   3.949   3.206 -0.1769  0.2809  1.0655
  124SAPC   H5X13203   6.286   4.044   3.233  1.6037  1.2764  1.0427
  124SAPC   H5Y13204   6.446   3.960   3.223 -0.3367  1.7685  1.2807
  124SAPC   C3613205   6.265   3.856   3.298  0.3773 -0.1654 -0.6880
  124SAPC   H6X13206   6.321   3.760   3.297 -0.3487 -0.8035  3.0909
  124SAPC   H6Y13207   6.156   3.840   3.279  0.0182  0.7093  0.5106
  124SAPC   C3713208   6.273   3.901   3.442 -0.3455  0.1344  0.1334
  124SAPC   H7X13209   6.222   3.997   3.466 -0.9806 -0.5476  1.6259
  124SAPC   H7Y13210   6.378   3.922   3.471 -0.1915 -1.5221  0.8684
  124SAPC   C3813211   6.217   3.790   3.532  0.2415  0.3677  0.3420
  124SAPC   H8X13212   6.257   3.810   3.633 -0.2556  1.6827  0.3012
  124SAPC   H8Y13213   6.256   3.690   3.504 -0.1363  0.5917 -1.0800
  124SAPC   C3913214   6.061   3.804   3.548 -0.3693  0.8845 -0.4841
  124SAPC   H9X13215   6.007   3.780   3.454  0.1547  0.4767 -0.6879
  124SAPC   H9Y13216   6.031   3.909   3.569 -0.2686  0.9302 -0.5677
  124SAPC  C31013217   6.017   3.720   3.672 -0.1182 -0.1731  0.3571
  124SAPC  H10X13218   6.061   3.768   3.763  1.6200  0.1377 -0.6127
  124SAPC  H10Y13219   6.071   3.626   3.648  0.3037 -0.4249  2.1094
  124SAPC  C31113220   5.871   3.697   3.679  0.3235  0.3784 -0.4598
  124SAPC  H11X13221   5.843   3.636   3.591 -1.0463  1.8434 -1.0933
  124SAPC  H11Y13222   5.820   3.796   3.676 -0.2316  0.0777 -1.7804
  124SAPC  C31213223   5.830   3.634   3.808 -0.3613 -0.2865  0.7063
  124SAPC  H12X13224   5.868   3.700   3.890 -0.1919  3.5300 -2.1417
  124SAPC  H12Y13225   5.880   3.537   3.825  1.8409  0.6756  0.1147
  124SAPC  C31313226   5.673   3.626   3.834  0.0376  0.3564 -0.8312
  124SAPC  H13X13227   5.635   3.730   3.832  1.5991  0.9640 -0.1424
  124SAPC  H13Y13228   5.641   3.588   3.934 -0.6759 -0.9137 -1.5176
  124SAPC  C31413229   5.607   3.530   3.732 -0.9655  0.6156 -0.4309
  124SAPC  H14X13230   5.606   3.575   3.630 -0.7134 -0.6188 -0.9979
  124SAPC  H14Y13231   5.501   3.509   3.756 -1.0414  0.4944 -0.8624
  124SAPC  C31513232   5.668   3.383   3.717  0.3611  0.7274 -0.1137
  124SAPC  H15X13233   5.685   3.343   3.820 -2.6256 -3.2261 -0.9249
  124SAPC  H15Y13234   5.761   3.405   3.662  0.1909  0.2705 -0.5940
  124SAPC  C31613235   5.586   3.289   3.636  0.0821  0.7097 -0.5951
  124SAPC  H16X13236   5.553   3.326   3.536  0.9927  2.3245 -0.3316
  124SAPC  H16Y13237   5.495   3.253   3.689  0.8720 -1.2945 -0.5206
  124SAPC  C31713238   5.662   3.158   3.610  0.2093 -0.1714  0.4729
  124SAPC  H17X13239   5.668   3.101   3.705  0.4230 -1.2603 -0.1750
  124SAPC  H17Y13240   5.767   3.170   3.576  0.6873 -2.4255  0.9879
  124SAPC  C31813241   5.583   3.066   3.510  0.1110  0.6844 -0.4772
  124SAPC  H18X13242   5.580   3.109   3.408 -0.6599  2.3799  0.2169
  124SAPC  H18Y13243   5.476   3.062   3.540  0.1205  0.0183 -0.5089
  124SAPC  H18Z13244   5.628   2.964   3.509 -0.0457  0.5567  1.4843
  125SOPE     N13245   3.279   4.571   6.220  0.3415 -0.3997  0.2726
  125SOPE   HN113246   3.212   4.650   6.209 -1.4827 -1.7693  1.1572
  125SOPE   HN213247   3.294   4.534   6.124  0.9811  0.6183 -0.0435
  125SOPE   HN313248   3.227   4.502   6.277 -1.8893  0.2242 -0.9114
  125SOPE   C1213249   3.410   4.612   6.281 -0.3115 -1.1200  0.1796
  125SOPE  H12A13250   3.480   4.526   6.285  0.8981 -0.1875 -0.2847
  125SOPE  H12B13251   3.391   4.648   6.385  0.7132  0.9892 -0.3238
  125SOPE   C1113252   3.467   4.723   6.198 -0.2962 -0.0184  0.2085
  125SOPE  H11A13253   3.460   4.708   6.089 -0.3266  0.3856  0.1543
  125SOPE  H11B13254   3.574   4.741   6.222 -0.7772  0.2230  2.3832
  125SOPE     P13255   3.456   4.987   6.200  0.4277  0.3340  0.3494
  125SOPE   O1313256   3.600   4.989   6.188 -0.1719 -0.9784  0.2237
  125SOPE   O1413257   3.397   5.080   6.291 -0.0358  0.4993 -0.0622
  125SOPE   O1213258   3.394   4.837   6.240  0.0271  0.2574  0.0365
  125SOPE   O1113259   3.391   5.010   6.058  0.3647  0.0312  0.3471
  125SOPE    C113260   3.248   4.999   6.039 -0.0218 -0.4607 -0.9155
  125SOPE    HA13261   3.190   5.093   6.054 -0.1387 -0.5661 -0.7130
  125SOPE    HB13262   3.202   4.922   6.103 -1.4299  0.4916 -0.7373
  125SOPE    C213263   3.200   4.952   5.897  0.0409 -0.4884 -0.2960
  125SOPE    HS13264   3.243   4.853   5.872 -3.1571 -1.5653 -2.2711
  125SOPE   O2113265   3.223   5.056   5.802 -0.0398  0.5211  0.0792
  125SOPE   C2113266   3.331   5.044   5.739 -0.1287 -0.3111  0.0998
  125SOPE   O2213267   3.418   4.955   5.750  0.2544 -0.1246  0.3656
  125SOPE   C2213268   3.357   5.168   5.658  0.2244 -0.7902  0.7331
  125SOPE   H2R13269   3.464   5.193   5.673  0.1890 -0.0788 -0.0905
  125SOPE   H2S13270   3.294   5.245   5.707  0.4815 -0.5974  0.7566
  125SOPE    C313271   3.041   4.918   5.898 -0.2954 -0.4593  0.4496
  125SOPE    HX13272   2.981   4.985   5.963 -2.3384 -2.3328  0.5857
  125SOPE    HY13273   3.042   4.815   5.940  2.9846 -0.6430  0.2349
  125SOPE   O3113274   2.987   4.933   5.768  0.2813 -0.7428 -0.0684
  125SOPE   C3113275   3.003   4.830   5.683  0.2369  0.0638 -0.2278
  125SOPE   O3213276   3.055   4.725   5.703 -0.3512 -0.3955  0.3196
  125SOPE   C3213277   2.935   4.875   5.555  0.3339  0.0573  0.4720
  125SOPE   H2X13278   3.014   4.888   5.478 -2.2919 -1.3827 -2.7212
  125SOPE   H2Y13279   2.885   4.973   5.562 -4.7256 -2.0702 -1.2251
  125SOPE   C2313280   3.325   5.154   5.503 -0.2485 -0.1212  0.3663
  125SOPE   H3R13281   3.386   5.068   5.469 -0.3860 -0.7428  1.6241
  125SOPE   H3S13282   3.361   5.243   5.447 -0.2512  1.2475  2.4265
  125SOPE   C2413283   3.181   5.129   5.470 -0.1948  0.0659 -0.5304
  125SOPE   H4R13284   3.132   5.064   5.545  0.9832  2.0026  2.0854
  125SOPE   H4S13285   3.130   5.228   5.479 -2.1832 -0.9111 -0.6038
  125SOPE   C2513286   3.157   5.065   5.333 -0.1717  0.0850  0.5864
  125SOPE   H5R13287   3.179   4.956   5.332  2.2118  0.5102 -0.8132
  125SOPE   H5S13288   3.050   5.077   5.306 -0.1441 -1.2150 -0.2264
  125SOPE   C2613289   3.228   5.131   5.208  0.2327 -0.6224 -0.3965
  125SOPE   H6R13290   3.212   5.241   5.207  0.2505 -0.5658  1.5024
  125SOPE   H6S13291   3.334   5.113   5.234  0.6825  4.1686  2.3834
  125SOPE   C2713292   3.184   5.072   5.074  0.0316 -0.3422 -0.7390
  125SOPE   H7R13293   3.181   4.962   5.093  1.0277 -0.1765  0.5345
  125SOPE   H7S13294   3.077   5.098   5.059  0.2603  1.0897 -0.0319
  125SOPE   C2813295   3.271   5.106   4.957 -0.1000  0.6109  0.1312
  125SOPE   H8R13296   3.271   5.213   4.929 -4.8646  0.3311 -1.8477
  125SOPE   H8S13297   3.372   5.061   4.966 -0.3394 -0.0880 -0.6021
  125SOPE   C2913298   3.205   5.026   4.846 -0.0928  0.3059 -0.3493
  125SOPE   H9113299   3.209   4.918   4.865 -0.2617  0.6538  1.9733
  125SOPE  C21013300   3.131   5.073   4.740 -0.4144 -0.0655 -0.0017
  125SOPE  H10113301   3.109   4.991   4.670  1.0281  0.2186 -0.8326
  125SOPE  C21113302   3.096   5.216   4.699 -0.0322 -0.4484 -0.0627
  125SOPE  H11R13303   3.154   5.291   4.756  1.9395 -2.1036  0.2280
  125SOPE  H11S13304   2.989   5.234   4.721  0.1439 -0.7908  1.1161
  125SOPE  C21213305   3.101   5.237   4.540  0.1695 -0.0984  0.0097
  125SOPE  H12R13306   3.209   5.232   4.514  0.0601 -0.3096 -0.3943
  125SOPE  H12S13307   3.072   5.342   4.515 -2.0000 -0.5702  0.3498
  125SOPE  C21313308   3.026   5.130   4.474  0.8371 -0.1586  0.5983
  125SOPE  H13R13309   2.923   5.123   4.515  0.5121 -1.0248 -0.3139
  125SOPE  H13S13310   3.060   5.025   4.485  0.8586 -0.4489 -1.7152
  125SOPE  C21413311   3.022   5.143   4.322  0.1218 -0.0656 -0.2930
  125SOPE  H14R13312   2.987   5.248   4.314  1.4003  0.4789  0.9256
  125SOPE  H14S13313   2.944   5.075   4.282  0.0123 -0.7048  0.9710
  125SOPE  C21513314   3.155   5.127   4.254  0.0137  0.3492  0.3205
  125SOPE  H15R13315   3.164   5.017   4.249 -0.3063  0.3605 -0.8143
  125SOPE  H15S13316   3.239   5.162   4.318  0.9149 -2.0233  0.5046
  125SOPE  C21613317   3.164   5.198   4.123  0.4949  0.1822  0.8288
  125SOPE  H16R13318   3.268   5.206   4.087  0.0741 -0.6195 -0.6544
  125SOPE  H16S13319   3.140   5.306   4.133 -2.0785 -0.0731 -1.3308
  125SOPE  C21713320   3.070   5.132   4.011 -0.0880  0.5160 -0.2306
  125SOPE  H17R13321   2.967   5.134   4.053 -0.7817 -0.2017 -1.8195
  125SOPE  H17S13322   3.110   5.032   3.981  2.7218  1.1872  0.9533
  125SOPE  C21813323   3.054   5.222   3.886 -0.3255  0.5436  0.1022
  125SOPE  H18R13324   3.133   5.203   3.811 -0.6064  0.9301 -0.2897
  125SOPE  H18S13325   3.040   5.328   3.916 -1.2358  0.3622  0.3515
  125SOPE  H18T13326   2.954   5.200   3.842  0.7290 -4.7408 -0.3204
  125SOPE   C3313327   2.839   4.764   5.505  0.5246  0.1856 -0.5135
  125SOPE   H3X13328   2.757   4.755   5.580  0.5201 -3.5919 -0.7650
  125SOPE   H3Y13329   2.898   4.670   5.504  0.1406 -0.1009  1.0928
  125SOPE   C3413330   2.789   4.792   5.362  0.1698  0.0795  0.0033
  125SOPE   H4X13331   2.793   4.902   5.351 -0.8483 -0.0138 -1.6712
  125SOPE   H4Y13332   2.682   4.768   5.350  0.2681  0.2519 -1.4404
  125SOPE   C3513333   2.873   4.731   5.252  0.3899 -0.6886  0.3209
  125SOPE   H5X13334   2.847   4.625   5.237 -4.4337  0.5857 -2.3636
  125SOPE   H5Y13335   2.979   4.736   5.285  0.2374 -1.6240  1.0038
  125SOPE   C3613336   2.848   4.808   5.118  0.1402  0.1997 -0.1832
  125SOPE   H6X13337   2.839   4.915   5.147  0.0638  0.3156 -0.6344
  125SOPE   H6Y13338   2.751   4.769   5.080  0.0024 -2.0294  2.1627
  125SOPE   C3713339   2.944   4.780   5.002 -0.4120  0.2442  0.6114
  125SOPE   H7X13340   3.046   4.780   5.045 -0.3170  0.4226  0.3878
  125SOPE   H7Y13341   2.944   4.856   4.921 -0.9145  0.6601  1.0002
  125SOPE   C3813342   2.907   4.658   4.921 -0.4119 -0.0886  0.2748
  125SOPE   H8X13343   2.809   4.689   4.877 -0.3732  0.4454  0.5650
  125SOPE   H8Y13344   2.896   4.570   4.988  0.1330 -0.8004 -0.5472
  125SOPE   C3913345   3.015   4.624   4.815 -0.2923  0.2742  1.3153
  125SOPE   H9X13346   3.110   4.594   4.864 -0.9330  0.8640  2.9972
  125SOPE   H9Y13347   3.024   4.714   4.749  1.6859 -0.7074  0.1539
  125SOPE  C31013348   2.961   4.520   4.729 -0.0023 -0.1322  0.8202
  125SOPE  H10X13349   2.860   4.551   4.695  1.3367  0.6169 -2.9783
  125SOPE  H10Y13350   2.950   4.418   4.772  1.9199 -0.9480 -0.4588
  125SOPE  C31113351   3.037   4.497   4.600  0.1204 -0.3562 -0.8086
  125SOPE  H11X13352   2.999   4.404   4.551 -1.0726 -1.0479  1.3132
  125SOPE  H11Y13353   3.146   4.487   4.621  0.1434  3.1642  1.4662
  125SOPE  C31213354   3.037   4.606   4.495 -0.0972 -0.0941  0.0000
  125SOPE  H12X13355   3.102   4.689   4.530  1.7935 -1.7242  0.5422
  125SOPE  H12Y13356   2.938   4.647   4.468  0.1038 -1.0744 -2.5961
  125SOPE  C31313357   3.092   4.569   4.356 -0.4485 -0.2176 -0.1686
  125SOPE  H13X13358   3.027   4.494   4.306  1.3902 -0.9043 -1.6474
  125SOPE  H13Y13359   3.191   4.522   4.376  1.9036  2.4481 -4.1536
  125SOPE  C31413360   3.116   4.682   4.257  0.0515 -0.4353 -0.3216
  125SOPE  H14X13361   3.169   4.766   4.306 -0.5886 -1.0664  1.5309
  125SOPE  H14Y13362   3.021   4.737   4.244 -0.0682 -0.0275  1.9191
  125SOPE  C31513363   3.176   4.632   4.132 -0.3233  0.1201 -0.1790
  125SOPE  H15X13364   3.100   4.570   4.079 -2.0961  0.8571  1.4004
  125SOPE  H15Y13365   3.267   4.577   4.162 -0.8739 -0.6702  0.0727
  125SOPE  C31613366   3.210   4.748   4.039 -0.2486 -1.0889  0.3756
  125SOPE  H16X13367   3.277   4.817   4.095 -3.6343  1.2461  1.8556
  125SOPE  H16Y13368   3.112   4.799   4.034  0.7249  1.0626  1.8418
  125SOPE  C31713369   3.271   4.725   3.902  0.5739  0.5558 -0.1210
  125SOPE  H17X13370   3.302   4.813   3.842  0.4627  0.7503  0.1035
  125SOPE  H17Y13371   3.203   4.669   3.835  2.3137 -0.0281 -1.4739
  125SOPE  C31813372   3.403   4.648   3.912  0.1923  0.5278  0.2420
  125SOPE  H18X13373   3.486   4.708   3.956 -0.0395  0.5570  0.6469
  125SOPE  H18Y13374   3.436   4.615   3.811  1.6196 -0.4775  0.9867
  125SOPE  H18Z13375   3.385   4.561   3.979  0.2027 -0.2198 -0.7004
  126SOPE     N13376   1.773   1.542   6.147  0.1844 -0.1979  0.1663
  126SOPE   HN113377   1.717   1.527   6.233  1.5120  0.2769  1.1483
  126SOPE   HN213378   1.807   1.452   6.107  1.7933  0.7018 -0.5765
  126SOPE   HN313379   1.848   1.609   6.172 -1.0215  1.1413  0.3664
  126SOPE   C1213380   1.687   1.609   6.038 -0.4729  0.1734  0.3727
  126SOPE  H12A13381   1.593   1.650   6.083  0.2695  0.9819  1.2273
  126SOPE  H12B13382   1.673   1.532   5.959  1.8402  1.2508 -1.1843
  126SOPE   C1113383   1.754   1.739   5.985 -0.7126  0.2275  0.6379
  126SOPE  H11A13384   1.674   1.783   5.923 -0.9299 -2.7169 -1.3833
  126SOPE  H11B13385   1.840   1.711   5.921 -3.0154  0.6052 -2.8687
  126SOPE     P13386   1.791   1.961   6.124 -0.0423  0.0963 -0.0334
  126SOPE   O1313387   1.920   1.992   6.190 -0.0628  0.1579  0.5146
  126SOPE   O1413388   1.668   1.986   6.199 -0.2958 -0.0226  1.1603
  126SOPE   O1213389   1.802   1.815   6.089  0.2265  0.4488  0.3325
  126SOPE   O1113390   1.795   2.031   5.979  0.4153  0.4838  0.3818
  126SOPE    C113391   1.761   2.169   5.966  0.0073  0.3336  0.1112
  126SOPE    HA13392   1.817   2.219   5.885 -0.6359  2.0796  0.7038
  126SOPE    HB13393   1.785   2.221   6.061 -1.1027  0.2817  0.4405
  126SOPE    C213394   1.608   2.203   5.949 -0.1717  0.3324  0.6707
  126SOPE    HS13395   1.551   2.129   6.010 -0.7079 -0.8141 -1.1246
  126SOPE   O2113396   1.566   2.198   5.816 -0.2339  0.1703  0.1105
  126SOPE   C2113397   1.448   2.147   5.790  0.5580  0.2971 -0.2360
  126SOPE   O2213398   1.377   2.092   5.873  0.3124 -0.1939 -0.6308
  126SOPE   C2213399   1.412   2.149   5.645  0.2944 -1.0692  0.0079
  126SOPE   H2R13400   1.333   2.073   5.627 -0.5468 -0.1761 -0.2024
  126SOPE   H2S13401   1.494   2.124   5.575  2.3891  0.6081  1.7373
  126SOPE    C313402   1.578   2.349   5.998 -0.0993  0.7669 -0.0513
  126SOPE    HX13403   1.589   2.347   6.109  0.2230  0.9673 -0.0760
  126SOPE    HY13404   1.470   2.361   5.975  0.3793  2.4503 -1.6453
  126SOPE   O3113405   1.663   2.448   5.940 -0.3971 -0.3095 -0.1584
  126SOPE   C3113406   1.611   2.535   5.859 -0.0153 -0.0951 -0.0767
  126SOPE   O3213407   1.494   2.525   5.820  0.3359 -0.3082  0.1190
  126SOPE   C3213408   1.709   2.649   5.826  0.1550  0.9342  0.3540
  126SOPE   H2X13409   1.723   2.705   5.921  1.7883  0.3310  0.4934
  126SOPE   H2Y13410   1.660   2.718   5.754  0.9932  2.8794  1.5679
  126SOPE   C2313411   1.349   2.287   5.605  0.5981  0.1589  0.6006
  126SOPE   H3R13412   1.431   2.357   5.576  0.6488  0.7195  2.0302
  126SOPE   H3S13413   1.283   2.334   5.680  1.0900  1.8293  0.0378
  126SOPE   C2413414   1.254   2.276   5.486 -0.0142 -0.6141  0.3658
  126SOPE   H4R13415   1.178   2.195   5.494  0.6269 -1.3875 -0.9440
  126SOPE   H4S13416   1.198   2.371   5.481  0.8085 -0.0929  0.8717
  126SOPE   C2513417   1.337   2.258   5.356 -0.5202 -0.6796  0.6521
  126SOPE   H5R13418   1.418   2.334   5.367 -0.2550 -0.8030 -0.3470
  126SOPE   H5S13419   1.375   2.154   5.349 -2.3749 -1.2767 -2.0903
  126SOPE   C2613420   1.261   2.285   5.226  0.5093 -0.2534 -0.2126
  126SOPE   H6R13421   1.184   2.205   5.226 -0.9887  1.1547  0.4781
  126SOPE   H6S13422   1.192   2.372   5.220 -1.2220 -1.4583  1.3296
  126SOPE   C2713423   1.333   2.286   5.087  0.3379  0.2776 -0.4854
  126SOPE   H7R13424   1.416   2.356   5.062  0.7431  0.1757  0.4906
  126SOPE   H7S13425   1.387   2.189   5.077  1.6716  0.9058  0.2215
  126SOPE   C2813426   1.234   2.307   4.971 -0.0056 -0.1632 -0.1612
  126SOPE   H8R13427   1.170   2.396   4.991  0.2342 -0.2706  1.1765
  126SOPE   H8S13428   1.295   2.336   4.883  1.4529 -2.5138 -0.0090
  126SOPE   C2913429   1.135   2.195   4.952 -0.5413  0.1875 -0.0523
  126SOPE   H9113430   1.105   2.145   5.045 -1.8062 -0.1460 -0.6253
  126SOPE  C21013431   1.129   2.120   4.835  0.4454 -0.7520  0.6070
  126SOPE  H10113432   1.057   2.039   4.814 -0.9087  0.3927  0.6532
  126SOPE  C21113433   1.203   2.150   4.707  0.8826 -0.0571 -0.0126
  126SOPE  H11R13434   1.268   2.065   4.677 -0.9939 -1.2836 -0.7812
  126SOPE  H11S13435   1.263   2.244   4.709 -2.1251  1.9859  0.9009
  126SOPE  C21213436   1.101   2.169   4.587 -0.2633  0.0529 -0.1131
  126SOPE  H12R13437   1.046   2.264   4.606 -0.3358  0.0148 -0.1343
  126SOPE  H12S13438   1.047   2.073   4.578  2.1995 -1.4094 -0.3946
  126SOPE  C21313439   1.181   2.195   4.455 -0.5650 -0.0526 -0.4981
  126SOPE  H13R13440   1.256   2.113   4.450 -0.5864 -0.0812 -0.3598
  126SOPE  H13S13441   1.249   2.283   4.451 -0.8299  0.1646 -0.2678
  126SOPE  C21413442   1.092   2.195   4.330 -0.6032  0.2546  1.2391
  126SOPE  H14R13443   1.025   2.284   4.330  1.0735  1.6030  0.4384
  126SOPE  H14S13444   1.020   2.111   4.330  0.3679 -0.6058  2.0245
  126SOPE  C21513445   1.180   2.197   4.207  0.2097  0.1208  0.0498
  126SOPE  H15R13446   1.255   2.116   4.217  0.6088  0.4902  0.0739
  126SOPE  H15S13447   1.224   2.297   4.188 -1.0114  0.1130 -3.6239
  126SOPE  C21613448   1.099   2.165   4.077 -0.2812 -0.4384  0.8725
  126SOPE  H16R13449   1.040   2.258   4.064 -0.0625 -0.3057  0.8308
  126SOPE  H16S13450   1.027   2.084   4.100 -1.0056 -0.8844 -2.4944
  126SOPE  C21713451   1.191   2.149   3.955  0.0754 -0.7449 -0.2275
  126SOPE  H17R13452   1.126   2.104   3.877 -1.1996 -0.6716  0.7520
  126SOPE  H17S13453   1.266   2.072   3.982 -0.3451 -1.7884 -1.8932
  126SOPE  C21813454   1.254   2.272   3.893 -0.0666  0.4795  0.5973
  126SOPE  H18R13455   1.328   2.331   3.952  2.2528 -0.9182 -0.7612
  126SOPE  H18S13456   1.178   2.346   3.859  0.8190  1.6970  1.1721
  126SOPE  H18T13457   1.312   2.246   3.802  1.3890  0.4720  1.4891
  126SOPE   C3313458   1.844   2.587   5.762  0.5085 -0.7998  0.3793
  126SOPE   H3X13459   1.879   2.509   5.832  3.1403 -1.3761 -1.4465
  126SOPE   H3Y13460   1.924   2.661   5.740 -0.2820 -0.5079 -1.7036
  126SOPE   C3413461   1.803   2.517   5.634 -0.2881 -0.0182  0.3897
  126SOPE   H4X13462   1.774   2.595   5.560  1.5574  0.9770  0.6394
  126SOPE   H4Y13463   1.712   2.458   5.655  0.4221 -0.0535  4.1430
  126SOPE   C3513464   1.912   2.422   5.585  0.0010 -0.9709 -0.6353
  126SOPE   H5X13465   1.892   2.327   5.637 -1.4202  0.1876  1.0482
  126SOPE   H5Y13466   2.010   2.452   5.629 -0.7194 -0.8119  0.9061
  126SOPE   C3613467   1.939   2.399   5.434 -0.0196  0.5960 -0.4634
  126SOPE   H6X13468   2.022   2.329   5.411 -0.2286 -0.8526  2.6694
  126SOPE   H6Y13469   1.968   2.499   5.394 -1.2550  1.1656 -0.0101
  126SOPE   C3713470   1.808   2.358   5.360 -0.1416  0.3534  0.3128
  126SOPE   H7X13471   1.748   2.452   5.363  1.3647  1.3714 -0.4191
  126SOPE   H7Y13472   1.771   2.271   5.418 -1.9571  0.4824 -0.5548
  126SOPE   C3813473   1.823   2.317   5.209 -0.3448  0.0510 -0.0456
  126SOPE   H8X13474   1.899   2.236   5.204  1.5481  1.7376  0.3397
  126SOPE   H8Y13475   1.867   2.403   5.155  1.2167  0.0098  1.0860
  126SOPE   C3913476   1.685   2.287   5.149 -0.3342 -0.5364 -0.4168
  126SOPE   H9X13477   1.648   2.383   5.106  0.1468  1.4813  3.2335
  126SOPE   H9Y13478   1.610   2.241   5.217  0.2436 -0.1207  0.5298
  126SOPE  C31013479   1.700   2.210   5.020 -0.2186 -0.9109 -0.3763
  126SOPE  H10X13480   1.606   2.201   4.962  0.2373  0.1602 -1.3202
  126SOPE  H10Y13481   1.729   2.103   5.028 -0.1222 -1.1518 -3.1957
  126SOPE  C31113482   1.813   2.276   4.935 -0.2750  0.4989  0.7965
  126SOPE  H11X13483   1.904   2.224   4.972 -0.2521 -0.1741 -0.1705
  126SOPE  H11Y13484   1.824   2.385   4.951  0.9284  0.2814  1.6227
  126SOPE  C31213485   1.781   2.251   4.792  0.0063  0.5928  0.0230
  126SOPE  H12X13486   1.690   2.308   4.766  0.1869 -0.3897 -3.0957
  126SOPE  H12Y13487   1.747   2.148   4.766 -1.2314  0.7123  1.0668
  126SOPE  C31313488   1.896   2.289   4.698 -0.3985  0.1085 -0.1055
  126SOPE  H13X13489   1.976   2.212   4.706 -0.4275  0.0370 -0.4885
  126SOPE  H13Y13490   1.954   2.380   4.726  3.3052 -1.6113 -1.5177
  126SOPE  C31413491   1.858   2.283   4.551  0.1695  0.2689 -0.3242
  126SOPE  H14X13492   1.800   2.377   4.535  0.3142  0.0384 -2.5327
  126SOPE  H14Y13493   1.778   2.207   4.533  0.5323  0.2422 -1.9520
  126SOPE  C31513494   1.977   2.260   4.464 -0.4705 -0.6158 -0.2951
  126SOPE  H15X13495   2.017   2.157   4.469 -1.5684 -1.0387  0.0775
  126SOPE  H15Y13496   2.059   2.327   4.498 -1.1967 -0.9407  2.2661
  126SOPE  C31613497   1.962   2.275   4.317 -0.8132  0.2785 -0.4470
  126SOPE  H16X13498   1.964   2.382   4.288 -2.0323  0.4072 -0.1341
  126SOPE  H16Y13499   1.872   2.223   4.275 -0.8469 -0.6802  0.7548
  126SOPE  C31713500   2.085   2.211   4.245  0.2747  0.7948  0.4330
  126SOPE  H17X13501   2.079   2.101   4.262 -1.9239  0.9212  0.8668
  126SOPE  H17Y13502   2.176   2.256   4.291  0.3775  1.9719 -0.8679
  126SOPE  C31813503   2.076   2.238   4.096  0.2648  1.1651 -0.1271
  126SOPE  H18X13504   2.168   2.211   4.040  1.7509  1.4662  2.0622
  126SOPE  H18Y13505   2.057   2.346   4.076  0.4906  0.8569 -2.3394
  126SOPE  H18Z13506   1.995   2.175   4.053  1.0476 -1.3452  1.8415
  127SOPE     N13507   3.422   5.196   6.544  0.0668 -0.2202 -0.1327
  127SOPE   HN113508   3.369   5.283   6.568  0.8519  0.4862 -0.9262
  127SOPE   HN213509   3.401   5.163   6.447 -1.8308  1.9202 -0.5566
  127SOPE   HN313510   3.391   5.120   6.607 -2.1908  1.2171  0.6533
  127SOPE   C1213511   3.571   5.222   6.561  0.3087  0.1910  0.0479
  127SOPE  H12A13512   3.618   5.128   6.525  0.9743  0.9939 -1.2582
  127SOPE  H12B13513   3.606   5.245   6.664  4.0154  2.8866 -1.5867
  127SOPE   C1113514   3.623   5.333   6.473 -0.0418 -0.2526 -0.1648
  127SOPE  H11A13515   3.611   5.315   6.364 -0.0594 -1.1952 -0.0171
  127SOPE  H11B13516   3.731   5.333   6.497 -0.0319  0.0859 -0.2024
  127SOPE     P13517   3.642   5.571   6.580  0.1777 -0.0118  0.1913
  127SOPE   O1313518   3.701   5.521   6.705  0.8041 -0.3153 -0.0247
  127SOPE   O1413519   3.553   5.695   6.586 -0.4825  0.4943  0.3266
  127SOPE   O1213520   3.555   5.454   6.516 -0.3068 -0.5699 -0.1720
  127SOPE   O1113521   3.758   5.599   6.482  0.3693  0.7863  0.5293
  127SOPE    C113522   3.736   5.611   6.339 -0.1976 -0.3673 -0.5070
  127SOPE    HA13523   3.649   5.554   6.300 -0.1148  0.2679 -1.6408
  127SOPE    HB13524   3.828   5.573   6.291 -0.1567 -0.7676 -0.1182
  127SOPE    C213525   3.728   5.761   6.296  0.7185 -0.0222 -0.0803
  127SOPE    HS13526   3.662   5.820   6.362 -0.3138 -1.0809 -0.1206
  127SOPE   O2113527   3.679   5.764   6.162  0.2370 -0.2066  0.1627
  127SOPE   C2113528   3.545   5.764   6.142  0.2930 -0.2011  0.1839
  127SOPE   O2213529   3.463   5.769   6.230 -0.3648  0.4448 -0.1773
  127SOPE   C2213530   3.512   5.770   5.994  1.1562  1.1247  0.0009
  127SOPE   H2R13531   3.579   5.704   5.935  1.4763 -0.4816  2.0714
  127SOPE   H2S13532   3.518   5.872   5.950 -0.9135  0.9228 -0.8362
  127SOPE    C313533   3.865   5.841   6.313  0.3010 -0.5738  0.1102
  127SOPE    HX13534   3.877   5.843   6.423  0.1789 -0.6700  0.1251
  127SOPE    HY13535   3.848   5.941   6.268  0.6744 -0.2563  0.6532
  127SOPE   O3113536   3.979   5.773   6.253 -0.6384  0.2607  0.4542
  127SOPE   C3113537   4.103   5.806   6.268  0.2543 -0.2452 -0.4552
  127SOPE   O3213538   4.138   5.910   6.322 -0.6891  0.1306 -0.0510
  127SOPE   C3213539   4.199   5.703   6.217  0.3315 -0.3272  0.0753
  127SOPE   H2X13540   4.137   5.626   6.166  0.6716 -1.5360  1.4424
  127SOPE   H2Y13541   4.243   5.647   6.302  1.5718 -1.5115 -1.2672
  127SOPE   C2313542   3.371   5.716   5.973  0.0579 -0.0868 -0.0825
  127SOPE   H3R13543   3.294   5.778   6.025 -0.2426 -0.8897  0.4606
  127SOPE   H3S13544   3.380   5.612   6.012 -1.1829 -0.7684 -1.4874
  127SOPE   C2413545   3.330   5.697   5.824  0.1469  0.8573 -0.6306
  127SOPE   H4R13546   3.219   5.699   5.813  0.0241  0.4133  0.4609
  127SOPE   H4S13547   3.360   5.788   5.767  0.7239  1.1183  0.0785
  127SOPE   C2513548   3.384   5.566   5.757  0.2916 -0.5173  0.2415
  127SOPE   H5R13549   3.495   5.565   5.759  0.3183  0.4828 -0.3218
  127SOPE   H5S13550   3.358   5.484   5.828 -1.9118  0.2806  0.4357
  127SOPE   C2613551   3.330   5.543   5.616 -0.2804  0.9294 -0.7227
  127SOPE   H6R13552   3.364   5.439   5.597 -3.0565 -0.3084  0.5542
  127SOPE   H6S13553   3.220   5.538   5.622 -0.3700  1.8639 -1.4159
  127SOPE   C2713554   3.387   5.635   5.506  0.3344  0.3763  0.3806
  127SOPE   H7R13555   3.370   5.740   5.538 -0.8821  0.2723  0.0928
  127SOPE   H7S13556   3.498   5.627   5.509  0.3564  0.1704 -0.7186
  127SOPE   C2813557   3.325   5.606   5.362  0.1201 -0.6082  0.2244
  127SOPE   H8R13558   3.385   5.656   5.283  1.8083 -2.3649  0.3404
  127SOPE   H8S13559   3.334   5.496   5.349 -1.6410 -0.8208  0.4831
  127SOPE   C2913560   3.185   5.663   5.352 -0.6501 -0.3005  0.4321
  127SOPE   H9113561   3.125   5.650   5.443 -1.8037  1.7333  0.0320
  127SOPE  C21013562   3.133   5.732   5.244  0.6725  0.7214 -0.9284
  127SOPE  H10113563   3.024   5.741   5.252  0.7296 -0.4329  3.0804
  127SOPE  C21113564   3.188   5.764   5.109 -1.0822  0.4669 -0.0285
  127SOPE  H11R13565   3.271   5.692   5.094 -1.9224 -0.4585 -0.3516
  127SOPE  H11S13566   3.233   5.866   5.113  0.2768 -0.1305  2.9551
  127SOPE  C21213567   3.082   5.748   5.000  0.1046 -0.0013  0.0205
  127SOPE  H12R13568   3.000   5.824   5.001 -0.8827 -1.0266 -0.7041
  127SOPE  H12S13569   3.037   5.647   5.006 -0.7361  0.2678 -1.4094
  127SOPE  C21313570   3.152   5.763   4.862  0.1638 -0.0329  0.2154
  127SOPE  H13R13571   3.236   5.834   4.877 -0.1202  0.5800 -0.9889
  127SOPE  H13S13572   3.085   5.802   4.782 -1.7039 -0.1357  1.6696
  127SOPE  C21413573   3.229   5.634   4.819 -0.2396  0.1986 -0.4784
  127SOPE  H14R13574   3.162   5.546   4.820  1.1183 -0.8611 -0.5452
  127SOPE  H14S13575   3.322   5.625   4.879  1.5666  0.2478 -3.0793
  127SOPE  C21513576   3.295   5.650   4.680 -0.0879  0.7564 -0.4456
  127SOPE  H15R13577   3.371   5.569   4.676  0.2725  0.9417  1.5593
  127SOPE  H15S13578   3.349   5.747   4.674 -0.3965  1.0232  0.7064
  127SOPE  C21613579   3.190   5.635   4.573 -0.2630 -0.0002 -0.2361
  127SOPE  H16R13580   3.099   5.698   4.582 -0.9906 -0.9114 -1.0331
  127SOPE  H16S13581   3.156   5.532   4.597  0.8088 -0.3105  0.0085
  127SOPE  C21713582   3.245   5.636   4.431 -0.1304  0.5884  0.8134
  127SOPE  H17R13583   3.164   5.588   4.374 -1.2212 -0.8433  3.4103
  127SOPE  H17S13584   3.332   5.569   4.415 -0.7041  0.0209 -0.0101
  127SOPE  C21813585   3.274   5.768   4.363  0.2192  0.5649 -0.5682
  127SOPE  H18R13586   3.181   5.828   4.373  0.1022  0.4171 -0.7532
  127SOPE  H18S13587   3.296   5.745   4.256  1.6879 -1.0576  0.0383
  127SOPE  H18T13588   3.359   5.819   4.413  0.3558  0.3305 -0.5604
  127SOPE   C3313589   4.312   5.753   6.129 -0.2409 -0.2903  0.2813
  127SOPE   H3X13590   4.397   5.681   6.129  0.6127  0.6443 -1.8484
  127SOPE   H3Y13591   4.354   5.846   6.173  1.0696 -1.8017  2.3901
  127SOPE   C3413592   4.272   5.788   5.983 -0.3983 -0.6609 -0.5562
  127SOPE   H4X13593   4.362   5.843   5.946 -1.2834  0.4235 -1.1723
  127SOPE   H4Y13594   4.192   5.862   6.003  0.8026  1.2703 -2.3775
  127SOPE   C3513595   4.235   5.678   5.893 -1.0410 -0.3258 -0.2064
  127SOPE   H5X13596   4.164   5.603   5.935  1.0069 -1.6361  1.1212
  127SOPE   H5Y13597   4.328   5.619   5.873 -1.5675 -1.5645  0.8636
  127SOPE   C3613598   4.196   5.735   5.759 -0.4535 -0.0440  0.7904
  127SOPE   H6X13599   4.282   5.799   5.729  0.2270 -0.8785  0.9289
  127SOPE   H6Y13600   4.106   5.796   5.778 -0.1274  1.3541 -1.7100
  127SOPE   C3713601   4.171   5.634   5.645  0.4185 -0.0541  0.5331
  127SOPE   H7X13602   4.109   5.552   5.684 -0.1438  0.3339  0.4692
  127SOPE   H7Y13603   4.265   5.588   5.607 -0.2743  0.6806 -2.3286
  127SOPE   C3813604   4.104   5.703   5.523 -0.2482 -0.8342  0.2242
  127SOPE   H8X13605   4.167   5.787   5.485 -1.6652 -0.0473 -0.4517
  127SOPE   H8Y13606   4.013   5.745   5.571 -0.5655 -1.5853  0.2862
  127SOPE   C3913607   4.065   5.603   5.407 -0.0946  1.0508 -0.0070
  127SOPE   H9X13608   3.963   5.627   5.369 -1.0221 -3.3375 -0.7956
  127SOPE   H9Y13609   4.076   5.497   5.438  0.2633  1.2387  0.5190
  127SOPE  C31013610   4.162   5.593   5.292  0.4755  0.0682  0.3103
  127SOPE  H10X13611   4.115   5.520   5.223  1.0728  1.2057 -1.3715
  127SOPE  H10Y13612   4.267   5.569   5.319  0.2809  1.5635  2.6839
  127SOPE  C31113613   4.177   5.728   5.207  0.3164  0.5309 -0.2568
  127SOPE  H11X13614   4.251   5.798   5.251  0.7692 -0.0351 -0.1188
  127SOPE  H11Y13615   4.078   5.777   5.220  0.0921  1.7939 -4.7509
  127SOPE  C31213616   4.180   5.712   5.058 -0.4657  0.4465  0.2593
  127SOPE  H12X13617   4.132   5.799   5.009 -0.8008 -0.0012 -0.2273
  127SOPE  H12Y13618   4.142   5.610   5.035 -0.8857 -0.0883  2.9519
  127SOPE  C31313619   4.328   5.715   5.017 -0.1427  0.1753 -0.3049
  127SOPE  H13X13620   4.383   5.632   5.067 -0.5312 -0.8256 -1.4869
  127SOPE  H13Y13621   4.378   5.803   5.064  0.3498 -0.6606  0.7545
  127SOPE  C31413622   4.349   5.726   4.862  0.0954  0.0123 -0.1877
  127SOPE  H14X13623   4.311   5.630   4.821  1.4776  0.0018 -1.5255
  127SOPE  H14Y13624   4.454   5.716   4.826  0.5541  1.2744  0.7300
  127SOPE  C31513625   4.295   5.852   4.794  0.1593  0.7362  1.5590
  127SOPE  H15X13626   4.337   5.941   4.846  4.2637  0.3675 -0.7535
  127SOPE  H15Y13627   4.184   5.845   4.806  0.1837 -0.0517  1.3456
  127SOPE  C31613628   4.327   5.858   4.638 -0.1173 -0.5473 -0.0462
  127SOPE  H16X13629   4.232   5.895   4.595 -0.7662  0.3027  2.0139
  127SOPE  H16Y13630   4.341   5.756   4.595 -0.6633 -0.1896 -1.0812
  127SOPE  C31713631   4.429   5.951   4.597 -0.5001  0.0101  0.4072
  127SOPE  H17X13632   4.521   5.916   4.649 -0.5388  0.0719  0.5201
  127SOPE  H17Y13633   4.404   6.044   4.653 -1.3228 -0.0193  0.0967
  127SOPE  C31813634   4.456   5.987   4.448  0.0218 -0.0016 -0.1271
  127SOPE  H18X13635   4.479   5.894   4.391  0.4918 -0.2914  0.5137
  127SOPE  H18Y13636   4.542   6.058   4.445 -0.0052  0.0882  0.9006
  127SOPE  H18Z13637   4.376   6.043   4.396  1.2300  2.3666  0.3971
  128SOPE     N13638   1.070   2.598   6.610 -0.2732 -0.5035  0.6616
  128SOPE   HN113639   1.104   2.510   6.654  1.0065  0.4487  1.6366
  128SOPE   HN213640   1.052   2.671   6.681  0.2226  0.6557 -0.3598
  128SOPE   HN313641   0.978   2.585   6.562 -1.0463  0.4547  1.8222
  128SOPE   C1213642   1.177   2.653   6.523 -0.6086 -0.2383  0.0318
  128SOPE  H12A13643   1.218   2.566   6.468  0.7791  0.5140 -0.1802
  128SOPE  H12B13644   1.260   2.698   6.582 -0.6724 -0.5427  0.3493
  128SOPE   C1113645   1.123   2.751   6.410 -0.3743  0.3259 -0.7529
  128SOPE  H11A13646   1.056   2.690   6.346 -0.2759 -2.4580  1.6022
  128SOPE  H11B13647   1.211   2.775   6.346  0.0519 -1.3125 -0.8342
  128SOPE     P13648   0.996   2.962   6.369 -0.3437 -0.3490  0.4775
  128SOPE   O1313649   1.071   3.091   6.367 -0.0532  0.7307 -0.4366
  128SOPE   O1413650   0.851   2.970   6.406  0.5096 -0.2895 -0.0024
  128SOPE   O1213651   1.071   2.870   6.468  0.2535  0.1297  0.0345
  128SOPE   O1113652   1.002   2.897   6.223  0.2134 -0.1148 -0.5722
  128SOPE    C113653   1.114   2.905   6.133  0.2630 -0.3936 -0.0403
  128SOPE    HA13654   1.144   2.808   6.088 -0.3031  0.3419 -2.1273
  128SOPE    HB13655   1.202   2.954   6.179  0.3082  0.3775 -0.9211
  128SOPE    C213656   1.084   3.006   6.013  0.1226 -0.1388 -0.2375
  128SOPE    HS13657   1.064   3.106   6.058  0.4996  0.6430 -1.7366
  128SOPE   O2113658   0.971   2.946   5.945  0.6446 -0.1832 -0.1342
  128SOPE   C2113659   0.930   3.008   5.835 -0.4236  0.0073 -0.0289
  128SOPE   O2213660   0.958   3.119   5.795 -0.1567  0.3577  0.2113
  128SOPE   C2213661   0.828   2.920   5.765  0.6138 -0.1224 -0.1196
  128SOPE   H2R13662   0.732   2.961   5.801  0.8854  0.4543 -0.0415
  128SOPE   H2S13663   0.844   2.812   5.788  1.4258 -0.3188 -1.4635
  128SOPE    C313664   1.206   3.025   5.921 -0.1291 -0.7501  0.2206
  128SOPE    HX13665   1.294   3.051   5.984  0.4988  0.0914 -0.9755
  128SOPE    HY13666   1.189   3.110   5.853  2.1854 -0.3182  0.1152
  128SOPE   O3113667   1.243   2.906   5.851 -0.2176  0.0535 -0.0568
  128SOPE   C3113668   1.321   2.921   5.745 -0.3597  0.8051 -0.1316
  128SOPE   O3213669   1.371   3.030   5.710 -0.3793  0.4132  0.2432
  128SOPE   C3213670   1.342   2.785   5.693  0.7169 -0.0600  0.0008
  128SOPE   H2X13671   1.361   2.705   5.769  0.8902 -0.5252 -0.5287
  128SOPE   H2Y13672   1.436   2.795   5.636  0.8364  1.5361  0.4308
  128SOPE   C2313673   0.833   2.940   5.609  0.0494  0.6399 -0.2721
  128SOPE   H3R13674   0.929   2.889   5.584 -2.5707 -4.2976 -1.4744
  128SOPE   H3S13675   0.822   3.047   5.581 -0.9039  0.5014 -0.4367
  128SOPE   C2413676   0.723   2.865   5.532 -0.4037  0.6686  0.2418
  128SOPE   H4R13677   0.732   2.755   5.544  0.8179  0.7689  0.3359
  128SOPE   H4S13678   0.622   2.897   5.566 -0.0727  2.0382 -0.0237
  128SOPE   C2513679   0.721   2.908   5.385  0.2953  0.1093 -0.1281
  128SOPE   H5R13680   0.637   2.847   5.344 -0.6193  0.4905  1.1084
  128SOPE   H5S13681   0.687   3.012   5.366  1.5151  0.3894 -0.9473
  128SOPE   C2613682   0.849   2.894   5.299 -0.7001 -0.4019 -0.4258
  128SOPE   H6R13683   0.915   2.980   5.323 -3.1481  1.5400 -0.2947
  128SOPE   H6S13684   0.916   2.806   5.314  0.2487  0.1714 -1.1768
  128SOPE   C2713685   0.823   2.898   5.143 -0.0039  0.3678  0.2762
  128SOPE   H7R13686   0.754   2.813   5.125 -0.6199  0.6071  1.3711
  128SOPE   H7S13687   0.774   2.996   5.121  3.4284  1.9187 -1.0896
  128SOPE   C2813688   0.954   2.874   5.058  0.4213  0.2888  0.4069
  128SOPE   H8R13689   1.020   2.963   5.066 -0.0866  0.6124  0.9849
  128SOPE   H8S13690   1.011   2.784   5.092 -0.5179 -1.2832 -1.8944
  128SOPE   C2913691   0.923   2.855   4.914 -0.3876 -0.4398  0.5831
  128SOPE   H9113692   0.851   2.926   4.871 -0.0977 -0.0622  0.7059
  128SOPE  C21013693   0.958   2.758   4.830  0.3926  0.4625  1.5419
  128SOPE  H10113694   0.920   2.773   4.728  1.9416 -0.3222  0.8269
  128SOPE  C21113695   1.049   2.644   4.860  0.2069 -1.0257 -0.0255
  128SOPE  H11R13696   1.000   2.547   4.838 -0.4020 -0.6776 -0.2237
  128SOPE  H11S13697   1.075   2.645   4.968  0.7431 -1.4294 -0.1483
  128SOPE  C21213698   1.186   2.645   4.792  0.3469 -0.2547 -0.6240
  128SOPE  H12R13699   1.250   2.568   4.840 -0.2606 -2.1026 -2.6203
  128SOPE  H12S13700   1.243   2.739   4.812  0.5562  0.1702 -2.9041
  128SOPE  C21313701   1.183   2.619   4.644  1.2240  0.1657  0.2818
  128SOPE  H13R13702   1.122   2.695   4.589  0.1391 -0.2484  0.8946
  128SOPE  H13S13703   1.121   2.529   4.627  0.3420  0.4857  1.7101
  128SOPE  C21413704   1.322   2.615   4.583 -0.2429 -0.6943 -1.2194
  128SOPE  H14R13705   1.389   2.545   4.636  0.3480  0.4115 -0.4662
  128SOPE  H14S13706   1.354   2.718   4.610 -0.3618 -1.2050  1.0713
  128SOPE  C21513707   1.314   2.583   4.432 -0.1610  0.4405 -0.9655
  128SOPE  H15R13708   1.228   2.643   4.393 -2.2913 -0.6591  1.6759
  128SOPE  H15S13709   1.276   2.481   4.414 -0.4033  0.2994  0.2293
  128SOPE  C21613710   1.446   2.604   4.358 -0.7561 -0.2196 -0.0235
  128SOPE  H16R13711   1.488   2.707   4.364  0.6555 -0.3775 -4.0849
  128SOPE  H16S13712   1.433   2.584   4.249 -0.0730 -1.5396  0.1229
  128SOPE  C21713713   1.567   2.525   4.409 -0.2443  0.6498 -0.1225
  128SOPE  H17R13714   1.584   2.542   4.517  2.0446  2.1232 -0.6479
  128SOPE  H17S13715   1.658   2.566   4.359 -1.3255  1.1724 -1.7346
  128SOPE  C21813716   1.542   2.369   4.389  0.1980 -0.5864 -0.2124
  128SOPE  H18R13717   1.472   2.345   4.472  1.8954 -0.0372  1.4593
  128SOPE  H18S13718   1.633   2.306   4.393  0.1422 -0.7115 -0.8134
  128SOPE  H18T13719   1.485   2.350   4.296 -1.8555 -2.8188  1.4035
  128SOPE   C3313720   1.213   2.740   5.618  0.3847 -0.2309 -0.4684
  128SOPE   H3X13721   1.116   2.781   5.654  0.8307  1.7978 -1.4586
  128SOPE   H3Y13722   1.217   2.629   5.609 -0.5000 -0.3961  0.7889
  128SOPE   C3413723   1.222   2.785   5.471 -0.4628 -0.1137 -0.4319
  128SOPE   H4X13724   1.257   2.891   5.464 -0.4107 -0.1692 -1.0776
  128SOPE   H4Y13725   1.126   2.781   5.415 -1.3481  0.8458  0.9433
  128SOPE   C3513726   1.318   2.700   5.387  0.0301  0.5514 -0.1047
  128SOPE   H5X13727   1.262   2.604   5.377  0.4280  0.4581 -1.6439
  128SOPE   H5Y13728   1.412   2.679   5.442 -0.2208 -0.0671  0.0999
  128SOPE   C3613729   1.335   2.751   5.237 -0.1738 -0.1973 -0.4629
  128SOPE   H6X13730   1.363   2.857   5.254  2.1763 -0.9268  0.5914
  128SOPE   H6Y13731   1.236   2.747   5.186 -0.6016 -3.7863  0.3387
  128SOPE   C3713732   1.436   2.677   5.147 -0.2814  0.3886 -0.3985
  128SOPE   H7X13733   1.383   2.598   5.090  0.3215  1.0661 -1.9542
  128SOPE   H7Y13734   1.506   2.615   5.208 -2.3655 -0.7278  0.9840
  128SOPE   C3813735   1.508   2.769   5.052 -0.5936 -0.2341 -0.3414
  128SOPE   H8X13736   1.553   2.852   5.112 -0.3247 -0.7930  0.2401
  128SOPE   H8Y13737   1.435   2.822   4.987 -0.2529  0.5567 -0.0915
  128SOPE   C3913738   1.614   2.702   4.971  0.3904  0.2059 -0.0525
  128SOPE   H9X13739   1.569   2.630   4.900  1.1213  0.2822 -0.6066
  128SOPE   H9Y13740   1.684   2.633   5.024  0.1839 -0.2819 -0.4141
  128SOPE  C31013741   1.701   2.803   4.888 -0.3299  0.0007  0.2945
  128SOPE  H10X13742   1.782   2.833   4.958 -0.6522  1.4421  0.0906
  128SOPE  H10Y13743   1.639   2.890   4.859 -0.0876 -0.0205 -0.3038
  128SOPE  C31113744   1.764   2.739   4.767 -0.2463  0.1362 -0.6668
  128SOPE  H11X13745   1.689   2.716   4.688 -1.1146  0.2516  0.0987
  128SOPE  H11Y13746   1.792   2.638   4.802 -2.2759  0.0511  0.9016
  128SOPE  C31213747   1.890   2.806   4.702  0.7258 -0.2750 -0.3183
  128SOPE  H12X13748   1.946   2.740   4.631  0.7325 -0.6246  0.0044
  128SOPE  H12Y13749   1.960   2.830   4.786 -0.6811  0.8213  0.5736
  128SOPE  C31313750   1.850   2.934   4.634 -0.2629  0.6162  0.4364
  128SOPE  H13X13751   1.793   3.012   4.690 -1.9887 -0.0163 -0.3562
  128SOPE  H13Y13752   1.781   2.900   4.554  0.6619 -0.9080  0.2652
  128SOPE  C31413753   1.970   3.002   4.567  0.4811  0.2705  0.4548
  128SOPE  H14X13754   2.014   2.924   4.501  1.2209  0.4339  0.7519
  128SOPE  H14Y13755   2.041   3.049   4.638  1.2191  0.7819 -0.5939
  128SOPE  C31513756   1.929   3.121   4.471 -0.1714  0.5139  0.6289
  128SOPE  H15X13757   2.021   3.168   4.431 -0.0417  1.4341  1.9599
  128SOPE  H15Y13758   1.877   3.198   4.532  0.2800  1.1209  0.2579
  128SOPE  C31613759   1.837   3.074   4.356  0.5115 -0.7418 -0.1249
  128SOPE  H16X13760   1.738   3.049   4.399 -0.0824 -1.3579 -1.7907
  128SOPE  H16Y13761   1.865   2.974   4.318  0.6512 -0.8834  0.3480
  128SOPE  C31713762   1.817   3.170   4.236 -0.2485  0.0020 -0.6653
  128SOPE  H17X13763   1.770   3.128   4.144 -0.1311  0.7033 -1.0522
  128SOPE  H17Y13764   1.919   3.193   4.199 -0.5602  0.6339 -1.1548
  128SOPE  C31813765   1.746   3.304   4.269  0.0805 -1.0439 -0.4730
  128SOPE  H18X13766   1.821   3.368   4.319  0.0482 -1.1170 -0.3319
  128SOPE  H18Y13767   1.653   3.299   4.329  0.5010  1.3515  0.4805
  128SOPE  H18Z13768   1.738   3.357   4.171  3.3737  0.1523 -0.2090
  129SOPE     N13769   5.075   0.618   6.062 -0.0938  0.3663 -0.2777
  129SOPE   HN113770   5.049   0.517   6.062  0.0472  0.2949  1.5955
  129SOPE   HN213771   5.045   0.673   5.979  0.8606  0.1747 -0.7598
  129SOPE   HN313772   5.177   0.624   6.079 -0.0904 -0.8589  0.2484
  129SOPE   C1213773   5.000   0.677   6.173 -1.5451 -0.8076 -0.0940
  129SOPE  H12A13774   5.043   0.635   6.267 -1.9970  0.1392  0.5561
  129SOPE  H12B13775   4.895   0.644   6.164 -1.6607 -0.1554 -1.2880
  129SOPE   C1113776   5.018   0.831   6.180 -0.1268 -0.2446  0.1604
  129SOPE  H11A13777   4.973   0.874   6.272 -0.8484  1.0448 -0.7702
  129SOPE  H11B13778   4.974   0.858   6.082  4.2867 -0.7600 -2.2079
  129SOPE     P13779   5.189   1.017   6.191 -0.1042 -0.1350  0.2363
  129SOPE   O1313780   5.292   1.037   6.297  0.0169  0.3644 -0.1861
  129SOPE   O1413781   5.055   1.088   6.217 -0.2061  0.2831 -0.1389
  129SOPE   O1213782   5.162   0.864   6.168 -0.0607  0.2590  0.3406
  129SOPE   O1113783   5.246   1.058   6.045 -0.0425  0.1269  0.4171
  129SOPE    C113784   5.344   0.982   5.979 -0.1232  0.1439  0.6517
  129SOPE    HA13785   5.303   0.945   5.883 -0.7684 -1.0210  1.3464
  129SOPE    HB13786   5.376   0.889   6.032 -1.5020 -1.5944 -1.3770
  129SOPE    C213787   5.466   1.070   5.944  0.0749 -0.7025  0.2420
  129SOPE    HS13788   5.509   1.092   6.044 -0.0444  0.3245  0.0771
  129SOPE   O2113789   5.420   1.195   5.882  0.2053  0.0306  0.2071
  129SOPE   C2113790   5.490   1.299   5.905 -0.3071 -0.7014 -0.1080
  129SOPE   O2213791   5.593   1.308   5.970  0.0513 -0.2443 -0.6842
  129SOPE   C2213792   5.423   1.426   5.839  0.1434 -0.4584  0.4465
  129SOPE   H2R13793   5.374   1.482   5.922 -0.3077 -0.7129  0.3531
  129SOPE   H2S13794   5.348   1.382   5.770 -2.8108  2.2961  1.6065
  129SOPE    C313795   5.560   0.994   5.850  0.1331 -0.7229 -0.0462
  129SOPE    HX13796   5.497   0.984   5.759  1.4812  1.2096 -1.2786
  129SOPE    HY13797   5.568   0.892   5.894 -1.7502 -1.6052 -1.6062
  129SOPE   O3113798   5.683   1.056   5.817 -0.7060 -0.1898  0.3737
  129SOPE   C3113799   5.776   0.980   5.758  0.5197 -0.2844  0.0840
  129SOPE   O3213800   5.759   0.860   5.743  0.1593  0.3909  0.0770
  129SOPE   C3213801   5.899   1.051   5.711 -0.0902  0.0218 -0.2982
  129SOPE   H2X13802   5.988   0.989   5.738  0.4736  1.3308  0.9840
  129SOPE   H2Y13803   5.903   1.149   5.764 -0.7461  0.3682 -0.8738
  129SOPE   C2313804   5.523   1.526   5.783 -0.0608 -0.5995  0.4640
  129SOPE   H3R13805   5.576   1.465   5.706 -0.3935  1.7478 -1.7476
  129SOPE   H3S13806   5.596   1.570   5.854 -0.8174  1.8469 -0.1839
  129SOPE   C2413807   5.454   1.641   5.714  0.0002  0.2966  0.0975
  129SOPE   H4R13808   5.358   1.606   5.671  0.1623  0.1008 -0.1114
  129SOPE   H4S13809   5.418   1.714   5.789 -1.2502  0.8048 -0.9586
  129SOPE   C2513810   5.549   1.703   5.608 -0.6496  0.5807  0.8637
  129SOPE   H5R13811   5.648   1.743   5.638 -0.7024  0.3188  1.4148
  129SOPE   H5S13812   5.569   1.638   5.520 -1.2201  1.9701 -0.3247
  129SOPE   C2613813   5.478   1.831   5.551  0.0873 -0.1090  0.2756
  129SOPE   H6R13814   5.447   1.890   5.640  0.9290 -0.0766  0.5556
  129SOPE   H6S13815   5.557   1.896   5.507  0.3164 -1.0601 -0.7562
  129SOPE   C2713816   5.361   1.823   5.465  0.5510 -0.4324  0.2162
  129SOPE   H7R13817   5.381   1.777   5.366 -1.0415  0.9992 -0.8230
  129SOPE   H7S13818   5.284   1.758   5.512  1.5174 -1.6910  0.1042
  129SOPE   C2813819   5.285   1.953   5.437  0.1615 -0.1296  0.2063
  129SOPE   H8R13820   5.357   2.035   5.415  1.6506 -0.7853  2.2487
  129SOPE   H8S13821   5.221   1.941   5.348  2.6467  0.4173 -1.7840
  129SOPE   C2913822   5.190   1.997   5.545 -0.6752  0.3289 -0.2367
  129SOPE   H9113823   5.238   2.040   5.634  0.2715 -0.4565 -0.3576
  129SOPE  C21013824   5.055   1.975   5.545 -0.3697 -0.0313  0.1430
  129SOPE  H10113825   4.999   2.021   5.628 -0.3046 -2.3741  1.6056
  129SOPE  C21113826   4.973   1.910   5.434  0.0424  0.3558  0.3006
  129SOPE  H11R13827   4.870   1.888   5.469  0.7715 -2.5195  0.9489
  129SOPE  H11S13828   5.011   1.809   5.408 -0.1429 -0.1153  1.7545
  129SOPE  C21213829   4.948   2.004   5.314 -0.5866  0.7157  0.7398
  129SOPE  H12R13830   5.048   2.038   5.280 -0.7011  0.7005  0.3849
  129SOPE  H12S13831   4.885   2.090   5.343 -1.8985  0.3518 -0.8658
  129SOPE  C21313832   4.871   1.926   5.202  0.3868 -0.5442  0.1455
  129SOPE  H13R13833   4.798   1.993   5.152  0.2805 -0.1855  0.7762
  129SOPE  H13S13834   4.819   1.850   5.264 -2.6116  1.9472  0.9189
  129SOPE  C21413835   4.957   1.841   5.102 -0.2147  0.4341  0.1329
  129SOPE  H14R13836   5.024   1.785   5.171  3.3755  1.6418 -2.0796
  129SOPE  H14S13837   5.027   1.906   5.044  1.7199 -0.4070  1.4112
  129SOPE  C21513838   4.872   1.747   5.018 -0.3792 -0.1923 -0.4159
  129SOPE  H15R13839   4.801   1.809   4.959 -0.1658 -0.2854 -0.7726
  129SOPE  H15S13840   4.817   1.678   5.085 -0.6853 -0.5141 -0.9878
  129SOPE  C21613841   4.958   1.666   4.922 -0.2367 -0.6152 -0.9112
  129SOPE  H16R13842   4.886   1.631   4.845  0.5404  1.1059 -2.4706
  129SOPE  H16S13843   4.998   1.574   4.971  0.7972  0.5247  0.4670
  129SOPE  C21713844   5.086   1.740   4.869  0.2688 -0.1095 -0.2095
  129SOPE  H17R13845   5.153   1.760   4.955 -1.1202  0.0614  0.8700
  129SOPE  H17S13846   5.066   1.833   4.811 -1.3492 -1.1447 -1.4208
  129SOPE  C21813847   5.167   1.654   4.776 -0.8084 -0.5169 -0.3128
  129SOPE  H18R13848   5.102   1.625   4.691  0.8899 -2.3096 -1.0829
  129SOPE  H18S13849   5.193   1.560   4.828  0.5349 -0.4379 -0.8029
  129SOPE  H18T13850   5.253   1.712   4.735 -1.8837  1.8659  0.5816
  129SOPE   C3313851   5.895   1.084   5.563  0.1092 -0.4216  0.5986
  129SOPE   H3X13852   5.979   1.154   5.542 -0.1738 -0.4437 -0.6326
  129SOPE   H3Y13853   5.801   1.133   5.531 -0.2905 -1.4163  0.2352
  129SOPE   C3413854   5.934   0.961   5.479  0.1660  0.0862  0.3558
  129SOPE   H4X13855   5.848   0.890   5.485 -0.8033  0.9374 -1.9648
  129SOPE   H4Y13856   6.019   0.905   5.524  1.4384  0.7485 -1.1257
  129SOPE   C3513857   5.962   0.986   5.332 -0.4053  0.4300 -0.3303
  129SOPE   H5X13858   5.935   0.885   5.293 -1.1549  0.9693 -1.2674
  129SOPE   H5Y13859   6.068   0.999   5.301  0.5500 -1.2853  1.9859
  129SOPE   C3613860   5.875   1.090   5.270 -0.3486 -0.6977  0.7839
  129SOPE   H6X13861   5.909   1.191   5.302 -1.3511  1.1091 -3.1663
  129SOPE   H6Y13862   5.777   1.071   5.320 -0.4727 -2.5921 -0.0922
  129SOPE   C3713863   5.871   1.077   5.120  0.5997 -0.0989  0.9808
  129SOPE   H7X13864   5.837   0.973   5.101 -1.0718  0.6842 -0.5952
  129SOPE   H7Y13865   5.970   1.094   5.072  1.1871  0.1087  2.2299
  129SOPE   C3813866   5.753   1.160   5.052  0.4649 -0.0273  0.2009
  129SOPE   H8X13867   5.768   1.265   5.085 -2.0119  0.9166 -1.3615
  129SOPE   H8Y13868   5.659   1.132   5.104 -0.4614  1.8984 -0.3102
  129SOPE   C3913869   5.734   1.156   4.901  0.0840  0.2756  0.0851
  129SOPE   H9X13870   5.640   1.207   4.872 -0.9364  0.4748  3.2938
  129SOPE   H9Y13871   5.704   1.057   4.863 -0.9531  0.9092 -0.8029
  129SOPE  C31013872   5.852   1.228   4.831 -0.3242 -0.5201 -1.3528
  129SOPE  H10X13873   5.950   1.184   4.859  0.0486  1.2240  0.2490
  129SOPE  H10Y13874   5.860   1.328   4.878 -1.5073 -0.1543 -1.8973
  129SOPE  C31113875   5.858   1.222   4.678 -0.5760 -0.7750 -0.7021
  129SOPE  H11X13876   5.755   1.239   4.640 -0.3595  1.1194 -0.5592
  129SOPE  H11Y13877   5.867   1.114   4.655 -0.8431 -0.9896  0.1601
  129SOPE  C31213878   5.974   1.317   4.625  0.5207  0.5103  0.7943
  129SOPE  H12X13879   6.064   1.267   4.665 -0.5746 -1.3632  1.0135
  129SOPE  H12Y13880   5.958   1.417   4.672 -1.5522  0.1061  1.0367
  129SOPE  C31313881   5.983   1.316   4.476  0.7197 -0.0307  0.2014
  129SOPE  H13X13882   5.886   1.322   4.422  1.2304 -0.1661 -0.7554
  129SOPE  H13Y13883   6.022   1.218   4.441  0.0238 -0.4119  0.4791
  129SOPE  C31413884   6.066   1.432   4.427 -0.3341 -0.3337  0.9342
  129SOPE  H14X13885   6.030   1.520   4.484 -0.6073  0.4193 -0.3564
  129SOPE  H14Y13886   6.042   1.456   4.321  1.9626  0.0206  0.4340
  129SOPE  C31513887   6.212   1.411   4.449 -1.1310  0.4049 -0.3059
  129SOPE  H15X13888   6.257   1.343   4.374 -0.0523  1.3965 -0.5848
  129SOPE  H15Y13889   6.226   1.364   4.549  0.7259  1.9437  0.2408
  129SOPE  C31613890   6.293   1.547   4.441  0.3179 -0.0106 -0.7344
  129SOPE  H16X13891   6.236   1.626   4.494  1.0019  0.6060 -0.8914
  129SOPE  H16Y13892   6.302   1.586   4.337  1.5105 -3.1979 -1.9452
  129SOPE  C31713893   6.431   1.533   4.486 -0.0132 -0.1335  0.1361
  129SOPE  H17X13894   6.486   1.629   4.475 -1.3991  0.5675 -0.8653
  129SOPE  H17Y13895   6.476   1.468   4.407  0.4249  0.8500 -0.4471
  129SOPE  C31813896   6.467   1.474   4.624 -0.7981 -0.5604 -0.5613
  129SOPE  H18X13897   6.413   1.377   4.636 -0.6381 -0.6695 -0.7140
  129SOPE  H18Y13898   6.442   1.557   4.693  0.4904  1.8666 -2.8209
  129SOPE  H18Z13899   6.577   1.463   4.620 -0.9592 -1.9910 -2.4359
  130SOPE     N13900   1.675   6.262   6.118 -0.3646  0.1270 -0.0168
  130SOPE   HN113901   1.643   6.232   6.024  1.5205 -1.8124 -0.1473
  130SOPE   HN213902   1.615   6.205   6.181 -1.0168  0.0447 -0.7005
  130SOPE   HN313903   1.658   6.362   6.138  1.2616  0.6400 -0.9803
  130SOPE   C1213904   1.823   6.230   6.136  0.0256  0.7726  0.0327
  130SOPE  H12A13905   1.876   6.308   6.076 -0.4223  1.4289  0.4862
  130SOPE  H12B13906   1.844   6.130   6.092 -0.4139 -0.7452  3.0058
  130SOPE   C1113907   1.868   6.217   6.288  0.1055 -0.0460 -1.4246
  130SOPE  H11A13908   1.978   6.211   6.293  0.0487 -0.3065 -0.2118
  130SOPE  H11B13909   1.826   6.120   6.322 -0.1434  0.1511 -1.1645
  130SOPE     P13910   1.907   6.469   6.365  0.2896  0.1634  0.0702
  130SOPE   O1313911   2.052   6.438   6.383  0.2199 -0.3813 -0.2526
  130SOPE   O1413912   1.837   6.571   6.447 -0.2698 -0.4557  0.2978
  130SOPE   O1213913   1.823   6.330   6.361 -0.5187 -0.1952  0.4798
  130SOPE   O1113914   1.895   6.516   6.204 -0.1778 -0.1748 -0.5450
  130SOPE    C113915   1.942   6.649   6.180  0.1900  0.4766  0.1967
  130SOPE    HA13916   2.027   6.693   6.238  1.1810 -0.6732 -0.3383
  130SOPE    HB13917   1.854   6.714   6.201 -1.4151 -1.1340 -1.2647
  130SOPE    C213918   2.011   6.670   6.041  0.2392  0.1488  0.3107
  130SOPE    HS13919   2.041   6.775   6.021 -0.6657  0.3412 -0.0716
  130SOPE   O2113920   1.933   6.601   5.936 -0.2549 -0.1909 -0.7812
  130SOPE   C2113921   1.818   6.650   5.920 -0.2930  0.2184 -0.8861
  130SOPE   O2213922   1.789   6.759   5.959  0.2283 -0.1886  0.1685
  130SOPE   C2213923   1.730   6.558   5.832 -0.0912 -0.0047  0.2806
  130SOPE   H2R13924   1.654   6.623   5.783  0.9569  0.8579 -0.2439
  130SOPE   H2S13925   1.679   6.484   5.896  1.2723 -0.8237  0.4683
  130SOPE    C313926   2.152   6.597   6.049 -0.3144  0.1672  0.8862
  130SOPE    HX13927   2.133   6.498   6.096  2.4096 -1.1914 -0.5907
  130SOPE    HY13928   2.217   6.652   6.120  1.7561  0.1533 -0.8735
  130SOPE   O3113929   2.218   6.580   5.929 -0.0214  0.1424 -0.0687
  130SOPE   C3113930   2.255   6.692   5.862  0.4039 -0.0962 -0.1153
  130SOPE   O3213931   2.260   6.805   5.907 -0.2118  0.0782  0.4385
  130SOPE   C3213932   2.326   6.653   5.734  0.1458 -0.1720  0.2877
  130SOPE   H2X13933   2.411   6.585   5.758  1.6924  1.1070 -1.3032
  130SOPE   H2Y13934   2.369   6.746   5.692 -0.1750 -0.3076 -0.3436
  130SOPE   C2313935   1.812   6.488   5.722  0.5787  0.2267 -0.1868
  130SOPE   H3R13936   1.748   6.408   5.678 -0.8192 -0.0732  2.2108
  130SOPE   H3S13937   1.903   6.440   5.764  0.8660  1.7040  0.9716
  130SOPE   C2413938   1.847   6.585   5.614 -0.5037  0.3429 -0.1872
  130SOPE   H4R13939   1.895   6.675   5.658 -1.1104  0.3157  0.5521
  130SOPE   H4S13940   1.928   6.544   5.549 -1.0836 -1.0734 -0.0487
  130SOPE   C2513941   1.735   6.629   5.518 -0.2232  0.3575  0.1421
  130SOPE   H5R13942   1.633   6.643   5.559 -0.2801 -0.4619  0.2960
  130SOPE   H5S13943   1.772   6.729   5.488  1.7296 -0.3389  0.0759
  130SOPE   C2613944   1.735   6.550   5.385  0.8160 -0.2991  0.6070
  130SOPE   H6R13945   1.830   6.495   5.367  1.4973  0.6605  1.1644
  130SOPE   H6S13946   1.653   6.475   5.386  1.5247 -1.1741 -1.3408
  130SOPE   C2713947   1.694   6.647   5.268  0.2678  0.2427 -0.5387
  130SOPE   H7R13948   1.593   6.689   5.288  0.3931  0.8389 -1.1329
  130SOPE   H7S13949   1.762   6.734   5.278 -2.6149  2.5902  0.2160
  130SOPE   C2813950   1.708   6.590   5.123 -0.3301 -0.2158 -0.4879
  130SOPE   H8R13951   1.669   6.660   5.045  1.7705 -1.1492 -2.5014
  130SOPE   H8S13952   1.816   6.587   5.099 -0.2232  1.3563 -0.2982
  130SOPE   C2913953   1.639   6.453   5.109 -0.4072 -0.8154  0.4351
  130SOPE   H9113954   1.531   6.453   5.131 -0.6909  0.5647 -0.8108
  130SOPE  C21013955   1.699   6.345   5.057 -0.6790  0.1367  0.3457
  130SOPE  H10113956   1.645   6.250   5.047 -1.5811  0.4193  2.1873
  130SOPE  C21113957   1.839   6.342   4.996 -0.4544  0.3917  0.0330
  130SOPE  H11R13958   1.887   6.242   5.006 -1.9319 -0.3337  0.1882
  130SOPE  H11S13959   1.899   6.420   5.049  1.2653 -1.1661  0.5002
  130SOPE  C21213960   1.838   6.363   4.848  0.9738 -0.5356 -0.1898
  130SOPE  H12R13961   1.941   6.368   4.807  0.6503  1.4755 -0.8740
  130SOPE  H12S13962   1.794   6.464   4.833 -0.9771 -1.3313 -0.1641
  130SOPE  C21313963   1.758   6.254   4.778  0.5103 -0.0304  0.5242
  130SOPE  H13R13964   1.651   6.254   4.810 -0.2960 -1.8008 -1.7944
  130SOPE  H13S13965   1.810   6.159   4.805  2.0542  0.5133 -0.4171
  130SOPE  C21413966   1.753   6.281   4.628  0.2171  0.9344  0.1309
  130SOPE  H14R13967   1.855   6.309   4.594  0.3768  0.8233  0.5161
  130SOPE  H14S13968   1.684   6.368   4.621 -0.1128  0.7003  0.4453
  130SOPE  C21513969   1.707   6.161   4.546 -0.4944 -0.3336 -0.8506
  130SOPE  H15R13970   1.613   6.123   4.591  0.5000 -1.4911  0.3109
  130SOPE  H15S13971   1.778   6.081   4.575 -0.6319  0.2054  1.1077
  130SOPE  C21613972   1.695   6.183   4.399 -0.2758  0.0211 -0.1659
  130SOPE  H16R13973   1.796   6.197   4.357  0.0441 -0.0866  0.5511
  130SOPE  H16S13974   1.648   6.282   4.383  2.5731  1.6154  0.6096
  130SOPE  C21713975   1.631   6.055   4.338  0.4138  0.1024 -0.7963
  130SOPE  H17R13976   1.527   6.048   4.377 -0.0712 -2.2465 -2.2841
  130SOPE  H17S13977   1.689   5.963   4.362  0.9486  0.9959  1.7003
  130SOPE  C21813978   1.609   6.078   4.186 -0.2307  0.8063 -0.1488
  130SOPE  H18R13979   1.533   6.157   4.166  0.0278  0.7122 -1.5925
  130SOPE  H18S13980   1.576   5.983   4.138  1.2869 -0.8303  1.8799
  130SOPE  H18T13981   1.703   6.112   4.138 -0.6543  1.0814 -0.8146
  130SOPE   C3313982   2.223   6.584   5.640  0.1171 -0.3823 -0.0266
  130SOPE   H3X13983   2.144   6.652   5.602  0.0982 -1.1789 -1.5067
  130SOPE   H3Y13984   2.178   6.500   5.698  0.9218  0.5816  2.0919
  130SOPE   C3413985   2.302   6.498   5.534 -0.3907 -1.1577  0.3021
  130SOPE   H4X13986   2.357   6.427   5.601  0.3767  0.8211  1.8620
  130SOPE   H4Y13987   2.373   6.557   5.472  0.7030 -1.1756  1.4785
  130SOPE   C3513988   2.197   6.415   5.454  0.8680  0.3687  0.2060
  130SOPE   H5X13989   2.122   6.480   5.404 -1.4481  0.2993  3.3076
  130SOPE   H5Y13990   2.138   6.358   5.528  1.9251  0.4748  1.1614
  130SOPE   C3613991   2.256   6.315   5.356  0.0616 -0.1870  0.2622
  130SOPE   H6X13992   2.184   6.233   5.334  0.5371 -0.3882 -0.5922
  130SOPE   H6Y13993   2.343   6.270   5.408 -0.5054 -2.7565 -0.8556
  130SOPE   C3713994   2.283   6.370   5.211  0.0206  0.4090  0.4320
  130SOPE   H7X13995   2.377   6.428   5.204  0.3979 -0.3614 -1.8563
  130SOPE   H7Y13996   2.196   6.435   5.188 -1.1912 -1.0485  0.7519
  130SOPE   C3813997   2.289   6.268   5.101  0.2003 -0.5552 -1.1855
  130SOPE   H8X13998   2.218   6.187   5.125  0.0375 -0.2372 -0.5840
  130SOPE   H8Y13999   2.389   6.221   5.094  0.0822 -0.8570 -0.8281
  130SOPE   C3914000   2.264   6.337   4.969  0.3095 -0.8640 -0.2088
  130SOPE   H9X14001   2.348   6.408   4.954 -0.0616  0.1780  2.1292
  130SOPE   H9Y14002   2.187   6.416   4.983 -0.3147 -1.1680 -1.7206
  130SOPE  C31014003   2.261   6.232   4.855 -0.0857  0.1053 -0.1229
  130SOPE  H10X14004   2.154   6.201   4.848 -0.8377  2.7568 -2.0519
  130SOPE  H10Y14005   2.325   6.150   4.893 -2.1281 -0.3818  2.6189
  130SOPE  C31114006   2.305   6.302   4.719  0.0892  0.2865 -0.3270
  130SOPE  H11X14007   2.411   6.334   4.731 -0.3978  2.0182 -0.3298
  130SOPE  H11Y14008   2.243   6.392   4.701 -2.6106 -1.5968 -0.9808
  130SOPE  C31214009   2.283   6.216   4.587  0.9748  0.2845 -0.6300
  130SOPE  H12X14010   2.269   6.108   4.607  1.5455  0.2665 -0.3142
  130SOPE  H12Y14011   2.375   6.227   4.526  1.8482 -1.9797  0.1930
  130SOPE  C31314012   2.168   6.264   4.495  0.5831 -0.8180 -0.6662
  130SOPE  H13X14013   2.176   6.374   4.481  0.5027 -0.5762  1.0291
  130SOPE  H13Y14014   2.070   6.236   4.539  0.6003  0.4040  0.1883
  130SOPE  C31414015   2.172   6.201   4.355  0.4686  0.3603  0.0955
  130SOPE  H14X14016   2.067   6.176   4.332  0.9787 -0.6762 -1.2845
  130SOPE  H14Y14017   2.229   6.106   4.355  0.5337  0.3951 -0.4559
  130SOPE  C31514018   2.225   6.291   4.246 -1.1270 -0.0332  0.6419
  130SOPE  H15X14019   2.330   6.315   4.270 -1.0388 -0.4482  0.6736
  130SOPE  H15Y14020   2.166   6.386   4.251 -1.7566 -0.3968  0.2451
  130SOPE  C31614021   2.226   6.231   4.108 -0.3300  0.0016  0.3646
  130SOPE  H16X14022   2.298   6.147   4.108 -0.6123 -0.2451  0.0749
  130SOPE  H16Y14023   2.257   6.308   4.034 -1.5818 -0.2425 -0.4465
  130SOPE  C31714024   2.082   6.179   4.071 -0.1888  0.1503  0.1230
  130SOPE  H17X14025   2.007   6.261   4.074  0.1823  0.4904  0.1592
  130SOPE  H17Y14026   2.048   6.096   4.137  0.8374 -1.2129 -0.9740
  130SOPE  C31814027   2.072   6.129   3.927  0.0791 -0.3118 -0.4758
  130SOPE  H18X14028   1.964   6.113   3.907  0.3181 -1.3466 -1.0097
  130SOPE  H18Y14029   2.129   6.034   3.920  0.6208 -0.0756  0.4787
  130SOPE  H18Z14030   2.123   6.202   3.861  0.8400 -0.8400 -0.4946
  131SOPE     N14031   4.006   2.181   1.864  0.0614 -0.6965  0.1007
  131SOPE   HN114032   4.105   2.209   1.878  0.5067 -0.8652 -2.3268
  131SOPE   HN214033   3.955   2.241   1.933  0.5154  0.1957 -0.3135
  131SOPE   HN314034   4.004   2.080   1.888 -1.0195 -0.7277 -0.0627
  131SOPE   C1214035   3.960   2.214   1.721 -0.0209 -0.5743 -0.3926
  131SOPE  H12A14036   3.906   2.128   1.677 -1.9713  0.1296  0.5144
  131SOPE  H12B14037   4.052   2.229   1.661 -0.3607 -0.4504 -0.8886
  131SOPE   C1114038   3.872   2.345   1.741 -0.0274  0.2461  0.0327
  131SOPE  H11A14039   3.856   2.383   1.638 -0.2802 -4.8225 -2.1103
  131SOPE  H11B14040   3.926   2.416   1.805 -0.7749 -0.4945  1.5327
  131SOPE     P14041   3.712   2.355   1.956 -0.3917  0.0214 -0.2410
  131SOPE   O1314042   3.613   2.259   2.009  0.1729 -0.0832  0.2256
  131SOPE   O1414043   3.679   2.500   1.958 -0.2429  0.8132  0.6079
  131SOPE   O1214044   3.746   2.317   1.807 -0.0921  0.1738 -0.3604
  131SOPE   O1114045   3.853   2.323   2.025  0.0032 -0.1563 -0.1497
  131SOPE    C114046   3.933   2.414   2.102  0.2555  0.2899 -1.0035
  131SOPE    HA14047   3.884   2.452   2.194  3.0267  1.0113  0.2861
  131SOPE    HB14048   3.960   2.501   2.039  1.9061  1.1860  0.8204
  131SOPE    C214049   4.071   2.357   2.160  0.8743 -0.6006  0.4783
  131SOPE    HS14050   4.120   2.315   2.069 -0.3589 -0.3173 -0.3389
  131SOPE   O2114051   4.031   2.269   2.264 -0.1296  0.6728 -0.3275
  131SOPE   C2114052   4.127   2.185   2.306 -1.0603 -0.1844 -0.8318
  131SOPE   O2214053   4.243   2.179   2.267  0.7238  0.4334 -0.1027
  131SOPE   C2214054   4.063   2.080   2.392 -0.2683 -0.0910  0.4701
  131SOPE   H2R14055   4.069   1.989   2.329 -3.2031 -0.6081  0.7958
  131SOPE   H2S14056   3.956   2.102   2.412 -0.5213 -0.1110 -0.7752
  131SOPE    C314057   4.161   2.479   2.209 -0.0165 -0.3505 -0.6674
  131SOPE    HX14058   4.183   2.539   2.118 -0.0455  0.4801 -0.1350
  131SOPE    HY14059   4.256   2.444   2.255  0.3727  0.1723 -1.0684
  131SOPE   O3114060   4.085   2.557   2.305  0.5725 -0.3183  0.5554
  131SOPE   C3114061   4.119   2.562   2.423 -0.1792 -0.2355 -0.1425
  131SOPE   O3214062   4.221   2.512   2.469 -0.3038 -0.5179 -0.2929
  131SOPE   C3214063   4.001   2.608   2.512 -0.4241  0.2915 -0.4546
  131SOPE   H2X14064   3.906   2.588   2.459 -0.9592  2.1683 -0.2925
  131SOPE   H2Y14065   4.009   2.718   2.528 -0.3656  0.4306 -1.3851
  131SOPE   C2314066   4.149   2.063   2.518 -0.3734 -0.0940  0.5311
  131SOPE   H3R14067   4.256   2.072   2.488 -0.2767  0.8785  1.1211
  131SOPE   H3S14068   4.120   1.966   2.562  1.0524 -0.2957  1.0810
  131SOPE   C2414069   4.114   2.163   2.623 -0.5605  0.2891 -0.0361
  131SOPE   H4R14070   4.120   2.268   2.587 -0.0411  0.1996 -0.2309
  131SOPE   H4S14071   4.010   2.158   2.659 -1.1996  1.4791 -1.6091
  131SOPE   C2514072   4.212   2.144   2.739  0.3411 -0.4210 -0.8780
  131SOPE   H5R14073   4.205   2.041   2.782 -0.6778 -0.0808 -0.1647
  131SOPE   H5S14074   4.315   2.165   2.704  1.2269 -0.3941  1.5452
  131SOPE   C2614075   4.184   2.243   2.854  0.9696 -0.1004 -0.4512
  131SOPE   H6R14076   4.176   2.343   2.805  0.8868  0.4470  0.6580
  131SOPE   H6S14077   4.086   2.227   2.903  1.4816 -1.0712  0.2829
  131SOPE   C2714078   4.289   2.242   2.969  0.2293  0.4410  0.0295
  131SOPE   H7R14079   4.392   2.258   2.931  1.1579 -0.6937  1.8999
  131SOPE   H7S14080   4.256   2.317   3.044 -0.5541  0.0882  0.0499
  131SOPE   C2814081   4.278   2.105   3.045  0.0878 -0.5865  0.5553
  131SOPE   H8R14082   4.173   2.089   3.077 -0.0897  0.1987  0.3818
  131SOPE   H8S14083   4.304   2.019   2.979  1.4746 -0.7358  1.2621
  131SOPE   C2914084   4.377   2.108   3.160 -1.0245  0.2469  0.5479
  131SOPE   H9114085   4.482   2.121   3.129 -1.6132  1.8010 -0.9720
  131SOPE  C21014086   4.359   2.113   3.295  0.3118  0.6709  0.1123
  131SOPE  H10114087   4.444   2.100   3.364 -0.7114 -0.7728  1.1615
  131SOPE  C21114088   4.223   2.111   3.357  0.3473  0.0035 -0.1068
  131SOPE  H11R14089   4.227   2.047   3.448 -0.7919 -0.7043 -0.5408
  131SOPE  H11S14090   4.149   2.054   3.298 -0.5467 -0.3511  1.3095
  131SOPE  C21214091   4.167   2.245   3.413 -0.4173 -0.1353  0.0910
  131SOPE  H12R14092   4.126   2.311   3.335  1.1421 -0.2339 -0.8575
  131SOPE  H12S14093   4.244   2.294   3.477 -0.1991 -1.6218  1.0269
  131SOPE  C21314094   4.052   2.243   3.521  0.1612  0.7082  1.0069
  131SOPE  H13R14095   3.959   2.230   3.462 -0.1213 -1.1702  1.8010
  131SOPE  H13S14096   4.046   2.340   3.575  0.5465 -0.4616  3.2654
  131SOPE  C21414097   4.051   2.130   3.632  0.7798 -0.0125 -0.1819
  131SOPE  H14R14098   4.072   2.029   3.591 -0.0285 -0.5888  0.7917
  131SOPE  H14S14099   3.951   2.114   3.678  0.3747  0.3760 -0.9084
  131SOPE  C21514100   4.163   2.149   3.741 -0.6032  0.7006 -0.0076
  131SOPE  H15R14101   4.254   2.166   3.679 -0.0286 -1.0959  0.2721
  131SOPE  H15S14102   4.178   2.048   3.785 -0.3493  0.1072 -1.3939
  131SOPE  C21614103   4.143   2.252   3.852 -0.0137  0.0991  0.1613
  131SOPE  H16R14104   4.053   2.240   3.916 -1.2094  2.9957 -0.8455
  131SOPE  H16S14105   4.140   2.355   3.812  1.0697  0.0753 -0.0214
  131SOPE  C21714106   4.272   2.271   3.949  0.2291  1.2067  0.6516
  131SOPE  H17R14107   4.354   2.274   3.875 -1.3822 -1.5532 -1.4738
  131SOPE  H17S14108   4.281   2.173   4.001  0.6334 -1.2595 -3.6271
  131SOPE  C21814109   4.279   2.377   4.057  0.2989  0.1426 -0.1367
  131SOPE  H18R14110   4.383   2.396   4.091 -0.0157  0.8430  0.4631
  131SOPE  H18S14111   4.221   2.344   4.146  1.0329  1.2649  0.7920
  131SOPE  H18T14112   4.235   2.475   4.029  1.5166  1.1016  1.1941
  131SOPE   C3314113   3.995   2.540   2.652 -0.0665  0.0966  0.0177
  131SOPE   H3X14114   4.094   2.553   2.700 -0.6751 -0.1263  1.3911
  131SOPE   H3Y14115   3.978   2.433   2.628 -0.1227  0.7615 -3.4742
  131SOPE   C3414116   3.888   2.601   2.744  0.1186 -0.2902 -0.0876
  131SOPE   H4X14117   3.793   2.610   2.686 -1.5841 -0.3940  2.4814
  131SOPE   H4Y14118   3.924   2.706   2.757  3.2443 -1.0721 -1.5749
  131SOPE   C3514119   3.866   2.550   2.890 -0.8405 -1.1911 -0.6640
  131SOPE   H5X14120   3.838   2.443   2.902  1.6639 -1.7615  1.0230
  131SOPE   H5Y14121   3.785   2.612   2.933  1.0805  1.2479 -0.3081
  131SOPE   C3614122   3.989   2.580   2.981 -0.1631  0.3859 -0.1307
  131SOPE   H6X14123   4.006   2.689   2.995  0.4619  0.2624  0.1079
  131SOPE   H6Y14124   4.080   2.538   2.934  0.6544  1.7659  0.1517
  131SOPE   C3714125   3.980   2.519   3.118 -0.4505  1.0480 -0.1519
  131SOPE   H7X14126   4.077   2.529   3.172 -1.4275  2.2096  1.4890
  131SOPE   H7Y14127   3.940   2.416   3.127 -0.1246  0.9314 -0.0083
  131SOPE   C3814128   3.883   2.606   3.199  0.4669  0.6831 -0.6534
  131SOPE   H8X14129   3.786   2.573   3.155  0.2602 -0.3822  0.5604
  131SOPE   H8Y14130   3.901   2.716   3.197  0.2460  0.8882  2.7983
  131SOPE   C3914131   3.881   2.578   3.346 -0.1146  0.0217  0.1953
  131SOPE   H9X14132   3.970   2.623   3.393 -0.5873 -0.9019  2.0631
  131SOPE   H9Y14133   3.895   2.470   3.367 -1.6260 -0.2126  0.1464
  131SOPE  C31014134   3.762   2.628   3.427  0.3232  0.1150  0.0506
  131SOPE  H10X14135   3.666   2.579   3.400  0.2488 -0.1979  0.8394
  131SOPE  H10Y14136   3.742   2.733   3.396  2.7388  1.4397  2.5329
  131SOPE  C31114137   3.785   2.612   3.580  0.8699 -0.0099 -0.1979
  131SOPE  H11X14138   3.843   2.518   3.594 -2.3382 -2.2825 -1.0006
  131SOPE  H11Y14139   3.686   2.585   3.622  0.5531 -1.5702 -1.7978
  131SOPE  C31214140   3.855   2.735   3.639 -0.2150  1.0391 -0.4176
  131SOPE  H12X14141   3.841   2.821   3.569 -1.0153  0.7569 -0.6162
  131SOPE  H12Y14142   3.963   2.710   3.640 -0.2685  0.5555  2.8817
  131SOPE  C31314143   3.820   2.762   3.787 -0.9575  0.2317 -0.7165
  131SOPE  H13X14144   3.709   2.766   3.795 -0.8782  1.1131  0.2680
  131SOPE  H13Y14145   3.868   2.861   3.805 -3.4852  1.8988 -2.4647
  131SOPE  C31414146   3.865   2.654   3.887  0.0113 -0.6595  0.7554
  131SOPE  H14X14147   3.975   2.638   3.884  0.3102  1.1509 -2.6168
  131SOPE  H14Y14148   3.817   2.557   3.862 -1.3077 -0.2718  1.7379
  131SOPE  C31514149   3.818   2.691   4.032  0.2474 -0.5675 -0.4334
  131SOPE  H15X14150   3.713   2.729   4.029  0.2970 -0.2849  0.9475
  131SOPE  H15Y14151   3.883   2.775   4.064 -2.4859  1.5821 -0.1056
  131SOPE  C31614152   3.824   2.575   4.135 -0.3211  0.3048 -1.0620
  131SOPE  H16X14153   3.933   2.552   4.132 -0.5487 -0.7845 -1.8073
  131SOPE  H16Y14154   3.775   2.493   4.078  1.3830 -1.4757 -0.0873
  131SOPE  C31714155   3.770   2.613   4.276  0.3989 -0.2580  0.2478
  131SOPE  H17X14156   3.766   2.515   4.329 -0.2601  0.4440  1.5382
  131SOPE  H17Y14157   3.668   2.657   4.280  0.5694  0.1219  0.4700
  131SOPE  C31814158   3.869   2.705   4.350 -0.3478 -0.2317  0.0349
  131SOPE  H18X14159   3.966   2.652   4.362 -0.3470 -0.7543 -1.9788
  131SOPE  H18Y14160   3.816   2.751   4.436 -1.6103 -0.8644 -0.3841
  131SOPE  H18Z14161   3.903   2.781   4.275 -0.1818  1.3823  1.6646
  132SOPE     N14162   2.511   4.673   2.136 -0.1720 -0.2515  0.0887
  132SOPE   HN114163   2.534   4.762   2.088 -0.8104  1.5762  2.8685
  132SOPE   HN214164   2.409   4.664   2.155  0.1283 -1.3429  1.3018
  132SOPE   HN314165   2.555   4.684   2.230 -1.0984  0.8323  0.4282
  132SOPE   C1214166   2.564   4.560   2.057  0.7132  0.6246  0.3162
  132SOPE  H12A14167   2.675   4.554   2.070  0.5705 -2.6122  0.8403
  132SOPE  H12B14168   2.551   4.586   1.950 -1.0001 -0.5345  0.2193
  132SOPE   C1114169   2.491   4.434   2.084  0.3611  0.4375  0.0299
  132SOPE  H11A14170   2.526   4.405   2.186  3.4382  0.4429 -0.9399
  132SOPE  H11B14171   2.521   4.354   2.014 -0.9036  1.1801 -1.4110
  132SOPE     P14172   2.259   4.327   2.104 -0.0934  0.3373 -0.3107
  132SOPE   O1314173   2.299   4.217   2.012  0.1395 -0.1048 -0.4262
  132SOPE   O1414174   2.118   4.371   2.098 -0.6585 -0.4569  0.0859
  132SOPE   O1214175   2.349   4.460   2.079 -0.9397 -0.5107 -0.1832
  132SOPE   O1114176   2.302   4.287   2.257 -0.6609 -0.0317  0.0184
  132SOPE    C114177   2.299   4.387   2.361  0.3286 -0.4307  0.1394
  132SOPE    HA14178   2.251   4.481   2.326  2.4390  0.5035 -0.4492
  132SOPE    HB14179   2.406   4.408   2.382  0.2889 -0.1332  0.0541
  132SOPE    C214180   2.225   4.336   2.491 -0.5107  0.7589  0.1302
  132SOPE    HS14181   2.204   4.418   2.564  1.1662  0.3863  1.0906
  132SOPE   O2114182   2.310   4.231   2.550  0.6111 -0.1136 -0.2110
  132SOPE   C2114183   2.416   4.278   2.612 -0.4624 -0.1967 -0.0744
  132SOPE   O2214184   2.442   4.397   2.629  0.2228  0.2270 -0.4789
  132SOPE   C2214185   2.502   4.161   2.666  0.1126 -0.1783 -0.3615
  132SOPE   H2R14186   2.599   4.193   2.709  0.6572 -0.9892 -0.9427
  132SOPE   H2S14187   2.526   4.088   2.586  2.8231 -0.7096  0.8300
  132SOPE    C314188   2.090   4.271   2.444  0.1781  0.6219 -0.4290
  132SOPE    HX14189   2.102   4.183   2.378  1.5375  0.2576  0.2644
  132SOPE    HY14190   2.039   4.354   2.390 -1.8573 -0.3482 -0.0774
  132SOPE   O3114191   2.009   4.243   2.561  0.3223  0.0606  0.4183
  132SOPE   C3114192   2.024   4.118   2.607  0.0115 -0.2869 -0.5297
  132SOPE   O3214193   2.092   4.031   2.563  0.4399  0.1950  0.1801
  132SOPE   C3214194   1.944   4.114   2.740 -0.2320 -0.5106 -0.7793
  132SOPE   H2X14195   1.834   4.105   2.725 -0.6709 -0.6062  2.0355
  132SOPE   H2Y14196   1.966   4.204   2.802 -3.6363  0.3105 -0.5428
  132SOPE   C2314197   2.447   4.080   2.787  0.0726  0.0616 -0.4354
  132SOPE   H3R14198   2.506   3.986   2.787 -0.0106 -0.0515  1.8341
  132SOPE   H3S14199   2.343   4.043   2.772  0.3527 -0.9141 -0.0390
  132SOPE   C2414200   2.451   4.155   2.924  0.2417 -0.0906  0.4016
  132SOPE   H4R14201   2.501   4.083   2.992  0.1346 -0.1105  0.4602
  132SOPE   H4S14202   2.501   4.254   2.923 -1.0423  0.5923  1.4230
  132SOPE   C2514203   2.315   4.176   2.989  0.1867  0.1766 -0.1691
  132SOPE   H5R14204   2.233   4.234   2.941 -0.7799 -0.1085  1.0804
  132SOPE   H5S14205   2.263   4.079   3.004 -0.1850  0.0349 -2.0674
  132SOPE   C2614206   2.329   4.253   3.127  0.4865  0.1763 -0.3950
  132SOPE   H6R14207   2.400   4.193   3.187  1.7346 -1.4091 -3.2658
  132SOPE   H6S14208   2.384   4.343   3.094  0.5015 -0.6269 -2.7607
  132SOPE   C2714209   2.198   4.279   3.201  0.3507 -0.4648  0.5044
  132SOPE   H7R14210   2.207   4.340   3.293 -0.0215 -0.2458  0.3961
  132SOPE   H7S14211   2.140   4.342   3.130  1.9155  1.1589  0.5972
  132SOPE   C2814212   2.109   4.154   3.243 -0.4813 -0.0894 -0.7999
  132SOPE   H8R14213   2.006   4.194   3.251 -0.4496 -0.0510 -0.6027
  132SOPE   H8S14214   2.118   4.090   3.152  2.0512  2.3479 -2.4318
  132SOPE   C2914215   2.163   4.079   3.366 -0.1195  0.2772 -0.4543
  132SOPE   H9114216   2.257   4.028   3.343  1.2258  1.7789  1.3677
  132SOPE  C21014217   2.102   4.081   3.490  0.1703 -0.8147 -0.5358
  132SOPE  H10114218   2.131   4.001   3.561  3.5678  0.0257 -0.8185
  132SOPE  C21114219   1.981   4.150   3.541  0.5210 -0.5648 -0.6601
  132SOPE  H11R14220   1.893   4.082   3.549 -0.2835  0.1704 -2.6281
  132SOPE  H11S14221   1.947   4.217   3.460 -0.3959 -0.6014 -0.3185
  132SOPE  C21214222   1.997   4.244   3.662  1.1062 -0.6761 -0.4607
  132SOPE  H12R14223   2.077   4.320   3.648  1.2258 -0.3064  1.8990
  132SOPE  H12S14224   2.029   4.191   3.754  2.7956  0.7739 -0.1617
  132SOPE  C21314225   1.873   4.330   3.700 -0.2233  0.8248 -0.6209
  132SOPE  H13R14226   1.784   4.263   3.700  0.0887  0.3503 -2.7434
  132SOPE  H13S14227   1.849   4.405   3.622  0.3641  0.4131 -1.2121
  132SOPE  C21414228   1.889   4.416   3.823 -0.4474  0.2081  0.9193
  132SOPE  H14R14229   1.804   4.484   3.844 -1.3173 -0.6253  0.1584
  132SOPE  H14S14230   1.977   4.481   3.805 -0.7315  0.7845  1.5653
  132SOPE  C21514231   1.908   4.340   3.960 -0.3599  0.0777  0.2555
  132SOPE  H15R14232   1.999   4.278   3.945 -0.4892 -0.2205  0.6893
  132SOPE  H15S14233   1.820   4.274   3.975  0.5195 -0.9193  1.1444
  132SOPE  C21614234   1.915   4.447   4.076  0.6309 -0.1818  0.2549
  132SOPE  H16R14235   1.814   4.489   4.095  0.9999  1.4652 -1.1739
  132SOPE  H16S14236   1.988   4.527   4.047  2.8937 -2.4001 -0.5464
  132SOPE  C21714237   1.964   4.386   4.207  0.3910  0.4257  0.2165
  132SOPE  H17R14238   2.065   4.344   4.189  0.0323 -0.7524  0.8887
  132SOPE  H17S14239   1.895   4.304   4.235 -1.2081  1.1181 -1.5086
  132SOPE  C21814240   1.957   4.484   4.323 -0.0699  0.0786  0.0070
  132SOPE  H18R14241   2.046   4.550   4.322  1.4449 -1.7734 -2.6103
  132SOPE  H18S14242   1.970   4.420   4.413  1.1848  1.9149  1.1986
  132SOPE  H18T14243   1.858   4.533   4.334 -0.0204  0.2726 -0.4000
  132SOPE   C3314244   1.975   3.997   2.829  0.1670 -0.2624 -0.0854
  132SOPE   H3X14245   2.070   4.005   2.886 -1.1749 -0.3537  2.2920
  132SOPE   H3Y14246   1.998   3.904   2.773  0.4406 -1.5304  2.0521
  132SOPE   C3414247   1.867   3.969   2.932 -0.0118 -0.4260 -0.0888
  132SOPE   H4X14248   1.775   3.934   2.881 -1.4388  1.9391  0.6662
  132SOPE   H4Y14249   1.838   4.058   2.992  3.6974 -1.4627  3.7580
  132SOPE   C3514250   1.909   3.877   3.045 -0.0534 -0.4150  0.6262
  132SOPE   H5X14251   1.997   3.911   3.105  1.0124 -0.5699 -0.7946
  132SOPE   H5Y14252   1.947   3.780   3.006 -2.0027  0.1398 -3.1318
  132SOPE   C3614253   1.788   3.860   3.145  0.4158 -0.3238  0.0029
  132SOPE   H6X14254   1.713   3.812   3.079  0.8109 -0.0933 -0.6255
  132SOPE   H6Y14255   1.747   3.950   3.195 -0.1976 -0.6990  0.1747
  132SOPE   C3714256   1.804   3.745   3.246 -0.4305  0.1862 -0.0815
  132SOPE   H7X14257   1.854   3.661   3.193  0.8724  0.0955  1.2308
  132SOPE   H7Y14258   1.697   3.715   3.258 -0.5963  1.0725  0.8581
  132SOPE   C3814259   1.856   3.784   3.381 -1.0009  0.0449  0.1069
  132SOPE   H8X14260   1.795   3.862   3.429 -1.8708 -1.4702  1.5576
  132SOPE   H8Y14261   1.953   3.838   3.368  0.2746 -1.2882  3.1217
  132SOPE   C3914262   1.884   3.665   3.483  0.2593  0.0583 -0.0314
  132SOPE   H9X14263   1.949   3.597   3.424  0.2924 -0.0076  0.0806
  132SOPE   H9Y14264   1.791   3.605   3.497  0.6259 -0.4631  0.2259
  132SOPE  C31014265   1.954   3.701   3.614 -0.4428 -0.5273 -0.1467
  132SOPE  H10X14266   2.041   3.765   3.588 -0.0090 -1.2252 -0.4588
  132SOPE  H10Y14267   2.005   3.612   3.658  0.8003  1.5947  3.1370
  132SOPE  C31114268   1.865   3.772   3.717  0.5554 -0.8601  0.5889
  132SOPE  H11X14269   1.787   3.710   3.766 -0.1391  0.9165  1.8106
  132SOPE  H11Y14270   1.808   3.852   3.664 -0.5722 -2.2914 -0.4435
  132SOPE  C31214271   1.952   3.817   3.834  0.1763  0.6597 -0.6315
  132SOPE  H12X14272   1.991   3.917   3.805 -2.0052  1.6569 -0.3333
  132SOPE  H12Y14273   2.044   3.758   3.854  0.0120  0.6269  0.0268
  132SOPE  C31314274   1.864   3.824   3.964 -0.0223 -0.3010  0.6137
  132SOPE  H13X14275   1.936   3.801   4.045  1.6109  1.4412 -0.2448
  132SOPE  H13Y14276   1.772   3.763   3.973 -1.4566  1.3797 -1.4732
  132SOPE  C31414277   1.806   3.972   3.987 -1.0846  0.6310  0.0302
  132SOPE  H14X14278   1.767   3.998   3.886 -0.4747  0.0998 -0.3517
  132SOPE  H14Y14279   1.896   4.034   4.004 -0.5916 -0.0493 -0.0688
  132SOPE  C31514280   1.688   3.981   4.083 -0.3359  0.0021 -0.3104
  132SOPE  H15X14281   1.606   3.916   4.044 -0.9376  0.1109  0.7512
  132SOPE  H15Y14282   1.656   4.087   4.080 -1.1352 -0.2399 -1.0287
  132SOPE  C31614283   1.713   3.935   4.222 -0.4447 -0.2739 -0.0757
  132SOPE  H16X14284   1.791   3.997   4.270 -2.9069  1.9845  1.3151
  132SOPE  H16Y14285   1.752   3.831   4.217  0.4954 -0.1717  3.0449
  132SOPE  C31714286   1.588   3.932   4.305 -0.2629 -0.3325 -0.2034
  132SOPE  H17X14287   1.521   3.852   4.266 -0.3353 -0.9560  1.1686
  132SOPE  H17Y14288   1.518   4.018   4.297 -0.6654 -0.5875  0.4990
  132SOPE  C31814289   1.611   3.898   4.449 -0.1561 -0.5404  0.9363
  132SOPE  H18X14290   1.511   3.893   4.497 -0.2938 -0.5025  0.6583
  132SOPE  H18Y14291   1.677   3.976   4.492 -0.6682 -0.7620  2.1566
  132SOPE  H18Z14292   1.661   3.800   4.463 -0.2109 -0.5988  0.7326
  133SOPE     N14293   2.220   6.324   1.862  0.8249  0.5860 -0.2569
  133SOPE   HN114294   2.187   6.231   1.892  2.5534 -0.3155 -1.0193
  133SOPE   HN214295   2.145   6.391   1.891  0.2377 -0.3647  0.4659
  133SOPE   HN314296   2.237   6.332   1.760 -0.0766  3.3173 -0.2910
  133SOPE   C1214297   2.359   6.348   1.915  0.2822 -0.4768  0.3290
  133SOPE  H12A14298   2.380   6.455   1.891 -1.1498 -0.0943  0.6780
  133SOPE  H12B14299   2.434   6.285   1.864 -0.2268 -2.2696  1.6824
  133SOPE   C1114300   2.366   6.314   2.067 -0.6408 -0.3216  1.0478
  133SOPE  H11A14301   2.461   6.345   2.115  0.5072 -2.6536  0.4314
  133SOPE  H11B14302   2.367   6.204   2.081 -0.5764 -0.3832  0.5854
  133SOPE     P14303   2.256   6.517   2.188  0.5658 -0.2898 -0.3231
  133SOPE   O1314304   2.122   6.578   2.177 -0.0883 -0.2191 -0.1597
  133SOPE   O1414305   2.366   6.588   2.126 -0.7578  0.4054  0.4727
  133SOPE   O1214306   2.256   6.376   2.128  1.2182  0.0249 -0.0334
  133SOPE   O1114307   2.300   6.493   2.336  0.0122 -0.1996 -0.1674
  133SOPE    C114308   2.286   6.376   2.414 -0.2314  0.2567  0.1765
  133SOPE    HA14309   2.368   6.309   2.379 -0.4667 -0.5038  1.0459
  133SOPE    HB14310   2.189   6.324   2.400  1.5688 -3.5509  0.6588
  133SOPE    C214311   2.317   6.416   2.566 -0.6891  0.4422 -0.2701
  133SOPE    HS14312   2.301   6.315   2.610 -0.7994 -0.5708 -2.4544
  133SOPE   O2114313   2.236   6.517   2.621 -0.5312  0.0732 -0.2401
  133SOPE   C2114314   2.106   6.499   2.610 -0.0832 -0.3594  0.2233
  133SOPE   O2214315   2.048   6.408   2.553 -0.3635 -0.3552 -0.0198
  133SOPE   C2214316   2.039   6.622   2.679  0.4273 -0.6717 -0.1403
  133SOPE   H2R14317   1.951   6.645   2.615  0.6981  0.3975 -0.1341
  133SOPE   H2S14318   2.103   6.713   2.678 -0.4760 -0.0240 -0.4300
  133SOPE    C314319   2.464   6.454   2.588  0.2711 -0.9457  0.7601
  133SOPE    HX14320   2.495   6.553   2.550  3.9015 -1.9170  0.8368
  133SOPE    HY14321   2.521   6.386   2.522 -0.3124  1.1255 -2.0398
  133SOPE   O3114322   2.494   6.454   2.727 -0.2908  0.4944  0.3949
  133SOPE   C3114323   2.533   6.338   2.780  0.1570 -0.4262  0.0159
  133SOPE   O3214324   2.546   6.233   2.720 -0.3385  0.4542  0.1286
  133SOPE   C3214325   2.542   6.350   2.929 -0.0811  0.1858 -0.3902
  133SOPE   H2X14326   2.452   6.409   2.958  0.7975  1.0418  0.6195
  133SOPE   H2Y14327   2.627   6.412   2.962 -0.8572  0.5218  1.0673
  133SOPE   C2314328   1.985   6.583   2.822  0.2807 -0.3908  0.4423
  133SOPE   H3R14329   1.917   6.495   2.820 -1.4669  0.9175 -0.5223
  133SOPE   H3S14330   1.925   6.667   2.862  2.4930  1.5120 -0.0654
  133SOPE   C2414331   2.109   6.551   2.909  0.5076 -0.3933 -0.5092
  133SOPE   H4R14332   2.154   6.457   2.870  3.8905  1.6248 -1.9277
  133SOPE   H4S14333   2.179   6.637   2.894  1.9264 -1.5793 -0.8851
  133SOPE   C2514334   2.069   6.524   3.057 -0.1928 -0.3324 -0.5288
  133SOPE   H5R14335   2.015   6.616   3.089 -1.7888 -1.4883  0.2471
  133SOPE   H5S14336   1.993   6.444   3.071 -1.5444  1.0737  0.5470
  133SOPE   C2614337   2.198   6.511   3.141  0.2218 -0.4690  0.0946
  133SOPE   H6R14338   2.268   6.438   3.095 -1.4608 -2.4237  0.4948
  133SOPE   H6S14339   2.252   6.609   3.145  0.9553 -0.8309  4.3251
  133SOPE   C2714340   2.166   6.485   3.290  0.7378  0.1269  0.1207
  133SOPE   H7R14341   2.088   6.562   3.308  0.3737 -0.5637  1.6810
  133SOPE   H7S14342   2.134   6.379   3.293  1.5293 -0.1035  1.1211
  133SOPE   C2814343   2.282   6.498   3.386  0.1507 -1.0639  0.4699
  133SOPE   H8R14344   2.358   6.427   3.347  2.0452  0.8962  0.3760
  133SOPE   H8S14345   2.322   6.600   3.370 -0.5850 -0.9162 -0.5214
  133SOPE   C2914346   2.236   6.482   3.527  0.4348  0.2940  1.3436
  133SOPE   H9114347   2.171   6.564   3.559  1.5983  2.4273 -1.3850
  133SOPE  C21014348   2.250   6.366   3.593 -0.2041  0.8830  0.1632
  133SOPE  H10114349   2.211   6.366   3.696  0.7131 -1.0178  0.5500
  133SOPE  C21114350   2.318   6.241   3.554 -0.3736  0.0813  0.4868
  133SOPE  H11R14351   2.392   6.266   3.475 -1.7525  0.1294 -0.8401
  133SOPE  H11S14352   2.251   6.168   3.505 -0.0401  0.7029 -0.9589
  133SOPE  C21214353   2.382   6.154   3.669 -0.3226 -0.4608  0.7736
  133SOPE  H12R14354   2.427   6.059   3.633 -1.4611 -0.1111 -1.8349
  133SOPE  H12S14355   2.311   6.141   3.753 -1.8382 -1.5546 -0.5988
  133SOPE  C21314356   2.513   6.216   3.723  0.4600  0.3426  0.6191
  133SOPE  H13R14357   2.510   6.325   3.743  0.3394  0.2697  1.0217
  133SOPE  H13S14358   2.595   6.212   3.649  0.3465  0.9202  0.4550
  133SOPE  C21414359   2.562   6.153   3.853  0.1647 -0.4808 -0.0373
  133SOPE  H14R14360   2.578   6.044   3.837 -0.8751 -0.4319 -1.7050
  133SOPE  H14S14361   2.472   6.171   3.915 -0.1328  2.5031 -1.1452
  133SOPE  C21514362   2.670   6.226   3.924 -0.8083 -0.0968 -0.1664
  133SOPE  H15R14363   2.642   6.333   3.919 -0.4921 -0.0129 -0.1767
  133SOPE  H15S14364   2.771   6.210   3.879  0.2040 -1.4216  2.3656
  133SOPE  C21614365   2.681   6.200   4.068 -0.1921  0.0289  0.3396
  133SOPE  H16R14366   2.709   6.095   4.088  1.4730  0.6770  1.7367
  133SOPE  H16S14367   2.581   6.210   4.116 -1.4173 -1.3982 -1.7685
  133SOPE  C21714368   2.789   6.288   4.138  0.5021  0.1005  0.1258
  133SOPE  H17R14369   2.755   6.299   4.243  0.8091  0.2969  0.2077
  133SOPE  H17S14370   2.783   6.393   4.100 -1.4847 -0.2252 -0.5658
  133SOPE  C21814371   2.930   6.234   4.138 -1.5388 -0.0236 -0.2056
  133SOPE  H18R14372   2.919   6.142   4.198 -2.5444  0.5775  0.5713
  133SOPE  H18S14373   3.004   6.308   4.175  1.1566 -2.4692 -0.3801
  133SOPE  H18T14374   2.955   6.218   4.031  1.5973  1.4756  0.1927
  133SOPE   C3314375   2.556   6.225   3.012 -0.5933  0.1648  0.2668
  133SOPE   H3X14376   2.652   6.174   2.990 -0.8577  0.0549 -0.6642
  133SOPE   H3Y14377   2.476   6.156   2.978  0.2882 -1.5206  1.5125
  133SOPE   C3414378   2.533   6.248   3.165 -0.0866  0.6595  0.0908
  133SOPE   H4X14379   2.438   6.304   3.173  0.2663  1.4872 -1.2482
  133SOPE   H4Y14380   2.620   6.308   3.201  0.6446 -0.4469  0.2223
  133SOPE   C3514381   2.525   6.109   3.238  0.2935  0.5738 -0.5610
  133SOPE   H5X14382   2.455   6.042   3.184  0.3336  0.0402  0.0327
  133SOPE   H5Y14383   2.486   6.134   3.339 -1.8859  0.7954 -1.4201
  133SOPE   C3614384   2.662   6.043   3.268 -0.4445 -0.2326  0.8395
  133SOPE   H6X14385   2.727   6.119   3.316  1.1802 -0.7450 -0.4368
  133SOPE   H6Y14386   2.701   6.020   3.167 -0.6480 -1.5199  1.0315
  133SOPE   C3714387   2.651   5.920   3.365 -0.1576  0.6100 -0.1067
  133SOPE   H7X14388   2.565   5.860   3.328  0.6181  0.3828 -1.6324
  133SOPE   H7Y14389   2.641   5.967   3.465  2.6749  2.4910 -0.5791
  133SOPE   C3814390   2.779   5.826   3.362 -0.6551  0.7080 -0.2772
  133SOPE   H8X14391   2.872   5.884   3.380 -1.3052  1.7458 -0.1476
  133SOPE   H8Y14392   2.785   5.795   3.256  1.2935  0.5543 -0.1639
  133SOPE   C3914393   2.768   5.701   3.448 -0.2197  0.4689 -0.2683
  133SOPE   H9X14394   2.859   5.638   3.431  1.0525  2.3477 -0.6760
  133SOPE   H9Y14395   2.687   5.643   3.398  0.8008 -0.7271 -0.5911
  133SOPE  C31014396   2.743   5.718   3.597  0.1296  0.7334 -0.0674
  133SOPE  H10X14397   2.648   5.769   3.621  0.3951  1.0666  0.2830
  133SOPE  H10Y14398   2.815   5.789   3.642  1.0213  0.2467 -0.7009
  133SOPE  C31114399   2.741   5.585   3.682 -0.1024  0.3411 -0.2184
  133SOPE  H11X14400   2.841   5.543   3.657  1.9187  3.3414  2.1098
  133SOPE  H11Y14401   2.657   5.525   3.641 -0.2658 -0.0129  0.6197
  133SOPE  C31214402   2.725   5.589   3.833  0.1536  0.2447 -0.1524
  133SOPE  H12X14403   2.794   5.659   3.886 -0.2333  0.3372  0.2382
  133SOPE  H12Y14404   2.745   5.490   3.879  0.5342  0.5207  0.2871
  133SOPE  C31314405   2.583   5.625   3.862  0.9812  0.0073 -0.1820
  133SOPE  H13X14406   2.511   5.542   3.872  0.1974  0.8185  1.3383
  133SOPE  H13Y14407   2.542   5.700   3.791 -0.4137 -1.0096 -0.4964
  133SOPE  C31414408   2.580   5.704   3.997 -0.1811  0.3522 -0.1310
  133SOPE  H14X14409   2.651   5.790   3.993  0.3814 -0.1254 -0.5401
  133SOPE  H14Y14410   2.616   5.630   4.071 -0.5797 -0.0139 -0.3022
  133SOPE  C31514411   2.442   5.751   4.038 -0.1815  0.2502 -0.4875
  133SOPE  H15X14412   2.373   5.667   4.017  0.5601 -0.5254  0.1495
  133SOPE  H15Y14413   2.418   5.840   3.976  3.7531  1.6757 -0.2714
  133SOPE  C31614414   2.428   5.801   4.184  0.8096 -0.0095 -0.1447
  133SOPE  H16X14415   2.467   5.716   4.244 -0.8369 -0.0833  0.8905
  133SOPE  H16Y14416   2.321   5.799   4.214  1.5288 -0.4018  2.6600
  133SOPE  C31714417   2.493   5.927   4.222 -0.0659  0.0284 -0.3798
  133SOPE  H17X14418   2.457   6.012   4.160 -0.2692  0.4054  0.2451
  133SOPE  H17Y14419   2.601   5.906   4.211 -0.1168  0.0199 -0.8678
  133SOPE  C31814420   2.460   5.955   4.364  0.5323 -0.5821 -0.1723
  133SOPE  H18X14421   2.350   5.943   4.374  0.2137 -2.0645 -3.9719
  133SOPE  H18Y14422   2.476   6.063   4.387 -0.0552 -0.3515 -0.8169
  133SOPE  H18Z14423   2.507   5.892   4.443  1.1575  2.2050  1.8582
  134SOPE     N14424   1.776   0.869   1.737  0.1354  0.5329 -0.1034
  134SOPE   HN114425   1.673   0.885   1.730  0.4836  3.5548  0.4142
  134SOPE   HN214426   1.808   0.857   1.639 -0.4967 -0.5866 -0.1944
  134SOPE   HN314427   1.779   0.777   1.786 -2.9370  0.4975  0.2310
  134SOPE   C1214428   1.831   0.998   1.790  0.4365 -0.3904 -0.3659
  134SOPE  H12A14429   1.800   1.087   1.730  0.4630 -0.0901  0.0573
  134SOPE  H12B14430   1.941   0.992   1.798  0.5206 -0.0304 -1.1625
  134SOPE   C1114431   1.790   1.020   1.941  0.2581 -0.5722  0.4901
  134SOPE  H11A14432   1.842   1.111   1.979 -0.0229 -1.1140  2.2940
  134SOPE  H11B14433   1.833   0.937   2.000  1.1645  0.9058  2.0122
  134SOPE     P14434   1.575   1.140   2.042  0.4487  0.3223  0.0911
  134SOPE   O1314435   1.432   1.113   2.058  1.2000  0.0483  0.1762
  134SOPE   O1414436   1.607   1.273   1.993 -0.5007 -0.3596 -0.0419
  134SOPE   O1214437   1.640   1.031   1.950 -0.3364 -0.3382 -0.4411
  134SOPE   O1114438   1.647   1.132   2.178 -0.1377  0.3742 -0.1398
  134SOPE    C114439   1.664   1.002   2.235 -0.3702  0.3069 -0.5736
  134SOPE    HA14440   1.773   0.992   2.256  0.2383  2.8910 -2.1456
  134SOPE    HB14441   1.646   0.914   2.170 -0.3454 -0.2489  0.1479
  134SOPE    C214442   1.598   0.961   2.362  0.2520 -0.1562 -0.3178
  134SOPE    HS14443   1.490   0.946   2.341  0.4384 -0.3306 -1.1596
  134SOPE   O2114444   1.616   1.064   2.459  0.3388 -0.1382 -0.2716
  134SOPE   C2114445   1.522   1.157   2.469  0.4249 -0.3178  0.5918
  134SOPE   O2214446   1.413   1.165   2.409  0.4650  0.2593 -0.5788
  134SOPE   C2214447   1.552   1.267   2.575 -0.8642 -0.1528  0.0532
  134SOPE   H2R14448   1.462   1.332   2.573 -0.9295 -0.2414  0.1592
  134SOPE   H2S14449   1.652   1.311   2.553  0.5344 -2.2915  1.6945
  134SOPE    C314450   1.653   0.827   2.416 -0.2535 -0.3538 -0.9046
  134SOPE    HX14451   1.764   0.828   2.404 -0.1138 -0.5369  0.2936
  134SOPE    HY14452   1.617   0.732   2.370  2.2849 -1.6617 -0.3848
  134SOPE   O3114453   1.628   0.813   2.559  0.2938  0.2696  0.3168
  134SOPE   C3114454   1.502   0.796   2.592  0.0088 -0.1606 -0.6283
  134SOPE   O3214455   1.405   0.799   2.519 -0.3640  0.3599 -0.2300
  134SOPE   C3214456   1.493   0.769   2.744 -0.0403 -0.0465  0.4848
  134SOPE   H2X14457   1.528   0.866   2.784 -1.8301  0.7467  0.2342
  134SOPE   H2Y14458   1.565   0.689   2.773 -1.2682 -0.6350  2.0289
  134SOPE   C2314459   1.556   1.213   2.716  0.0998 -0.1087 -0.0796
  134SOPE   H3R14460   1.584   1.292   2.789 -0.8612  0.0295  0.1454
  134SOPE   H3S14461   1.633   1.134   2.733 -0.5856 -0.5702  0.9289
  134SOPE   C2414462   1.420   1.167   2.766 -0.2918  0.1070  0.2090
  134SOPE   H4R14463   1.335   1.226   2.728  0.9954  1.9130  0.0271
  134SOPE   H4S14464   1.396   1.061   2.741 -1.1217 -0.0172  1.4127
  134SOPE   C2514465   1.395   1.169   2.916 -0.1745 -0.0645  0.0859
  134SOPE   H5R14466   1.357   1.269   2.945 -1.6389 -0.1776 -1.3413
  134SOPE   H5S14467   1.315   1.094   2.930 -0.5712 -0.1530 -2.2787
  134SOPE   C2614468   1.518   1.134   3.004 -0.4871  0.2051 -0.3881
  134SOPE   H6R14469   1.576   1.059   2.947  0.1899  0.7420 -0.4210
  134SOPE   H6S14470   1.588   1.218   3.024  1.2646 -1.5794  1.4158
  134SOPE   C2714471   1.470   1.092   3.139 -0.1761 -0.3702  0.6703
  134SOPE   H7R14472   1.429   1.181   3.192  0.2019  1.1323 -1.4394
  134SOPE   H7S14473   1.388   1.019   3.127  0.5172 -1.3529  1.7391
  134SOPE   C2814474   1.587   1.034   3.219  0.0672  0.0589  0.1649
  134SOPE   H8R14475   1.617   0.950   3.153 -1.1491  1.1085 -1.8367
  134SOPE   H8S14476   1.669   1.109   3.218  0.0176  0.1183  0.5147
  134SOPE   C2914477   1.552   0.997   3.364  0.1950 -0.1775 -0.2493
  134SOPE   H9114478   1.555   1.084   3.432 -0.1133 -1.2689  1.2127
  134SOPE  C21014479   1.498   0.884   3.414  0.1319  0.2384 -0.1487
  134SOPE  H10114480   1.500   0.863   3.522 -2.8859  0.6295  0.0700
  134SOPE  C21114481   1.469   0.761   3.332  0.6328 -0.1015  0.2512
  134SOPE  H11R14482   1.465   0.789   3.225 -2.1214 -1.4373 -0.0780
  134SOPE  H11S14483   1.368   0.719   3.350  0.0310  0.7232 -1.0318
  134SOPE  C21214484   1.563   0.647   3.360 -0.5550 -0.3116  0.1325
  134SOPE  H12R14485   1.570   0.610   3.465  0.9226  0.4724  0.3382
  134SOPE  H12S14486   1.664   0.685   3.333  0.3575 -1.5057  1.6291
  134SOPE  C21314487   1.529   0.522   3.275 -0.0489 -0.4980 -0.7425
  134SOPE  H13R14488   1.520   0.558   3.170 -1.3002  2.3842  0.2489
  134SOPE  H13S14489   1.435   0.483   3.319  0.6467 -0.8123  0.5046
  134SOPE  C21414490   1.623   0.406   3.284 -0.2223 -0.3485 -0.1479
  134SOPE  H14R14491   1.717   0.416   3.224 -0.8609 -1.2193 -1.3402
  134SOPE  H14S14492   1.558   0.329   3.238 -3.7448  2.8322 -0.9464
  134SOPE  C21514493   1.659   0.359   3.421 -0.3886 -0.2316 -0.8865
  134SOPE  H15R14494   1.582   0.332   3.496  2.5393  2.4161  3.5398
  134SOPE  H15S14495   1.707   0.449   3.467 -5.0247  1.6052  1.0103
  134SOPE  C21614496   1.742   0.237   3.424 -0.3917  0.1050  0.0011
  134SOPE  H16R14497   1.841   0.269   3.386 -0.5936 -1.6202 -2.1444
  134SOPE  H16S14498   1.708   0.160   3.352 -0.9083 -1.3600  1.7107
  134SOPE  C21714499   1.775   0.172   3.567  0.4142 -0.2240  0.0936
  134SOPE  H17R14500   1.851   0.091   3.567 -1.3051 -1.9194  0.8580
  134SOPE  H17S14501   1.674   0.130   3.586 -0.4978  1.6367 -0.3419
  134SOPE  C21814502   1.803   0.268   3.674 -0.0069  0.3060 -0.3489
  134SOPE  H18R14503   1.833   0.225   3.772 -1.3580 -0.9317 -0.4459
  134SOPE  H18S14504   1.712   0.327   3.695 -1.3813 -1.2666 -1.6133
  134SOPE  H18T14505   1.886   0.333   3.638  0.4426 -0.0076  0.1021
  134SOPE   C3314506   1.356   0.741   2.800  0.0933 -0.0803  0.4679
  134SOPE   H3X14507   1.315   0.644   2.763  0.8242  0.0708 -0.7767
  134SOPE   H3Y14508   1.286   0.821   2.770  1.1255  0.5887 -0.1984
  134SOPE   C3414509   1.342   0.725   2.954 -0.5037  0.1194  0.3243
  134SOPE   H4X14510   1.392   0.812   3.002  2.9948 -0.7411 -1.4464
  134SOPE   H4Y14511   1.398   0.639   2.997 -1.9519 -1.3258 -0.5670
  134SOPE   C3514512   1.200   0.690   2.999  1.5563 -0.5432  0.1379
  134SOPE   H5X14513   1.157   0.621   2.923  1.1692  1.5499 -1.6285
  134SOPE   H5Y14514   1.145   0.784   2.978 -0.4081 -1.2390  1.9239
  134SOPE   C3614515   1.168   0.653   3.141  0.4861  0.0372  0.5270
  134SOPE   H6X14516   1.177   0.739   3.212 -1.1653  0.1850  0.5980
  134SOPE   H6Y14517   1.246   0.584   3.179  0.2346  1.2112  3.4523
  134SOPE   C3714518   1.032   0.588   3.163  0.6486 -0.7098 -0.0950
  134SOPE   H7X14519   1.025   0.502   3.093  0.3368 -1.1249  0.4353
  134SOPE   H7Y14520   0.950   0.656   3.131  0.6897 -0.2175  0.7996
  134SOPE   C3814521   1.001   0.541   3.306  0.0663  0.0897  0.4525
  134SOPE   H8X14522   1.088   0.481   3.340  0.6138 -1.3841 -3.1035
  134SOPE   H8Y14523   0.903   0.491   3.314 -1.2859  2.8035  2.5057
  134SOPE   C3914524   0.992   0.654   3.407 -0.6622  0.2043 -0.3040
  134SOPE   H9X14525   0.908   0.725   3.390 -0.5887  0.7041  1.2147
  134SOPE   H9Y14526   1.083   0.715   3.390 -0.2601  0.1819  1.5283
  134SOPE  C31014527   0.986   0.611   3.556  0.1265 -0.1621 -0.1411
  134SOPE  H10X14528   1.067   0.537   3.574  0.6601 -0.0359 -1.8762
  134SOPE  H10Y14529   0.889   0.567   3.587 -1.0530  1.9557 -0.6403
  134SOPE  C31114530   1.027   0.740   3.636  0.4060  0.1921  0.0448
  134SOPE  H11X14531   0.993   0.723   3.740 -0.1197 -1.4278 -0.3715
  134SOPE  H11Y14532   0.963   0.823   3.599  1.4415  0.7961 -0.4277
  134SOPE  C31214533   1.171   0.771   3.646 -0.4485  0.3514 -0.3917
  134SOPE  H12X14534   1.186   0.878   3.672  3.5967 -0.5410  1.6904
  134SOPE  H12Y14535   1.234   0.755   3.556  0.3530 -1.0705  0.3998
  134SOPE  C31314536   1.227   0.700   3.769  0.3933 -0.1322  0.3062
  134SOPE  H13X14537   1.159   0.613   3.783 -3.0661  2.0607 -1.3856
  134SOPE  H13Y14538   1.212   0.761   3.861 -1.3970 -0.1704  0.0719
  134SOPE  C31414539   1.378   0.664   3.765  0.8423  0.5473  0.5141
  134SOPE  H14X14540   1.416   0.695   3.865 -0.1174  0.8167  0.8079
  134SOPE  H14Y14541   1.402   0.728   3.677  0.0655  1.2718  0.8145
  134SOPE  C31514542   1.407   0.519   3.732  0.9828  0.2052  0.3961
  134SOPE  H15X14543   1.517   0.508   3.722  1.1892  1.7777  0.5529
  134SOPE  H15Y14544   1.377   0.475   3.635  1.2161  1.1464 -0.1192
  134SOPE  C31614545   1.361   0.421   3.842  0.1650  0.0812 -0.0981
  134SOPE  H16X14546   1.251   0.412   3.854  0.2556 -0.0566  0.6452
  134SOPE  H16Y14547   1.400   0.462   3.937  0.7797 -0.6945 -0.0098
  134SOPE  C31714548   1.419   0.278   3.827  0.2769  0.9828 -0.1626
  134SOPE  H17X14549   1.530   0.279   3.827  0.3427 -0.2510 -2.5681
  134SOPE  H17Y14550   1.387   0.237   3.729  1.2192  0.9132 -0.4449
  134SOPE  C31814551   1.361   0.165   3.923 -1.0383 -0.6165 -0.2304
  134SOPE  H18X14552   1.436   0.084   3.923  1.6893  1.7694  0.1606
  134SOPE  H18Y14553   1.259   0.141   3.884 -1.3082 -1.3922  0.8939
  134SOPE  H18Z14554   1.355   0.200   4.028  1.1725  0.4335 -0.4154
  135SOPE     N14555   7.005   0.966   2.059  0.2274 -0.0945  0.1012
  135SOPE   HN114556   6.990   1.038   2.132 -1.1071  1.2463 -1.4251
  135SOPE   HN214557   6.917   0.916   2.035  0.6785 -0.1777 -1.5120
  135SOPE   HN314558   7.079   0.902   2.094  0.6539  1.0320  1.3344
  135SOPE   C1214559   7.047   1.033   1.934  0.2799 -0.4558  0.0528
  135SOPE  H12A14560   6.980   1.119   1.917  0.2615 -0.3623  0.5896
  135SOPE  H12B14561   7.032   0.963   1.849 -2.5107 -1.7023  1.4272
  135SOPE   C1114562   7.193   1.088   1.936  0.5558 -0.1132 -0.2219
  135SOPE  H11A14563   7.214   1.173   2.004 -1.4848  1.5347 -1.5218
  135SOPE  H11B14564   7.216   1.118   1.831  0.6312 -1.9233 -0.7539
  135SOPE     P14565   7.439   0.995   1.948 -0.1122  0.1920 -0.4669
  135SOPE   O1314566   7.473   1.056   1.818 -0.1557  0.3620 -0.4352
  135SOPE   O1414567   7.491   0.860   1.971 -0.3515 -0.4987 -0.0203
  135SOPE   O1214568   7.281   0.985   1.974 -0.6558 -0.4773 -0.4399
  135SOPE   O1114569   7.488   1.087   2.066  0.3039 -0.2100  0.0741
  135SOPE    C114570   7.544   1.037   2.192  0.1320 -0.0751  0.9470
  135SOPE    HA14571   7.651   1.067   2.196 -0.2402  1.6238 -0.2959
  135SOPE    HB14572   7.518   0.931   2.212  0.2648 -0.0904  1.0368
  135SOPE    C214573   7.471   1.099   2.311 -0.0260  0.4558  0.1857
  135SOPE    HS14574   7.482   1.209   2.318 -1.9422  0.6068  1.5880
  135SOPE   O2114575   7.511   1.029   2.428  0.1308 -0.1743 -0.8538
  135SOPE   C2114576   7.603   1.092   2.492  0.0833 -0.0381  0.1450
  135SOPE   O2214577   7.655   1.196   2.450  0.1689 -0.3750 -0.3810
  135SOPE   C2214578   7.649   1.021   2.625  0.1542  0.3771 -0.5098
  135SOPE   H2R14579   7.753   1.048   2.650  0.9873 -2.1738 -0.9448
  135SOPE   H2S14580   7.637   0.910   2.630 -0.2250  0.3410 -1.8982
  135SOPE    C314581   7.318   1.070   2.296 -0.3314  0.4860 -0.2918
  135SOPE    HX14582   7.300   0.960   2.290 -1.0471  0.4059  2.2218
  135SOPE    HY14583   7.290   1.091   2.191 -1.1085 -0.6115 -0.3289
  135SOPE   O3114584   7.235   1.128   2.394 -0.6462 -0.4700 -0.0554
  135SOPE   C3114585   7.111   1.104   2.395  0.5877  0.3664 -1.0204
  135SOPE   O3214586   7.049   1.039   2.310  0.6174  0.1067  0.3230
  135SOPE   C3214587   7.033   1.134   2.538  0.4049  0.2502 -0.5241
  135SOPE   H2X14588   6.934   1.085   2.526  1.9323 -2.7674 -2.0337
  135SOPE   H2Y14589   7.005   1.242   2.545 -0.8510 -0.0617 -0.4339
  135SOPE   C2314590   7.549   1.071   2.730  0.0900  0.7791  0.4203
  135SOPE   H3R14591   7.443   1.047   2.709  0.5640 -1.0527 -0.0726
  135SOPE   H3S14592   7.557   1.181   2.745  1.7652  0.7158  0.1554
  135SOPE   C2414593   7.580   1.005   2.864 -0.5411  0.4789  0.3357
  135SOPE   H4R14594   7.551   0.898   2.864  0.3685  0.1904  1.8733
  135SOPE   H4S14595   7.692   1.007   2.863 -0.3790 -2.9310 -1.7184
  135SOPE   C2514596   7.520   1.093   2.977 -0.0352  0.1879 -0.0432
  135SOPE   H5R14597   7.570   1.192   2.972  0.2401 -0.0181 -2.0072
  135SOPE   H5S14598   7.410   1.103   2.966 -0.0470  0.3696  0.2188
  135SOPE   C2614599   7.548   1.021   3.114 -0.3896 -0.4011 -0.4170
  135SOPE   H6R14600   7.484   0.931   3.114 -0.3641 -0.4232  0.5526
  135SOPE   H6S14601   7.653   0.985   3.110 -0.5849 -1.1308  0.7203
  135SOPE   C2714602   7.521   1.116   3.233 -0.6828 -0.0470 -0.4004
  135SOPE   H7R14603   7.599   1.194   3.239  0.5397 -1.0848 -1.8789
  135SOPE   H7S14604   7.425   1.169   3.214 -0.6224 -0.2497 -1.3343
  135SOPE   C2814605   7.523   1.052   3.365 -0.1123  0.6961  0.4663
  135SOPE   H8R14606   7.441   0.978   3.368 -0.5983  1.2576  1.0741
  135SOPE   H8S14607   7.620   0.997   3.372 -1.1526 -1.1887  0.8941
  135SOPE   C2914608   7.498   1.140   3.483 -0.7124 -0.3243 -0.1653
  135SOPE   H9114609   7.408   1.201   3.468  0.4380  1.4008 -0.2556
  135SOPE  C21014610   7.557   1.136   3.603 -0.8109  0.1206  0.5815
  135SOPE  H10114611   7.510   1.203   3.677  1.5503  1.2445  1.1611
  135SOPE  C21114612   7.664   1.044   3.659  0.3006 -0.5015 -0.2710
  135SOPE  H11R14613   7.717   1.091   3.746  0.8076 -1.3676 -0.1070
  135SOPE  H11S14614   7.733   1.015   3.578 -0.4280 -0.2735 -0.9858
  135SOPE  C21214615   7.580   0.922   3.702  1.3108  0.4837  0.1444
  135SOPE  H12R14616   7.512   0.884   3.623  1.5212  1.7384 -0.6666
  135SOPE  H12S14617   7.509   0.942   3.785  0.3180 -2.0227 -0.0120
  135SOPE  C21314618   7.672   0.800   3.752  0.3365 -0.1086 -0.3888
  135SOPE  H13R14619   7.747   0.777   3.673  1.8600  0.9460  0.6930
  135SOPE  H13S14620   7.596   0.719   3.763 -0.2688  0.3330 -1.2818
  135SOPE  C21414621   7.747   0.828   3.882 -0.3740 -0.1635  0.3721
  135SOPE  H14R14622   7.803   0.924   3.870 -0.2131 -0.2496  0.4408
  135SOPE  H14S14623   7.825   0.751   3.897  0.0494 -0.5278 -2.8802
  135SOPE  C21514624   7.670   0.850   4.007 -0.0753  0.2839 -0.0405
  135SOPE  H15R14625   7.651   0.750   4.052  0.8072 -1.2936 -2.8802
  135SOPE  H15S14626   7.572   0.891   3.975 -0.2882 -0.8750 -0.9561
  135SOPE  C21614627   7.747   0.948   4.097 -0.5082  0.1773  0.2210
  135SOPE  H16R14628   7.766   1.030   4.024 -0.7113 -1.2843 -1.5245
  135SOPE  H16S14629   7.843   0.906   4.133 -0.5315  0.1306  0.2284
  135SOPE  C21714630   7.667   1.007   4.217 -0.1981 -0.7097  0.6383
  135SOPE  H17R14631   7.574   1.055   4.180  1.5200  2.0006 -0.5372
  135SOPE  H17S14632   7.720   1.094   4.262 -0.9011  0.4295 -0.6646
  135SOPE  C21814633   7.626   0.911   4.333 -0.8127  0.1022 -0.0470
  135SOPE  H18R14634   7.584   0.968   4.419  2.6466  1.0329  1.1822
  135SOPE  H18S14635   7.712   0.850   4.367  0.9146  1.2167 -2.1397
  135SOPE  H18T14636   7.545   0.845   4.295 -0.1848 -0.1846 -0.9199
  135SOPE   C3314637   7.106   1.095   2.666 -0.0608  0.2087  0.6312
  135SOPE   H3X14638   7.207   1.141   2.661 -0.0006 -0.0397 -1.2082
  135SOPE   H3Y14639   7.122   0.985   2.668 -1.0093  0.0710  1.2037
  135SOPE   C3414640   7.026   1.136   2.792  0.4380 -0.0347  0.0862
  135SOPE   H4X14641   6.920   1.104   2.782  0.1270  0.5734  1.2751
  135SOPE   H4Y14642   7.041   1.246   2.796 -0.5541  0.2830 -2.9744
  135SOPE   C3514643   7.079   1.084   2.926 -0.8097 -0.2728  0.3081
  135SOPE   H5X14644   7.187   1.112   2.924 -0.5864 -1.1011 -0.4153
  135SOPE   H5Y14645   7.076   0.973   2.926 -0.3247 -0.2941  1.0860
  135SOPE   C3614646   7.020   1.135   3.052 -0.2802  0.1732 -0.5446
  135SOPE   H6X14647   6.945   1.060   3.085 -0.5977  0.5321 -0.4459
  135SOPE   H6Y14648   6.970   1.233   3.042 -1.1172 -0.2316 -0.3907
  135SOPE   C3714649   7.129   1.146   3.161  0.0056 -0.6766  0.1426
  135SOPE   H7X14650   7.191   1.229   3.119 -0.2529  0.6870  2.3082
  135SOPE   H7Y14651   7.193   1.055   3.165  0.1642 -0.5992 -0.4477
  135SOPE   C3814652   7.092   1.177   3.305  0.0030 -0.0287  0.4092
  135SOPE   H8X14653   7.181   1.175   3.372  0.1380 -0.3900  0.2214
  135SOPE   H8Y14654   7.021   1.098   3.336 -0.0105 -1.1338 -2.1995
  135SOPE   C3914655   7.024   1.313   3.318  0.2189  0.7319 -0.3506
  135SOPE   H9X14656   6.936   1.317   3.250 -1.3778 -3.2898  1.1579
  135SOPE   H9Y14657   7.083   1.402   3.287 -1.5059  1.2229 -2.4786
  135SOPE  C31014658   6.981   1.318   3.463 -0.1095  0.3597 -0.5512
  135SOPE  H10X14659   7.064   1.325   3.537 -0.5588  0.8759 -0.0931
  135SOPE  H10Y14660   6.925   1.227   3.493 -0.6455  0.9174  0.1627
  135SOPE  C31114661   6.895   1.451   3.485 -0.2274 -0.6602 -0.0758
  135SOPE  H11X14662   6.823   1.456   3.400  0.9444 -0.0133 -1.0712
  135SOPE  H11Y14663   6.955   1.542   3.462 -0.3180 -1.0557 -2.0363
  135SOPE  C31214664   6.821   1.457   3.620  0.0505  0.2133  0.0920
  135SOPE  H12X14665   6.734   1.388   3.622  0.2503 -0.0285  1.2101
  135SOPE  H12Y14666   6.769   1.556   3.616  1.3526  0.9203  0.2078
  135SOPE  C31314667   6.904   1.433   3.742  0.0433 -0.1035  0.2398
  135SOPE  H13X14668   6.997   1.494   3.734 -0.6958  0.9288 -1.0250
  135SOPE  H13Y14669   6.920   1.324   3.750  0.5625 -0.0629 -0.1339
  135SOPE  C31414670   6.833   1.485   3.868 -0.2050  0.5581 -0.1807
  135SOPE  H14X14671   6.723   1.467   3.862 -0.2854  1.2629 -1.1853
  135SOPE  H14Y14672   6.851   1.594   3.854  2.7971  0.1128 -0.3619
  135SOPE  C31514673   6.891   1.432   4.002 -0.2700  0.4785 -0.0843
  135SOPE  H15X14674   6.995   1.471   4.006 -0.3881  1.0932 -2.0274
  135SOPE  H15Y14675   6.894   1.321   3.999  0.3715  0.4651  0.6823
  135SOPE  C31614676   6.813   1.488   4.116 -0.7207  0.2486  0.4062
  135SOPE  H16X14677   6.708   1.457   4.102 -0.3233  0.0910 -2.9681
  135SOPE  H16Y14678   6.820   1.598   4.124  3.2826  0.2835 -0.9657
  135SOPE  C31714679   6.880   1.437   4.246  0.2241 -0.3870 -0.2801
  135SOPE  H17X14680   6.987   1.465   4.249  0.5053 -1.2367 -1.7268
  135SOPE  H17Y14681   6.869   1.326   4.243 -1.3681 -0.2308 -2.1423
  135SOPE  C31814682   6.803   1.491   4.366  0.1736  0.3394  1.4526
  135SOPE  H18X14683   6.707   1.531   4.327  1.3028  1.5752 -0.2744
  135SOPE  H18Y14684   6.861   1.572   4.415 -0.1115  1.0385  0.6660
  135SOPE  H18Z14685   6.791   1.411   4.441 -0.3109  0.4024  1.4426
  136SOPE     N14686   6.809   0.320   1.886 -0.0546  0.6191  0.5972
  136SOPE   HN114687   6.722   0.283   1.929  1.5560 -0.9193  2.7833
  136SOPE   HN214688   6.864   0.237   1.854 -0.5509  1.0176 -1.4335
  136SOPE   HN314689   6.873   0.357   1.958  0.2766  1.6388 -0.2028
  136SOPE   C1214690   6.777   0.419   1.775  0.3555 -0.4371 -0.0731
  136SOPE  H12A14691   6.705   0.369   1.707 -0.4431  2.0041 -1.1364
  136SOPE  H12B14692   6.871   0.455   1.728 -0.9093  1.7130 -1.1039
  136SOPE   C1114693   6.695   0.539   1.842 -0.6089 -0.2332 -0.3736
  136SOPE  H11A14694   6.592   0.503   1.863 -1.3220  1.6243 -0.5664
  136SOPE  H11B14695   6.682   0.610   1.758 -0.0430 -1.0422 -1.1749
  136SOPE     P14696   6.694   0.716   2.027 -0.4330 -0.0170 -0.5272
  136SOPE   O1314697   6.566   0.748   1.964  0.1659  0.0325 -0.0636
  136SOPE   O1414698   6.792   0.826   2.033 -0.2229  0.9681 -0.6591
  136SOPE   O1214699   6.765   0.592   1.958 -0.3959 -0.8166  0.2509
  136SOPE   O1114700   6.678   0.656   2.169  0.7594  0.1119 -0.0081
  136SOPE    C114701   6.612   0.529   2.180  0.0881  0.5742  0.3506
  136SOPE    HA14702   6.649   0.461   2.260 -2.7152 -3.6122 -1.5567
  136SOPE    HB14703   6.641   0.468   2.092 -0.7533 -0.8354  1.0270
  136SOPE    C214704   6.457   0.532   2.202 -0.6789  0.2911 -0.7903
  136SOPE    HS14705   6.414   0.556   2.103 -1.6216 -0.5307 -0.5923
  136SOPE   O2114706   6.428   0.631   2.302 -0.2106  0.0789  0.1762
  136SOPE   C2114707   6.317   0.692   2.284  0.3400 -0.2624  0.0372
  136SOPE   O2214708   6.227   0.656   2.208  0.9952 -0.2177  0.6399
  136SOPE   C2214709   6.322   0.813   2.372  0.4850 -0.1679 -0.2766
  136SOPE   H2R14710   6.377   0.883   2.306  0.4479 -1.5056 -1.7894
  136SOPE   H2S14711   6.380   0.789   2.464 -2.4717  1.2685  2.1251
  136SOPE    C314712   6.392   0.399   2.242  0.3577  0.2165 -0.9463
  136SOPE    HX14713   6.420   0.328   2.161  0.2959  1.9228 -2.5268
  136SOPE    HY14714   6.281   0.405   2.238  0.2233  0.5813  1.6579
  136SOPE   O3114715   6.446   0.359   2.368  0.3467 -0.4347  0.0925
  136SOPE   C3114716   6.377   0.392   2.476 -0.1536  0.4282 -0.5172
  136SOPE   O3214717   6.282   0.459   2.482 -0.5138 -0.2986  0.4443
  136SOPE   C3214718   6.452   0.320   2.598  0.1286  0.1475  0.6735
  136SOPE   H2X14719   6.560   0.334   2.576 -0.0912 -0.4454 -0.8913
  136SOPE   H2Y14720   6.422   0.214   2.587  2.1649 -0.3041 -1.2531
  136SOPE   C2314721   6.180   0.874   2.391  0.0836  0.1755  0.2614
  136SOPE   H3R14722   6.120   0.883   2.298  1.3223 -1.0502 -0.6951
  136SOPE   H3S14723   6.175   0.979   2.426 -0.9505  1.0199 -2.2030
  136SOPE   C2414724   6.096   0.806   2.503  0.0192  0.0682 -0.3395
  136SOPE   H4R14725   5.994   0.844   2.478  0.7611 -0.0959 -4.3813
  136SOPE   H4S14726   6.098   0.695   2.501  2.4888 -0.0244  2.2503
  136SOPE   C2514727   6.139   0.852   2.644  0.7589  0.3151  0.3595
  136SOPE   H5R14728   6.206   0.940   2.644  1.4911 -0.2200 -0.3602
  136SOPE   H5S14729   6.044   0.892   2.684 -0.1722  1.4781 -2.6934
  136SOPE   C2614730   6.186   0.737   2.732  0.5366 -0.6116 -0.0095
  136SOPE   H6R14731   6.099   0.669   2.738  0.1370 -0.2983 -1.7083
  136SOPE   H6S14732   6.270   0.693   2.674  2.5810  1.1920  1.4150
  136SOPE   C2714733   6.232   0.788   2.869 -0.5897  0.1824 -0.7307
  136SOPE   H7R14734   6.332   0.744   2.889 -0.2996  1.8149  1.7313
  136SOPE   H7S14735   6.250   0.897   2.862  0.6258  0.0497  0.0608
  136SOPE   C2814736   6.125   0.785   2.978  0.3134 -0.0471 -0.4881
  136SOPE   H8R14737   6.039   0.822   2.920  0.8637 -0.7272 -1.7821
  136SOPE   H8S14738   6.104   0.679   3.005 -0.8342  0.5241  1.0191
  136SOPE   C2914739   6.161   0.858   3.102  0.0052  0.1525 -0.2779
  136SOPE   H9114740   6.182   0.964   3.083 -1.2550  0.8141  1.6124
  136SOPE  C21014741   6.161   0.822   3.237 -0.4329 -0.6666  0.3126
  136SOPE  H10114742   6.195   0.892   3.314 -0.0446 -1.4348  0.8466
  136SOPE  C21114743   6.113   0.692   3.284 -0.1203  0.2221  0.4407
  136SOPE  H11R14744   6.199   0.622   3.291 -0.4835 -0.2571  0.2636
  136SOPE  H11S14745   6.037   0.651   3.213 -0.5506 -0.2007  1.1366
  136SOPE  C21214746   6.044   0.700   3.415 -0.0675 -0.6121 -0.1743
  136SOPE  H12R14747   5.977   0.788   3.420  1.9959  1.0055  0.5357
  136SOPE  H12S14748   6.118   0.723   3.495 -0.2527  1.8281 -0.6268
  136SOPE  C21314749   5.991   0.566   3.469 -0.3944 -1.1430  0.5251
  136SOPE  H13R14750   6.076   0.497   3.485  0.4818 -0.0090  0.9218
  136SOPE  H13S14751   5.922   0.524   3.393 -0.1869  1.1406 -1.0429
  136SOPE  C21414752   5.920   0.576   3.603  0.8302 -0.2000 -0.1281
  136SOPE  H14R14753   5.841   0.649   3.573  0.1707 -1.2944 -1.1113
  136SOPE  H14S14754   5.985   0.618   3.683  0.1927 -0.8768  0.7712
  136SOPE  C21514755   5.844   0.458   3.660 -0.2106  0.5631  0.3802
  136SOPE  H15R14756   5.900   0.366   3.688  0.8889  1.1520  0.1774
  136SOPE  H15S14757   5.785   0.405   3.582  0.4158 -1.8485  1.4667
  136SOPE  C21614758   5.755   0.499   3.779 -0.1410  0.3638 -0.1491
  136SOPE  H16R14759   5.716   0.600   3.756  1.5705  0.4577 -3.1512
  136SOPE  H16S14760   5.818   0.518   3.868  0.1743  1.5176 -0.6033
  136SOPE  C21714761   5.650   0.401   3.825 -0.4409  0.3531  0.0391
  136SOPE  H17R14762   5.651   0.317   3.751  0.3636  1.6841 -1.5275
  136SOPE  H17S14763   5.546   0.440   3.822 -1.3105 -1.7356  0.8544
  136SOPE  C21814764   5.669   0.356   3.970 -0.3540 -0.2334  0.2519
  136SOPE  H18R14765   5.599   0.273   3.992  1.8817 -2.2548  0.1264
  136SOPE  H18S14766   5.641   0.437   4.041 -0.1454  0.7926 -0.7968
  136SOPE  H18T14767   5.770   0.320   3.996 -0.1920 -0.1830 -0.2857
  136SOPE   C3314768   6.427   0.373   2.735  0.0413 -0.3185 -0.0574
  136SOPE   H3X14769   6.435   0.484   2.733 -3.5050  0.0310  0.0335
  136SOPE   H3Y14770   6.512   0.335   2.796  0.2795 -4.1397 -2.4252
  136SOPE   C3414771   6.298   0.333   2.790 -0.0308 -0.3008  0.1355
  136SOPE   H4X14772   6.288   0.222   2.792  0.9180 -0.3867  0.5435
  136SOPE   H4Y14773   6.212   0.372   2.731 -0.6592 -1.0304  0.5360
  136SOPE   C3514774   6.286   0.378   2.935  0.4168 -0.3719 -0.0854
  136SOPE   H5X14775   6.182   0.384   2.974  0.4866  3.0074 -0.1291
  136SOPE   H5Y14776   6.325   0.479   2.963  0.5931 -0.5163  0.1974
  136SOPE   C3614777   6.346   0.284   3.047  0.6289 -0.6137  0.0101
  136SOPE   H6X14778   6.455   0.303   3.038  0.6908 -0.3537  1.2116
  136SOPE   H6Y14779   6.324   0.178   3.022  2.5435 -1.0512 -0.0104
  136SOPE   C3714780   6.278   0.314   3.180 -0.3502 -0.2364 -0.0366
  136SOPE   H7X14781   6.167   0.306   3.169 -1.0214  3.0180  2.5582
  136SOPE   H7Y14782   6.299   0.420   3.207 -0.3471 -0.3298  0.3308
  136SOPE   C3814783   6.328   0.224   3.293  0.2326  0.2698 -0.4994
  136SOPE   H8X14784   6.437   0.203   3.284  0.0222 -2.1096  1.4467
  136SOPE   H8Y14785   6.271   0.130   3.277 -1.5934  0.4656  3.5472
  136SOPE   C3914786   6.283   0.275   3.437  0.2224 -0.7391 -0.8870
  136SOPE   H9X14787   6.179   0.307   3.419  1.0043  1.5585 -1.6458
  136SOPE   H9Y14788   6.346   0.364   3.458  0.0903 -0.6238 -0.9780
  136SOPE  C31014789   6.269   0.173   3.553 -0.4414 -0.0270  0.0878
  136SOPE  H10X14790   6.370   0.129   3.562 -1.2640 -2.6187 -2.0728
  136SOPE  H10Y14791   6.199   0.091   3.525 -0.1559  0.2421 -1.5604
  136SOPE  C31114792   6.214   0.242   3.685 -0.3459 -0.0858 -0.0850
  136SOPE  H11X14793   6.114   0.273   3.647  0.2292 -2.3341 -3.9348
  136SOPE  H11Y14794   6.282   0.323   3.716  0.3836 -0.8504  0.3611
  136SOPE  C31214795   6.190   0.140   3.794 -0.0571 -0.4089 -0.2028
  136SOPE  H12X14796   6.296   0.126   3.825  0.9032  0.7402 -2.7210
  136SOPE  H12Y14797   6.161   0.041   3.752  0.5018 -1.1237  1.0279
  136SOPE  C31314798   6.105   0.199   3.901  0.3184 -0.2983  0.2359
  136SOPE  H13X14799   6.010   0.226   3.851 -1.2122 -3.7055  0.9652
  136SOPE  H13Y14800   6.151   0.287   3.950 -1.8857  0.4114  1.1205
  136SOPE  C31414801   6.060   0.104   4.010 -0.4992  0.1391 -0.1325
  136SOPE  H14X14802   5.972   0.048   3.972 -1.1380 -1.5237  3.3709
  136SOPE  H14Y14803   6.022   0.159   4.100  0.2615  0.1686  0.1805
  136SOPE  C31514804   6.175   0.007   4.054 -0.0155  0.3901 -0.1992
  136SOPE  H15X14805   6.255   0.075   4.089  1.4209 -1.5836  0.5113
  136SOPE  H15Y14806   6.217  -0.044   3.964  0.7362 -0.1459  0.4385
  136SOPE  C31614807   6.147  -0.091   4.164  0.8671 -0.8229  0.4164
  136SOPE  H16X14808   6.186  -0.188   4.125 -1.3872 -1.1268 -1.2714
  136SOPE  H16Y14809   6.040  -0.113   4.182  1.0991 -1.3227  1.2471
  136SOPE  C31714810   6.221  -0.052   4.294  1.1417  0.1348  0.1715
  136SOPE  H17X14811   6.174  -0.126   4.363  2.4195  0.1247  1.0675
  136SOPE  H17Y14812   6.206   0.054   4.325  0.5652  0.0680  0.1260
  136SOPE  C31814813   6.370  -0.081   4.291  0.0784 -0.2920  0.3724
  136SOPE  H18X14814   6.435  -0.028   4.364  3.2316  0.0733 -2.4545
  136SOPE  H18Y14815   6.409  -0.065   4.188  1.7560 -0.0249  1.0129
  136SOPE  H18Z14816   6.373  -0.186   4.326 -4.1730 -0.1812  1.6945
  137POPC     N14817   4.436   2.315   6.430  0.2404 -0.7800  0.3933
  137POPC   C1214818   4.428   2.255   6.293  0.0190  0.2454 -0.8078
  137POPC  H12A14819   4.512   2.187   6.285 -0.0987 -0.0961  0.6688
  137POPC  H12B14820   4.439   2.328   6.214  0.0678  1.8993  0.6758
  137POPC   C1314821   4.332   2.425   6.434  0.9537 -0.0584 -0.5916
  137POPC  H13A14822   4.361   2.509   6.373  2.8083  0.0427  0.3424
  137POPC  H13B14823   4.229   2.394   6.430 -0.0264  2.8990 -1.4881
  137POPC  H13C14824   4.328   2.466   6.534  1.4242 -1.5771  0.0780
  137POPC   C1414825   4.402   2.208   6.535 -0.2009 -0.3179  0.5797
  137POPC  H14A14826   4.321   2.142   6.506  0.2822 -0.4627 -0.4626
  137POPC  H14B14827   4.492   2.154   6.563  0.7768  1.4422  0.9687
  137POPC  H14C14828   4.373   2.269   6.619  1.0650  0.3921  0.5269
  137POPC   C1514829   4.573   2.369   6.457  0.2345 -0.2205 -0.7023
  137POPC  H15A14830   4.607   2.425   6.372  1.8157  0.9042  0.6114
  137POPC  H15B14831   4.652   2.299   6.478 -0.7308 -0.8415  1.0860
  137POPC  H15C14832   4.570   2.438   6.540 -0.1201  0.1035 -0.9774
  137POPC   C1114833   4.292   2.192   6.251 -0.9277 -0.4162 -0.6479
  137POPC  H11A14834   4.281   2.166   6.144  2.4425 -2.0838 -0.7387
  137POPC  H11B14835   4.217   2.272   6.267 -2.7847 -2.4527  1.6829
  137POPC     P14836   4.302   1.935   6.282 -0.1742  0.1460 -0.4153
  137POPC   O1314837   4.275   1.850   6.394 -0.9616 -0.5060  0.0766
  137POPC   O1414838   4.445   1.929   6.228  0.5645 -0.4065  0.4495
  137POPC   O1214839   4.253   2.074   6.333  0.7649  0.2220 -0.3421
  137POPC   O1114840   4.206   1.894   6.167  0.3675 -0.6220 -0.6009
  137POPC    C114841   4.061   1.910   6.182 -0.3040  0.1856  0.1661
  137POPC    HA14842   4.035   1.993   6.251  1.9052 -0.8825  2.4563
  137POPC    HB14843   4.010   1.822   6.227 -0.6635  0.5613  0.5012
  137POPC    C214844   3.997   1.938   6.043 -0.6592  0.0691 -0.0263
  137POPC    HS14845   3.994   1.841   5.988  0.7748 -0.4420  0.7375
  137POPC   O2114846   4.078   2.038   5.984  0.5628  0.4759 -0.8792
  137POPC   C2114847   4.168   1.993   5.897 -0.1876 -0.3554  0.2555
  137POPC   O2214848   4.190   1.875   5.877 -0.3347 -0.0246  0.5129
  137POPC   C2214849   4.211   2.116   5.815  0.3022 -0.0465  0.0011
  137POPC   H2R14850   4.320   2.125   5.801  0.4508  0.4220  1.2882
  137POPC   H2S14851   4.176   2.208   5.868  0.4113  0.2258 -0.3981
  137POPC    C314852   3.851   1.989   6.060 -0.0553  0.1797 -0.2535
  137POPC    HX14853   3.854   2.049   6.153  2.0421 -2.4216  1.4749
  137POPC    HY14854   3.789   1.900   6.084  0.4069 -0.6107 -1.8642
  137POPC   O3114855   3.797   2.050   5.940 -0.5949 -0.3569  0.0017
  137POPC   C3114856   3.799   2.178   5.939 -0.9699 -0.2360 -1.0392
  137POPC   O3214857   3.859   2.253   6.017  0.1399  0.0610  0.0887
  137POPC   C3214858   3.726   2.233   5.823  0.0644  0.5005 -0.3509
  137POPC   H2X14859   3.619   2.215   5.843  0.0965 -0.1090 -0.7194
  137POPC   H2Y14860   3.743   2.169   5.734 -1.4903  1.9214 -1.7269
  137POPC   C2314861   4.126   2.123   5.677 -0.6578 -0.8759 -0.6892
  137POPC   H3R14862   4.142   2.222   5.628  0.7094 -0.3185  0.7732
  137POPC   H3S14863   4.022   2.109   5.711 -0.5120  0.7817  0.6035
  137POPC   C2414864   4.162   2.022   5.569  0.8672 -0.5032 -0.3796
  137POPC   H4R14865   4.162   1.922   5.618  1.4635 -0.8590 -1.0787
  137POPC   H4S14866   4.267   2.028   5.535  1.5357 -1.1491  1.4321
  137POPC   C2514867   4.057   2.036   5.455  0.2221 -0.3915  0.4183
  137POPC   H5R14868   4.079   2.131   5.400  0.0938 -0.7924 -0.3391
  137POPC   H5S14869   3.950   2.033   5.485 -0.3177  1.5667 -1.0420
  137POPC   C2614870   4.071   1.927   5.350 -0.3524  0.2099  0.2282
  137POPC   H6R14871   4.042   1.831   5.398 -1.5453 -0.7952 -2.2932
  137POPC   H6S14872   4.179   1.923   5.323 -0.0842  0.4514  1.2414
  137POPC   C2714873   3.983   1.936   5.225 -0.5972 -0.5707  0.3003
  137POPC   H7R14874   4.013   2.028   5.169 -0.1227  0.6672  2.4539
  137POPC   H7S14875   3.882   1.971   5.255 -0.5508  0.4426 -0.6687
  137POPC   C2814876   3.984   1.818   5.137 -0.6193  0.0293  0.0548
  137POPC   H8R14877   3.903   1.842   5.064  0.5226 -0.8787 -1.5670
  137POPC   H8S14878   3.944   1.730   5.192 -0.8190  0.7433  1.0753
  137POPC   C2914879   4.104   1.772   5.066 -0.6901  0.2705 -0.7462
  137POPC   H9114880   4.189   1.737   5.127 -2.1684 -1.8278  0.2418
  137POPC  C21014881   4.112   1.764   4.932 -0.0883  0.2287 -0.1080
  137POPC  H10114882   4.213   1.742   4.895  0.5235 -1.5439  2.3044
  137POPC  C21114883   4.003   1.789   4.824  0.0537 -0.7441 -0.4110
  137POPC  H11R14884   3.995   1.898   4.802 -1.6750 -0.5925  0.7747
  137POPC  H11S14885   3.899   1.767   4.856  0.5020 -0.9448  0.9721
  137POPC  C21214886   4.022   1.725   4.690 -0.3747  0.3661  0.3443
  137POPC  H12R14887   3.938   1.737   4.618  0.1649 -0.4172 -0.4411
  137POPC  H12S14888   4.015   1.615   4.700 -1.6136 -0.3780 -5.1567
  137POPC  C21314889   4.144   1.771   4.614  0.6014 -0.6487  0.3850
  137POPC  H13R14890   4.243   1.746   4.656  2.2258 -0.5778 -3.0698
  137POPC  H13S14891   4.148   1.882   4.613  1.5292 -0.6760 -0.9649
  137POPC  C21414892   4.147   1.720   4.468  0.4193  0.8503 -0.3117
  137POPC  H14R14893   4.064   1.762   4.407  1.1878  0.5879 -1.5707
  137POPC  H14S14894   4.128   1.611   4.468 -0.2024  0.9571 -0.2556
  137POPC  C21514895   4.278   1.766   4.394  0.4744  0.4645  0.1360
  137POPC  H15R14896   4.370   1.752   4.453  1.0308  3.1387  0.0338
  137POPC  H15S14897   4.281   1.876   4.405 -0.1291  0.5607 -0.5376
  137POPC  C21614898   4.284   1.717   4.251  0.1533  0.4015 -0.2872
  137POPC  H16R14899   4.362   1.776   4.198 -2.8855  2.8788 -2.3336
  137POPC  H16S14900   4.185   1.734   4.205 -0.0102  1.3005  0.3829
  137POPC  C21714901   4.311   1.566   4.231 -0.3993 -0.4860  0.3071
  137POPC  H17R14902   4.234   1.518   4.295 -1.4597  1.9479  0.9859
  137POPC  H17S14903   4.411   1.536   4.268 -0.6709 -2.2828 -0.3236
  137POPC  C21814904   4.287   1.523   4.084 -0.2111 -0.6307 -0.1193
  137POPC  H18R14905   4.336   1.426   4.062  2.8472  0.4439  1.3631
  137POPC  H18S14906   4.339   1.590   4.012  1.2704 -0.6539  0.8731
  137POPC  H18T14907   4.179   1.501   4.071  0.2801 -2.4051 -1.6601
  137POPC   C3314908   3.738   2.385   5.799 -0.2066 -0.5905 -0.1089
  137POPC   H3X14909   3.747   2.438   5.896 -1.7254  0.6748 -0.6165
  137POPC   H3Y14910   3.643   2.421   5.752 -1.7386 -1.3038  2.2709
  137POPC   C3414911   3.862   2.429   5.717 -0.3621  0.0871 -0.4482
  137POPC   H4X14912   3.953   2.379   5.757  0.0517  0.4412 -0.9238
  137POPC   H4Y14913   3.884   2.538   5.725 -0.5230  0.0045  2.0771
  137POPC   C3514914   3.850   2.391   5.568 -0.0639  0.0248  0.4391
  137POPC   H5X14915   3.758   2.427   5.517  0.5800  3.2938  1.3865
  137POPC   H5Y14916   3.852   2.279   5.569  2.8646 -0.0035  0.2942
  137POPC   C3614917   3.969   2.447   5.484 -0.0956  0.0145  0.1465
  137POPC   H6X14918   4.060   2.405   5.532 -0.8106 -0.7339  0.8857
  137POPC   H6Y14919   3.964   2.557   5.495 -1.6063  0.0929 -0.9480
  137POPC   C3714920   3.959   2.411   5.339 -0.3336 -0.7895 -0.0766
  137POPC   H7X14921   3.872   2.457   5.288 -0.3416  1.7435  2.0292
  137POPC   H7Y14922   3.947   2.300   5.332 -0.9698 -0.6171 -2.1451
  137POPC   C3814923   4.068   2.468   5.244  0.4983  0.8028 -0.1943
  137POPC   H8X14924   4.168   2.477   5.291 -0.8450  1.6443  2.7524
  137POPC   H8Y14925   4.037   2.572   5.220  1.0151  0.8734 -0.5524
  137POPC   C3914926   4.076   2.384   5.118 -0.2120  0.1356  0.4233
  137POPC   H9X14927   3.974   2.378   5.075 -0.3965  0.6652  0.7744
  137POPC   H9Y14928   4.096   2.277   5.141 -1.2080  0.1455  1.4066
  137POPC  C31014929   4.175   2.427   5.011  0.0955 -0.0336 -0.5113
  137POPC  H10X14930   4.271   2.433   5.067  0.7636 -2.5675 -1.2937
  137POPC  H10Y14931   4.142   2.518   4.956  4.6770  2.3483  0.1479
  137POPC  C31114932   4.198   2.325   4.902 -0.4514  0.3923  0.0900
  137POPC  H11X14933   4.099   2.283   4.872 -0.1750 -0.3466  0.1853
  137POPC  H11Y14934   4.266   2.239   4.923 -1.9143 -1.0078 -0.6914
  137POPC  C31214935   4.265   2.385   4.773 -0.2881 -0.5297  0.3950
  137POPC  H12X14936   4.338   2.468   4.787  0.4817 -0.3907 -3.4252
  137POPC  H12Y14937   4.180   2.432   4.720  0.2137  1.7111  1.4541
  137POPC  C31314938   4.337   2.288   4.689  0.4456 -0.2553 -0.1073
  137POPC  H13X14939   4.280   2.196   4.666  0.9303 -0.3826 -0.8269
  137POPC  H13Y14940   4.422   2.265   4.757  1.2587  0.4224 -0.8680
  137POPC  C31414941   4.387   2.344   4.560  0.2764 -0.4355  0.2199
  137POPC  H14X14942   4.446   2.264   4.512  1.4891 -0.1854  1.2516
  137POPC  H14Y14943   4.446   2.436   4.579 -0.7789  0.1602  0.7592
  137POPC  C31514944   4.271   2.373   4.464  0.5768  0.2949  0.2047
  137POPC  H15X14945   4.172   2.334   4.496  0.4794  0.0936 -0.3299
  137POPC  H15Y14946   4.295   2.314   4.373  1.6585  0.8058  0.1439
  137POPC  C31614947   4.263   2.521   4.423 -0.1187  0.2187 -0.3935
  137POPC  H16X14948   4.355   2.559   4.372  1.6612  0.5350  2.7958
  137POPC  H16Y14949   4.261   2.577   4.518 -2.3016 -0.2874 -0.0826
  137POPC  H16Z14950   4.178   2.549   4.357  0.6012 -0.6850 -1.7820
  138POPC     N14951   5.795   1.778   6.469  0.0307  0.0166 -0.1809
  138POPC   C1214952   5.858   1.822   6.331  0.1533 -1.2109  0.1344
  138POPC  H12A14953   5.820   1.767   6.247 -0.7775 -0.3295 -0.0389
  138POPC  H12B14954   5.966   1.814   6.341  0.5331  2.8578  1.2189
  138POPC   C1314955   5.837   1.638   6.502 -0.2298  0.9997  0.3815
  138POPC  H13A14956   5.940   1.629   6.473 -1.0018 -1.9222 -1.8922
  138POPC  H13B14957   5.817   1.606   6.603  0.7685  0.1256  0.3102
  138POPC  H13C14958   5.793   1.566   6.435  1.1966 -0.0199  0.5124
  138POPC   C1414959   5.836   1.865   6.584 -0.5279 -0.4103  0.7082
  138POPC  H14A14960   5.789   1.836   6.677  0.0547  1.1615  1.5469
  138POPC  H14B14961   5.943   1.867   6.597 -0.5694  0.5452  1.0389
  138POPC  H14C14962   5.820   1.969   6.558 -0.1718 -0.7882 -1.1778
  138POPC   C1514963   5.645   1.779   6.458 -0.3274  0.8384  0.4027
  138POPC  H15A14964   5.622   1.690   6.401  2.5127 -0.8839  1.7268
  138POPC  H15B14965   5.601   1.863   6.407 -3.7571 -0.8676  0.2037
  138POPC  H15C14966   5.594   1.780   6.554 -0.2460 -2.7350  0.6239
  138POPC   C1114967   5.841   1.971   6.293 -0.5562 -0.5840  0.6005
  138POPC  H11A14968   5.908   1.989   6.207 -1.1873 -0.4601  0.1245
  138POPC  H11B14969   5.872   2.031   6.382 -1.2996  1.1953 -0.2839
  138POPC     P14970   5.653   2.024   6.124 -0.1335  0.3106  0.1659
  138POPC   O1314971   5.727   2.133   6.063  0.7139 -0.0855 -0.4909
  138POPC   O1414972   5.508   2.027   6.127  0.0051 -0.5443 -0.2511
  138POPC   O1214973   5.707   2.012   6.269 -0.4452  0.0351  0.3189
  138POPC   O1114974   5.699   1.890   6.058 -0.5192 -0.1125  0.5258
  138POPC    C114975   5.689   1.868   5.915 -0.2635 -0.3306  0.0498
  138POPC    HA14976   5.610   1.926   5.862  1.5162  0.7865 -1.5435
  138POPC    HB14977   5.677   1.760   5.890  1.1764 -0.4710 -0.0951
  138POPC    C214978   5.824   1.904   5.846  0.3033 -0.1354  0.4736
  138POPC    HS14979   5.866   1.993   5.897  2.9879 -0.9419 -0.1861
  138POPC   O2114980   5.810   1.922   5.704 -0.0887 -0.3911 -0.2789
  138POPC   C2114981   5.906   1.986   5.653  0.4031 -0.6903 -0.2101
  138POPC   O2214982   5.998   2.040   5.717 -0.0158 -0.0559  0.2898
  138POPC   C2214983   5.896   1.983   5.504  0.0563  0.1167 -0.5528
  138POPC   H2R14984   5.793   2.011   5.473  0.4489  1.7027 -0.5070
  138POPC   H2S14985   5.907   1.877   5.472  1.5577 -0.5582  1.9541
  138POPC    C314986   5.942   1.805   5.873  0.1359  0.4113 -0.5729
  138POPC    HX14987   5.947   1.794   5.984 -0.9899 -1.2860 -0.6582
  138POPC    HY14988   6.041   1.839   5.837  0.2387  0.5878 -0.1272
  138POPC   O3114989   5.916   1.672   5.819  0.5231 -0.1540  0.2710
  138POPC   C3114990   5.914   1.563   5.898  0.0923 -0.2777  0.0503
  138POPC   O3214991   5.909   1.560   6.023 -0.0485 -0.4580  0.1777
  138POPC   C3214992   5.935   1.437   5.814  0.8735 -0.4715  0.8444
  138POPC   H2X14993   5.837   1.386   5.813 -0.4320  1.8712 -0.8815
  138POPC   H2Y14994   6.010   1.371   5.862  2.5618  1.2158  0.6618
  138POPC   C2314995   5.982   2.096   5.445 -0.4747 -0.5319 -0.2227
  138POPC   H3R14996   6.090   2.076   5.463 -0.3216  1.8712  2.0514
  138POPC   H3S14997   5.964   2.195   5.492  1.6229 -0.4173  0.4363
  138POPC   C2414998   5.940   2.101   5.302 -0.0597 -0.6668  0.2298
  138POPC   H4R14999   5.831   2.117   5.285 -0.0252 -1.1533 -0.4964
  138POPC   H4S15000   5.948   2.002   5.254 -0.3906  0.1769 -1.6553
  138POPC   C2515001   6.019   2.207   5.214 -0.0844  0.5977  0.0302
  138POPC   H5R15002   6.127   2.184   5.227 -0.3250 -0.7179 -0.1687
  138POPC   H5S15003   6.003   2.314   5.243 -0.1873  0.5924 -0.0070
  138POPC   C2615004   5.995   2.186   5.063 -0.0373  0.2422  0.2072
  138POPC   H6R15005   5.895   2.222   5.030  0.5148  0.4083 -1.3945
  138POPC   H6S15006   5.994   2.077   5.039 -0.8562 -0.0960  1.6481
  138POPC   C2715007   6.100   2.264   4.981 -0.7367 -0.2713  0.3279
  138POPC   H7R15008   6.192   2.248   5.041 -2.2665 -2.5301  2.2570
  138POPC   H7S15009   6.075   2.372   4.987  3.5894  0.9816 -0.5889
  138POPC   C2815010   6.112   2.210   4.839 -0.0303  0.5851  0.3574
  138POPC   H8R15011   6.030   2.143   4.805  0.5701 -0.0004  0.0382
  138POPC   H8S15012   6.191   2.132   4.841 -0.0538  0.5463  3.2163
  138POPC   C2915013   6.155   2.324   4.749  0.3717  0.0375  0.2503
  138POPC   H9115014   6.233   2.389   4.792  0.3414 -0.3567  0.9067
  138POPC  C21015015   6.100   2.355   4.633  0.4932  0.3442 -0.8923
  138POPC  H10115016   6.144   2.432   4.567  2.6908 -0.5736 -0.5847
  138POPC  C21115017   5.988   2.276   4.571  0.7111  0.0460 -0.1921
  138POPC  H11R15018   5.996   2.166   4.573 -2.9145 -0.3542  2.5833
  138POPC  H11S15019   5.988   2.311   4.465  0.2578 -0.8733 -0.4982
  138POPC  C21215020   5.845   2.308   4.641  0.1608  0.2093  0.5729
  138POPC  H12R15021   5.834   2.417   4.654 -0.8342  0.0156  1.5181
  138POPC  H12S15022   5.839   2.249   4.736  0.3465  1.6470  1.5125
  138POPC  C21315023   5.722   2.259   4.559  0.5240 -0.3332 -0.8418
  138POPC  H13R15024   5.638   2.248   4.632  1.4526 -1.9855  0.0526
  138POPC  H13S15025   5.748   2.156   4.526  1.7213  0.2368 -1.7380
  138POPC  C21415026   5.674   2.353   4.449 -0.3330  0.0159 -0.2670
  138POPC  H14R15027   5.749   2.342   4.369  3.0105  0.6784  2.5544
  138POPC  H14S15028   5.679   2.455   4.492  1.5200  0.0859 -0.5735
  138POPC  C21515029   5.534   2.306   4.394 -0.7037  0.2464 -0.1872
  138POPC  H15R15030   5.525   2.376   4.308 -1.1322  0.5957  0.1409
  138POPC  H15S15031   5.461   2.340   4.471  1.8236 -0.6685  2.8508
  138POPC  C21615032   5.530   2.155   4.364  0.4481 -1.1027 -0.4376
  138POPC  H16R15033   5.538   2.088   4.452 -2.6568 -1.1027 -0.0529
  138POPC  H16S15034   5.619   2.139   4.300 -0.5708  1.1787 -2.6203
  138POPC  C21715035   5.408   2.118   4.285  0.0009  0.8587 -0.2257
  138POPC  H17R15036   5.391   2.187   4.200  0.2129 -0.2069 -1.1463
  138POPC  H17S15037   5.324   2.123   4.358  1.3844  1.2210  1.4258
  138POPC  C21815038   5.405   1.978   4.228  0.0348 -0.1129 -0.1918
  138POPC  H18R15039   5.423   1.913   4.316  3.3775  2.2262  1.0469
  138POPC  H18S15040   5.491   1.953   4.163  1.0130  1.5176  0.4352
  138POPC  H18T15041   5.309   1.949   4.180 -0.1399  1.1790 -0.6544
  138POPC   C3315042   5.979   1.468   5.666 -0.6023 -0.5256  0.1929
  138POPC   H3X15043   6.051   1.391   5.628  3.0070  2.2614  0.7608
  138POPC   H3Y15044   6.042   1.559   5.661  0.8535 -1.4825  0.2946
  138POPC   C3415045   5.858   1.511   5.573  0.0810  0.0007 -0.2951
  138POPC   H4X15046   5.809   1.599   5.620 -0.6865  0.0645 -1.2078
  138POPC   H4Y15047   5.779   1.433   5.574 -0.3227  0.4090  0.4115
  138POPC   C3515048   5.905   1.534   5.427 -0.3485  0.4088 -0.8380
  138POPC   H5X15049   5.962   1.442   5.405  0.1054  0.2956  0.6867
  138POPC   H5Y15050   5.981   1.615   5.428 -0.9971  1.1462  2.5766
  138POPC   C3615051   5.803   1.562   5.317  0.1338 -0.4232  0.1269
  138POPC   H6X15052   5.759   1.662   5.336  0.6991 -0.4398  1.6996
  138POPC   H6Y15053   5.712   1.502   5.337 -0.9275  1.8654  2.9576
  138POPC   C3715054   5.854   1.553   5.176  0.3596 -0.0595  0.0096
  138POPC   H7X15055   5.893   1.449   5.168 -0.3501 -0.4421  1.2436
  138POPC   H7Y15056   5.938   1.620   5.148 -1.3503  1.3145 -2.0625
  138POPC   C3815057   5.750   1.591   5.070 -0.4843  0.0619 -0.7345
  138POPC   H8X15058   5.655   1.541   5.099 -1.0014  0.2117 -2.0565
  138POPC   H8Y15059   5.792   1.543   4.978 -0.5690 -1.9341  0.2068
  138POPC   C3915060   5.736   1.745   5.059 -0.4526 -0.2264 -0.3954
  138POPC   H9X15061   5.831   1.789   5.024 -0.8609  0.0541 -1.1578
  138POPC   H9Y15062   5.714   1.790   5.158 -2.0955 -3.9333  1.1498
  138POPC  C31015063   5.623   1.798   4.973 -0.1813 -0.0104 -0.3371
  138POPC  H10X15064   5.613   1.908   4.983 -0.8806 -0.2143  1.9130
  138POPC  H10Y15065   5.528   1.750   5.004  0.0517 -0.5889 -0.5183
  138POPC  C31115066   5.640   1.762   4.819 -0.3086  0.0343 -0.8195
  138POPC  H11X15067   5.665   1.654   4.814 -1.2340 -0.4106  2.2247
  138POPC  H11Y15068   5.730   1.815   4.780  1.9931 -2.5976  0.6030
  138POPC  C31215069   5.508   1.777   4.746 -0.1109  0.1784  0.8030
  138POPC  H12X15070   5.449   1.868   4.771  1.9720  1.8780 -0.1007
  138POPC  H12Y15071   5.454   1.682   4.764  0.4196 -0.4941 -0.9713
  138POPC  C31315072   5.539   1.768   4.595  0.0272  1.2222 -0.3081
  138POPC  H13X15073   5.633   1.826   4.587  1.9766 -1.2177  2.3704
  138POPC  H13Y15074   5.459   1.807   4.529 -0.7529 -1.2909 -0.9846
  138POPC  C31415075   5.580   1.632   4.540  0.8346  0.1782  1.0955
  138POPC  H14X15076   5.654   1.581   4.605  2.6037  3.5424  1.9333
  138POPC  H14Y15077   5.641   1.628   4.446  0.5630 -1.7623  0.9506
  138POPC  C31515078   5.464   1.540   4.489 -0.5547  0.6242 -0.1350
  138POPC  H15X15079   5.428   1.591   4.397 -0.9048 -0.6751 -0.7361
  138POPC  H15Y15080   5.388   1.537   4.570  1.3450 -1.9761  1.7217
  138POPC  C31615081   5.511   1.403   4.452  0.2814 -0.2411 -0.8125
  138POPC  H16X15082   5.566   1.400   4.355  0.5294  0.4562 -0.6954
  138POPC  H16Y15083   5.424   1.334   4.443  0.0833  0.1709 -2.4017
  138POPC  H16Z15084   5.573   1.355   4.530  0.2519  0.6412 -0.2406
  139POPC     N15085   5.340   3.306   1.879  0.3528  0.3459 -0.6842
  139POPC   C1215086   5.489   3.273   1.855 -0.5440 -0.2235  0.2493
  139POPC  H12A15087   5.508   3.271   1.749 -0.2666  0.0681  0.2922
  139POPC  H12B15088   5.515   3.177   1.897  3.2703  0.8691  0.7967
  139POPC   C1315089   5.258   3.202   1.817  0.1048  0.5750 -0.2387
  139POPC  H13A15090   5.267   3.101   1.854  1.8814  0.8060  0.0503
  139POPC  H13B15091   5.157   3.239   1.816 -0.0774  0.1235  0.7212
  139POPC  H13C15092   5.275   3.190   1.711  0.0340  1.2672 -0.3296
  139POPC   C1415093   5.321   3.313   2.033  0.3786 -0.5405 -0.4042
  139POPC  H14A15094   5.227   3.360   2.060  1.4017  1.8918 -0.8263
  139POPC  H14B15095   5.325   3.220   2.086 -2.6842 -0.9567 -0.7277
  139POPC  H14C15096   5.391   3.382   2.077  0.3482 -1.0596  0.4650
  139POPC   C1515097   5.309   3.439   1.828  0.0159  0.1395  0.1945
  139POPC  H15A15098   5.304   3.440   1.720  0.1553  1.7242  0.1759
  139POPC  H15B15099   5.387   3.510   1.852  0.2849 -0.2628  0.5148
  139POPC  H15C15100   5.213   3.468   1.866 -0.9194 -2.3784 -0.0876
  139POPC   C1115101   5.601   3.367   1.912 -0.4571 -1.1232  0.9207
  139POPC  H11A15102   5.581   3.467   1.868 -0.3939 -1.7736 -0.6314
  139POPC  H11B15103   5.699   3.338   1.868  0.7167  0.0657  2.6257
  139POPC     P15104   5.712   3.323   2.147 -0.2789  0.2918 -0.0689
  139POPC   O1315105   5.840   3.385   2.114 -0.1512 -0.2724  0.1685
  139POPC   O1415106   5.709   3.179   2.134  0.5774  0.2836 -0.0289
  139POPC   O1215107   5.600   3.384   2.059  0.4897 -0.5471  0.5729
  139POPC   O1115108   5.678   3.364   2.294  0.1197  0.5248 -0.1775
  139POPC    C115109   5.560   3.442   2.331  0.0005  0.5226 -0.2679
  139POPC    HA15110   5.548   3.430   2.441  0.0175  1.5011 -0.1553
  139POPC    HB15111   5.468   3.404   2.281 -0.5586  2.1709 -0.5513
  139POPC    C215112   5.584   3.595   2.299  1.1184  0.4136  0.7863
  139POPC    HS15113   5.610   3.598   2.191  2.1458  0.0151  1.0177
  139POPC   O2115114   5.688   3.650   2.381 -0.8621  0.3260  0.0268
  139POPC   C2115115   5.725   3.773   2.361 -0.0816 -0.3466 -0.1406
  139POPC   O2215116   5.688   3.845   2.267  0.5319  0.5333 -0.2772
  139POPC   C2215117   5.822   3.821   2.472  0.6771 -0.0428  0.1893
  139POPC   H2R15118   5.919   3.846   2.425 -0.0367 -0.6016 -1.7125
  139POPC   H2S15119   5.818   3.735   2.542 -1.3040  0.4855  0.8083
  139POPC    C315120   5.450   3.675   2.309 -0.9974  0.3341  0.7222
  139POPC    HX15121   5.375   3.609   2.260  1.5625 -1.0831 -1.6006
  139POPC    HY15122   5.450   3.763   2.242 -3.3006 -1.0527 -1.2803
  139POPC   O3115123   5.426   3.702   2.446 -0.2877 -0.3729  0.0644
  139POPC   C3115124   5.360   3.615   2.518  0.4190  0.5550  0.7405
  139POPC   O3215125   5.284   3.530   2.471 -0.2087  0.3000  0.1151
  139POPC   C3215126   5.391   3.639   2.670  0.1363  0.3466 -0.1097
  139POPC   H2X15127   5.342   3.738   2.681  1.5587  1.2232 -1.2695
  139POPC   H2Y15128   5.501   3.646   2.681  0.1168 -0.4538  0.7251
  139POPC   C2315129   5.761   3.947   2.548  0.0512 -0.3080 -0.1416
  139POPC   H3R15130   5.747   4.028   2.474  0.5401 -0.2122 -0.1325
  139POPC   H3S15131   5.829   3.988   2.626 -0.3468  1.6720 -0.7845
  139POPC   C2415132   5.625   3.925   2.606 -0.5144  0.1945 -0.3965
  139POPC   H4R15133   5.642   3.840   2.675  1.7910  1.3006  0.5136
  139POPC   H4S15134   5.546   3.906   2.530  0.0849  0.1763 -1.0263
  139POPC   C2515135   5.585   4.042   2.709  0.0781  0.1014  0.6503
  139POPC   H5R15136   5.601   4.140   2.659  1.6569  1.0354  2.8390
  139POPC   H5S15137   5.646   4.036   2.802 -1.0399 -3.7340  1.2880
  139POPC   C2615138   5.442   4.031   2.750  0.2667  0.4481 -0.1417
  139POPC   H6R15139   5.439   3.953   2.829  1.9086  0.7444  0.2556
  139POPC   H6S15140   5.373   4.018   2.664  1.9527  1.0118 -1.6430
  139POPC   C2715141   5.399   4.167   2.818 -0.7872  0.2041  0.1508
  139POPC   H7R15142   5.414   4.255   2.751  1.7549 -1.0005 -1.0053
  139POPC   H7S15143   5.473   4.182   2.900  0.1522  0.5786 -0.7400
  139POPC   C2815144   5.257   4.158   2.891 -0.4750  0.0625 -0.4955
  139POPC   H8R15145   5.177   4.132   2.818 -0.7769 -0.7270  0.0972
  139POPC   H8S15146   5.225   4.263   2.903 -1.8930 -0.1813 -1.8992
  139POPC   C2915147   5.251   4.057   3.002 -0.0381  0.8601  0.1055
  139POPC   H9115148   5.238   3.957   2.957  0.0613  1.2079 -0.7207
  139POPC  C21015149   5.263   4.076   3.134 -0.0955 -0.1365  0.8254
  139POPC  H10115150   5.244   3.991   3.201 -2.8873  0.0120  0.3483
  139POPC  C21115151   5.278   4.204   3.204 -0.5694 -0.4429 -0.2037
  139POPC  H11R15152   5.282   4.296   3.142  0.2021 -0.9809 -0.9818
  139POPC  H11S15153   5.384   4.204   3.239 -0.3250 -0.8075 -0.9200
  139POPC  C21215154   5.181   4.213   3.324 -0.2761 -0.1088 -0.3966
  139POPC  H12R15155   5.077   4.186   3.296  0.2081 -0.6525 -1.7663
  139POPC  H12S15156   5.175   4.317   3.364  2.2881  0.3926 -1.1203
  139POPC  C21315157   5.223   4.128   3.440  0.5091  0.7613 -0.5960
  139POPC  H13R15158   5.249   4.028   3.400  3.3024  1.2870 -0.3364
  139POPC  H13S15159   5.138   4.117   3.510  0.3756 -2.1266 -1.0855
  139POPC  C21415160   5.334   4.190   3.521 -0.9166 -0.3364  0.6184
  139POPC  H14R15161   5.288   4.227   3.615 -2.4189  1.4437 -0.7274
  139POPC  H14S15162   5.377   4.283   3.478 -0.7301 -1.2576 -1.3204
  139POPC  C21515163   5.452   4.094   3.553  0.1887 -0.0780  0.7282
  139POPC  H15R15164   5.494   4.063   3.455 -0.2696 -2.3270  1.1865
  139POPC  H15S15165   5.423   3.998   3.599  0.5607 -0.8336 -0.5665
  139POPC  C21615166   5.566   4.148   3.640 -0.3644  0.2854  0.5598
  139POPC  H16R15167   5.520   4.191   3.732  0.9767 -0.0613  1.4281
  139POPC  H16S15168   5.625   4.233   3.599  0.2506 -0.3797  0.0337
  139POPC  C21715169   5.663   4.034   3.684  0.0703 -0.9063  0.1755
  139POPC  H17R15170   5.736   4.014   3.603 -0.2512 -1.0226 -0.0849
  139POPC  H17S15171   5.602   3.943   3.702 -1.6547  0.0565 -0.5904
  139POPC  C21815172   5.731   4.076   3.811  0.4350 -0.8290 -0.3751
  139POPC  H18R15173   5.776   4.174   3.788  0.8024 -1.0222 -0.4815
  139POPC  H18S15174   5.806   3.999   3.838  0.1304  0.0136  3.4671
  139POPC  H18T15175   5.659   4.080   3.896  1.9160 -0.3971  0.9091
  139POPC   C3315176   5.324   3.537   2.761 -0.8870  0.2054  0.8940
  139POPC   H3X15177   5.347   3.437   2.720  1.2046  0.6098  0.9922
  139POPC   H3Y15178   5.215   3.554   2.743 -1.0277  0.1849  1.7101
  139POPC   C3415179   5.364   3.565   2.905 -0.0825 -0.4740 -0.6070
  139POPC   H4X15180   5.381   3.674   2.907  0.2140 -0.3848 -3.5005
  139POPC   H4Y15181   5.461   3.527   2.944 -0.0420  0.5216  0.2777
  139POPC   C3515182   5.262   3.514   3.007  1.3726  0.4391 -0.8472
  139POPC   H5X15183   5.267   3.403   3.009  0.8257  0.2928 -3.4726
  139POPC   H5Y15184   5.158   3.530   2.970  0.5939  3.6088  2.1872
  139POPC   C3615185   5.270   3.584   3.143 -0.3688  0.6931  0.4429
  139POPC   H6X15186   5.251   3.694   3.143  3.0168  1.4179 -1.5122
  139POPC   H6Y15187   5.375   3.570   3.176 -0.5079 -0.1180  0.5498
  139POPC   C3715188   5.188   3.514   3.256 -0.0051 -0.0943  0.6057
  139POPC   H7X15189   5.181   3.403   3.250 -1.8179  0.0381 -0.2128
  139POPC   H7Y15190   5.089   3.559   3.236  1.6879  3.9301  0.3525
  139POPC   C3815191   5.231   3.553   3.399 -0.3699 -0.0682  0.3823
  139POPC   H8X15192   5.238   3.664   3.405 -1.4941 -0.0256  1.4950
  139POPC   H8Y15193   5.335   3.522   3.422  0.4782  3.1845  1.5845
  139POPC   C3915194   5.133   3.497   3.502  0.6070 -0.1175  0.2873
  139POPC   H9X15195   5.164   3.407   3.559  1.6773 -0.7362 -1.2039
  139POPC   H9Y15196   5.040   3.460   3.455  1.0246 -0.1140 -0.5675
  139POPC  C31015197   5.090   3.599   3.609 -0.2717 -0.0427 -0.1843
  139POPC  H10X15198   5.041   3.693   3.575 -1.9838 -0.1389  1.8432
  139POPC  H10Y15199   5.186   3.635   3.653 -1.4230  1.4818  1.2058
  139POPC  C31115200   5.004   3.546   3.721 -0.3829  0.6307  0.8295
  139POPC  H11X15201   5.030   3.438   3.718 -0.4277  0.6334 -0.9005
  139POPC  H11Y15202   4.898   3.538   3.689 -0.1663  1.4518 -0.1525
  139POPC  C31215203   5.020   3.604   3.865  0.1537 -0.2992  0.2714
  139POPC  H12X15204   4.931   3.571   3.922 -0.0237  2.1020  1.5131
  139POPC  H12Y15205   5.014   3.715   3.864  1.6857 -0.1726 -1.7225
  139POPC  C31315206   5.148   3.562   3.930  0.1013 -0.5857  0.0315
  139POPC  H13X15207   5.221   3.611   3.861 -1.2767 -1.1767 -1.9413
  139POPC  H13Y15208   5.160   3.451   3.928  0.0079 -0.6986  2.5289
  139POPC  C31415209   5.143   3.609   4.075 -0.4571 -0.5379 -0.1385
  139POPC  H14X15210   5.072   3.536   4.121 -0.6940 -1.1588 -1.4482
  139POPC  H14Y15211   5.099   3.710   4.091 -1.4804 -1.0162  0.2096
  139POPC  C31515212   5.275   3.594   4.147  0.1221  0.4701 -1.0285
  139POPC  H15X15213   5.347   3.673   4.117 -0.5394  0.4804 -2.7158
  139POPC  H15Y15214   5.314   3.495   4.113  1.8208  0.5648  0.4769
  139POPC  C31615215   5.268   3.587   4.299  0.3006 -0.8483  0.3097
  139POPC  H16X15216   5.366   3.549   4.334  0.8330 -0.8356 -1.0964
  139POPC  H16Y15217   5.202   3.502   4.326  0.2571 -2.2284 -3.5573
  139POPC  H16Z15218   5.241   3.681   4.351  0.1214  0.7457 -2.4517
  140POPC     N15219   0.737   6.734   1.978  0.2005  0.0803  0.0797
  140POPC   C1215220   0.732   6.582   1.964 -0.0667 -0.2524 -0.4000
  140POPC  H12A15221   0.630   6.546   1.971  0.5803 -2.2285 -0.6471
  140POPC  H12B15222   0.781   6.542   2.051 -0.6588 -1.1468 -0.4677
  140POPC   C1315223   0.653   6.792   1.872 -0.2629 -0.2056 -0.0567
  140POPC  H13A15224   0.554   6.754   1.855  0.5531 -2.1652 -0.7579
  140POPC  H13B15225   0.655   6.900   1.872  0.2473 -0.2124  0.3617
  140POPC  H13C15226   0.696   6.765   1.776  1.6120 -0.2617  0.7480
  140POPC   C1415227   0.673   6.792   2.103  0.5884  0.1872  0.2250
  140POPC  H14A15228   0.684   6.899   2.100 -2.3018  0.6245  1.4230
  140POPC  H14B15229   0.566   6.774   2.101  0.5444  0.4420  0.2504
  140POPC  H14C15230   0.712   6.752   2.195  0.1752  0.8031  0.6742
  140POPC   C1515231   0.878   6.790   1.974 -0.2780 -0.3746  0.4776
  140POPC  H15A15232   0.932   6.758   2.062  1.9837 -0.8651 -1.0159
  140POPC  H15B15233   0.887   6.898   1.978  1.4553 -0.5152  1.2801
  140POPC  H15C15234   0.945   6.754   1.898  0.3045  2.1061 -0.2785
  140POPC   C1115235   0.806   6.540   1.830 -0.0916  0.0539 -0.2859
  140POPC  H11A15236   0.778   6.614   1.751 -2.3057  1.3173  1.5668
  140POPC  H11B15237   0.772   6.441   1.793  0.8243 -0.5983  0.5748
  140POPC     P15238   1.015   6.428   1.931 -0.0555 -0.3134  0.3183
  140POPC   O1315239   1.162   6.446   1.911  0.0391 -0.4647  0.0078
  140POPC   O1415240   0.955   6.291   1.907 -0.4105  0.4223 -0.1101
  140POPC   O1215241   0.943   6.543   1.851  0.1438  0.3706  0.2956
  140POPC   O1115242   0.972   6.462   2.084 -0.5285 -0.0878  0.2818
  140POPC    C115243   1.068   6.523   2.171  0.5141 -0.6336 -0.8792
  140POPC    HA15244   1.009   6.559   2.257  1.4836 -0.1744 -0.3914
  140POPC    HB15245   1.097   6.621   2.127 -0.8118  0.0493 -0.2769
  140POPC    C215246   1.190   6.445   2.222  0.9046  1.0707  0.8116
  140POPC    HS15247   1.244   6.413   2.130  0.3889  1.7075  0.2764
  140POPC   O2115248   1.142   6.334   2.290  0.6759 -0.4831  0.2575
  140POPC   C2115249   1.219   6.238   2.312  0.3455  0.4282  0.4098
  140POPC   O2215250   1.340   6.231   2.296  0.1193 -0.2889 -0.6499
  140POPC   C2215251   1.132   6.113   2.355 -0.4660 -0.6351 -0.1484
  140POPC   H2R15252   1.066   6.088   2.270 -0.1493 -1.6460 -0.1195
  140POPC   H2S15253   1.065   6.155   2.434  0.6055  4.3514 -1.5741
  140POPC    C315254   1.284   6.533   2.310  0.5781  0.2549 -0.1056
  140POPC    HX15255   1.296   6.624   2.247 -2.5108 -0.8015 -2.4789
  140POPC    HY15256   1.381   6.485   2.332  0.6469  0.6700  0.5414
  140POPC   O3115257   1.221   6.580   2.435 -0.0026  0.1302 -0.2050
  140POPC   C3115258   1.209   6.486   2.535 -0.2157  0.5518  0.6270
  140POPC   O3215259   1.275   6.384   2.545  0.1675  0.8071 -0.1442
  140POPC   C3215260   1.090   6.526   2.622  0.7639 -0.8856  0.4455
  140POPC   H2X15261   1.011   6.535   2.544  1.0985 -1.0011  0.0959
  140POPC   H2Y15262   1.106   6.633   2.651 -0.7061  1.0761 -4.8017
  140POPC   C2315263   1.210   5.989   2.401  0.1261  0.1891 -1.1336
  140POPC   H3R15264   1.296   5.976   2.332  0.9700  0.1831 -0.0952
  140POPC   H3S15265   1.150   5.897   2.380 -0.4060  0.4318 -0.6927
  140POPC   C2415266   1.264   5.988   2.545  0.7790  0.2249  0.3306
  140POPC   H4R15267   1.329   6.073   2.575 -0.8236  1.3968  0.6351
  140POPC   H4S15268   1.325   5.899   2.570  0.2492 -0.2305  0.0135
  140POPC   C2515269   1.155   6.004   2.660 -0.0581 -0.6533  0.4626
  140POPC   H5R15270   1.091   5.916   2.636  1.4481 -1.6207 -0.2088
  140POPC   H5S15271   1.111   6.105   2.651  1.4484  0.0277  0.4145
  140POPC   C2615272   1.219   5.990   2.799 -0.4070  0.7678  0.1813
  140POPC   H6R15273   1.296   6.066   2.824 -0.2494  1.4791 -2.2700
  140POPC   H6S15274   1.272   5.892   2.796  1.5790  1.7854  0.3796
  140POPC   C2715275   1.111   5.997   2.915 -0.4737 -0.1714 -0.2983
  140POPC   H7R15276   1.039   5.914   2.899 -0.5010  0.1742 -2.0740
  140POPC   H7S15277   1.058   6.094   2.905 -0.2370  0.2138  1.6602
  140POPC   C2815278   1.166   5.992   3.065  0.0156  0.3865 -0.0579
  140POPC   H8R15279   1.219   5.895   3.075 -0.6131  0.1835  1.5163
  140POPC   H8S15280   1.078   5.989   3.133 -0.9910  0.9768 -1.2880
  140POPC   C2915281   1.246   6.106   3.112  0.4920 -0.5233 -0.6026
  140POPC   H9115282   1.296   6.160   3.031 -1.0354  3.4055  0.7983
  140POPC  C21015283   1.282   6.135   3.237 -0.8994 -0.0501  0.5328
  140POPC  H10115284   1.338   6.229   3.249 -2.2396  1.0168 -1.1055
  140POPC  C21115285   1.246   6.065   3.365  0.3696  0.0271  0.2973
  140POPC  H11R15286   1.343   6.048   3.418  1.6560  0.9619 -1.6194
  140POPC  H11S15287   1.189   5.973   3.341 -1.0363  0.7141  0.9094
  140POPC  C21215288   1.151   6.149   3.451 -0.0215 -0.1017  0.0959
  140POPC  H12R15289   1.108   6.081   3.528  0.3152  0.9783  1.2706
  140POPC  H12S15290   1.059   6.169   3.392 -0.3729 -2.2247 -0.1549
  140POPC  C21315291   1.212   6.271   3.522 -0.5043 -0.9052 -0.0422
  140POPC  H13R15292   1.238   6.342   3.441 -0.8761 -3.2913 -2.4268
  140POPC  H13S15293   1.304   6.242   3.577 -0.9424 -1.3567  0.4747
  140POPC  C21415294   1.119   6.329   3.629  0.5828 -1.0813  0.2228
  140POPC  H14R15295   1.078   6.248   3.692  0.3383 -0.9877  0.1852
  140POPC  H14S15296   1.029   6.379   3.586  0.8736  0.2570  1.1118
  140POPC  C21515297   1.194   6.421   3.724 -0.0717 -0.3324  0.1310
  140POPC  H15R15298   1.231   6.506   3.662 -2.6457  0.3027 -0.6597
  140POPC  H15S15299   1.286   6.373   3.763  0.4511 -0.7977 -1.5915
  140POPC  C21615300   1.109   6.458   3.854 -0.1386  0.1131  0.3166
  140POPC  H16R15301   1.042   6.371   3.866  0.9626 -0.6278  1.4569
  140POPC  H16S15302   1.057   6.556   3.858  2.3372  1.4879  1.9980
  140POPC  C21715303   1.196   6.454   3.982  0.5330 -0.3793  0.3592
  140POPC  H17R15304   1.133   6.499   4.062 -1.3438  2.8097 -2.6304
  140POPC  H17S15305   1.280   6.526   3.971  1.2417 -1.4176 -1.5982
  140POPC  C21815306   1.237   6.318   4.030 -0.3463 -0.0540 -0.3963
  140POPC  H18R15307   1.170   6.230   4.030 -0.6284  0.1511  0.4056
  140POPC  H18S15308   1.285   6.322   4.130  0.9652 -2.4990 -0.8628
  140POPC  H18T15309   1.322   6.294   3.963 -2.6947  0.3368 -3.7712
  140POPC   C3315310   1.039   6.422   2.730 -0.4357  0.4773 -0.4456
  140POPC   H3X15311   1.030   6.328   2.673 -0.4432 -0.5101  1.1343
  140POPC   H3Y15312   0.942   6.455   2.771  0.7557  0.4981  2.6533
  140POPC   C3415313   1.126   6.409   2.858 -0.8938  0.2804 -0.1925
  140POPC   H4X15314   1.227   6.368   2.841  0.1252  1.7076  2.0242
  140POPC   H4Y15315   1.082   6.331   2.924  1.4521 -0.0032  1.1186
  140POPC   C3515316   1.130   6.530   2.954 -0.6579 -0.6168  0.7806
  140POPC   H5X15317   1.031   6.577   2.969 -0.4976  0.0837 -0.2304
  140POPC   H5Y15318   1.201   6.602   2.910 -1.0937  0.0504  1.1558
  140POPC   C3615319   1.195   6.498   3.094 -0.1870 -0.0250 -0.3053
  140POPC   H6X15320   1.301   6.478   3.070 -0.1070  1.5069 -1.3973
  140POPC   H6Y15321   1.167   6.400   3.138  1.5044 -0.3189  0.1988
  140POPC   C3715322   1.201   6.617   3.190  0.2159 -0.3847 -0.4358
  140POPC   H7X15323   1.231   6.709   3.135 -2.0175  0.6881  0.0130
  140POPC   H7Y15324   1.267   6.587   3.273 -0.6205  1.9804  1.1996
  140POPC   C3815325   1.058   6.639   3.246 -0.5822 -0.5656 -0.3894
  140POPC   H8X15326   1.014   6.538   3.254 -0.7636 -0.5309 -0.9385
  140POPC   H8Y15327   1.002   6.710   3.182 -1.4530  0.4455  1.3901
  140POPC   C3915328   1.056   6.705   3.380  0.9596 -0.2211  0.1223
  140POPC   H9X15329   1.091   6.811   3.378  1.3430 -0.3419  0.3795
  140POPC   H9Y15330   1.110   6.638   3.450  1.7529 -2.0545 -2.1128
  140POPC  C31015331   0.910   6.714   3.434 -0.2812  1.0385  0.0982
  140POPC  H10X15332   0.871   6.610   3.433  0.7610  0.6348 -1.3169
  140POPC  H10Y15333   0.842   6.770   3.367  0.1350 -0.3438 -1.5425
  140POPC  C31115334   0.897   6.755   3.584 -0.3876  1.0962  0.0450
  140POPC  H11X15335   0.936   6.859   3.583  1.2353  0.5579 -2.3865
  140POPC  H11Y15336   0.965   6.698   3.650  1.3266  1.0638 -1.6604
  140POPC  C31215337   0.767   6.735   3.646 -0.0153  0.6726 -0.1428
  140POPC  H12X15338   0.755   6.629   3.679 -0.4195  0.2180 -1.6779
  140POPC  H12Y15339   0.684   6.748   3.574  1.0104 -0.3117 -1.5501
  140POPC  C31315340   0.733   6.834   3.760  0.2479  0.2443  0.4842
  140POPC  H13X15341   0.631   6.797   3.781  0.8105 -3.0478 -1.8138
  140POPC  H13Y15342   0.726   6.937   3.718 -0.5823 -0.4183 -1.0841
  140POPC  C31415343   0.821   6.830   3.884  0.3638  0.5906  0.2972
  140POPC  H14X15344   0.923   6.865   3.858  0.5691  0.7310  1.2248
  140POPC  H14Y15345   0.840   6.722   3.904 -1.0578 -0.2429 -2.4381
  140POPC  C31515346   0.759   6.913   3.999 -0.7281 -1.0170  0.0489
  140POPC  H15X15347   0.736   7.016   3.965  2.1907 -0.7675 -1.4885
  140POPC  H15Y15348   0.839   6.910   4.075 -1.3815  0.7463  0.8503
  140POPC  C31615349   0.642   6.851   4.059 -0.1272 -0.5807 -0.3154
  140POPC  H16X15350   0.563   6.839   3.982 -0.4867 -0.3288  0.0077
  140POPC  H16Y15351   0.594   6.910   4.140 -2.1656 -0.0870 -1.7988
  140POPC  H16Z15352   0.671   6.751   4.097  0.0380 -0.5625 -0.3895
  141SAPS     N15353   4.808   2.710   6.198  0.4982 -0.1608 -0.9357
  141SAPS   HN115354   4.717   2.686   6.155 -0.2901  2.1717 -0.6904
  141SAPS   HN215355   4.835   2.808   6.175  1.3408  0.1605  1.1973
  141SAPS   HN315356   4.889   2.653   6.167  0.1795  0.4002 -2.9397
  141SAPS   C1215357   4.811   2.695   6.340  0.1817 -0.1371 -0.7000
  141SAPS  H12A15358   4.813   2.591   6.367  1.5963  0.0817  0.1637
  141SAPS   C1315359   4.939   2.745   6.411 -0.7345  0.1710  0.3521
  141SAPS  O13A15360   5.026   2.809   6.340  0.1686  0.0138  0.1283
  141SAPS  O13B15361   4.959   2.734   6.537  0.0361  0.2548  0.0191
  141SAPS   C1115362   4.681   2.777   6.392 -0.9259  0.6876 -0.2481
  141SAPS  H11A15363   4.693   2.883   6.362  0.5535  0.7153  0.3589
  141SAPS  H11B15364   4.692   2.769   6.502  4.2247  1.1923 -0.4731
  141SAPS     P15365   4.434   2.790   6.328 -0.1970  0.2889 -0.2146
  141SAPS   O1315366   4.344   2.701   6.243  0.5057 -0.1542 -0.0767
  141SAPS   O1415367   4.386   2.816   6.465  0.2888 -0.4096  0.3821
  141SAPS   O1215368   4.565   2.709   6.346  0.4330  0.5800  0.0993
  141SAPS   O1115369   4.476   2.924   6.255  0.4451  0.0681  0.6826
  141SAPS    C115370   4.384   3.004   6.175 -0.2587  0.8659 -0.4583
  141SAPS    HA15371   4.364   2.954   6.077  2.4958 -2.1176  0.3179
  141SAPS    HB15372   4.281   3.006   6.218  0.2744  0.5970  0.8996
  141SAPS    C215373   4.459   3.131   6.134 -0.0412  0.4861 -0.2051
  141SAPS    HS15374   4.444   3.206   6.215 -2.5445  0.8574 -0.9382
  141SAPS   O2115375   4.401   3.176   6.011 -0.1447 -0.6509  0.4794
  141SAPS   C2115376   4.432   3.295   5.953 -0.2689  0.1752 -0.9605
  141SAPS   O2215377   4.528   3.357   5.992 -0.7141 -0.6035 -0.1267
  141SAPS   C2215378   4.345   3.326   5.830  0.4687 -0.2283 -0.1833
  141SAPS   H2R15379   4.246   3.354   5.871  0.8737  0.4167  0.3882
  141SAPS   H2S15380   4.385   3.418   5.783 -1.4153  0.1020 -1.2182
  141SAPS    C315381   4.611   3.112   6.114 -0.4438 -0.1004 -0.0204
  141SAPS    HX15382   4.647   3.082   6.215 -2.8903 -0.3477  0.8480
  141SAPS    HY15383   4.676   3.202   6.101 -0.0074  0.0256  2.5026
  141SAPS   O3115384   4.624   3.024   6.006  0.1928  0.3503  0.4185
  141SAPS   C3115385   4.740   2.969   5.990 -0.0097  0.4257 -0.5230
  141SAPS   O3215386   4.833   2.974   6.068 -0.1596 -0.3557  0.3835
  141SAPS   C3215387   4.749   2.915   5.845 -0.1385  0.6209  0.2678
  141SAPS   H2X15388   4.739   3.006   5.782  1.9587  1.1598  0.6242
  141SAPS   H2Y15389   4.654   2.858   5.836 -0.4327  0.2628  3.9690
  141SAPS   C2315390   4.337   3.205   5.737  0.6564  0.0641  0.0903
  141SAPS   H3R15391   4.280   3.233   5.646 -0.0303 -2.2006 -0.2385
  141SAPS   H3S15392   4.277   3.119   5.775  1.7471 -0.9385 -0.3946
  141SAPS   C2415393   4.468   3.141   5.695 -0.3843 -0.2694 -0.7779
  141SAPS   H4R15394   4.457   3.073   5.607  1.7516  0.7995 -1.9677
  141SAPS   H4S15395   4.506   3.080   5.779  3.0587  2.3521 -0.2024
  141SAPS   C2515396   4.575   3.243   5.663 -0.1109  0.1775 -0.3199
  141SAPS   H5R15397   4.632   3.277   5.751  1.4685  0.2134 -1.3056
  141SAPS   C2615398   4.619   3.277   5.542  0.2594  0.2189  0.2829
  141SAPS   H6R15399   4.709   3.339   5.538  1.1645 -1.0143  0.8686
  141SAPS   C2715400   4.569   3.229   5.405 -0.4281  0.6373 -0.7278
  141SAPS   H7R15401   4.487   3.154   5.417  1.7638 -1.8278 -0.0665
  141SAPS   H7S15402   4.652   3.173   5.357  0.4698  1.7109 -0.4499
  141SAPS   C2815403   4.525   3.340   5.312 -0.1859 -1.1171 -0.0309
  141SAPS   H8R15404   4.504   3.436   5.362  0.2077 -0.6526 -0.7380
  141SAPS   C2915405   4.524   3.332   5.180 -0.1258  0.0807 -0.2750
  141SAPS   H9R15406   4.484   3.421   5.129 -2.4078 -0.5315  0.3511
  141SAPS  C21015407   4.547   3.216   5.086  0.7800  0.2651 -0.1248
  141SAPS  H10R15408   4.551   3.120   5.143 -0.6590  0.2865  0.0623
  141SAPS  H10S15409   4.643   3.224   5.032  0.1163 -0.6172 -1.4877
  141SAPS  C21115410   4.437   3.206   4.989 -0.0226  0.4149 -0.5646
  141SAPS  H11R15411   4.347   3.151   5.020  0.4436 -0.0154  0.0608
  141SAPS  C21215412   4.443   3.241   4.860  0.9660  0.0048  0.4755
  141SAPS  H12R15413   4.359   3.211   4.796  0.7565 -0.8120  1.1242
  141SAPS  C21315414   4.557   3.307   4.783  0.0837  0.2752  0.9277
  141SAPS  H13R15415   4.631   3.233   4.746  0.6156  1.0857  0.3420
  141SAPS  H13S15416   4.603   3.374   4.858  0.2454 -1.3959  2.3865
  141SAPS  C21415417   4.504   3.377   4.664 -0.0819  0.2716  0.4680
  141SAPS  H14R15418   4.413   3.333   4.621  0.5569 -0.4441 -0.1935
  141SAPS  C21515419   4.549   3.495   4.625  0.6411 -0.4882  0.0076
  141SAPS  H15R15420   4.504   3.538   4.534  0.9906 -0.2810 -0.0683
  141SAPS  C21615421   4.664   3.581   4.681 -0.3761 -0.1383  0.6527
  141SAPS  H16R15422   4.667   3.563   4.790 -0.0596 -2.0871  0.3627
  141SAPS  H16S15423   4.647   3.689   4.660  1.2084 -0.2625 -1.7405
  141SAPS  C21715424   4.795   3.549   4.597  0.1106  0.5589 -0.4939
  141SAPS  H17R15425   4.831   3.444   4.605 -1.0982  0.0270 -1.6057
  141SAPS  H17S15426   4.877   3.612   4.635  0.0945  1.1781 -1.4359
  141SAPS  C21815427   4.763   3.578   4.441 -0.5297  0.4915 -0.4212
  141SAPS  H18R15428   4.707   3.497   4.390  0.0745  0.0847 -0.4597
  141SAPS  H18S15429   4.865   3.563   4.398 -0.3983  0.4982 -0.1152
  141SAPS  C21915430   4.734   3.724   4.407  0.1831 -0.0993 -0.0529
  141SAPS  H19R15431   4.820   3.773   4.458  0.0292  0.2288 -0.1077
  141SAPS  H19S15432   4.647   3.761   4.466  0.7296  0.1293  0.6293
  141SAPS  C22015433   4.707   3.762   4.266  0.1743 -0.6672 -0.0980
  141SAPS  H20R15434   4.655   3.859   4.254 -0.3454 -0.9115  0.1422
  141SAPS  H20S15435   4.635   3.702   4.206 -2.2901  1.5715  0.4292
  141SAPS  H20T15436   4.803   3.771   4.211 -1.5178 -0.3963 -3.2940
  141SAPS   C3315437   4.880   2.848   5.802  0.6828 -0.0829  0.2702
  141SAPS   H3X15438   4.913   2.776   5.880  0.5627  1.9797  2.3501
  141SAPS   H3Y15439   4.956   2.929   5.797  0.6715 -0.1120 -0.5296
  141SAPS   C3415440   4.867   2.768   5.665  0.5648 -0.1111 -0.1800
  141SAPS   H4X15441   4.759   2.761   5.642  0.1915  1.5293  0.8836
  141SAPS   H4Y15442   4.903   2.664   5.681 -0.4570 -0.3166  0.9562
  141SAPS   C3515443   4.942   2.826   5.550 -0.4291  0.1149 -0.5450
  141SAPS   H5X15444   4.922   2.750   5.471 -0.0055 -1.0492  0.4448
  141SAPS   H5Y15445   5.052   2.828   5.565 -0.5835 -2.6429  1.6547
  141SAPS   C3615446   4.889   2.958   5.504 -0.3677 -0.0300 -0.7699
  141SAPS   H6X15447   4.900   3.028   5.590 -1.7924 -1.2053  0.4216
  141SAPS   H6Y15448   4.781   2.941   5.488 -0.2115 -0.4067 -1.4610
  141SAPS   C3715449   4.941   3.019   5.378  0.2205 -0.0395  0.1587
  141SAPS   H7X15450   5.051   3.032   5.386 -0.0098  1.5333  1.2501
  141SAPS   H7Y15451   4.890   3.117   5.359 -0.5590  0.5924  4.4952
  141SAPS   C3815452   4.899   2.930   5.261 -0.9228  0.0071 -0.0505
  141SAPS   H8X15453   4.800   2.881   5.275 -0.7473 -0.3974 -0.2171
  141SAPS   H8Y15454   4.977   2.851   5.261 -2.1677 -1.2598  0.4319
  141SAPS   C3915455   4.904   3.001   5.119 -0.3171  0.0211 -0.5922
  141SAPS   H9X15456   4.999   3.057   5.107 -1.0819  1.8471  1.2252
  141SAPS   H9Y15457   4.824   3.078   5.121  0.2331  0.7091 -2.7228
  141SAPS  C31015458   4.877   2.903   5.004  0.2327  0.5936  0.1361
  141SAPS  H10X15459   4.803   2.824   5.030  1.5111  0.0633  2.3738
  141SAPS  H10Y15460   4.976   2.856   4.985  0.5639  1.9484 -1.8239
  141SAPS  C31115461   4.846   2.969   4.869 -0.0074 -0.7119 -0.1097
  141SAPS  H11X15462   4.760   3.035   4.894  1.1660  0.6109  0.5878
  141SAPS  H11Y15463   4.809   2.895   4.795 -0.6651 -1.1177  0.6110
  141SAPS  C31215464   4.958   3.056   4.806  0.1108 -0.1400  0.7861
  141SAPS  H12X15465   5.023   2.992   4.741 -0.9306  0.6075 -1.0465
  141SAPS  H12Y15466   5.038   3.091   4.875  0.9773  0.6249 -0.5505
  141SAPS  C31315467   4.913   3.169   4.706  0.0321  0.1582 -0.0221
  141SAPS  H13X15468   4.996   3.231   4.667 -0.2840 -0.3676 -1.6079
  141SAPS  H13Y15469   4.843   3.234   4.764 -0.8480 -1.8022  1.2078
  141SAPS  C31415470   4.848   3.108   4.582  0.0798 -0.0014  0.7024
  141SAPS  H14X15471   4.763   3.045   4.618  1.3097 -1.9332  0.3876
  141SAPS  H14Y15472   4.927   3.041   4.542 -1.7475 -1.7057 -0.2549
  141SAPS  C31515473   4.800   3.195   4.462  0.0462  0.1793 -0.5530
  141SAPS  H15X15474   4.897   3.218   4.414  1.0934  0.9547  1.8397
  141SAPS  H15Y15475   4.756   3.285   4.511  0.5581 -0.4784  1.1930
  141SAPS  C31615476   4.701   3.116   4.376 -0.0746 -1.0378  0.1801
  141SAPS  H16X15477   4.632   3.061   4.444 -2.1281 -2.1291 -2.5866
  141SAPS  H16Y15478   4.749   3.031   4.322  0.3242  0.3214 -1.7039
  141SAPS  C31715479   4.625   3.205   4.283  0.2358  0.3744 -0.3834
  141SAPS  H17X15480   4.702   3.272   4.239 -0.9224  1.9014 -0.1939
  141SAPS  H17Y15481   4.553   3.264   4.344  2.9395  0.9599  2.5041
  141SAPS  C31815482   4.547   3.134   4.171  0.6019  0.6970  0.6393
  141SAPS  H18X15483   4.632   3.092   4.112  0.3227  2.1500 -0.8576
  141SAPS  H18Y15484   4.495   3.204   4.102  1.1913  1.0928  0.5894
  141SAPS  H18Z15485   4.484   3.053   4.213 -2.2205  2.8794  0.8613
  142SAPS     N15486   3.280   1.844   6.628  0.4993 -0.0312  0.1549
  142SAPS   HN115487   3.221   1.902   6.690 -0.3261 -0.2546 -0.4082
  142SAPS   HN215488   3.236   1.750   6.621  1.1868 -0.3192 -0.5596
  142SAPS   HN315489   3.380   1.840   6.658 -0.2013  0.3094  2.6815
  142SAPS   C1215490   3.285   1.903   6.490 -0.1247  0.8613  0.3239
  142SAPS  H12A15491   3.181   1.907   6.462 -0.3719  0.4221  1.1393
  142SAPS   C1315492   3.339   2.052   6.487  0.4595  0.9708  0.1270
  142SAPS  O13A15493   3.406   2.093   6.586  0.0494 -0.0571  0.4715
  142SAPS  O13B15494   3.354   2.101   6.369  0.3254  0.0201 -0.2172
  142SAPS   C1115495   3.361   1.811   6.392 -0.0261  0.6480  0.2135
  142SAPS  H11A15496   3.466   1.808   6.428 -0.3109  0.4471  1.0557
  142SAPS  H11B15497   3.365   1.852   6.288 -2.4521  0.5163  0.0070
  142SAPS     P15498   3.175   1.646   6.302 -0.1859  0.0209  0.0696
  142SAPS   O1315499   3.147   1.499   6.292 -0.3370  0.4431 -0.3673
  142SAPS   O1415500   3.066   1.738   6.344  0.3185  0.6049 -0.0594
  142SAPS   O1215501   3.300   1.681   6.393 -0.1254 -0.0071 -0.0729
  142SAPS   O1115502   3.223   1.703   6.161  0.1429 -0.1632 -0.2531
  142SAPS    C115503   3.317   1.623   6.087  0.1057  0.2656  0.0563
  142SAPS    HA15504   3.412   1.680   6.077  0.1247  0.6075  1.9356
  142SAPS    HB15505   3.345   1.524   6.128 -0.9962 -0.5848 -1.1370
  142SAPS    C215506   3.263   1.610   5.945  0.5881  0.3111  0.4057
  142SAPS    HS15507   3.191   1.526   5.962  0.1261  0.0976 -2.2199
  142SAPS   O2115508   3.365   1.551   5.854 -0.2321  0.2697  0.5479
  142SAPS   C2115509   3.318   1.480   5.750  0.6101  0.2840  0.4046
  142SAPS   O2215510   3.201   1.448   5.735 -0.3067 -0.2822  0.1081
  142SAPS   C2215511   3.426   1.444   5.640 -0.6726  0.1368 -0.2213
  142SAPS   H2R15512   3.429   1.535   5.576 -0.1498 -0.3317 -0.8762
  142SAPS   H2S15513   3.517   1.448   5.703 -1.4749  1.8572  0.9229
  142SAPS    C315514   3.202   1.746   5.892  0.2713 -0.5551  0.0936
  142SAPS    HX15515   3.284   1.817   5.914 -0.9663  1.7388 -2.0972
  142SAPS    HY15516   3.118   1.789   5.951  0.4742  0.3979 -0.3062
  142SAPS   O3115517   3.171   1.734   5.750 -0.1000 -0.2245 -0.6197
  142SAPS   C3115518   3.038   1.740   5.717 -0.3268  0.2036  1.0371
  142SAPS   O3215519   2.947   1.744   5.796  0.3028 -0.3565  0.1134
  142SAPS   C3215520   3.011   1.738   5.567  0.7532 -0.0536 -0.3183
  142SAPS   H2X15521   2.919   1.799   5.552 -0.7413 -1.3602  2.6185
  142SAPS   H2Y15522   2.988   1.632   5.544 -1.5569  0.0743  1.0730
  142SAPS   C2315523   3.394   1.324   5.549 -0.2853  0.7968  0.4112
  142SAPS   H3R15524   3.355   1.238   5.605  0.1500 -0.0185 -0.5024
  142SAPS   H3S15525   3.494   1.295   5.510 -0.8010  2.2245 -2.2362
  142SAPS   C2415526   3.299   1.359   5.433 -0.5653 -0.1081  0.0346
  142SAPS   H4R15527   3.350   1.428   5.363  0.9827 -0.3553  0.8921
  142SAPS   H4S15528   3.215   1.417   5.476  1.2362  3.2586 -0.6948
  142SAPS   C2515529   3.257   1.227   5.362 -0.5364  0.2882 -0.0781
  142SAPS   H5R15530   3.336   1.174   5.307  0.2051 -0.0195  1.2534
  142SAPS   C2615531   3.136   1.168   5.376 -0.5798  0.5153  0.2203
  142SAPS   H6R15532   3.120   1.076   5.318  2.1176  0.4005 -0.4647
  142SAPS   C2715533   3.035   1.231   5.462  0.5316 -0.3010 -0.6164
  142SAPS   H7R15534   3.021   1.338   5.435 -2.3676 -0.9725 -2.1984
  142SAPS   H7S15535   3.082   1.245   5.561  0.1374  0.8159 -0.5733
  142SAPS   C2815536   2.902   1.157   5.466  0.6736 -0.1311  0.8314
  142SAPS   H8R15537   2.898   1.064   5.525  2.1526 -0.5856  0.2614
  142SAPS   C2915538   2.783   1.197   5.410 -0.1665 -0.7424  0.6891
  142SAPS   H9R15539   2.689   1.144   5.428 -0.0783 -0.9413  0.5657
  142SAPS  C21015540   2.754   1.335   5.347  0.3758 -1.1293 -0.0675
  142SAPS  H10R15541   2.833   1.407   5.377  0.2802 -0.7246 -0.7583
  142SAPS  H10S15542   2.650   1.366   5.371  0.7893 -0.7782  1.3701
  142SAPS  C21115543   2.777   1.317   5.200  0.4835 -0.4957  0.3987
  142SAPS  H11R15544   2.882   1.296   5.175  1.1856 -0.9006  3.3826
  142SAPS  C21215545   2.692   1.324   5.094  0.1000 -0.2028 -0.2181
  142SAPS  H12R15546   2.718   1.296   4.991  1.1686  0.5068 -0.1565
  142SAPS  C21315547   2.540   1.364   5.086  0.0279 -0.1683 -0.3895
  142SAPS  H13R15548   2.492   1.357   5.187  1.4444 -0.6903  0.2780
  142SAPS  H13S15549   2.483   1.295   5.021 -0.4586  0.9895 -1.2291
  142SAPS  C21415550   2.527   1.506   5.032 -0.0796  0.4405 -0.2617
  142SAPS  H14R15551   2.517   1.583   5.110  1.1541 -0.8700  1.2459
  142SAPS  C21515552   2.530   1.543   4.903 -0.0134 -0.1117  0.5780
  142SAPS  H15R15553   2.507   1.649   4.885  1.5823  0.6138  2.3398
  142SAPS  C21615554   2.555   1.448   4.782 -0.5931 -0.2346 -0.5289
  142SAPS  H16R15555   2.554   1.339   4.806  2.5385 -0.0919  0.7120
  142SAPS  H16S15556   2.657   1.475   4.747  0.1254 -0.9389  0.8830
  142SAPS  C21715557   2.455   1.466   4.659 -0.2811 -0.4596  0.3217
  142SAPS  H17R15558   2.435   1.576   4.660 -0.2652 -0.4312 -0.8082
  142SAPS  H17S15559   2.364   1.406   4.676 -1.1615  1.2178  1.8514
  142SAPS  C21815560   2.521   1.462   4.518 -0.2420  0.0189 -0.4107
  142SAPS  H18R15561   2.542   1.355   4.497  0.6710  0.6281 -3.0226
  142SAPS  H18S15562   2.619   1.515   4.520 -0.8932  1.2204  1.0570
  142SAPS  C21915563   2.431   1.516   4.407  0.0511 -0.0301 -0.4281
  142SAPS  H19R15564   2.393   1.610   4.454 -1.1011 -0.0319 -1.3152
  142SAPS  H19S15565   2.340   1.453   4.399  1.5364 -2.3645 -0.0286
  142SAPS  C22015566   2.506   1.546   4.279 -1.0624 -0.0121  0.2135
  142SAPS  H20R15567   2.436   1.571   4.197  0.1973  2.0457 -0.3151
  142SAPS  H20S15568   2.566   1.462   4.239 -2.0077  0.2643 -1.8950
  142SAPS  H20T15569   2.580   1.630   4.280 -0.7909 -0.2014 -1.6303
  142SAPS   C3315570   3.128   1.808   5.490  0.3634  0.0027 -0.3193
  142SAPS   H3X15571   3.219   1.749   5.515  1.4536  3.1386  4.5530
  142SAPS   H3Y15572   3.137   1.912   5.528  0.3561  0.9069 -2.6217
  142SAPS   C3415573   3.119   1.801   5.342 -0.5963  0.2700 -0.2996
  142SAPS   H4X15574   3.191   1.873   5.299 -0.5668 -0.4549 -1.5067
  142SAPS   H4Y15575   3.024   1.839   5.298 -0.4523  0.4342 -0.4692
  142SAPS   C3515576   3.146   1.660   5.296  0.2028  0.3145  0.2938
  142SAPS   H5X15577   3.073   1.596   5.350  0.8555 -1.6979 -1.0667
  142SAPS   H5Y15578   3.251   1.630   5.313 -0.4859 -1.8963  0.9934
  142SAPS   C3615579   3.127   1.640   5.143 -0.6826 -0.0446  0.7646
  142SAPS   H6X15580   3.195   1.705   5.083 -3.0375  1.2555 -0.6450
  142SAPS   H6Y15581   3.029   1.681   5.110 -0.1748  0.5699 -0.0096
  142SAPS   C3715582   3.135   1.489   5.106 -0.0584 -0.4398 -1.0623
  142SAPS   H7X15583   3.071   1.426   5.171 -2.4038 -0.8906 -3.6575
  142SAPS   H7Y15584   3.240   1.452   5.106  0.6955  1.5492 -1.5710
  142SAPS   C3815585   3.067   1.452   4.962 -0.8007  0.2427 -0.2176
  142SAPS   H8X15586   3.105   1.520   4.883  2.7877  0.8640  1.8162
  142SAPS   H8Y15587   2.957   1.459   4.978 -0.7478  1.9568 -0.3550
  142SAPS   C3915588   3.113   1.308   4.932  0.3151  0.0990 -0.6417
  142SAPS   H9X15589   3.053   1.240   4.996 -1.2210  0.6667 -1.4233
  142SAPS   H9Y15590   3.221   1.302   4.957  0.6416  1.6336 -1.5639
  142SAPS  C31015591   3.108   1.272   4.787  0.3750  0.7380  0.0340
  142SAPS  H10X15592   3.148   1.170   4.767  2.7588  1.2400  1.7873
  142SAPS  H10Y15593   3.167   1.341   4.724 -0.5937  1.5167 -0.0432
  142SAPS  C31115594   2.966   1.276   4.736  0.4244 -0.1125  0.6368
  142SAPS  H11X15595   2.928   1.378   4.757 -0.5424 -1.0739  4.2745
  142SAPS  H11Y15596   2.897   1.220   4.803  0.2063 -0.6565 -0.0291
  142SAPS  C31215597   2.965   1.242   4.584 -0.2695 -0.1740 -0.1908
  142SAPS  H12X15598   2.859   1.245   4.550 -0.7412 -3.1094  0.7220
  142SAPS  H12Y15599   2.994   1.136   4.571  0.1846 -0.1894  0.8396
  142SAPS  C31315600   3.055   1.318   4.483 -0.7546  0.2520  0.0281
  142SAPS  H13X15601   3.160   1.283   4.492 -0.6077  1.0117  1.5445
  142SAPS  H13Y15602   3.058   1.426   4.507  1.7143  0.6029 -1.4684
  142SAPS  C31415603   3.006   1.290   4.342 -0.3205  0.1319 -0.3124
  142SAPS  H14X15604   2.902   1.328   4.331 -0.8370 -0.9698  0.4453
  142SAPS  H14Y15605   2.994   1.181   4.326 -1.1841 -0.0020  1.0812
  142SAPS  C31515606   3.084   1.341   4.222 -0.1656  0.0430  0.2516
  142SAPS  H15X15607   3.154   1.266   4.182 -0.2187  0.0154  0.2104
  142SAPS  H15Y15608   3.144   1.431   4.245  0.0268  0.1729 -0.7123
  142SAPS  C31615609   2.984   1.384   4.111  0.3992  0.4641  0.4281
  142SAPS  H16X15610   2.891   1.435   4.147  0.5787  1.5908 -0.6408
  142SAPS  H16Y15611   2.962   1.286   4.063  2.6877  0.5684 -0.9739
  142SAPS  C31715612   3.057   1.469   4.005 -0.9082 -0.3783  0.4750
  142SAPS  H17X15613   3.072   1.575   4.035 -1.7025  0.0193 -0.4895
  142SAPS  H17Y15614   2.979   1.475   3.927 -1.3704  1.4006  1.0283
  142SAPS  C31815615   3.189   1.409   3.970 -0.3451  0.2509  0.2839
  142SAPS  H18X15616   3.187   1.297   3.967  0.0598  0.2645 -1.5516
  142SAPS  H18Y15617   3.273   1.436   4.037  0.0673  1.2003 -0.5936
  142SAPS  H18Z15618   3.223   1.453   3.874  1.8408 -0.0572  0.8789
  143SAPS     N15619   3.119   4.575   6.658 -0.5413  0.1690 -0.1333
  143SAPS   HN115620   3.103   4.489   6.603  1.0509  0.2674 -0.8093
  143SAPS   HN215621   3.176   4.641   6.602  1.8534 -0.4322  1.4511
  143SAPS   HN315622   3.161   4.544   6.748  0.8243  1.2908 -0.3499
  143SAPS   C1215623   2.994   4.651   6.696  0.2235  0.4139 -0.0292
  143SAPS  H12A15624   2.932   4.583   6.752  0.5880 -0.2170 -0.3752
  143SAPS   C1315625   3.010   4.783   6.769 -0.2928  0.1025  0.1064
  143SAPS  O13A15626   3.112   4.809   6.835  0.1893 -0.1702  0.2127
  143SAPS  O13B15627   2.908   4.850   6.785  0.2149 -0.5357 -0.1666
  143SAPS   C1115628   2.914   4.680   6.558 -0.1250 -0.3030 -1.1001
  143SAPS  H11A15629   2.982   4.740   6.493 -0.2607  1.5427  0.3844
  143SAPS  H11B15630   2.816   4.730   6.577 -0.5318 -1.0370 -1.2260
  143SAPS     P15631   2.791   4.526   6.380 -0.2088  0.8273  0.3206
  143SAPS   O1315632   2.833   4.388   6.335  0.4002 -0.1497  0.8732
  143SAPS   O1415633   2.654   4.540   6.429  0.4201  0.7966 -0.3482
  143SAPS   O1215634   2.889   4.557   6.495  0.4194 -0.6376 -0.4117
  143SAPS   O1115635   2.828   4.633   6.281 -0.1079  0.1865  0.2133
  143SAPS    C115636   2.745   4.692   6.177  0.1814 -0.5189 -0.0961
  143SAPS    HA15637   2.801   4.747   6.099  1.0626 -2.0228 -0.5463
  143SAPS    HB15638   2.692   4.605   6.134 -0.3320 -1.2672  1.9191
  143SAPS    C215639   2.656   4.797   6.239 -0.1550  0.3488  0.3165
  143SAPS    HS15640   2.603   4.752   6.326 -1.8455  0.2683 -0.7176
  143SAPS   O2115641   2.562   4.832   6.139 -0.0586  0.1977 -0.3155
  143SAPS   C2115642   2.466   4.912   6.164 -0.5464  0.1180 -0.1848
  143SAPS   O2215643   2.444   4.971   6.270 -0.7766 -0.0748 -0.2905
  143SAPS   C2215644   2.381   4.925   6.035  0.2597 -0.4515 -0.0417
  143SAPS   H2R15645   2.336   4.826   6.012 -0.5981 -0.1570  0.3082
  143SAPS   H2S15646   2.288   4.981   6.061 -0.1359  0.2059 -2.5474
  143SAPS    C315647   2.735   4.926   6.291  0.6301  0.2031  0.2305
  143SAPS    HX15648   2.819   4.893   6.356  0.5809 -0.5067 -0.0624
  143SAPS    HY15649   2.663   4.973   6.361  0.9446  2.2826 -0.7366
  143SAPS   O3115650   2.790   4.996   6.175  0.0975 -0.5333 -0.0939
  143SAPS   C3115651   2.760   5.128   6.192  0.2163  0.9538  0.5472
  143SAPS   O3215652   2.703   5.179   6.284  0.2745  0.1818 -0.5197
  143SAPS   C3215653   2.821   5.202   6.073  0.6986 -0.8297 -0.4073
  143SAPS   H2X15654   2.751   5.177   5.991 -0.6625  0.6793  0.2175
  143SAPS   H2Y15655   2.925   5.171   6.050  0.8179 -1.2105  0.5858
  143SAPS   C2315656   2.448   5.010   5.924  0.7016 -0.4569  0.1991
  143SAPS   H3R15657   2.492   5.107   5.957 -2.3078  1.3667 -0.6637
  143SAPS   H3S15658   2.373   5.034   5.846  0.9138 -2.0436 -0.5232
  143SAPS   C2415659   2.559   4.937   5.845  0.7154 -0.2930 -0.2749
  143SAPS   H4R15660   2.545   4.829   5.866 -0.8271  0.0949  0.8191
  143SAPS   H4S15661   2.646   4.968   5.907 -1.7578  0.5886  3.0148
  143SAPS   C2515662   2.592   4.977   5.699  0.6219  0.4431  0.0718
  143SAPS   H5R15663   2.566   4.896   5.629 -0.5593  0.7281  0.1465
  143SAPS   C2615664   2.650   5.085   5.647 -0.5832  0.6032 -0.8766
  143SAPS   H6R15665   2.677   5.083   5.540 -0.3641  0.3857 -0.8187
  143SAPS   C2715666   2.687   5.216   5.719  0.8566  0.5978 -0.1566
  143SAPS   H7R15667   2.650   5.230   5.823  0.4975  0.7907 -0.3079
  143SAPS   H7S15668   2.623   5.279   5.653 -0.5430 -2.2322 -1.6981
  143SAPS   C2815669   2.830   5.259   5.693  0.1845  0.2897 -0.2793
  143SAPS   H8R15670   2.903   5.237   5.772 -1.3312  1.8341  1.6918
  143SAPS   C2915671   2.875   5.326   5.586  0.2730  0.2286  0.1206
  143SAPS   H9R15672   2.981   5.355   5.589  0.4727 -0.5537  1.7178
  143SAPS  C21015673   2.796   5.378   5.467 -0.3392 -0.2429 -0.5823
  143SAPS  H10R15674   2.859   5.445   5.405 -2.7623  2.2667 -0.5419
  143SAPS  H10S15675   2.717   5.448   5.502 -1.0365 -1.4889  0.4141
  143SAPS  C21115676   2.720   5.280   5.378  0.1327 -0.0671  0.6460
  143SAPS  H11R15677   2.629   5.243   5.427  0.2845  0.9982  1.7892
  143SAPS  C21215678   2.737   5.262   5.245  0.4015 -0.2465  0.2054
  143SAPS  H12R15679   2.682   5.174   5.207  0.3495 -0.0166 -0.2549
  143SAPS  C21315680   2.832   5.320   5.150  0.4383 -0.7649  0.0422
  143SAPS  H13R15681   2.831   5.273   5.050  0.6271 -0.1524 -0.2532
  143SAPS  H13S15682   2.934   5.300   5.189  0.5547  1.5158  1.1217
  143SAPS  C21415683   2.837   5.471   5.121 -0.4140 -0.6048  0.0847
  143SAPS  H14R15684   2.893   5.527   5.197 -0.4673 -1.1016  0.4964
  143SAPS  C21515685   2.790   5.544   5.016 -0.7196 -0.3283  0.6693
  143SAPS  H15R15686   2.795   5.654   5.016 -2.4281 -0.2233  0.3082
  143SAPS  C21615687   2.726   5.496   4.898  0.4561 -0.0449 -0.1402
  143SAPS  H16R15688   2.627   5.542   4.877  0.6445  0.3544 -0.1512
  143SAPS  H16S15689   2.704   5.387   4.901  0.5361 -0.0644 -0.2417
  143SAPS  C21715690   2.799   5.527   4.765 -0.6970  0.4736  0.0902
  143SAPS  H17R15691   2.892   5.467   4.770 -1.1494 -0.3605 -0.9220
  143SAPS  H17S15692   2.826   5.634   4.753  2.1077 -0.3493 -2.1687
  143SAPS  C21815693   2.716   5.476   4.646  0.3914 -1.3857  0.0549
  143SAPS  H18R15694   2.609   5.506   4.657  0.6803 -1.0444  2.3664
  143SAPS  H18S15695   2.709   5.366   4.654  0.6603 -1.3190  1.5501
  143SAPS  C21915696   2.776   5.506   4.512  0.3817 -0.1064  0.4610
  143SAPS  H19R15697   2.887   5.494   4.512  0.7011  2.2598 -0.0768
  143SAPS  H19S15698   2.755   5.613   4.489 -2.7513 -0.8306 -0.5465
  143SAPS  C22015699   2.709   5.410   4.413 -0.6859 -0.0463  0.1504
  143SAPS  H20R15700   2.723   5.311   4.461 -1.8394  0.1800  1.0117
  143SAPS  H20S15701   2.756   5.405   4.313 -2.0846 -0.6647 -0.5141
  143SAPS  H20T15702   2.603   5.434   4.386 -1.0888 -2.0687 -0.2102
  143SAPS   C3315703   2.821   5.359   6.096 -0.4425  0.1905 -0.0776
  143SAPS   H3X15704   2.892   5.381   6.178 -0.3083 -0.7145  0.0520
  143SAPS   H3Y15705   2.726   5.401   6.136  0.4661 -0.4599  3.0560
  143SAPS   C3415706   2.850   5.438   5.969 -0.1262 -0.3387  0.3178
  143SAPS   H4X15707   2.758   5.427   5.908  0.3973 -0.4474 -0.4850
  143SAPS   H4Y15708   2.937   5.396   5.913 -0.7420  1.0457 -1.8049
  143SAPS   C3515709   2.872   5.585   5.992 -0.3665  0.4457 -0.2378
  143SAPS   H5X15710   2.959   5.594   6.061  0.4976  1.2472 -1.3910
  143SAPS   H5Y15711   2.783   5.623   6.046 -0.3871 -0.4226  0.3560
  143SAPS   C3615712   2.927   5.660   5.863 -0.0652  0.1342 -0.2053
  143SAPS   H6X15713   3.007   5.606   5.808  0.4616 -0.2117  0.8848
  143SAPS   H6Y15714   2.958   5.761   5.897  1.5209 -0.8025  1.3062
  143SAPS   C3715715   2.816   5.665   5.747  0.0518 -0.2037 -0.2465
  143SAPS   H7X15716   2.736   5.730   5.787 -0.5095 -2.0757  1.8566
  143SAPS   H7Y15717   2.771   5.564   5.744 -2.2385  0.6732  1.5068
  143SAPS   C3815718   2.873   5.714   5.610 -0.4767  0.0253  0.9953
  143SAPS   H8X15719   2.897   5.631   5.540 -0.3276  0.8636  0.0210
  143SAPS   H8Y15720   2.965   5.772   5.629 -0.0322 -0.6852  1.0626
  143SAPS   C3915721   2.752   5.793   5.546 -0.0216 -0.0324 -0.2324
  143SAPS   H9X15722   2.738   5.874   5.621  0.7044  0.2823 -0.4257
  143SAPS   H9Y15723   2.657   5.736   5.552 -0.9588  1.3475 -1.3895
  143SAPS  C31015724   2.794   5.840   5.411  0.3285  0.0147 -0.2169
  143SAPS  H10X15725   2.852   5.758   5.364 -0.9201  0.0257 -1.8958
  143SAPS  H10Y15726   2.866   5.925   5.416  0.9563 -0.4724 -0.7495
  143SAPS  C31115727   2.673   5.859   5.317  0.1402 -0.5489 -0.4393
  143SAPS  H11X15728   2.604   5.923   5.376 -1.6840 -2.8457  0.0538
  143SAPS  H11Y15729   2.622   5.762   5.298 -0.8878 -0.4976  1.8297
  143SAPS  C31215730   2.732   5.919   5.189 -0.0245  0.3587 -0.0297
  143SAPS  H12X15731   2.813   5.853   5.150  1.4138  0.5299  2.4843
  143SAPS  H12Y15732   2.787   6.010   5.219  0.7845 -1.0937  3.3365
  143SAPS  C31315733   2.637   5.925   5.076 -0.5093  1.0075 -0.4887
  143SAPS  H13X15734   2.556   5.994   5.108 -0.7245  0.3209  0.5008
  143SAPS  H13Y15735   2.592   5.824   5.071 -0.4427  0.8080  1.8142
  143SAPS  C31415736   2.701   5.984   4.946 -0.1960  0.6718 -0.0672
  143SAPS  H14X15737   2.775   5.905   4.919 -0.7981  0.5846 -1.6143
  143SAPS  H14Y15738   2.753   6.080   4.968  1.4000  0.5791 -2.9138
  143SAPS  C31515739   2.601   5.999   4.836 -0.2956 -0.4522  0.2045
  143SAPS  H15X15740   2.540   6.084   4.875  1.2870  0.9643 -0.2857
  143SAPS  H15Y15741   2.543   5.905   4.830 -1.2831  0.0666  1.1999
  143SAPS  C31615742   2.671   6.023   4.700  0.1941  0.1485 -0.4469
  143SAPS  H16X15743   2.728   6.118   4.689  0.5406  0.0513  0.5023
  143SAPS  H16Y15744   2.592   6.031   4.621  0.4982  0.3565 -0.7336
  143SAPS  C31715745   2.751   5.904   4.647 -0.0781  0.0713 -0.0384
  143SAPS  H17X15746   2.688   5.812   4.649  0.7741 -0.6933 -3.0990
  143SAPS  H17Y15747   2.838   5.878   4.711 -0.3820 -1.6504 -0.2827
  143SAPS  C31815748   2.808   5.924   4.502 -0.3405 -0.7253  0.0643
  143SAPS  H18X15749   2.915   5.951   4.519  0.5779 -4.7378  1.9662
  143SAPS  H18Y15750   2.752   6.003   4.449  0.4965  0.9610  1.5800
  143SAPS  H18Z15751   2.805   5.827   4.448 -0.3959 -0.7643  0.1387
  144SAPS     N15752   4.252   1.562   6.349 -0.4197 -0.2761 -0.3612
  144SAPS   HN115753   4.277   1.661   6.368 -1.9467  0.5049 -2.1752
  144SAPS   HN215754   4.344   1.513   6.345  0.4142  1.2285 -0.0420
  144SAPS   HN315755   4.220   1.573   6.251 -0.7642  0.3888 -0.1733
  144SAPS   C1215756   4.153   1.500   6.436  0.0197  0.1605  0.1239
  144SAPS  H12A15757   4.148   1.400   6.396 -0.5959 -0.0523  0.7010
  144SAPS   C1315758   4.179   1.496   6.589 -0.3265 -0.0774  0.7421
  144SAPS  O13A15759   4.296   1.518   6.633 -0.2518  0.4673  0.0465
  144SAPS  O13B15760   4.102   1.429   6.660 -0.6171  0.4502  0.8183
  144SAPS   C1115761   4.016   1.566   6.424  0.6833  0.6964  0.2928
  144SAPS  H11A15762   4.026   1.670   6.461  0.2188  1.4441 -1.5726
  144SAPS  H11B15763   3.942   1.512   6.486 -1.3904 -0.3427 -2.8343
  144SAPS     P15764   3.815   1.566   6.242 -0.1624  0.3211 -0.0518
  144SAPS   O1315765   3.723   1.633   6.343 -0.2126  0.4399  0.1968
  144SAPS   O1415766   3.790   1.602   6.099  0.0434  0.2492 -0.3111
  144SAPS   O1215767   3.974   1.574   6.287 -0.0516 -0.5660  0.2165
  144SAPS   O1115768   3.783   1.412   6.236 -0.1812  0.2245 -0.1854
  144SAPS    C115769   3.883   1.310   6.221  0.4644  0.3371  0.5837
  144SAPS    HA15770   3.984   1.355   6.223 -0.0203  1.5701 -0.8140
  144SAPS    HB15771   3.880   1.240   6.307  2.5938  0.3795  0.7361
  144SAPS    C215772   3.881   1.237   6.081 -0.2405  0.3345 -0.1012
  144SAPS    HS15773   3.977   1.183   6.067  0.2351  0.5079  2.0543
  144SAPS   O2115774   3.852   1.324   5.973 -0.8610 -0.6559 -0.1676
  144SAPS   C2115775   3.947   1.410   5.940  0.1239  0.2109  0.0409
  144SAPS   O2215776   4.055   1.411   5.998 -0.1315  0.0456 -0.3276
  144SAPS   C2215777   3.904   1.497   5.824  0.1775  0.1320  0.3411
  144SAPS   H2R15778   3.865   1.419   5.755  3.1916 -1.7096  0.5460
  144SAPS   H2S15779   3.824   1.556   5.872 -0.4283 -0.7549  0.4403
  144SAPS    C315780   3.758   1.127   6.084  0.4037 -0.8166 -0.6480
  144SAPS    HX15781   3.667   1.181   6.118  0.7444 -1.2786  1.1185
  144SAPS    HY15782   3.788   1.057   6.165  0.2823 -0.2450 -0.0966
  144SAPS   O3115783   3.733   1.049   5.963 -0.0097 -0.5418  0.0450
  144SAPS   C3115784   3.843   1.006   5.899 -0.0006  0.1531 -0.1411
  144SAPS   O3215785   3.954   0.998   5.944  0.1601 -0.4571 -0.4768
  144SAPS   C3215786   3.817   0.968   5.764 -0.5015  0.3002  0.3981
  144SAPS   H2X15787   3.756   0.877   5.783  0.3714  0.2550  3.6994
  144SAPS   H2Y15788   3.915   0.931   5.725 -0.6835 -0.7945  0.9165
  144SAPS   C2315789   4.020   1.585   5.760  0.7605 -0.1126  0.1230
  144SAPS   H3R15790   4.107   1.522   5.732  0.8819 -0.0645  0.3877
  144SAPS   H3S15791   4.072   1.655   5.829  2.9126 -1.9366  0.4793
  144SAPS   C2415792   3.974   1.653   5.632 -0.0735  0.1220  0.4104
  144SAPS   H4R15793   3.949   1.584   5.548 -1.7826 -0.9704  1.7637
  144SAPS   H4S15794   4.067   1.710   5.611 -0.2716  0.0356 -0.8192
  144SAPS   C2515795   3.863   1.756   5.651 -0.0924  0.2778 -0.6798
  144SAPS   H5R15796   3.865   1.807   5.749 -0.5848  0.7605 -0.9147
  144SAPS   C2615797   3.753   1.764   5.578  0.5495 -0.4339 -0.0395
  144SAPS   H6R15798   3.681   1.845   5.596  1.1807  0.0207  0.4832
  144SAPS   C2715799   3.728   1.688   5.450  0.5051  0.4433  0.9666
  144SAPS   H7R15800   3.739   1.582   5.479  0.3334  0.3352  0.6511
  144SAPS   H7S15801   3.798   1.711   5.367  0.4907  1.3194  1.1916
  144SAPS   C2815802   3.590   1.713   5.389  0.0667  0.0925  0.1225
  144SAPS   H8R15803   3.549   1.813   5.411 -0.0916  0.5345 -1.9548
  144SAPS   C2915804   3.532   1.631   5.296 -0.0727 -0.7150  0.1100
  144SAPS   H9R15805   3.438   1.665   5.250 -0.5205 -0.0991  1.4306
  144SAPS  C21015806   3.604   1.513   5.231 -0.4685  0.0323  0.0107
  144SAPS  H10R15807   3.530   1.436   5.202  0.2520  0.1840 -2.4268
  144SAPS  H10S15808   3.675   1.468   5.303  1.6925 -0.0365 -2.0566
  144SAPS  C21115809   3.670   1.548   5.097 -0.4044 -0.2381  0.4092
  144SAPS  H11R15810   3.594   1.596   5.034 -0.5681 -1.7482 -0.5837
  144SAPS  C21215811   3.791   1.512   5.056  0.1072 -0.6050 -0.1087
  144SAPS  H12R15812   3.817   1.543   4.954 -2.2431 -0.2264 -0.6602
  144SAPS  C21315813   3.894   1.424   5.124  0.1265 -0.4751  0.3743
  144SAPS  H13R15814   3.841   1.364   5.201 -0.6560 -0.9515 -0.5072
  144SAPS  H13S15815   3.976   1.479   5.176  0.8814  0.5465 -1.7825
  144SAPS  C21415816   3.954   1.326   5.027 -0.7326 -0.0866 -0.0303
  144SAPS  H14R15817   3.980   1.352   4.924 -0.1982 -1.7221 -0.3465
  144SAPS  C21515818   4.014   1.210   5.071 -0.1342  0.5929  0.8213
  144SAPS  H15R15819   4.062   1.141   5.000  0.4242  1.2592  0.5498
  144SAPS  C21615820   4.020   1.157   5.208  0.0220  0.5027 -0.9917
  144SAPS  H16R15821   3.972   1.059   5.227 -0.5623  0.9783  0.0964
  144SAPS  H16S15822   3.970   1.226   5.279  1.3590  2.6419 -2.0335
  144SAPS  C21715823   4.165   1.144   5.259 -0.0375  0.0216 -0.2758
  144SAPS  H17R15824   4.221   1.238   5.239 -1.5389  1.0378  0.0940
  144SAPS  H17S15825   4.201   1.061   5.195 -4.0547  0.1598 -3.1312
  144SAPS  C21815826   4.173   1.101   5.405  0.6052  0.3742  0.4311
  144SAPS  H18R15827   4.281   1.076   5.414  0.1296 -1.7412  0.9741
  144SAPS  H18S15828   4.118   1.006   5.427 -1.4599  1.4803  0.2865
  144SAPS  C21915829   4.145   1.215   5.505  0.0681  0.3960 -0.0605
  144SAPS  H19R15830   4.041   1.245   5.479  1.1372  2.7392 -1.9796
  144SAPS  H19S15831   4.213   1.298   5.477 -0.4977  1.5423  1.8465
  144SAPS  C22015832   4.158   1.184   5.648 -0.2423 -0.3520  0.5779
  144SAPS  H20R15833   4.097   1.098   5.684 -0.0510 -0.4547  0.6580
  144SAPS  H20S15834   4.148   1.277   5.708  1.1027  0.2233 -0.0445
  144SAPS  H20T15835   4.262   1.153   5.675 -0.6745  0.1239  3.0538
  144SAPS   C3315836   3.764   1.075   5.676  0.1035 -0.2104 -0.2587
  144SAPS   H3X15837   3.829   1.160   5.706  1.3350 -1.5933  1.1738
  144SAPS   H3Y15838   3.659   1.106   5.692  0.9826  0.9964  5.1780
  144SAPS   C3415839   3.785   1.048   5.519 -0.1534  0.1367 -0.3215
  144SAPS   H4X15840   3.863   0.970   5.509 -1.6287 -1.3706 -0.5028
  144SAPS   H4Y15841   3.807   1.143   5.465 -0.0654 -0.7362 -1.8543
  144SAPS   C3515842   3.661   0.979   5.465  0.6504 -0.2481 -0.0954
  144SAPS   H5X15843   3.581   1.053   5.488  0.6575 -0.4099  0.4819
  144SAPS   H5Y15844   3.636   0.890   5.527 -0.2419 -0.3343 -0.5645
  144SAPS   C3615845   3.656   0.947   5.314  0.3110  0.3699  0.5667
  144SAPS   H6X15846   3.573   0.880   5.283 -0.0698  0.9316  0.3693
  144SAPS   H6Y15847   3.744   0.882   5.292 -0.7801 -0.9429 -0.0465
  144SAPS   C3715848   3.657   1.070   5.226 -0.3735 -0.3863  0.0136
  144SAPS   H7X15849   3.742   1.140   5.240 -1.7156  1.8492 -2.2056
  144SAPS   H7Y15850   3.569   1.133   5.253  1.6187  1.8747  1.7108
  144SAPS   C3815851   3.641   1.033   5.078  0.1000  0.4957 -0.1746
  144SAPS   H8X15852   3.554   0.964   5.076  1.1460 -0.8436 -1.5082
  144SAPS   H8Y15853   3.724   0.974   5.035  1.1010  0.7162  1.3383
  144SAPS   C3915854   3.619   1.148   4.979  0.3907 -0.4836 -0.0896
  144SAPS   H9X15855   3.711   1.210   4.986  0.3130 -0.4817  1.0372
  144SAPS   H9Y15856   3.528   1.201   5.012  1.0387 -0.4349  1.6850
  144SAPS  C31015857   3.606   1.093   4.833 -0.4094  0.2670  0.0951
  144SAPS  H10X15858   3.529   1.013   4.831 -0.5726  0.4067  0.6749
  144SAPS  H10Y15859   3.706   1.056   4.799  0.8228  1.6375  2.0306
  144SAPS  C31115860   3.557   1.204   4.738 -0.2971  0.3156 -0.7314
  144SAPS  H11X15861   3.451   1.221   4.765 -0.2106 -0.8984  0.5061
  144SAPS  H11Y15862   3.539   1.165   4.636 -2.5109 -0.9150  0.0657
  144SAPS  C31215863   3.632   1.341   4.738  0.3482 -0.2576  0.5946
  144SAPS  H12X15864   3.737   1.333   4.704  0.0538 -0.2097 -0.3629
  144SAPS  H12Y15865   3.623   1.383   4.841  1.9223 -1.1302  1.1230
  144SAPS  C31315866   3.561   1.457   4.653 -0.2796 -0.2653 -0.1000
  144SAPS  H13X15867   3.464   1.494   4.692 -0.1405  0.7396 -0.6649
  144SAPS  H13Y15868   3.551   1.410   4.552 -1.7977 -1.9681  0.7855
  144SAPS  C31415869   3.639   1.585   4.626 -0.1184  0.3993 -0.1686
  144SAPS  H14X15870   3.704   1.576   4.536 -1.4762  0.6584 -1.2082
  144SAPS  H14Y15871   3.696   1.603   4.719  1.3403 -1.4026 -0.6374
  144SAPS  C31515872   3.548   1.711   4.618 -0.7489 -0.2861 -0.0698
  144SAPS  H15X15873   3.602   1.808   4.620  1.1901 -1.3167  0.0121
  144SAPS  H15Y15874   3.494   1.705   4.715 -0.2469 -0.1960  0.2198
  144SAPS  C31615875   3.459   1.711   4.502  1.4012  0.6771 -0.1007
  144SAPS  H16X15876   3.406   1.808   4.497 -1.1169 -0.5496  0.8101
  144SAPS  H16Y15877   3.378   1.638   4.521  0.6102  1.4548 -0.4155
  144SAPS  C31715878   3.515   1.682   4.362 -0.4943 -0.2790 -0.2012
  144SAPS  H17X15879   3.593   1.603   4.368 -1.2533 -1.1089 -0.8674
  144SAPS  H17Y15880   3.574   1.771   4.330  0.3793 -0.8397 -0.2007
  144SAPS  C31815881   3.408   1.646   4.256  0.3738 -0.2200  0.1587
  144SAPS  H18X15882   3.360   1.552   4.289 -0.9489  0.1528 -0.6342
  144SAPS  H18Y15883   3.457   1.634   4.157 -1.9038 -1.0607 -0.9488
  144SAPS  H18Z15884   3.335   1.729   4.263  0.4110 -0.2834  1.5288
  145SAPS     N15885   2.481   4.599   6.634  0.0455 -0.2403 -0.0649
  145SAPS   HN115886   2.526   4.599   6.728  1.8738  0.9261 -0.8841
  145SAPS   HN215887   2.541   4.553   6.563 -0.9713 -0.0377 -1.0867
  145SAPS   HN315888   2.460   4.697   6.606  0.5490 -0.0968  0.0524
  145SAPS   C1215889   2.351   4.525   6.648 -0.2408  0.3978  0.3959
  145SAPS  H12A15890   2.329   4.466   6.560 -1.6182  2.4409 -0.7133
  145SAPS   C1315891   2.346   4.429   6.773 -0.0500 -0.3458  0.3744
  145SAPS  O13A15892   2.423   4.460   6.867  0.8831  0.2340  0.5136
  145SAPS  O13B15893   2.247   4.353   6.791 -0.3073  0.5191  0.2381
  145SAPS   C1115894   2.238   4.629   6.659 -0.6558 -0.3316  0.0848
  145SAPS  H11A15895   2.231   4.636   6.770  0.2793  0.2402  0.1183
  145SAPS  H11B15896   2.142   4.584   6.626  0.3276 -1.8628 -0.8057
  145SAPS     P15897   2.170   4.868   6.605 -0.3967  0.2367  0.0067
  145SAPS   O1315898   2.090   4.858   6.730  0.0019  0.1531 -0.1359
  145SAPS   O1415899   2.235   5.003   6.582  0.7311  0.0410  0.3842
  145SAPS   O1215900   2.268   4.750   6.596 -0.3556 -0.2830  0.0737
  145SAPS   O1115901   2.069   4.839   6.481  0.7023 -0.0233 -0.0730
  145SAPS    C115902   2.091   4.749   6.370  1.0874 -0.7569  0.1332
  145SAPS    HA15903   2.200   4.735   6.352  0.6972 -2.7917 -0.9325
  145SAPS    HB15904   2.044   4.651   6.394 -2.3989  0.9787  1.0053
  145SAPS    C215905   2.024   4.808   6.240 -0.2859  0.4370  1.0155
  145SAPS    HS15906   1.917   4.777   6.242 -0.1310 -0.0743  1.8017
  145SAPS   O2115907   2.104   4.765   6.121  0.7523 -0.0707 -0.4821
  145SAPS   C2115908   2.081   4.637   6.089  0.2281 -0.5669  0.2913
  145SAPS   O2215909   1.988   4.572   6.129  0.4672  0.4951 -0.0531
  145SAPS   C2215910   2.185   4.591   5.988 -0.2279 -0.5082  0.1198
  145SAPS   H2R15911   2.276   4.654   5.971 -0.2819 -0.2691  0.7113
  145SAPS   H2S15912   2.223   4.490   6.013 -0.7017 -0.7446 -0.1211
  145SAPS    C315913   2.011   4.960   6.236  0.1781 -0.2233  0.7087
  145SAPS    HX15914   2.118   4.992   6.244  0.6459 -1.4088 -0.4645
  145SAPS    HY15915   1.960   4.997   6.327 -0.8987  1.7283 -0.6164
  145SAPS   O3115916   1.952   5.010   6.113  0.4076 -0.2106 -0.1008
  145SAPS   C3115917   1.812   4.995   6.105  0.2683 -0.0399  0.6405
  145SAPS   O3215918   1.745   4.942   6.186 -0.5484  0.3432 -0.2211
  145SAPS   C3215919   1.763   5.061   5.974  0.5147 -0.1109  0.6162
  145SAPS   H2X15920   1.698   5.148   5.995  1.3601  0.4955  0.7344
  145SAPS   H2Y15921   1.695   4.982   5.934 -0.3186  0.4431  0.9162
  145SAPS   C2315922   2.129   4.572   5.846  0.1014 -0.1307  0.2835
  145SAPS   H3R15923   2.034   4.514   5.856 -0.5577  0.5793 -1.4737
  145SAPS   H3S15924   2.203   4.506   5.796 -0.5038 -1.8186  1.4826
  145SAPS   C2415925   2.085   4.696   5.770  0.2131  0.1908 -0.2621
  145SAPS   H4R15926   2.019   4.754   5.838  0.8636 -1.5120  1.9491
  145SAPS   H4S15927   2.021   4.661   5.686  2.4248 -2.8266 -0.8290
  145SAPS   C2515928   2.205   4.760   5.709  0.4221  0.6041 -0.3394
  145SAPS   H5R15929   2.245   4.848   5.761  0.4602  0.0535  0.5819
  145SAPS   C2615930   2.268   4.712   5.600  0.5661  0.5139  0.0600
  145SAPS   H6R15931   2.347   4.771   5.551 -0.8058  0.9395 -1.7299
  145SAPS   C2715932   2.237   4.587   5.523  0.2945  0.3601 -0.3027
  145SAPS   H7R15933   2.134   4.550   5.536  0.5455 -0.2441 -0.0012
  145SAPS   H7S15934   2.307   4.509   5.559 -1.4314 -2.2407 -2.2710
  145SAPS   C2815935   2.259   4.602   5.374  0.0697 -0.5459  0.5507
  145SAPS   H8R15936   2.364   4.611   5.343  0.0731 -2.8489 -0.2889
  145SAPS   C2915937   2.163   4.600   5.279  0.0246  0.3345 -0.6034
  145SAPS   H9R15938   2.201   4.615   5.177  0.9806  2.7538  0.0595
  145SAPS  C21015939   2.013   4.578   5.298 -0.0270  0.0664 -0.0297
  145SAPS  H10R15940   2.014   4.484   5.357 -0.8207  0.6087  0.8786
  145SAPS  H10S15941   1.969   4.558   5.198  2.6477  0.4713 -1.3872
  145SAPS  C21115942   1.935   4.674   5.374  0.2840 -0.7382  0.0657
  145SAPS  H11R15943   1.974   4.689   5.476 -0.6126  4.5214 -0.0927
  145SAPS  C21215944   1.828   4.750   5.327 -0.3816  0.4907 -0.2731
  145SAPS  H12R15945   1.781   4.813   5.404  1.1078  1.4706 -0.1266
  145SAPS  C21315946   1.773   4.756   5.190  0.6895 -0.0185  0.1460
  145SAPS  H13R15947   1.677   4.811   5.192  0.7912  0.2058 -0.5520
  145SAPS  H13S15948   1.737   4.659   5.148 -1.3487  0.8579 -0.2329
  145SAPS  C21415949   1.858   4.828   5.083 -0.2403  0.4869 -0.5689
  145SAPS  H14R15950   1.874   4.932   5.114  0.4763  1.2223 -3.2004
  145SAPS  C21515951   1.898   4.779   4.962  0.7375 -0.9002 -0.0236
  145SAPS  H15R15952   1.961   4.848   4.905 -0.7277  0.9033  0.4521
  145SAPS  C21615953   1.869   4.644   4.901 -0.3248  0.0640 -0.0755
  145SAPS  H16R15954   1.849   4.576   4.986 -0.1007  1.7910  1.4128
  145SAPS  H16S15955   1.956   4.590   4.857  1.9365  1.7105  2.0829
  145SAPS  C21715956   1.755   4.639   4.803 -0.4392  0.4625  0.4821
  145SAPS  H17R15957   1.666   4.690   4.846  1.5075  3.7974  0.9622
  145SAPS  H17S15958   1.736   4.535   4.771  0.9420  0.6937 -1.2842
  145SAPS  C21815959   1.788   4.711   4.672 -0.4127 -0.0584 -0.1215
  145SAPS  H18R15960   1.868   4.647   4.629 -3.0598 -1.6400 -3.1767
  145SAPS  H18S15961   1.820   4.815   4.694 -0.8555  0.1777 -0.5603
  145SAPS  C21915962   1.680   4.705   4.563  0.4462  0.4064 -0.0096
  145SAPS  H19R15963   1.648   4.599   4.552  1.7777 -0.0536  0.4045
  145SAPS  H19S15964   1.740   4.720   4.471  1.0788  1.0048  0.4897
  145SAPS  C22015965   1.562   4.798   4.574  0.0333 -0.1993  0.6531
  145SAPS  H20R15966   1.601   4.902   4.575 -3.6909  1.3540  1.2331
  145SAPS  H20S15967   1.494   4.781   4.660 -1.4764  2.0822  0.0116
  145SAPS  H20T15968   1.510   4.807   4.476  1.4408 -1.4561 -0.2561
  145SAPS   C3315969   1.871   5.093   5.864 -0.1156  1.2814  0.0066
  145SAPS   H3X15970   1.939   5.005   5.860  3.0776  3.5824 -0.3231
  145SAPS   H3Y15971   1.931   5.181   5.896  0.7235 -0.0519  2.3905
  145SAPS   C3415972   1.801   5.118   5.732  0.0964 -0.4019  0.4142
  145SAPS   H4X15973   1.720   5.189   5.759  0.5074 -0.3780  1.6622
  145SAPS   H4Y15974   1.752   5.027   5.691 -3.8498  1.6283  0.1553
  145SAPS   C3515975   1.895   5.167   5.623  0.0548  0.2168 -0.2669
  145SAPS   H5X15976   1.952   5.257   5.655  0.5424 -0.3232  0.4309
  145SAPS   H5Y15977   1.817   5.196   5.549  1.4114  0.4665 -1.6688
  145SAPS   C3615978   1.992   5.055   5.565 -0.2294 -0.7199  0.2315
  145SAPS   H6X15979   1.934   4.963   5.546 -0.9075  0.2402 -3.0271
  145SAPS   H6Y15980   2.079   5.028   5.629  0.3609 -0.4850 -0.4493
  145SAPS   C3715981   2.047   5.090   5.424  0.1578 -0.7399 -0.1138
  145SAPS   H7X15982   2.091   5.192   5.422 -2.3140  0.3864 -1.0093
  145SAPS   H7Y15983   1.960   5.083   5.355 -0.0135 -0.0606  0.0333
  145SAPS   C3815984   2.169   5.003   5.386  0.2569 -0.4813  0.4282
  145SAPS   H8X15985   2.153   4.897   5.415  0.0811 -0.5722  0.0119
  145SAPS   H8Y15986   2.256   5.044   5.441 -0.1147  2.8805 -1.2009
  145SAPS   C3915987   2.179   5.010   5.232  0.3288 -0.5226  0.2162
  145SAPS   H9X15988   2.163   5.119   5.215  1.3586 -0.4842 -0.6135
  145SAPS   H9Y15989   2.097   4.948   5.189  0.4570  0.4242 -1.4641
  145SAPS  C31015990   2.317   4.956   5.184  0.5035 -0.0795  0.6097
  145SAPS  H10X15991   2.316   4.850   5.217  0.3800 -1.2847 -2.8764
  145SAPS  H10Y15992   2.395   5.022   5.227 -0.0416  2.1782 -1.6354
  145SAPS  C31115993   2.322   4.962   5.037  0.0363  1.1228  0.6562
  145SAPS  H11X15994   2.294   5.061   4.995  1.1699  1.1948  0.0341
  145SAPS  H11Y15995   2.247   4.886   5.006  1.0103  1.5540 -3.3019
  145SAPS  C31215996   2.467   4.929   5.007  0.1080  0.0299 -0.1340
  145SAPS  H12X15997   2.490   4.824   5.031 -0.4103  0.0876  0.6613
  145SAPS  H12Y15998   2.532   4.988   5.075 -1.9942 -1.1368  3.1391
  145SAPS  C31315999   2.511   4.965   4.865  0.6126  0.0535 -0.1632
  145SAPS  H13X16000   2.491   5.071   4.839 -2.6061 -0.7317 -1.4231
  145SAPS  H13Y16001   2.438   4.918   4.795 -0.2968  1.0224  0.1139
  145SAPS  C31416002   2.647   4.925   4.835 -0.0998 -0.6179  0.0525
  145SAPS  H14X16003   2.653   4.814   4.847 -3.1250 -1.0185 -1.1704
  145SAPS  H14Y16004   2.716   4.982   4.901 -2.9175  1.5843  1.2630
  145SAPS  C31516005   2.691   4.969   4.691  0.3774 -0.0947  0.3926
  145SAPS  H15X16006   2.800   4.983   4.678  0.1941  1.0886  0.0191
  145SAPS  H15Y16007   2.647   5.065   4.657  1.1307 -0.3752 -1.4736
  145SAPS  C31616008   2.648   4.859   4.592  0.2475 -0.3941  0.8994
  145SAPS  H16X16009   2.538   4.842   4.593  0.0350  0.9394  1.4711
  145SAPS  H16Y16010   2.689   4.757   4.609 -1.2508 -1.4781 -1.4084
  145SAPS  C31716011   2.684   4.903   4.447  0.0307 -0.5256  0.5318
  145SAPS  H17X16012   2.791   4.933   4.449 -0.0245 -0.3434  2.7913
  145SAPS  H17Y16013   2.643   5.004   4.424 -0.8053 -0.5706  1.7414
  145SAPS  C31816014   2.651   4.812   4.333 -0.0982  0.5917  0.5459
  145SAPS  H18X16015   2.540   4.814   4.325 -0.2181 -0.8824  1.5657
  145SAPS  H18Y16016   2.671   4.706   4.360 -2.1410 -0.0083 -0.0471
  145SAPS  H18Z16017   2.714   4.839   4.246  1.3274 -0.6360  1.1667
  146SAPS     N16018   4.663   1.628   6.117 -0.3051 -0.0646  0.4565
  146SAPS   HN116019   4.634   1.530   6.100 -1.5693  0.5061 -0.9230
  146SAPS   HN216020   4.593   1.689   6.070  1.1103  0.3593 -1.1938
  146SAPS   HN316021   4.749   1.655   6.064 -0.3111  0.0875  0.5219
  146SAPS   C1216022   4.663   1.654   6.260 -0.7941 -0.8876  0.0769
  146SAPS  H12A16023   4.636   1.758   6.261  1.6928 -0.1617 -0.4245
  146SAPS   C1316024   4.562   1.570   6.343  0.6234 -0.1898  0.0451
  146SAPS  O13A16025   4.495   1.483   6.286  0.0411  0.4269 -0.4801
  146SAPS  O13B16026   4.547   1.603   6.459  0.2486  0.7359 -0.7303
  146SAPS   C1116027   4.801   1.644   6.326  0.5575  0.0238  0.2150
  146SAPS  H11A16028   4.830   1.539   6.305 -1.6182 -0.8586  1.3635
  146SAPS  H11B16029   4.783   1.665   6.433  0.7692 -3.5496  1.0487
  146SAPS     P16030   5.025   1.775   6.346 -0.2396  0.0587 -0.3754
  146SAPS   O1316031   4.997   1.860   6.467 -0.6134 -0.0977 -0.2002
  146SAPS   O1416032   5.087   1.646   6.382 -0.1590  0.2148  0.3065
  146SAPS   O1216033   4.890   1.742   6.266 -0.1544 -0.1279  0.0656
  146SAPS   O1116034   5.111   1.857   6.238 -0.5690 -0.2553 -0.6856
  146SAPS    C116035   5.053   1.959   6.158 -0.1290 -0.2671 -0.2427
  146SAPS    HA16036   4.983   2.020   6.220  1.5968  1.1702  0.3519
  146SAPS    HB16037   5.128   2.032   6.123 -0.9299  0.1450 -1.1435
  146SAPS    C216038   4.977   1.917   6.028  0.9688  0.2424  0.0620
  146SAPS    HS16039   4.884   1.867   6.061  0.7038  0.0993 -0.8670
  146SAPS   O2116040   5.055   1.829   5.947 -0.0126  0.1943  0.6121
  146SAPS   C2116041   5.002   1.709   5.914  0.6279 -0.3603 -0.2852
  146SAPS   O2216042   4.895   1.663   5.950 -0.3743  0.5836 -0.3127
  146SAPS   C2216043   5.078   1.654   5.797 -0.2438  0.7567 -0.2607
  146SAPS   H2R16044   5.101   1.737   5.726  0.1124  1.9445  1.1957
  146SAPS   H2S16045   5.170   1.606   5.838 -1.6581 -3.5437 -1.6216
  146SAPS    C316046   4.949   2.051   5.955  0.8620  0.6995  0.1750
  146SAPS    HX16047   5.042   2.095   5.912  0.3389  1.0390 -0.6394
  146SAPS    HY16048   4.910   2.117   6.035 -0.3307  0.7745 -0.4409
  146SAPS   O3116049   4.866   2.034   5.841  0.4649 -0.0739  0.5667
  146SAPS   C3116050   4.743   2.075   5.843  0.4863 -0.1253 -1.1210
  146SAPS   O3216051   4.683   2.130   5.936  0.0396 -0.4975  0.4424
  146SAPS   C3216052   4.677   2.009   5.716  0.1905 -0.0930 -0.0138
  146SAPS   H2X16053   4.622   1.923   5.762  2.3709 -2.1047 -0.9506
  146SAPS   H2Y16054   4.755   1.963   5.651  0.2386  0.4011 -0.3129
  146SAPS   C2316055   5.004   1.541   5.725  0.0166 -0.4975 -0.3298
  146SAPS   H3R16056   4.969   1.469   5.802  0.7279  0.4343  0.8960
  146SAPS   H3S16057   5.069   1.488   5.652 -0.4544 -0.5212 -0.7396
  146SAPS   C2416058   4.869   1.573   5.666  0.3460  0.2354 -0.3510
  146SAPS   H4R16059   4.880   1.665   5.605  1.9163 -0.1152 -0.6258
  146SAPS   H4S16060   4.799   1.611   5.743  0.1091  0.0128 -0.4545
  146SAPS   C2516061   4.797   1.460   5.593 -0.3415  0.0264 -1.2719
  146SAPS   H5R16062   4.756   1.385   5.661  2.3965 -1.1818 -0.7934
  146SAPS   C2616063   4.787   1.439   5.461  0.4785 -0.2033 -0.0380
  146SAPS   H6R16064   4.732   1.352   5.422  1.1114 -1.8763  2.5212
  146SAPS   C2716065   4.852   1.531   5.361 -0.6897 -1.1420  0.1881
  146SAPS   H7R16066   4.930   1.598   5.402 -2.4233  0.0143  1.7657
  146SAPS   H7S16067   4.777   1.609   5.336  0.5753 -0.6508 -2.4148
  146SAPS   C2816068   4.900   1.456   5.236  0.2147  0.6543 -0.2089
  146SAPS   H8R16069   4.820   1.446   5.162 -1.8951 -0.3881  2.0562
  146SAPS   C2916070   5.024   1.403   5.226  0.3093  0.0172 -0.5150
  146SAPS   H9R16071   5.044   1.344   5.135  1.1723  1.9501 -1.6437
  146SAPS  C21016072   5.141   1.421   5.316 -0.4800  0.3925  0.6017
  146SAPS  H10R16073   5.189   1.326   5.347 -2.6450 -0.1045  2.8080
  146SAPS  H10S16074   5.107   1.457   5.416 -0.2514  0.1730  0.7599
  146SAPS  C21116075   5.245   1.521   5.253  0.0515  0.3663 -0.6408
  146SAPS  H11R16076   5.203   1.620   5.231 -1.3538  0.3589  1.6408
  146SAPS  C21216077   5.374   1.494   5.222 -0.5372  0.0644  0.6980
  146SAPS  H12R16078   5.438   1.566   5.169  0.4532 -0.0015  1.7747
  146SAPS  C21316079   5.427   1.356   5.233  0.0270 -0.5372  0.0846
  146SAPS  H13R16080   5.530   1.348   5.190  0.4032 -4.5766  1.2719
  146SAPS  H13S16081   5.365   1.285   5.175 -0.0928  0.2538 -0.7754
  146SAPS  C21416082   5.455   1.314   5.376  0.3509  0.1847 -0.0311
  146SAPS  H14R16083   5.479   1.396   5.446 -0.2177 -0.9257  1.5159
  146SAPS  C21516084   5.464   1.184   5.413 -0.1926 -0.4593 -0.1127
  146SAPS  H15R16085   5.482   1.160   5.519  1.9377 -0.6609 -0.4665
  146SAPS  C21616086   5.454   1.065   5.321  0.3461 -0.0420 -0.5864
  146SAPS  H16R16087   5.555   1.040   5.284 -0.1415 -0.5077 -1.6537
  146SAPS  H16S16088   5.393   1.085   5.229 -0.0700  3.4866  0.3046
  146SAPS  C21716089   5.387   0.939   5.385  0.7997  0.3133  0.6326
  146SAPS  H17R16090   5.408   0.844   5.332  1.6096  0.7783  0.0980
  146SAPS  H17S16091   5.276   0.953   5.384  0.6440 -0.7619  1.0631
  146SAPS  C21816092   5.426   0.905   5.527 -0.5319  0.1156  0.0132
  146SAPS  H18R16093   5.398   0.988   5.595  1.5780  1.6386 -0.8713
  146SAPS  H18S16094   5.535   0.884   5.531 -0.7760 -0.9569  2.1543
  146SAPS  C21916095   5.364   0.779   5.587 -0.8929 -0.6193  0.1471
  146SAPS  H19R16096   5.406   0.761   5.688  0.3384 -2.7811 -0.6805
  146SAPS  H19S16097   5.390   0.689   5.528  1.2723 -0.8237  1.3263
  146SAPS  C22016098   5.212   0.792   5.616 -0.5248  0.2154 -0.4400
  146SAPS  H20R16099   5.168   0.865   5.545 -0.2318 -0.2220 -1.0685
  146SAPS  H20S16100   5.189   0.832   5.718 -1.7407  1.2601 -1.0856
  146SAPS  H20T16101   5.177   0.687   5.609  1.5393 -0.5360 -0.0884
  146SAPS   C3316102   4.580   2.089   5.632 -0.0345 -0.0109  0.4450
  146SAPS   H3X16103   4.529   2.157   5.703 -0.4852  0.3093 -0.1751
  146SAPS   H3Y16104   4.510   2.021   5.579  2.3901 -1.5547 -1.0214
  146SAPS   C3416105   4.636   2.190   5.530 -1.0346 -0.0412  0.5326
  146SAPS   H4X16106   4.704   2.147   5.453 -0.9703 -0.4754  0.8278
  146SAPS   H4Y16107   4.697   2.267   5.583  1.3025 -0.8739 -0.7865
  146SAPS   C3516108   4.526   2.281   5.477  0.1185 -0.8529  0.9068
  146SAPS   H5X16109   4.577   2.375   5.447 -3.4317  1.4977  1.6147
  146SAPS   H5Y16110   4.467   2.322   5.562 -1.5415  0.4786 -0.7975
  146SAPS   C3616111   4.441   2.222   5.358  0.3451  0.1688  0.1857
  146SAPS   H6X16112   4.388   2.306   5.309 -1.7204 -2.3624 -2.1955
  146SAPS   H6Y16113   4.362   2.158   5.403  1.4308 -0.7506  0.8606
  146SAPS   C3716114   4.532   2.145   5.256  0.2989  0.2305  0.1914
  146SAPS   H7X16115   4.576   2.052   5.297 -0.9236 -0.2407  0.4824
  146SAPS   H7Y16116   4.620   2.207   5.229  0.4566  0.2623  0.7676
  146SAPS   C3816117   4.462   2.106   5.125 -0.1146  0.5158  0.1060
  146SAPS   H8X16118   4.424   2.194   5.069  0.6150  0.0722 -1.1243
  146SAPS   H8Y16119   4.374   2.043   5.151 -1.8037  2.7795  0.2150
  146SAPS   C3916120   4.556   2.027   5.031 -0.8208  0.6053  0.6257
  146SAPS   H9X16121   4.578   1.937   5.093  2.1044 -0.3785 -1.6073
  146SAPS   H9Y16122   4.641   2.098   5.025 -0.8933  0.7864  1.5859
  146SAPS  C31016123   4.486   1.984   4.896  0.3893  0.8738  0.4093
  146SAPS  H10X16124   4.457   2.081   4.850  1.6127  1.1903  0.2617
  146SAPS  H10Y16125   4.398   1.923   4.924 -0.2730  1.6908  0.1289
  146SAPS  C31116126   4.576   1.914   4.804 -0.3656  0.2196 -0.1508
  146SAPS  H11X16127   4.591   1.808   4.833 -0.3602  0.3509  0.3297
  146SAPS  H11Y16128   4.668   1.976   4.795 -2.0260  3.0103  0.7581
  146SAPS  C31216129   4.526   1.896   4.661  0.2561 -0.3540  0.0058
  146SAPS  H12X16130   4.460   1.981   4.632  1.7970  1.3930  1.3635
  146SAPS  H12Y16131   4.476   1.798   4.644  0.7472 -0.9438  1.7705
  146SAPS  C31316132   4.636   1.903   4.557 -0.4643  0.5952  0.6658
  146SAPS  H13X16133   4.686   2.001   4.570  1.8940 -0.5317  0.6640
  146SAPS  H13Y16134   4.585   1.913   4.459 -1.3293  0.4579  1.0982
  146SAPS  C31416135   4.741   1.789   4.563  0.1570  0.6024  0.4740
  146SAPS  H14X16136   4.688   1.699   4.523  0.3796  0.9484 -0.6451
  146SAPS  H14Y16137   4.777   1.753   4.662  1.4446 -0.1001 -0.2099
  146SAPS  C31516138   4.857   1.806   4.464 -0.3082 -0.6733  0.3460
  146SAPS  H15X16139   4.938   1.867   4.511 -1.0609 -1.5800  3.0169
  146SAPS  H15Y16140   4.816   1.871   4.384 -1.3011  1.4448  2.4635
  146SAPS  C31616141   4.922   1.671   4.428  0.1103 -0.7921  0.5756
  146SAPS  H16X16142   4.848   1.602   4.382 -1.0845 -0.5497  2.0222
  146SAPS  H16Y16143   4.948   1.624   4.526  2.6688  0.0415  0.3677
  146SAPS  C31716144   5.046   1.686   4.346 -0.0318 -0.9457 -0.4143
  146SAPS  H17X16145   5.124   1.745   4.399  0.8233 -2.5896  0.2195
  146SAPS  H17Y16146   5.015   1.740   4.254 -2.4873 -2.2123 -0.4191
  146SAPS  C31816147   5.116   1.557   4.307  0.5773  0.2996  0.5037
  146SAPS  H18X16148   5.047   1.504   4.237  2.0184 -0.6786 -0.2115
  146SAPS  H18Y16149   5.147   1.494   4.393  2.2486  0.7138  0.2360
  146SAPS  H18Z16150   5.205   1.582   4.246  1.5946 -0.8939  1.4541
  147SAPS     N16151   0.886   3.455   6.123 -0.5270 -0.1023 -0.3337
  147SAPS   HN116152   0.825   3.539   6.129 -0.5687 -0.1726  0.3341
  147SAPS   HN216153   0.980   3.492   6.149 -0.7634  1.4543 -1.5643
  147SAPS   HN316154   0.892   3.420   6.025 -2.0680  0.0424 -0.4954
  147SAPS   C1216155   0.828   3.367   6.226 -0.0697 -0.3345 -0.0479
  147SAPS  H12A16156   0.888   3.278   6.242 -0.2219 -0.4821 -0.2856
  147SAPS   C1316157   0.821   3.434   6.365 -0.2214 -0.6520 -0.3203
  147SAPS  O13A16158   0.842   3.558   6.370 -0.2064 -0.2007  0.0760
  147SAPS  O13B16159   0.801   3.360   6.471 -0.1683 -0.4929 -0.3957
  147SAPS   C1116160   0.684   3.323   6.195 -0.4758 -0.0656  0.5723
  147SAPS  H11A16161   0.623   3.415   6.206  0.7913  1.0488 -1.1804
  147SAPS  H11B16162   0.648   3.253   6.274 -2.8560  0.5576  0.1257
  147SAPS     P16163   0.594   3.152   6.022  0.0267 -0.3213 -0.3528
  147SAPS   O1316164   0.670   3.029   6.051  0.1668  0.4973 -0.8258
  147SAPS   O1416165   0.461   3.158   6.099  0.2154  1.1291  0.2626
  147SAPS   O1216166   0.681   3.275   6.059 -0.3463 -0.1301  0.0822
  147SAPS   O1116167   0.555   3.164   5.873 -0.1913 -0.4730  0.2999
  147SAPS    C116168   0.615   3.238   5.771 -0.1872  0.0775 -0.1309
  147SAPS    HA16169   0.726   3.231   5.779 -0.3020 -2.0253  0.3273
  147SAPS    HB16170   0.584   3.204   5.670  0.9045  1.4824 -0.9692
  147SAPS    C216171   0.558   3.386   5.771 -0.1379 -0.1437 -0.3513
  147SAPS    HS16172   0.562   3.423   5.876 -0.5387 -1.2190  0.0544
  147SAPS   O2116173   0.432   3.389   5.703  0.5174  0.0038 -0.0101
  147SAPS   C2116174   0.358   3.493   5.744  0.4483 -0.5314  0.1329
  147SAPS   O2216175   0.388   3.576   5.826  0.0232 -0.3305  0.3023
  147SAPS   C2216176   0.227   3.505   5.654 -0.4670  0.3729 -0.3732
  147SAPS   H2R16177   0.227   3.406   5.603  2.4041  0.5967 -0.9947
  147SAPS   H2S16178   0.132   3.508   5.712 -0.7133 -2.7150 -0.4756
  147SAPS    C316179   0.647   3.484   5.689 -1.3759 -0.7829 -0.9722
  147SAPS    HX16180   0.737   3.498   5.754 -2.8432 -0.9040  1.1887
  147SAPS    HY16181   0.600   3.583   5.675  0.8673  0.8488  1.9570
  147SAPS   O3116182   0.668   3.426   5.560  0.6204  0.2392  0.1084
  147SAPS   C3116183   0.791   3.383   5.539 -0.1700  0.0706  0.5223
  147SAPS   O3216184   0.888   3.409   5.606 -0.5663  0.0410 -0.1577
  147SAPS   C3216185   0.800   3.296   5.413 -0.2208  0.2749  0.1824
  147SAPS   H2X16186   0.701   3.250   5.396 -0.4262  1.1863 -1.2292
  147SAPS   H2Y16187   0.868   3.212   5.439  0.5914  0.7165 -0.4782
  147SAPS   C2316188   0.236   3.621   5.562  0.1052 -0.0800  0.2237
  147SAPS   H3R16189   0.262   3.711   5.621  1.1047  1.0487 -1.8364
  147SAPS   H3S16190   0.136   3.638   5.516  0.8793  1.1752 -1.0878
  147SAPS   C2416191   0.332   3.594   5.445  0.0488 -0.1006 -0.3212
  147SAPS   H4R16192   0.430   3.554   5.479 -0.3368 -1.7678 -1.0679
  147SAPS   H4S16193   0.350   3.694   5.400  1.4468 -0.9745 -1.8289
  147SAPS   C2516194   0.280   3.503   5.335 -0.3562  0.4488 -0.5853
  147SAPS   H5R16195   0.204   3.431   5.369  0.7828 -0.6635 -0.3025
  147SAPS   C2616196   0.318   3.489   5.205 -0.4911  0.2693  0.4958
  147SAPS   H6R16197   0.267   3.422   5.133 -0.0316 -0.7972  1.1472
  147SAPS   C2716198   0.441   3.562   5.144 -0.1744 -1.2806  0.3820
  147SAPS   H7R16199   0.488   3.623   5.223  1.1709 -0.8287 -0.7304
  147SAPS   H7S16200   0.413   3.638   5.068  1.5516 -0.3773  0.6229
  147SAPS   C2816201   0.553   3.472   5.101  1.3652  0.4043 -0.4341
  147SAPS   H8R16202   0.581   3.398   5.177  0.8588 -0.7067 -1.3137
  147SAPS   C2916203   0.605   3.469   4.975  0.4636 -0.2028 -0.3211
  147SAPS   H9R16204   0.675   3.389   4.949  1.9788  1.2349 -0.8340
  147SAPS  C21016205   0.582   3.557   4.855 -0.1180  0.3216  0.6511
  147SAPS  H10R16206   0.511   3.637   4.884 -2.1226 -1.4063  0.7298
  147SAPS  H10S16207   0.519   3.517   4.773  1.6183  1.0671 -1.1144
  147SAPS  C21116208   0.712   3.609   4.807  0.0120 -0.5634  0.2151
  147SAPS  H11R16209   0.766   3.665   4.886 -0.4498 -0.5309  0.5088
  147SAPS  C21216210   0.773   3.613   4.686  0.0332  0.3101  0.1980
  147SAPS  H12R16211   0.865   3.668   4.663  0.7919 -2.3166 -4.1794
  147SAPS  C21316212   0.716   3.551   4.558  0.2380 -0.2813  0.4131
  147SAPS  H13R16213   0.765   3.582   4.464  1.0428  0.5250  1.0769
  147SAPS  H13S16214   0.614   3.594   4.549  0.1049 -0.3607  1.3758
  147SAPS  C21416215   0.701   3.398   4.557  1.6243 -0.0277  0.2739
  147SAPS  H14R16216   0.656   3.359   4.649 -0.2235 -0.2617 -0.6793
  147SAPS  C21516217   0.718   3.312   4.454  0.0255  0.1769  0.6686
  147SAPS  H15R16218   0.715   3.204   4.474 -1.1533  0.2754  1.0649
  147SAPS  C21616219   0.763   3.349   4.312  0.1502 -0.5370 -0.1738
  147SAPS  H16R16220   0.759   3.459   4.294  1.8152 -0.8524 -2.9820
  147SAPS  H16S16221   0.695   3.304   4.237  1.1818 -1.1100 -0.7915
  147SAPS  C21716222   0.896   3.289   4.282  0.0900  0.3767 -0.0648
  147SAPS  H17R16223   0.894   3.180   4.302 -1.3996  0.2201 -0.9735
  147SAPS  H17S16224   0.976   3.335   4.344 -2.0889  5.2780 -0.3598
  147SAPS  C21816225   0.940   3.318   4.139 -0.1891 -0.4085 -0.1433
  147SAPS  H18R16226   0.952   3.428   4.131  2.6422 -0.7593 -2.2658
  147SAPS  H18S16227   0.852   3.293   4.077  1.2392  0.2180 -2.5600
  147SAPS  C21916228   1.061   3.233   4.099  0.6202  0.2791 -0.4539
  147SAPS  H19R16229   1.041   3.126   4.123 -0.3094  0.8645  1.6651
  147SAPS  H19S16230   1.148   3.256   4.165  1.1022  0.9210 -1.2888
  147SAPS  C22016231   1.108   3.269   3.956 -0.0370  0.0074  0.5267
  147SAPS  H20R16232   1.113   3.380   3.947  0.4960  0.1203  1.9771
  147SAPS  H20S16233   1.039   3.234   3.876  1.6858  1.4455 -1.7266
  147SAPS  H20T16234   1.207   3.227   3.929 -0.0916 -0.5817  1.2364
  147SAPS   C3316235   0.862   3.374   5.288  0.0971 -0.1595 -0.1183
  147SAPS   H3X16236   0.955   3.422   5.326  1.6895 -2.6637 -0.5775
  147SAPS   H3Y16237   0.788   3.448   5.252 -1.4501 -1.4422  0.3493
  147SAPS   C3416238   0.898   3.277   5.180 -0.1653  0.6573 -0.1496
  147SAPS   H4X16239   0.802   3.229   5.152  0.0380  0.9370 -1.4248
  147SAPS   H4Y16240   0.971   3.205   5.222  0.5324  1.3529 -0.1560
  147SAPS   C3516241   0.951   3.347   5.057 -0.2072 -0.2591 -0.6862
  147SAPS   H5X16242   1.052   3.387   5.079 -1.2511  1.6790  0.9048
  147SAPS   H5Y16243   0.887   3.438   5.048 -0.3784 -0.3973 -0.8787
  147SAPS   C3616244   0.958   3.250   4.939  0.2800 -1.0945  0.4398
  147SAPS   H6X16245   0.858   3.208   4.913 -0.4467  1.5270 -1.4397
  147SAPS   H6Y16246   1.024   3.165   4.963 -0.1668 -1.2016  1.3571
  147SAPS   C3716247   1.005   3.304   4.795 -1.1650 -0.2579 -0.7565
  147SAPS   H7X16248   1.109   3.343   4.796 -1.8911  1.8960 -2.1137
  147SAPS   H7Y16249   0.936   3.390   4.785 -2.8607 -1.2989  1.1562
  147SAPS   C3816250   1.005   3.201   4.677  0.1482 -1.0785 -0.4587
  147SAPS   H8X16251   1.000   3.260   4.583  1.8702 -1.6132 -0.9215
  147SAPS   H8Y16252   0.906   3.151   4.677  0.7844 -2.4071 -1.4875
  147SAPS   C3916253   1.122   3.108   4.684 -0.2365 -0.7584 -0.1598
  147SAPS   H9X16254   1.089   3.045   4.770 -0.4510  1.1739  1.2518
  147SAPS   H9Y16255   1.217   3.156   4.718  1.0806 -3.1541 -0.2528
  147SAPS  C31016256   1.170   3.018   4.565  0.1024  0.3760  0.3617
  147SAPS  H10X16257   1.092   2.959   4.513 -0.7012  1.3480  0.4373
  147SAPS  H10Y16258   1.236   2.942   4.612 -2.7368 -2.5386 -0.0409
  147SAPS  C31116259   1.243   3.096   4.456 -0.2193 -0.2450  0.7972
  147SAPS  H11X16260   1.329   3.154   4.495  0.0634 -0.3635  0.3634
  147SAPS  H11Y16261   1.167   3.156   4.401  0.5605  0.7364  0.7646
  147SAPS  C31216262   1.304   2.993   4.355  0.3232  0.3357  0.2585
  147SAPS  H12X16263   1.226   2.925   4.315  2.0171 -0.5451 -1.7254
  147SAPS  H12Y16264   1.370   2.934   4.423  0.9970 -1.0355 -1.4820
  147SAPS  C31316265   1.387   3.065   4.252 -0.2452 -0.1205  0.6661
  147SAPS  H13X16266   1.455   3.142   4.294  0.0562 -0.3743  0.6513
  147SAPS  H13Y16267   1.322   3.129   4.189  0.3589 -1.1860 -1.1350
  147SAPS  C31416268   1.473   2.971   4.167 -0.6589 -0.5888  0.1186
  147SAPS  H14X16269   1.424   2.874   4.144 -0.6314 -0.2236 -1.5877
  147SAPS  H14Y16270   1.561   2.944   4.229  0.1828  0.9371 -0.3611
  147SAPS  C31516271   1.519   3.048   4.043  0.6209 -0.4865 -1.0573
  147SAPS  H15X16272   1.548   3.155   4.054 -1.8437  0.3021 -1.5506
  147SAPS  H15Y16273   1.440   3.059   3.966 -0.1692 -0.3681 -0.2461
  147SAPS  C31616274   1.635   2.976   3.974 -0.0346 -0.1657 -0.1891
  147SAPS  H16X16275   1.599   2.874   3.951  0.5813 -1.2775  3.1310
  147SAPS  H16Y16276   1.722   2.957   4.041  1.1452 -0.3398 -1.7064
  147SAPS  C31716277   1.678   3.056   3.861 -0.4947 -0.3603  0.4744
  147SAPS  H17X16278   1.720   3.157   3.877  3.3091 -1.7064 -0.0976
  147SAPS  H17Y16279   1.587   3.063   3.797  0.2210 -0.6676 -0.5859
  147SAPS  C31816280   1.786   2.978   3.787 -0.0349 -0.2988 -0.0937
  147SAPS  H18X16281   1.762   2.873   3.761 -3.8013  0.0135  1.5360
  147SAPS  H18Y16282   1.871   2.970   3.859  0.8645 -3.1895 -1.3225
  147SAPS  H18Z16283   1.816   3.028   3.692 -0.8324 -1.9911 -1.2703
  148SAPS     N16284   0.631   4.152   6.705 -0.4320  0.6040  0.0431
  148SAPS   HN116285   0.611   4.056   6.669  1.3212  0.5732 -0.9498
  148SAPS   HN216286   0.732   4.176   6.703 -0.5881  1.1952 -1.5749
  148SAPS   HN316287   0.593   4.161   6.802 -1.6944  3.5304 -0.6255
  148SAPS   C1216288   0.554   4.242   6.626  0.7562  0.5831  0.1993
  148SAPS  H12A16289   0.449   4.234   6.650  0.3349  0.4801 -1.5178
  148SAPS   C1316290   0.588   4.395   6.643  1.2111 -0.7049  0.6932
  148SAPS  O13A16291   0.685   4.435   6.702 -0.7273 -0.7009  0.1219
  148SAPS  O13B16292   0.511   4.480   6.584 -0.2026 -0.1009  0.2176
  148SAPS   C1116293   0.579   4.202   6.480 -0.7697  0.5076  0.5884
  148SAPS  H11A16294   0.686   4.223   6.457 -0.6158 -1.0897 -0.3239
  148SAPS  H11B16295   0.501   4.249   6.416 -1.8076 -0.7100  0.9128
  148SAPS     P16296   0.463   3.991   6.372  0.0077 -0.0605  0.0186
  148SAPS   O1316297   0.506   3.853   6.350 -0.4769 -0.5233  0.0232
  148SAPS   O1416298   0.330   4.010   6.423  0.6490  0.3550 -0.0894
  148SAPS   O1216299   0.568   4.058   6.466 -0.2065  0.0640 -0.0918
  148SAPS   O1116300   0.485   4.079   6.243  0.0701 -0.5556 -0.4455
  148SAPS    C116301   0.395   4.084   6.136  0.6820 -0.1049 -0.3245
  148SAPS    HA16302   0.292   4.058   6.168  0.6279 -1.0470 -1.1897
  148SAPS    HB16303   0.381   4.190   6.105 -2.5082  0.1995  1.6606
  148SAPS    C216304   0.447   4.012   6.012 -0.4957 -0.2192  0.3013
  148SAPS    HS16305   0.479   3.914   6.052 -2.2026 -0.6885  0.6092
  148SAPS   O2116306   0.548   4.093   5.950  0.4361 -0.7556 -0.7330
  148SAPS   C2116307   0.676   4.065   5.981 -0.5007  0.3269  0.4891
  148SAPS   O2216308   0.714   3.979   6.055  0.3662 -0.2469 -0.0661
  148SAPS   C2216309   0.762   4.156   5.896 -0.0258 -0.1905  0.1254
  148SAPS   H2R16310   0.697   4.194   5.814 -0.7083 -0.4709  0.5296
  148SAPS   H2S16311   0.793   4.240   5.963 -0.4563 -1.4700  2.0226
  148SAPS    C316312   0.339   3.968   5.917  0.0127  0.7758  0.2649
  148SAPS    HX16313   0.264   4.049   5.904 -1.5165 -0.5891  0.2728
  148SAPS    HY16314   0.285   3.890   5.974  1.1252 -1.2035 -1.2431
  148SAPS   O3116315   0.394   3.911   5.801  0.0802  0.0149 -0.2213
  148SAPS   C3116316   0.389   3.977   5.688 -0.2170  0.7245  0.0895
  148SAPS   O3216317   0.329   4.081   5.671 -0.0558 -0.1724  0.0709
  148SAPS   C3216318   0.489   3.908   5.591 -0.3154  0.4586 -0.1048
  148SAPS   H2X16319   0.456   3.803   5.577 -2.6772  1.1285  0.0775
  148SAPS   H2Y16320   0.588   3.906   5.641  0.4357 -1.2450 -1.5499
  148SAPS   C2316321   0.881   4.088   5.824  0.1208  0.5041  0.0130
  148SAPS   H3R16322   0.848   4.037   5.731  1.2201  1.0544 -0.7038
  148SAPS   H3S16323   0.926   4.010   5.889 -0.3983  0.2208  0.0384
  148SAPS   C2416324   1.001   4.172   5.784 -0.4001 -0.4475  0.0030
  148SAPS   H4R16325   1.079   4.120   5.725  0.9267  1.3935  0.0341
  148SAPS   H4S16326   1.049   4.197   5.881  0.5406  1.1149 -0.8220
  148SAPS   C2516327   0.977   4.300   5.720  0.3011 -0.3218 -0.0186
  148SAPS   H5R16328   0.955   4.386   5.785  1.0425 -0.2802  0.1895
  148SAPS   C2616329   0.976   4.316   5.589  0.1213 -0.4311 -0.2874
  148SAPS   H6R16330   0.943   4.412   5.547  2.2800 -0.9047 -3.4799
  148SAPS   C2716331   1.002   4.219   5.479 -1.0706 -0.1894  0.8576
  148SAPS   H7R16332   1.053   4.126   5.512 -1.2050 -1.1950 -1.5311
  148SAPS   H7S16333   1.084   4.270   5.424  0.2040  0.0809  2.9160
  148SAPS   C2816334   0.882   4.190   5.395 -0.2300  0.0558  0.5917
  148SAPS   H8R16335   0.815   4.115   5.439  2.0400 -0.9508  2.5714
  148SAPS   C2916336   0.850   4.243   5.272 -0.0315  0.3544 -0.8941
  148SAPS   H9R16337   0.758   4.210   5.224 -1.5665  2.7125  0.2190
  148SAPS  C21016338   0.930   4.335   5.193 -0.3060 -0.0773 -0.3076
  148SAPS  H10R16339   1.003   4.396   5.251  2.1596 -1.3395 -1.8853
  148SAPS  H10S16340   0.857   4.397   5.137 -2.8195 -2.5343  0.0145
  148SAPS  C21116341   1.009   4.262   5.088  0.6185 -0.2742 -0.1833
  148SAPS  H11R16342   1.045   4.167   5.132 -3.2051 -1.0130  1.8246
  148SAPS  C21216343   1.046   4.292   4.964 -0.5248  0.2183 -0.6191
  148SAPS  H12R16344   1.105   4.219   4.907  2.0471  0.8958  0.9961
  148SAPS  C21316345   1.015   4.413   4.885 -0.5848  0.0284  0.2724
  148SAPS  H13R16346   1.020   4.509   4.941 -1.1401  0.4657 -0.3910
  148SAPS  H13S16347   0.910   4.412   4.847  0.1741 -0.2172 -1.9511
  148SAPS  C21416348   1.099   4.424   4.761  0.3372 -0.5253 -0.3220
  148SAPS  H14R16349   1.197   4.467   4.787  0.7969 -1.2151 -0.9001
  148SAPS  C21516350   1.072   4.408   4.629  0.3143  0.8142 -0.2398
  148SAPS  H15R16351   1.154   4.435   4.560  0.4103 -2.2137 -1.4728
  148SAPS  C21616352   0.948   4.355   4.565  0.6111  0.5349  0.0019
  148SAPS  H16R16353   0.869   4.351   4.643 -1.6985 -0.4122 -2.2466
  148SAPS  H16S16354   0.958   4.255   4.519 -0.7989  0.3550  0.0211
  148SAPS  C21716355   0.904   4.447   4.450 -0.4082 -0.3712  0.6203
  148SAPS  H17R16356   0.902   4.552   4.487 -0.4098 -1.6025  4.4736
  148SAPS  H17S16357   0.799   4.413   4.437 -0.6675  0.2589  1.0117
  148SAPS  C21816358   0.990   4.446   4.323  0.0176 -0.6028  0.3157
  148SAPS  H18R16359   1.043   4.350   4.305  0.0455 -0.3030 -1.3316
  148SAPS  H18S16360   1.066   4.525   4.340 -0.4772 -0.5919  2.9400
  148SAPS  C21916361   0.902   4.476   4.204  0.6153 -0.7476 -0.6574
  148SAPS  H19R16362   0.866   4.580   4.214 -0.2195 -0.8274 -2.5393
  148SAPS  H19S16363   0.815   4.408   4.188 -1.2813  1.5296 -0.5853
  148SAPS  C22016364   0.995   4.467   4.077 -0.4240  0.3670 -0.3876
  148SAPS  H20R16365   0.940   4.509   3.991  0.6268  0.5223 -1.0073
  148SAPS  H20S16366   1.022   4.359   4.072 -1.2021  0.1930 -0.9858
  148SAPS  H20T16367   1.093   4.514   4.102  0.4068 -1.8553  0.8687
  148SAPS   C3316368   0.493   3.976   5.454  0.3861 -0.1092 -0.7423
  148SAPS   H3X16369   0.515   4.084   5.465 -0.5451  0.2295 -1.9683
  148SAPS   H3Y16370   0.387   3.976   5.421  0.2068 -2.7983 -0.3858
  148SAPS   C3416371   0.557   3.913   5.329 -0.0721 -0.9339 -0.1469
  148SAPS   H4X16372   0.531   3.806   5.311  1.8120 -1.7271  1.5753
  148SAPS   H4Y16373   0.662   3.898   5.360  0.5273 -0.7136 -1.9676
  148SAPS   C3516374   0.548   4.006   5.209 -0.0691 -0.1659  0.3509
  148SAPS   H5X16375   0.576   4.110   5.235  0.7416 -0.6768  1.6216
  148SAPS   H5Y16376   0.440   4.008   5.186 -0.1307  2.0521  0.6187
  148SAPS   C3616377   0.645   3.966   5.092 -0.3118 -0.0808  0.2455
  148SAPS   H6X16378   0.627   3.860   5.064 -0.1030 -0.1241  0.2760
  148SAPS   H6Y16379   0.749   3.959   5.131 -0.0164 -3.4401 -0.8259
  148SAPS   C3716380   0.642   4.064   4.984  0.4531 -0.6210 -0.2377
  148SAPS   H7X16381   0.713   4.147   5.004 -0.0250 -0.2370 -0.1358
  148SAPS   H7Y16382   0.540   4.106   4.983  0.8118  0.2895  0.1797
  148SAPS   C3816383   0.677   3.990   4.850  0.6825 -0.7383  0.2074
  148SAPS   H8X16384   0.640   3.885   4.849 -0.0582 -0.5054  1.6912
  148SAPS   H8Y16385   0.787   3.977   4.838  0.4583 -2.3075 -0.3414
  148SAPS   C3916386   0.619   4.064   4.727 -0.0648 -0.1043 -0.4114
  148SAPS   H9X16387   0.664   4.165   4.744 -0.8612 -0.2025  2.9638
  148SAPS   H9Y16388   0.508   4.073   4.716  0.1482  3.9868 -0.8991
  148SAPS  C31016389   0.665   4.010   4.590 -0.0933  0.6334 -0.6901
  148SAPS  H10X16390   0.612   3.914   4.570  1.5790  0.2726 -3.9481
  148SAPS  H10Y16391   0.771   3.986   4.613 -0.8266 -1.8195  0.4593
  148SAPS  C31116392   0.640   4.099   4.466 -0.2387 -0.1734 -0.4972
  148SAPS  H11X16393   0.684   4.197   4.495 -1.6414  0.7935 -1.5265
  148SAPS  H11Y16394   0.532   4.108   4.445 -1.0362 -2.8960  1.8049
  148SAPS  C31216395   0.706   4.040   4.342  0.2237  0.1759  0.4437
  148SAPS  H12X16396   0.679   3.932   4.345 -0.1815  0.2770  0.4781
  148SAPS  H12Y16397   0.813   4.054   4.365  0.0613  1.8367  0.3255
  148SAPS  C31316398   0.655   4.110   4.221 -0.1205 -0.1732  0.6726
  148SAPS  H13X16399   0.654   4.216   4.253  3.4896  0.1657  0.1213
  148SAPS  H13Y16400   0.551   4.073   4.215 -1.0224  1.6762  3.2375
  148SAPS  C31416401   0.746   4.075   4.100 -0.2350 -0.1834 -0.4342
  148SAPS  H14X16402   0.851   4.091   4.134 -1.1679 -0.5583  3.0308
  148SAPS  H14Y16403   0.721   4.138   4.013 -1.6412  1.1978  0.9047
  148SAPS  C31516404   0.730   3.938   4.049  0.2487  0.2341 -0.3964
  148SAPS  H15X16405   0.623   3.915   4.028 -0.0038 -0.4961  1.4708
  148SAPS  H15Y16406   0.774   3.869   4.124  2.0934  0.8056 -0.9038
  148SAPS  C31616407   0.813   3.911   3.927  0.7481 -0.2125 -0.0888
  148SAPS  H16X16408   0.818   3.801   3.915 -0.8771 -0.9498  4.3976
  148SAPS  H16Y16409   0.917   3.947   3.937  1.4881 -2.1868 -0.1697
  148SAPS  C31716410   0.759   3.964   3.797 -0.2984  0.5845  1.0347
  148SAPS  H17X16411   0.774   4.074   3.799 -1.3940  0.7611  0.5159
  148SAPS  H17Y16412   0.652   3.935   3.794  0.3721 -2.3455  1.7772
  148SAPS  C31816413   0.828   3.925   3.662  0.0579 -0.6768 -0.2172
  148SAPS  H18X16414   0.798   3.994   3.580  1.7107 -1.4356 -1.5413
  148SAPS  H18Y16415   0.802   3.825   3.621  1.1498 -0.0327 -2.6484
  148SAPS  H18Z16416   0.937   3.938   3.680 -0.4325  1.9959  1.2968
  149SAPS     N16417   6.296   2.114   6.685  0.0874 -0.4833  0.2226
  149SAPS   HN116418   6.323   2.151   6.592  0.8372 -1.2568  0.1205
  149SAPS   HN216419   6.262   2.017   6.676 -0.2739 -0.2823 -0.6164
  149SAPS   HN316420   6.223   2.170   6.735 -0.4973 -3.0599  2.4534
  149SAPS   C1216421   6.413   2.082   6.772  0.3290  0.1221 -0.5181
  149SAPS  H12A16422   6.475   2.170   6.781  0.2731  0.3311 -1.9513
  149SAPS   C1316423   6.383   2.028   6.913 -0.5187 -0.3079  0.1801
  149SAPS  O13A16424   6.266   2.038   6.954 -0.3769  0.6629  0.1468
  149SAPS  O13B16425   6.480   2.017   6.989 -0.3705  0.5410 -0.0334
  149SAPS   C1116426   6.487   1.965   6.712  0.1139 -0.0223 -0.4392
  149SAPS  H11A16427   6.572   1.940   6.779 -0.5351  0.2902  0.5259
  149SAPS  H11B16428   6.527   2.000   6.614  2.2638  1.6154  0.9261
  149SAPS     P16429   6.459   1.702   6.686  0.0649 -0.3235  0.1989
  149SAPS   O1316430   6.559   1.701   6.793  0.8409  0.3983 -0.8450
  149SAPS   O1416431   6.347   1.609   6.697 -0.1866  1.1957 -0.3508
  149SAPS   O1216432   6.404   1.852   6.697 -0.2820 -0.3782  0.0643
  149SAPS   O1116433   6.531   1.688   6.544 -0.5977  0.0146  0.3418
  149SAPS    C116434   6.461   1.692   6.418 -0.4892 -0.7730 -0.1284
  149SAPS    HA16435   6.352   1.706   6.435 -0.0142  1.5749  1.5870
  149SAPS    HB16436   6.489   1.781   6.357  1.1209 -0.9741  0.2613
  149SAPS    C216437   6.467   1.566   6.338  0.2122  0.7350  0.1379
  149SAPS    HS16438   6.442   1.481   6.405  1.2529 -1.0146 -1.5898
  149SAPS   O2116439   6.599   1.557   6.277  0.3247  0.8985 -0.2265
  149SAPS   C2116440   6.635   1.434   6.234 -0.1691  0.3408 -0.1390
  149SAPS   O2216441   6.567   1.337   6.216 -0.4193  0.0060 -0.9590
  149SAPS   C2216442   6.788   1.429   6.200 -0.8304  0.1528  0.3305
  149SAPS   H2R16443   6.832   1.529   6.217 -1.8025  1.0359 -1.9017
  149SAPS   H2S16444   6.833   1.343   6.254 -0.3219  1.5907  2.2877
  149SAPS    C316445   6.353   1.564   6.232  0.1949 -0.7010  0.3060
  149SAPS    HX16446   6.250   1.574   6.273 -0.8645  1.2361 -2.5572
  149SAPS    HY16447   6.347   1.469   6.174  0.6697 -0.8555  0.5001
  149SAPS   O3116448   6.375   1.680   6.144 -0.7168  0.4455  0.7331
  149SAPS   C3116449   6.386   1.658   6.014 -0.6392 -0.8054 -0.8244
  149SAPS   O3216450   6.367   1.553   5.960 -0.5495  0.5341  0.5906
  149SAPS   C3216451   6.457   1.771   5.959 -0.0369  0.2657  0.2607
  149SAPS   H2X16452   6.559   1.761   6.002 -0.5326  0.0067  1.4230
  149SAPS   H2Y16453   6.406   1.868   5.978  0.4031  1.1267 -2.5233
  149SAPS   C2316454   6.817   1.405   6.052  0.9774  0.5303  0.3385
  149SAPS   H3R16455   6.751   1.324   6.014  0.9717  0.2594  0.9132
  149SAPS   H3S16456   6.919   1.361   6.041 -0.2951 -2.2582 -1.4057
  149SAPS   C2416457   6.821   1.546   5.984  0.0328  0.2199  0.3984
  149SAPS   H4R16458   6.907   1.604   6.025  1.1640 -0.4870 -0.8715
  149SAPS   H4S16459   6.726   1.599   6.006 -0.1869 -0.6315  1.6198
  149SAPS   C2516460   6.835   1.555   5.835  0.3822 -0.3278 -0.2836
  149SAPS   H5R16461   6.787   1.478   5.774 -0.8107 -0.2930  0.5699
  149SAPS   C2616462   6.886   1.655   5.767 -0.4486 -0.5006 -0.5301
  149SAPS   H6R16463   6.899   1.651   5.658  3.0004  0.2226 -0.2396
  149SAPS   C2716464   6.941   1.779   5.826 -0.3709  0.4128 -0.4277
  149SAPS   H7R16465   7.011   1.823   5.752 -1.0560  1.3063 -0.5617
  149SAPS   H7S16466   7.009   1.754   5.911 -1.9056  0.4655  0.8637
  149SAPS   C2816467   6.844   1.883   5.881 -1.1588  0.0146  0.2860
  149SAPS   H8R16468   6.818   1.863   5.986  0.0752  0.9983  0.8059
  149SAPS   C2916469   6.786   1.978   5.807 -0.0548 -0.2913  0.3387
  149SAPS   H9R16470   6.721   2.047   5.863 -0.0924 -0.9094  1.0619
  149SAPS  C21016471   6.801   2.009   5.662 -0.4044  0.0011 -0.2467
  149SAPS  H10R16472   6.902   2.054   5.648  0.2635 -0.1107  3.2573
  149SAPS  H10S16473   6.729   2.090   5.639  1.1806  1.6763  0.4429
  149SAPS  C21116474   6.762   1.892   5.571 -0.2765 -0.0659  0.2552
  149SAPS  H11R16475   6.691   1.820   5.614 -1.1943  0.7299  0.0989
  149SAPS  C21216476   6.777   1.875   5.438  0.3261 -0.5463 -0.1556
  149SAPS  H12R16477   6.721   1.787   5.402  1.8443 -0.7220 -2.3185
  149SAPS  C21316478   6.839   1.965   5.331  0.0392  0.4196 -0.2456
  149SAPS  H13R16479   6.850   2.069   5.369 -0.8933  0.2143  0.6290
  149SAPS  H13S16480   6.767   1.977   5.247 -1.2658  0.2722  0.8096
  149SAPS  C21416481   6.972   1.908   5.274 -0.7200  0.2248 -0.3666
  149SAPS  H14R16482   7.023   1.854   5.356 -0.1381  1.8699  0.3995
  149SAPS  C21516483   7.022   1.896   5.150 -0.5458  0.7986 -0.0982
  149SAPS  H15R16484   7.116   1.841   5.135  0.0724  1.4488  1.2023
  149SAPS  C21616485   6.954   1.938   5.024 -0.5218 -0.9171 -0.2367
  149SAPS  H16R16486   7.037   1.972   4.959  0.2104  0.7394  1.4859
  149SAPS  H16S16487   6.897   2.032   5.043  1.5989  0.3612  0.0896
  149SAPS  C21716488   6.870   1.833   4.948 -0.5245  0.1127 -0.0469
  149SAPS  H17R16489   6.780   1.802   5.005 -1.8343 -1.0938 -2.5757
  149SAPS  H17S16490   6.935   1.743   4.937 -2.6431 -1.3561 -1.3204
  149SAPS  C21816491   6.810   1.884   4.819 -0.0597 -0.4218  0.4132
  149SAPS  H18R16492   6.895   1.909   4.751 -0.2838 -0.2030  0.2108
  149SAPS  H18S16493   6.749   1.977   4.819 -0.7654 -0.8114 -2.2428
  149SAPS  C21916494   6.732   1.776   4.741 -0.3378 -0.1964 -0.4197
  149SAPS  H19R16495   6.626   1.771   4.774 -0.3673  0.8354 -0.3272
  149SAPS  H19S16496   6.783   1.679   4.756 -0.3314  0.0766  1.5282
  149SAPS  C22016497   6.743   1.797   4.583  0.3982 -0.1454 -0.1426
  149SAPS  H20R16498   6.844   1.774   4.543  0.0933 -2.9957  0.5170
  149SAPS  H20S16499   6.715   1.901   4.555 -0.4103 -0.9201 -2.4260
  149SAPS  H20T16500   6.669   1.723   4.545 -1.2323  0.8953  0.8699
  149SAPS   C3316501   6.475   1.768   5.799  0.2129  0.2371 -0.4812
  149SAPS   H3X16502   6.551   1.698   5.757  1.2501  1.9938 -1.6778
  149SAPS   H3Y16503   6.506   1.870   5.766  1.5128  0.6315  1.7348
  149SAPS   C3416504   6.353   1.729   5.721 -0.4406  0.0064 -0.4168
  149SAPS   H4X16505   6.266   1.778   5.769  1.1740  2.9205 -0.2363
  149SAPS   H4Y16506   6.357   1.618   5.725  1.3474  0.0603  0.5664
  149SAPS   C3516507   6.361   1.790   5.582  0.0575 -1.1305  0.7068
  149SAPS   H5X16508   6.466   1.773   5.548 -0.2917 -1.7441 -0.1142
  149SAPS   H5Y16509   6.339   1.899   5.581  4.7899  0.0604 -0.9057
  149SAPS   C3616510   6.253   1.726   5.490 -0.0627 -0.3114  0.1809
  149SAPS   H6X16511   6.158   1.742   5.545 -0.5459  0.7190 -0.9163
  149SAPS   H6Y16512   6.266   1.617   5.474 -1.3896 -0.3015 -1.1903
  149SAPS   C3716513   6.229   1.798   5.357 -0.2776 -0.4617  0.5226
  149SAPS   H7X16514   6.202   1.905   5.372  1.5011 -0.1722  1.8991
  149SAPS   H7Y16515   6.138   1.761   5.304 -0.2722  1.6666 -1.1224
  149SAPS   C3816516   6.358   1.781   5.267  0.6904 -0.6376  0.0614
  149SAPS   H8X16517   6.337   1.743   5.164  2.6105  2.5899 -1.6680
  149SAPS   H8Y16518   6.425   1.706   5.316  4.3913  1.9995 -0.5486
  149SAPS   C3916519   6.442   1.902   5.260  0.5065  0.0705  0.4943
  149SAPS   H9X16520   6.535   1.865   5.212  0.0707 -1.3878  0.7103
  149SAPS   H9Y16521   6.474   1.928   5.363  0.8272 -1.3393  0.7747
  149SAPS  C31016522   6.373   2.018   5.187  0.3542  0.2635  0.3205
  149SAPS  H10X16523   6.288   2.056   5.247  1.0334 -0.2489  1.6585
  149SAPS  H10Y16524   6.336   1.978   5.091  2.2182  1.4141 -0.9566
  149SAPS  C31116525   6.476   2.128   5.169 -0.3481 -0.0445 -0.1855
  149SAPS  H11X16526   6.534   2.140   5.263 -0.4097 -2.5441  0.2345
  149SAPS  H11Y16527   6.433   2.228   5.147  0.9031  0.4071 -0.6683
  149SAPS  C31216528   6.564   2.103   5.050  0.1713  0.1523  0.2435
  149SAPS  H12X16529   6.601   1.999   5.034 -0.4160  0.1742 -1.3789
  149SAPS  H12Y16530   6.649   2.175   5.047 -0.9765  1.7125  2.4990
  149SAPS  C31316531   6.492   2.122   4.915 -0.0055  0.2452  0.5935
  149SAPS  H13X16532   6.391   2.078   4.927  0.0643  0.1806  0.9808
  149SAPS  H13Y16533   6.551   2.078   4.832 -0.5836  0.9019 -0.1818
  149SAPS  C31416534   6.506   2.267   4.852  0.0918  0.4339 -0.1166
  149SAPS  H14X16535   6.571   2.325   4.920 -0.0372  3.8609 -2.6540
  149SAPS  H14Y16536   6.406   2.315   4.853  0.6367  1.6360 -0.8943
  149SAPS  C31516537   6.562   2.270   4.706 -0.2810  0.3454 -0.3752
  149SAPS  H15X16538   6.499   2.191   4.661  0.0784 -2.0399  2.9677
  149SAPS  H15Y16539   6.668   2.238   4.698  0.1845  1.6786  0.1087
  149SAPS  C31616540   6.544   2.409   4.646  0.3056 -0.4477  0.3786
  149SAPS  H16X16541   6.445   2.454   4.668  0.2811 -1.2623  2.1469
  149SAPS  H16Y16542   6.598   2.488   4.703  0.5657 -1.1201  1.0788
  149SAPS  C31716543   6.579   2.419   4.494  0.0239  0.4317 -0.4061
  149SAPS  H17X16544   6.687   2.393   4.484 -0.1961 -0.3621 -0.7604
  149SAPS  H17Y16545   6.568   2.529   4.479 -1.5666  0.4966  1.0362
  149SAPS  C31816546   6.488   2.338   4.397 -0.2171 -0.2132 -0.0240
  149SAPS  H18X16547   6.381   2.366   4.412 -0.2029  0.1053 -0.4937
  149SAPS  H18Y16548   6.487   2.229   4.418  2.9008 -0.1606  0.8770
  149SAPS  H18Z16549   6.515   2.345   4.289  2.7665  0.2287  0.6884
  150SAPS     N16550   0.213   6.532   6.313 -0.0170  0.5102 -0.2072
  150SAPS   HN116551   0.308   6.505   6.344 -0.5529 -2.0471 -0.5261
  150SAPS   HN216552   0.156   6.446   6.299 -0.6138  0.9716 -0.6891
  150SAPS   HN316553   0.228   6.588   6.227 -1.5252 -1.4332 -1.8573
  150SAPS   C1216554   0.147   6.612   6.418 -0.4608  0.6020 -0.3506
  150SAPS  H12A16555   0.048   6.636   6.380 -0.5888  0.1934 -0.2770
  150SAPS   C1316556   0.135   6.555   6.564  0.1393 -0.3901 -0.3937
  150SAPS  O13A16557   0.146   6.432   6.576  0.0726  0.2811  0.3307
  150SAPS  O13B16558   0.088   6.628   6.651  0.6165 -0.2487  0.3297
  150SAPS   C1116559   0.222   6.748   6.437 -0.5030  0.2391  0.7704
  150SAPS  H11A16560   0.321   6.743   6.487  1.1310 -0.5919 -2.3106
  150SAPS  H11B16561   0.151   6.815   6.490 -1.1464  0.7423 -0.6788
  150SAPS     P16562   0.304   6.956   6.308 -0.4926  0.3426  0.0598
  150SAPS   O1316563   0.192   7.052   6.284 -0.0621 -0.5854  0.0445
  150SAPS   O1416564   0.385   6.982   6.427 -0.3727 -0.3146  0.2510
  150SAPS   O1216565   0.257   6.806   6.308 -0.0753 -0.2817  0.0508
  150SAPS   O1116566   0.395   6.949   6.178  0.0679  0.1271  0.1563
  150SAPS    C116567   0.465   6.835   6.130  0.1476  0.3320 -0.3896
  150SAPS    HA16568   0.504   6.783   6.220 -0.7975  2.2597  1.2178
  150SAPS    HB16569   0.412   6.762   6.066  1.9587 -1.5391  0.1423
  150SAPS    C216570   0.597   6.877   6.060  0.7885  0.2964 -0.7825
  150SAPS    HS16571   0.622   6.972   6.114 -1.7826  1.0038 -0.6983
  150SAPS   O2116572   0.564   6.903   5.928 -0.6832 -0.7308 -0.3011
  150SAPS   C2116573   0.648   6.977   5.858  0.1748 -0.8471 -0.2442
  150SAPS   O2216574   0.754   7.022   5.902 -0.2620  0.0077 -0.3949
  150SAPS   C2216575   0.592   7.000   5.712 -0.2565 -0.0867  0.1344
  150SAPS   H2R16576   0.555   6.902   5.675 -0.2890  0.4964 -1.4464
  150SAPS   H2S16577   0.503   7.067   5.721  0.7016  1.7547 -2.8583
  150SAPS    C316578   0.714   6.782   6.077 -0.6638  0.0118  0.2673
  150SAPS    HX16579   0.739   6.783   6.185  1.9270 -0.3599 -0.2577
  150SAPS    HY16580   0.804   6.810   6.019 -1.5716 -0.0495 -1.2158
  150SAPS   O3116581   0.676   6.651   6.045  0.3344  0.4753 -0.0693
  150SAPS   C3116582   0.694   6.611   5.917  0.1100 -0.0703 -1.0256
  150SAPS   O3216583   0.753   6.674   5.834  0.5009  0.1408  0.0502
  150SAPS   C3216584   0.625   6.479   5.895 -0.0105 -0.2931 -0.1938
  150SAPS   H2X16585   0.525   6.487   5.942  0.9929  1.4034  1.7806
  150SAPS   H2Y16586   0.676   6.390   5.938 -1.8865 -0.7331  1.2690
  150SAPS   C2316587   0.700   7.058   5.620 -0.3663  0.1764  0.4385
  150SAPS   H3R16588   0.733   7.155   5.661  0.3203 -0.6905  2.0337
  150SAPS   H3S16589   0.647   7.082   5.525 -0.1492  2.0075  0.7527
  150SAPS   C2416590   0.826   6.971   5.608 -0.1813  0.6420 -0.4418
  150SAPS   H4R16591   0.873   6.951   5.707 -3.2961 -2.1811  0.6694
  150SAPS   H4S16592   0.900   7.035   5.555  0.5583  0.6903  0.6028
  150SAPS   C2516593   0.791   6.840   5.534 -0.0076 -0.3867  0.0901
  150SAPS   H5R16594   0.734   6.767   5.595 -0.9807  1.1604  1.0900
  150SAPS   C2616595   0.783   6.824   5.398  0.0872 -0.2186  0.1924
  150SAPS   H6R16596   0.735   6.731   5.366 -1.5817  0.5621  0.3017
  150SAPS   C2716597   0.826   6.914   5.292  0.4790  0.2221  0.6408
  150SAPS   H7R16598   0.931   6.897   5.262  0.2831 -2.4688  1.2794
  150SAPS   H7S16599   0.836   7.015   5.339  0.2554  0.6770 -0.2693
  150SAPS   C2816600   0.734   6.920   5.176  0.1075  0.3950  0.0647
  150SAPS   H8R16601   0.639   6.975   5.192  0.0603  0.1943  0.4838
  150SAPS   C2916602   0.743   6.857   5.059  0.1799  0.1915  0.4278
  150SAPS   H9R16603   0.661   6.874   4.987 -0.6629  1.8705  1.7033
  150SAPS  C21016604   0.860   6.775   5.009 -0.0709 -0.1921  1.0393
  150SAPS  H10R16605   0.822   6.679   4.969 -0.3099  0.1253  0.4768
  150SAPS  H10S16606   0.924   6.749   5.095  2.4306  0.4511 -0.5089
  150SAPS  C21116607   0.935   6.857   4.908  0.3948 -0.1394  0.5698
  150SAPS  H11R16608   1.027   6.900   4.952 -0.4826  0.6994  1.6311
  150SAPS  C21216609   0.916   6.857   4.771  0.4630 -0.0208 -0.2665
  150SAPS  H12R16610   0.979   6.928   4.716  2.2173 -1.2597  0.0749
  150SAPS  C21316611   0.812   6.781   4.700 -0.7255  0.6128  0.8617
  150SAPS  H13R16612   0.784   6.827   4.603 -0.1168  0.8549  0.7900
  150SAPS  H13S16613   0.714   6.771   4.751 -1.2015  1.4091  0.1447
  150SAPS  C21416614   0.871   6.638   4.662 -0.1648 -0.0356 -0.6918
  150SAPS  H14R16615   0.981   6.632   4.650 -0.1848 -1.7676 -0.2707
  150SAPS  C21516616   0.814   6.522   4.649 -0.0794 -0.1742  0.1801
  150SAPS  H15R16617   0.867   6.437   4.603  0.2386  0.4388 -0.6114
  150SAPS  C21616618   0.669   6.498   4.671 -0.7701 -0.0644  0.0734
  150SAPS  H16R16619   0.618   6.461   4.580 -1.9164 -0.5959  0.8925
  150SAPS  H16S16620   0.622   6.593   4.706 -0.1851  1.7644 -3.6850
  150SAPS  C21716621   0.646   6.385   4.774 -0.0171 -0.1577  0.8220
  150SAPS  H17R16622   0.691   6.290   4.738 -1.2164  0.1482 -1.6903
  150SAPS  H17S16623   0.538   6.361   4.766 -0.4694  1.0695  2.5559
  150SAPS  C21816624   0.677   6.418   4.920 -0.1676  0.1356 -0.3982
  150SAPS  H18R16625   0.653   6.524   4.942  0.4861  0.4651 -1.2015
  150SAPS  H18S16626   0.788   6.411   4.928 -0.0783 -0.2190 -1.6835
  150SAPS  C21916627   0.612   6.324   5.022 -0.2640  0.7301 -0.6199
  150SAPS  H19R16628   0.603   6.215   4.999 -0.2087 -0.0775  2.6175
  150SAPS  H19S16629   0.505   6.352   5.031 -0.7224 -0.8095 -0.8554
  150SAPS  C22016630   0.678   6.333   5.162 -0.0874  0.4886  1.2027
  150SAPS  H20R16631   0.782   6.294   5.155 -0.7665 -1.0804 -1.6164
  150SAPS  H20S16632   0.630   6.267   5.238 -0.5128 -0.6553 -0.0203
  150SAPS  H20T16633   0.680   6.442   5.181  1.8808  0.5807  0.7177
  150SAPS   C3316634   0.593   6.455   5.744 -0.0586  0.4266  0.5359
  150SAPS   H3X16635   0.686   6.456   5.684  0.9004  0.8087  1.9711
  150SAPS   H3Y16636   0.530   6.534   5.699  1.6505  0.1581 -2.5936
  150SAPS   C3416637   0.514   6.330   5.715  0.3231 -0.7354 -0.4425
  150SAPS   H4X16638   0.419   6.327   5.773  0.7138  1.3827  0.3886
  150SAPS   H4Y16639   0.567   6.241   5.754 -0.1863 -0.6847  0.3992
  150SAPS   C3516640   0.478   6.319   5.568 -0.0058 -0.0991  0.0887
  150SAPS   H5X16641   0.558   6.367   5.507  1.1034  0.8280  2.1892
  150SAPS   H5Y16642   0.383   6.375   5.555  0.0803  0.2700  0.9900
  150SAPS   C3616643   0.446   6.176   5.534  0.2852  0.1535 -0.2967
  150SAPS   H6X16644   0.355   6.146   5.591  0.9122 -0.9068  0.1761
  150SAPS   H6Y16645   0.530   6.111   5.566 -0.7210 -1.0219  0.0619
  150SAPS   C3716646   0.432   6.144   5.382 -0.4655 -0.8980  0.3008
  150SAPS   H7X16647   0.538   6.124   5.351  1.7550  2.9228  4.3329
  150SAPS   H7Y16648   0.422   6.245   5.336  0.5878  0.4874  2.9266
  150SAPS   C3816649   0.339   6.039   5.327  0.6896  0.0712  0.4255
  150SAPS   H8X16650   0.237   6.062   5.363  0.8187 -1.4708  1.8892
  150SAPS   H8Y16651   0.369   5.939   5.364 -0.9449 -0.7164 -0.3182
  150SAPS   C3916652   0.338   6.030   5.168 -0.4207  0.1304 -0.0140
  150SAPS   H9X16653   0.269   5.946   5.147  0.1165  0.1298 -2.0430
  150SAPS   H9Y16654   0.437   6.006   5.123  0.1699  2.6221 -0.2115
  150SAPS  C31016655   0.281   6.151   5.094 -0.2057 -0.0351  0.7264
  150SAPS  H10X16656   0.339   6.244   5.110  1.4635 -1.2450  1.9716
  150SAPS  H10Y16657   0.174   6.165   5.123  0.3251  1.2136  2.1837
  150SAPS  C31116658   0.284   6.139   4.938  0.3441 -0.7089  0.0815
  150SAPS  H11X16659   0.238   6.044   4.905 -0.1527 -1.4192  2.6306
  150SAPS  H11Y16660   0.385   6.160   4.895  0.1692 -0.7577 -0.3552
  150SAPS  C31216661   0.196   6.251   4.871  0.1779 -0.2655  0.1787
  150SAPS  H12X16662   0.221   6.360   4.869 -0.5985 -0.0624  1.0937
  150SAPS  H12Y16663   0.096   6.256   4.919 -0.6658  3.0695 -1.5396
  150SAPS  C31316664   0.164   6.209   4.719 -0.4955  0.3410  1.0146
  150SAPS  H13X16665   0.079   6.267   4.679 -0.3014  0.3555  0.6185
  150SAPS  H13Y16666   0.134   6.102   4.706  0.0182  0.1719  1.1803
  150SAPS  C31416667   0.286   6.238   4.632  0.6652  0.1459  0.8620
  150SAPS  H14X16668   0.375   6.185   4.672  0.4845  1.0018  2.4398
  150SAPS  H14Y16669   0.309   6.346   4.632 -1.9448  0.7655  0.0066
  150SAPS  C31516670   0.265   6.185   4.495 -0.2009  0.5270  0.7070
  150SAPS  H15X16671   0.207   6.090   4.487  1.8130 -0.5725 -2.7968
  150SAPS  H15Y16672   0.363   6.157   4.450 -1.2646 -1.9512 -0.2998
  150SAPS  C31616673   0.205   6.285   4.400 -0.0137 -0.3137 -0.5030
  150SAPS  H16X16674   0.274   6.370   4.384  3.1328 -2.7697 -0.8621
  150SAPS  H16Y16675   0.107   6.319   4.440 -0.3637 -0.1767 -1.4412
  150SAPS  C31716676   0.166   6.226   4.267 -0.3336 -0.2309 -0.6939
  150SAPS  H17X16677   0.099   6.138   4.277  0.6836 -1.0219 -0.7464
  150SAPS  H17Y16678   0.262   6.193   4.223 -0.5361  0.8044 -2.0002
  150SAPS  C31816679   0.109   6.322   4.163 -0.0211  0.6385  0.3123
  150SAPS  H18X16680   0.170   6.414   4.151  0.1256  0.5743  0.5571
  150SAPS  H18Y16681   0.002   6.351   4.173  0.0695  1.1116 -0.0481
  150SAPS  H18Z16682   0.097   6.264   4.069  1.7552 -2.3261  1.7627
  151SAPS     N16683   4.727   4.483   2.219  0.2063  0.2893 -0.0116
  151SAPS   HN116684   4.684   4.410   2.279 -1.3984  2.0189  1.0494
  151SAPS   HN216685   4.831   4.476   2.223  0.1944  0.6769  1.8544
  151SAPS   HN316686   4.716   4.579   2.256 -0.7287  0.0325  0.3949
  151SAPS   C1216687   4.689   4.492   2.077  0.0231 -0.5131 -0.0640
  151SAPS  H12A16688   4.763   4.551   2.023  0.0690 -0.9559 -0.4904
  151SAPS   C1316689   4.687   4.358   2.000  0.2256 -0.2959  0.2759
  151SAPS  O13A16690   4.714   4.247   2.055 -0.3240  0.1493  0.2009
  151SAPS  O13B16691   4.635   4.352   1.886  1.0468  0.1422 -0.0853
  151SAPS   C1116692   4.556   4.574   2.064 -0.1286  0.2759 -0.2704
  151SAPS  H11A16693   4.464   4.523   2.102 -1.1589  2.4083  0.2587
  151SAPS  H11B16694   4.536   4.597   1.957 -3.8337  0.3823  0.3074
  151SAPS     P16695   4.461   4.796   2.157  0.3286  0.3625 -0.2169
  151SAPS   O1316696   4.502   4.906   2.241 -0.4082 -0.0472  0.5366
  151SAPS   O1416697   4.403   4.830   2.025  0.3850  0.0443  0.4172
  151SAPS   O1216698   4.581   4.693   2.133 -0.2853  0.7061 -0.4869
  151SAPS   O1116699   4.349   4.717   2.233 -0.1602  0.5693  0.9926
  151SAPS    C116700   4.374   4.663   2.364  0.4476  0.2844  0.2860
  151SAPS    HA16701   4.454   4.587   2.352  0.4944 -0.2059  3.1185
  151SAPS    HB16702   4.399   4.749   2.430 -1.3278  0.2175  1.0806
  151SAPS    C216703   4.258   4.598   2.428  0.5975 -0.2299 -0.4816
  151SAPS    HS16704   4.217   4.521   2.360 -0.3784 -0.2379  0.0940
  151SAPS   O2116705   4.156   4.697   2.443  0.9772 -0.0314 -0.6151
  151SAPS   C2116706   4.038   4.647   2.475  0.1037  0.6089  0.0420
  151SAPS   O2216707   4.006   4.531   2.495  0.1389  0.6505  0.7396
  151SAPS   C2216708   3.933   4.758   2.483  0.3257  0.1286  0.4574
  151SAPS   H2R16709   3.974   4.839   2.419  0.4199 -1.2817 -1.3340
  151SAPS   H2S16710   3.844   4.718   2.430 -0.1361  1.8254 -0.1174
  151SAPS    C316711   4.300   4.524   2.564  0.7337  0.0136  0.7188
  151SAPS    HX16712   4.368   4.446   2.524  0.3732 -0.5535  1.2049
  151SAPS    HY16713   4.212   4.479   2.614 -0.3334  0.3573 -0.7948
  151SAPS   O3116714   4.358   4.609   2.664 -0.2388  0.0709 -0.3675
  151SAPS   C3116715   4.489   4.596   2.681 -0.6396 -0.2753 -0.1188
  151SAPS   O3216716   4.566   4.530   2.616 -0.5749  0.6903  0.3455
  151SAPS   C3216717   4.525   4.692   2.791  0.3344 -0.3130 -0.4711
  151SAPS   H2X16718   4.463   4.665   2.879 -0.8059  2.9669 -0.1493
  151SAPS   H2Y16719   4.505   4.798   2.765  0.8717 -0.2151 -0.5123
  151SAPS   C2316720   3.890   4.796   2.624 -0.1957  0.5965  0.9486
  151SAPS   H3R16721   3.859   4.707   2.682 -0.0704  0.5033  0.8739
  151SAPS   H3S16722   3.809   4.872   2.615  0.6010  1.2982 -0.6331
  151SAPS   C2416723   4.008   4.873   2.690  0.1614  0.0006  0.7397
  151SAPS   H4R16724   4.096   4.804   2.691 -0.5807 -0.9766  0.8298
  151SAPS   H4S16725   3.973   4.886   2.795 -1.2579 -0.7672  0.3807
  151SAPS   C2516726   4.033   5.010   2.640 -0.0582 -0.2656 -0.5486
  151SAPS   H5R16727   3.944   5.060   2.599 -0.0323  0.7505  0.5897
  151SAPS   C2616728   4.155   5.075   2.634  0.0656  0.6262  0.6357
  151SAPS   H6R16729   4.157   5.176   2.591  1.7189  0.4102  0.1031
  151SAPS   C2716730   4.289   5.026   2.674 -0.0969 -0.1659 -0.4285
  151SAPS   H7R16731   4.286   4.919   2.703 -1.8365 -0.5040 -1.6995
  151SAPS   H7S16732   4.326   5.076   2.766 -0.2161 -0.2683 -0.3252
  151SAPS   C2816733   4.387   5.035   2.565  0.1275  0.3993 -0.7797
  151SAPS   H8R16734   4.378   4.959   2.486  1.6011  0.1433 -0.7413
  151SAPS   C2916735   4.472   5.131   2.542 -0.1650 -0.6142 -0.2738
  151SAPS   H9R16736   4.527   5.117   2.447  3.1209 -2.1542  1.6678
  151SAPS  C21016737   4.496   5.253   2.628  0.3854  0.0001 -0.2241
  151SAPS  H10R16738   4.570   5.223   2.705  0.5844  2.8772  0.8215
  151SAPS  H10S16739   4.403   5.272   2.685  0.2919 -0.5400 -0.1875
  151SAPS  C21116740   4.533   5.376   2.539  0.2460  0.9068  0.9918
  151SAPS  H11R16741   4.555   5.352   2.433  0.2530 -0.3476  1.2563
  151SAPS  C21216742   4.541   5.503   2.582 -0.0259 -1.1436 -0.3317
  151SAPS  H12R16743   4.558   5.589   2.515 -0.6676 -0.9783 -0.2829
  151SAPS  C21316744   4.520   5.552   2.727 -0.8488  0.9485  0.7246
  151SAPS  H13R16745   4.612   5.528   2.783  1.3795  0.5592 -2.7673
  151SAPS  H13S16746   4.438   5.494   2.774 -0.8517  0.9049  0.6678
  151SAPS  C21416747   4.494   5.702   2.740  0.5318  0.1962 -0.4103
  151SAPS  H14R16748   4.563   5.764   2.680  1.4331 -0.8697 -0.5037
  151SAPS  C21516749   4.413   5.763   2.829 -0.8983  0.3088  0.0732
  151SAPS  H15R16750   4.409   5.872   2.815  1.8554  0.5555  0.5352
  151SAPS  C21616751   4.330   5.705   2.941 -0.2435  0.3661  0.1906
  151SAPS  H16R16752   4.309   5.598   2.923  0.8436 -0.0424  1.1794
  151SAPS  H16S16753   4.224   5.737   2.940 -0.1101  0.8333  0.6243
  151SAPS  C21716754   4.392   5.705   3.086  0.4746 -0.8773  0.0824
  151SAPS  H17R16755   4.497   5.679   3.062 -0.0539 -0.0921 -3.6622
  151SAPS  H17S16756   4.336   5.625   3.140 -1.2757  0.8561  0.9585
  151SAPS  C21816757   4.378   5.835   3.163  0.2143  0.0778 -1.0569
  151SAPS  H18R16758   4.272   5.851   3.191  0.1339 -1.1527 -0.5828
  151SAPS  H18S16759   4.406   5.918   3.094  1.4461 -1.2161 -2.1906
  151SAPS  C21916760   4.458   5.830   3.293 -0.8073 -0.6154  0.3740
  151SAPS  H19R16761   4.561   5.799   3.267 -0.8202 -0.6808  0.3996
  151SAPS  H19S16762   4.413   5.761   3.367 -0.7598 -0.6547  0.3666
  151SAPS  C22016763   4.459   5.967   3.366  0.6698  0.4999 -0.2992
  151SAPS  H20R16764   4.528   5.969   3.453  2.0103 -1.2526 -1.2705
  151SAPS  H20S16765   4.358   5.986   3.409  1.4967 -2.6644  3.6789
  151SAPS  H20T16766   4.474   6.047   3.291  1.5695 -0.3229 -1.0093
  151SAPS   C3316767   4.677   4.690   2.842 -0.7115  0.0459 -0.7205
  151SAPS   H3X16768   4.742   4.692   2.753  0.7602  0.9211  0.3333
  151SAPS   H3Y16769   4.691   4.593   2.893  1.4371  0.1151 -1.1096
  151SAPS   C3416770   4.724   4.819   2.920  0.3496  1.1718 -0.2987
  151SAPS   H4X16771   4.644   4.852   2.989  1.9029  1.4977  1.4214
  151SAPS   H4Y16772   4.747   4.905   2.853  0.8404  2.4951  1.4963
  151SAPS   C3516773   4.838   4.783   3.007 -0.4448 -0.2458  0.5575
  151SAPS   H5X16774   4.930   4.780   2.944 -1.9008 -0.7443 -1.6305
  151SAPS   H5Y16775   4.825   4.683   3.052  0.8350  0.2445  2.1445
  151SAPS   C3616776   4.849   4.861   3.143 -0.0841 -0.4655  0.7756
  151SAPS   H6X16777   4.891   4.959   3.113 -2.1988  0.0921 -0.6128
  151SAPS   H6Y16778   4.925   4.806   3.203  0.1541 -2.0147 -0.8532
  151SAPS   C3716779   4.726   4.896   3.229 -0.3912 -0.1672  0.5017
  151SAPS   H7X16780   4.679   4.986   3.186 -1.1814 -0.2691  1.1254
  151SAPS   H7Y16781   4.780   4.930   3.320  2.4807 -2.3069 -0.2335
  151SAPS   C3816782   4.643   4.774   3.274 -0.2273  0.4159  0.1967
  151SAPS   H8X16783   4.700   4.684   3.307 -1.2080  0.6978  2.9131
  151SAPS   H8Y16784   4.596   4.734   3.182  1.1180  0.7675 -0.6855
  151SAPS   C3916785   4.529   4.800   3.375  0.5523 -0.1091 -0.5012
  151SAPS   H9X16786   4.450   4.859   3.324 -0.5944 -0.1723  1.0960
  151SAPS   H9Y16787   4.581   4.855   3.457  0.5203  1.2502 -1.3639
  151SAPS  C31016788   4.452   4.680   3.440 -0.6680 -0.0003  0.2117
  151SAPS  H10X16789   4.430   4.602   3.364 -0.6591 -0.1216  0.3342
  151SAPS  H10Y16790   4.355   4.720   3.476 -2.0035 -2.0374 -0.9051
  151SAPS  C31116791   4.541   4.620   3.556  0.1163 -0.0256 -0.2708
  151SAPS  H11X16792   4.579   4.699   3.624  1.4889 -0.9894  0.1241
  151SAPS  H11Y16793   4.626   4.560   3.516  1.6514  1.1266  1.1402
  151SAPS  C31216794   4.446   4.536   3.646  0.9193  0.3349 -0.4118
  151SAPS  H12X16795   4.408   4.455   3.581 -1.0928 -0.6536  1.8266
  151SAPS  H12Y16796   4.369   4.603   3.692  1.3436 -1.0191  2.4607
  151SAPS  C31316797   4.527   4.471   3.765 -0.2190 -0.5587  0.3902
  151SAPS  H13X16798   4.579   4.546   3.827  0.0985 -2.0334  2.0045
  151SAPS  H13Y16799   4.608   4.409   3.721  1.8363  0.7944  2.1049
  151SAPS  C31416800   4.438   4.379   3.850  0.1459  0.4789  0.5830
  151SAPS  H14X16801   4.384   4.310   3.781  2.0260  1.0646 -1.5932
  151SAPS  H14Y16802   4.354   4.438   3.892 -2.4686 -1.6387 -1.3249
  151SAPS  C31516803   4.524   4.297   3.953  0.2253 -0.1681 -0.2249
  151SAPS  H15X16804   4.565   4.361   4.033  2.0565 -1.7924  0.1981
  151SAPS  H15Y16805   4.615   4.249   3.910 -1.4707 -4.1005  0.0983
  151SAPS  C31616806   4.432   4.197   4.023 -0.2069  0.7050  0.0359
  151SAPS  H16X16807   4.408   4.129   3.938  2.3494 -1.0190  0.5690
  151SAPS  H16Y16808   4.335   4.238   4.058 -1.1578 -1.4956  0.1023
  151SAPS  C31716809   4.507   4.129   4.137  0.0107 -0.0848 -0.4969
  151SAPS  H17X16810   4.606   4.099   4.095 -0.4530 -1.9321 -0.3736
  151SAPS  H17Y16811   4.455   4.032   4.153  0.8410 -0.2331  1.5981
  151SAPS  C31816812   4.526   4.202   4.265 -0.1858 -0.2204  0.7217
  151SAPS  H18X16813   4.431   4.256   4.288  0.0079  1.2128 -1.4950
  151SAPS  H18Y16814   4.595   4.287   4.248  1.7765 -1.5161  1.9511
  151SAPS  H18Z16815   4.562   4.142   4.350  1.2938 -0.3901 -0.0049
  152SAPS     N16816   5.201   4.569   1.927  0.5477 -0.5870  0.4680
  152SAPS   HN116817   5.218   4.625   1.840  1.8888 -0.9278  0.4895
  152SAPS   HN216818   5.105   4.589   1.962 -1.3984 -1.0783 -3.9485
  152SAPS   HN316819   5.280   4.596   1.989  0.9112 -0.6464  0.0360
  152SAPS   C1216820   5.216   4.427   1.892  0.1730 -0.0962 -0.2048
  152SAPS  H12A16821   5.150   4.370   1.957 -2.2350  2.5684 -0.1112
  152SAPS   C1316822   5.174   4.382   1.749 -0.0287 -0.2009  0.1224
  152SAPS  O13A16823   5.109   4.465   1.677  0.2950 -0.0669 -0.6679
  152SAPS  O13B16824   5.169   4.260   1.725 -0.0865  0.3872  0.3459
  152SAPS   C1116825   5.369   4.393   1.898 -0.4559  0.6307 -0.2798
  152SAPS  H11A16826   5.420   4.415   1.802  0.4467 -0.3496 -0.0399
  152SAPS  H11B16827   5.377   4.284   1.917 -2.0896  0.3594 -1.0291
  152SAPS     P16828   5.573   4.488   2.025  0.3134 -0.2401  0.1503
  152SAPS   O1316829   5.620   4.562   1.909  0.5297 -0.1538  0.3594
  152SAPS   O1416830   5.609   4.549   2.155  0.4548 -0.2010  0.3445
  152SAPS   O1216831   5.421   4.464   2.015  0.1177  0.4199  0.0905
  152SAPS   O1116832   5.622   4.340   2.006 -0.6092  0.1269 -0.4084
  152SAPS    C116833   5.574   4.236   2.094  0.1721  0.1107 -0.4149
  152SAPS    HA16834   5.479   4.265   2.143  0.7282  1.9589 -0.3247
  152SAPS    HB16835   5.566   4.147   2.029  3.7011 -1.0466  0.5376
  152SAPS    C216836   5.673   4.194   2.206 -0.1482  1.1866  0.5107
  152SAPS    HS16837   5.637   4.098   2.249  1.8377 -0.0781 -0.4652
  152SAPS   O2116838   5.698   4.296   2.307  0.0559  0.8644  0.3740
  152SAPS   C2116839   5.591   4.323   2.384 -0.2644 -0.2332 -0.3028
  152SAPS   O2216840   5.493   4.247   2.390 -0.3195 -0.4935 -0.8200
  152SAPS   C2216841   5.623   4.451   2.472 -0.3037  0.0440  0.0758
  152SAPS   H2R16842   5.732   4.472   2.470  0.4494 -3.1056  1.2348
  152SAPS   H2S16843   5.574   4.535   2.419  1.2883 -0.1936 -1.8969
  152SAPS    C316844   5.815   4.151   2.154 -0.1425 -0.3520  0.7685
  152SAPS    HX16845   5.855   4.204   2.064  0.4081 -0.5517  0.8927
  152SAPS    HY16846   5.811   4.049   2.111  1.5500 -0.0253 -0.2799
  152SAPS   O3116847   5.909   4.143   2.257  0.2682 -0.1563  0.5637
  152SAPS   C3116848   6.015   4.222   2.267 -0.5399  1.0818  0.2530
  152SAPS   O3216849   6.052   4.302   2.188 -0.2298 -0.2090  0.2083
  152SAPS   C3216850   6.097   4.184   2.390  0.0354 -0.6687 -0.6750
  152SAPS   H2X16851   6.177   4.114   2.359  0.9563  0.6536 -1.3672
  152SAPS   H2Y16852   6.031   4.131   2.462  1.5486  1.0680  2.1730
  152SAPS   C2316853   5.574   4.435   2.615 -0.0860 -0.1175  0.5250
  152SAPS   H3R16854   5.623   4.354   2.675  0.6472  0.8549  1.2707
  152SAPS   H3S16855   5.470   4.399   2.605  0.0523 -0.1502 -1.1616
  152SAPS   C2416856   5.565   4.564   2.697 -0.0018 -0.3238  0.3773
  152SAPS   H4R16857   5.492   4.541   2.777  1.0478 -1.6154  1.0003
  152SAPS   H4S16858   5.526   4.641   2.627  0.0141  1.9115  2.6980
  152SAPS   C2516859   5.699   4.592   2.743 -0.5175 -0.4612  0.7661
  152SAPS   H5R16860   5.775   4.607   2.665 -3.0692 -1.4577 -2.1597
  152SAPS   C2616861   5.738   4.600   2.875  0.0005  0.1063  0.3224
  152SAPS   H6R16862   5.847   4.613   2.885 -0.1472  0.1545  2.4608
  152SAPS   C2716863   5.651   4.586   2.998 -1.2454  0.8080 -0.5737
  152SAPS   H7R16864   5.562   4.654   3.004 -1.2809  0.6447  3.5688
  152SAPS   H7S16865   5.712   4.616   3.086 -0.2347 -0.2077 -0.9131
  152SAPS   C2816866   5.590   4.449   3.015 -0.0362  0.5068  0.0629
  152SAPS   H8R16867   5.563   4.405   2.918  1.0628 -0.6660  0.2578
  152SAPS   C2916868   5.581   4.392   3.132 -0.0901 -0.4520  1.4928
  152SAPS   H9R16869   5.539   4.290   3.137 -2.3796  0.3050 -0.2233
  152SAPS  C21016870   5.617   4.440   3.269  0.1410 -0.0045  0.6406
  152SAPS  H10R16871   5.713   4.491   3.246 -0.9914  1.7662 -0.4639
  152SAPS  H10S16872   5.627   4.356   3.341  1.4640 -1.0532 -0.6977
  152SAPS  C21116873   5.552   4.564   3.325 -0.3613  0.2897  0.3312
  152SAPS  H11R16874   5.478   4.621   3.268 -0.5012 -0.5777 -0.3676
  152SAPS  C21216875   5.586   4.614   3.437 -0.2709 -0.3293 -1.3049
  152SAPS  H12R16876   5.524   4.700   3.466  1.4719  0.8780 -0.9854
  152SAPS  C21316877   5.686   4.565   3.543 -0.3514 -0.7643  0.0638
  152SAPS  H13R16878   5.788   4.602   3.524 -0.3264 -0.2297  1.1624
  152SAPS  H13S16879   5.688   4.454   3.555 -0.1294 -0.6365  1.2872
  152SAPS  C21416880   5.662   4.634   3.673 -0.0879  0.0073 -0.5807
  152SAPS  H14R16881   5.654   4.743   3.658 -0.6342  0.1909  0.9000
  152SAPS  C21516882   5.643   4.578   3.795 -0.1826 -0.1882  0.7358
  152SAPS  H15R16883   5.601   4.650   3.867  1.0024  0.1975  1.0564
  152SAPS  C21616884   5.639   4.434   3.842 -0.4303  0.4680 -0.1330
  152SAPS  H16R16885   5.740   4.388   3.842 -1.0530 -0.9914  1.5959
  152SAPS  H16S16886   5.575   4.367   3.782 -0.0098 -0.4661  0.4357
  152SAPS  C21716887   5.606   4.408   3.984 -0.1211  0.1456 -0.0414
  152SAPS  H17R16888   5.672   4.473   4.045  0.4156  1.1512 -1.6566
  152SAPS  H17S16889   5.632   4.304   4.014  2.0531  0.5131 -0.4758
  152SAPS  C21816890   5.461   4.429   4.026  0.1325 -0.1985 -0.0571
  152SAPS  H18R16891   5.387   4.372   3.967 -2.3477 -0.1918  2.8435
  152SAPS  H18S16892   5.426   4.534   4.020 -1.1248 -0.5945  0.0652
  152SAPS  C21916893   5.441   4.377   4.159 -0.2440  0.1935  0.4531
  152SAPS  H19R16894   5.498   4.442   4.229  1.8057 -0.5540 -0.4464
  152SAPS  H19S16895   5.476   4.272   4.172  0.5095  0.3868  0.0684
  152SAPS  C22016896   5.296   4.375   4.204  0.2445  0.6334  0.1512
  152SAPS  H20R16897   5.286   4.316   4.298  0.5134 -0.1399 -0.3020
  152SAPS  H20S16898   5.250   4.477   4.204  0.2112  0.6193  0.3879
  152SAPS  H20T16899   5.236   4.320   4.128 -0.5117  0.9285  0.5166
  152SAPS   C3316900   6.162   4.311   2.455 -0.2641  0.4196  1.0298
  152SAPS   H3X16901   6.190   4.387   2.379  1.8733 -0.8169  0.4944
  152SAPS   H3Y16902   6.262   4.274   2.488 -1.2118 -0.3111  3.2960
  152SAPS   C3416903   6.084   4.371   2.573 -0.3349  0.6047 -0.7198
  152SAPS   H4X16904   6.002   4.430   2.527 -0.1576  1.0187 -0.5137
  152SAPS   H4Y16905   6.148   4.452   2.615 -0.3993 -0.3228  1.2817
  152SAPS   C3516906   6.034   4.280   2.683  0.0558  0.5002 -0.5782
  152SAPS   H5X16907   6.077   4.178   2.690 -0.6532  0.2369 -0.0310
  152SAPS   H5Y16908   5.930   4.255   2.655  0.1201 -1.1697  0.5500
  152SAPS   C3616909   6.012   4.355   2.816  0.3835 -0.1685 -0.7952
  152SAPS   H6X16910   5.928   4.427   2.797 -1.4469 -2.1495 -0.5961
  152SAPS   H6Y16911   6.104   4.410   2.845  0.5028  0.3218 -2.0338
  152SAPS   C3716912   5.955   4.263   2.925  0.5211 -0.0897 -0.1290
  152SAPS   H7X16913   5.993   4.161   2.902  2.7184  0.0675  2.3715
  152SAPS   H7Y16914   5.845   4.257   2.911  0.4761 -1.1181  0.5598
  152SAPS   C3816915   5.989   4.307   3.072 -0.0896  0.6008  0.4395
  152SAPS   H8X16916   5.931   4.401   3.078 -2.8939 -0.7946 -2.0685
  152SAPS   H8Y16917   6.098   4.328   3.085 -0.0626  1.1243 -0.5696
  152SAPS   C3916918   5.939   4.219   3.185  0.4761 -0.1198 -0.1798
  152SAPS   H9X16919   5.980   4.116   3.172 -0.1119 -0.3248 -0.4639
  152SAPS   H9Y16920   5.828   4.212   3.180  0.3912  1.2516 -0.7173
  152SAPS  C31016921   5.979   4.275   3.320 -0.0851  0.3869  0.1435
  152SAPS  H10X16922   5.961   4.384   3.322 -2.1048  0.1162  2.6130
  152SAPS  H10Y16923   6.089   4.264   3.333  0.0478 -1.6185 -1.9880
  152SAPS  C31116924   5.917   4.200   3.436 -0.6742 -0.0755 -1.3349
  152SAPS  H11X16925   5.917   4.096   3.398  0.2770  0.0514 -1.7080
  152SAPS  H11Y16926   5.812   4.225   3.463  0.3308  0.5162  2.7272
  152SAPS  C31216927   6.007   4.204   3.563 -0.1564  0.2176 -0.3141
  152SAPS  H12X16928   6.107   4.159   3.546 -0.7422 -1.3645  0.2533
  152SAPS  H12Y16929   5.959   4.135   3.636 -0.6110  0.0545 -0.7634
  152SAPS  C31316930   6.014   4.339   3.638 -0.0177 -0.5857  0.1544
  152SAPS  H13X16931   5.916   4.391   3.632  0.3124  0.3785  2.3737
  152SAPS  H13Y16932   6.077   4.397   3.568 -0.2985 -1.0869 -0.5255
  152SAPS  C31416933   6.064   4.331   3.783  0.7037 -0.0660  0.4838
  152SAPS  H14X16934   6.164   4.285   3.794 -0.3345 -3.0164 -1.3116
  152SAPS  H14Y16935   5.990   4.265   3.834  2.6371 -3.9211 -1.3103
  152SAPS  C31516936   6.069   4.468   3.845  0.4714  0.0696  0.8037
  152SAPS  H15X16937   6.153   4.537   3.824  0.2990  0.4286  1.2822
  152SAPS  H15Y16938   5.973   4.519   3.824 -0.0672 -0.9121  0.8359
  152SAPS  C31616939   6.080   4.450   4.003  0.5435  0.1495  0.3196
  152SAPS  H16X16940   6.167   4.382   4.017 -0.4276 -0.5613  3.6080
  152SAPS  H16Y16941   5.991   4.394   4.038  0.1403  1.3684  1.3057
  152SAPS  C31716942   6.088   4.580   4.089  0.9327 -0.3220  0.3615
  152SAPS  H17X16943   5.991   4.631   4.069  2.0182  1.8791  0.3483
  152SAPS  H17Y16944   6.171   4.642   4.050 -0.2696  0.4442 -1.0953
  152SAPS  C31816945   6.096   4.547   4.236  0.5855  0.0882 -0.5228
  152SAPS  H18X16946   6.185   4.483   4.250  0.3539 -0.3675 -1.0996
  152SAPS  H18Y16947   6.006   4.493   4.271 -0.5906  0.9583 -2.0419
  152SAPS  H18Z16948   6.115   4.633   4.304 -0.8481 -0.7791  1.0504
  153SAPS     N16949   3.675   5.288   1.763  0.1418  0.2761  0.2099
  153SAPS   HN116950   3.734   5.354   1.708  0.5414 -0.0432  0.2495
  153SAPS   HN216951   3.594   5.252   1.708  1.1403 -0.7941 -0.6111
  153SAPS   HN316952   3.638   5.337   1.847 -0.6541 -0.7077  0.4608
  153SAPS   C1216953   3.754   5.170   1.793 -0.0376  0.2680 -0.5271
  153SAPS  H12A16954   3.695   5.100   1.850 -0.4519  0.1039 -1.1561
  153SAPS   C1316955   3.794   5.079   1.674 -0.1073  0.5343 -0.1541
  153SAPS  O13A16956   3.734   5.096   1.567 -1.0897 -0.4055  0.5222
  153SAPS  O13B16957   3.857   4.971   1.697 -0.6885 -0.5642 -0.0327
  153SAPS   C1116958   3.882   5.216   1.869  0.1189 -0.4829 -0.1616
  153SAPS  H11A16959   3.943   5.125   1.885 -0.4740 -0.6374  1.4088
  153SAPS  H11B16960   3.852   5.258   1.967 -0.5076  0.2130 -0.6407
  153SAPS     P16961   4.064   5.390   1.870  0.1278  0.0741  0.3456
  153SAPS   O1316962   4.179   5.298   1.868  0.0305 -0.5881  0.0509
  153SAPS   O1416963   4.078   5.523   1.811 -0.5170 -0.2777  0.1719
  153SAPS   O1216964   3.952   5.314   1.802  0.6164 -0.0380 -0.5709
  153SAPS   O1116965   4.022   5.406   2.024 -0.4303  0.5453 -0.8952
  153SAPS    C116966   3.956   5.516   2.086 -0.1724  0.1879  0.1297
  153SAPS    HA16967   3.888   5.566   2.014 -2.0775 -2.8732 -0.3522
  153SAPS    HB16968   3.904   5.478   2.176  0.9830 -2.0896 -0.0902
  153SAPS    C216969   4.056   5.621   2.146  0.2100  0.3213  0.0473
  153SAPS    HS16970   4.141   5.625   2.075 -0.4988 -3.5901 -1.2620
  153SAPS   O2116971   4.096   5.598   2.286  0.0010  0.2231  0.1958
  153SAPS   C2116972   4.190   5.510   2.301 -0.1521  0.2018 -0.0632
  153SAPS   O2216973   4.267   5.464   2.213  0.9733  0.5349 -0.0173
  153SAPS   C2216974   4.199   5.461   2.448 -0.4633  0.0172 -0.5816
  153SAPS   H2R16975   4.237   5.357   2.443 -2.8208 -0.8756 -1.4355
  153SAPS   H2S16976   4.271   5.527   2.501 -0.9078 -0.9168  1.2801
  153SAPS    C316977   3.986   5.762   2.129  0.2251  0.0563 -0.4483
  153SAPS    HX16978   3.968   5.787   2.022  0.8735  0.4686 -0.4726
  153SAPS    HY16979   4.051   5.839   2.177 -1.0996  0.1825  1.2267
  153SAPS   O3116980   3.865   5.770   2.209  0.2664  0.1722  0.0534
  153SAPS   C3116981   3.849   5.871   2.294 -0.3941  0.6075  0.7287
  153SAPS   O3216982   3.899   5.980   2.280  0.1794 -0.2284 -0.2306
  153SAPS   C3216983   3.739   5.837   2.402  0.9872 -1.1805  0.4023
  153SAPS   H2X16984   3.721   5.728   2.393  2.6818 -1.4476 -0.2540
  153SAPS   H2Y16985   3.645   5.894   2.392  1.6911  1.0464  4.4189
  153SAPS   C2316986   4.068   5.460   2.536 -0.2120 -0.6205  0.2496
  153SAPS   H3R16987   3.994   5.384   2.500  3.1417 -3.1778 -1.8880
  153SAPS   H3S16988   4.021   5.560   2.532  0.4187 -0.3471 -0.6160
  153SAPS   C2416989   4.108   5.444   2.684  0.5662  0.2503 -0.3176
  153SAPS   H4R16990   4.153   5.543   2.707  0.0590  0.7883 -1.5185
  153SAPS   H4S16991   4.177   5.359   2.697 -0.0483 -0.2548 -0.3276
  153SAPS   C2516992   3.982   5.416   2.761 -0.0997  0.0549  0.3671
  153SAPS   H5R16993   3.890   5.418   2.702  0.7151 -0.6916 -0.9663
  153SAPS   C2616994   3.980   5.387   2.895 -0.5510 -0.2872  0.2459
  153SAPS   H6R16995   3.881   5.376   2.941 -0.5725 -1.8052 -0.0905
  153SAPS   C2716996   4.100   5.391   2.985 -0.5432 -0.8729  0.1665
  153SAPS   H7R16997   4.145   5.491   3.003  1.0224 -1.5695  0.1941
  153SAPS   H7S16998   4.189   5.354   2.931  0.2325 -0.9462  1.4541
  153SAPS   C2816999   4.086   5.316   3.113  0.1892 -0.2989  0.1706
  153SAPS   H8R17000   4.032   5.372   3.191 -2.6196 -0.6033 -1.4233
  153SAPS   C2917001   4.109   5.181   3.115 -0.7827 -0.5139  0.4828
  153SAPS   H9R17002   4.103   5.129   3.211  0.5320  1.7233  1.8818
  153SAPS  C21017003   4.160   5.096   2.998  0.8965 -0.2199 -0.2959
  153SAPS  H10R17004   4.164   5.160   2.908  1.0266  2.3333  1.4415
  153SAPS  H10S17005   4.075   5.024   2.987 -0.1871  1.1008 -0.7796
  153SAPS  C21117006   4.292   5.032   3.031  0.0420 -0.0010 -0.1079
  153SAPS  H11R17007   4.376   5.096   3.060 -0.3687  0.6863 -0.4171
  153SAPS  C21217008   4.314   4.894   3.025 -0.0699 -0.2415  0.0424
  153SAPS  H12R17009   4.417   4.861   3.045  0.1769  0.3810 -0.1800
  153SAPS  C21317010   4.220   4.778   3.001 -0.1772 -0.2392 -0.3968
  153SAPS  H13R17011   4.224   4.768   2.891  1.4306 -0.1875 -0.3551
  153SAPS  H13S17012   4.115   4.794   3.033  0.1752  2.0316 -0.2404
  153SAPS  C21417013   4.272   4.649   3.065 -0.4610 -0.8558  0.4389
  153SAPS  H14R17014   4.379   4.652   3.089 -0.1889 -0.1249 -0.7679
  153SAPS  C21517015   4.205   4.529   3.069 -0.3393  0.1742 -1.1727
  153SAPS  H15R17016   4.245   4.440   3.118  2.0356  1.4994 -0.5577
  153SAPS  C21617017   4.064   4.510   3.006 -0.1191 -1.0474  0.3426
  153SAPS  H16R17018   4.008   4.606   3.010 -0.1015 -1.0027 -0.3900
  153SAPS  H16S17019   4.007   4.437   3.068 -1.4345 -1.9448 -1.8423
  153SAPS  C21717020   4.068   4.453   2.868 -0.5620 -0.0821 -0.0129
  153SAPS  H17R17021   4.110   4.521   2.791 -1.1370  0.1233 -0.1521
  153SAPS  H17S17022   3.968   4.435   2.822  0.0235 -1.7965 -0.6736
  153SAPS  C21817023   4.137   4.320   2.854 -0.5030 -0.5261 -0.2845
  153SAPS  H18R17024   4.145   4.289   2.961  4.6927  0.2959 -0.1694
  153SAPS  H18S17025   4.242   4.327   2.818  0.0101  2.3143  1.4677
  153SAPS  C21917026   4.055   4.214   2.767  0.3470 -0.4276 -0.4601
  153SAPS  H19R17027   4.057   4.257   2.665 -2.2946 -0.1563 -0.4503
  153SAPS  H19S17028   3.951   4.220   2.806 -0.3503  0.1208 -2.3138
  153SAPS  C22017029   4.111   4.072   2.782 -0.3456 -0.1950  0.1819
  153SAPS  H20R17030   4.085   4.029   2.881 -0.4531 -1.1144 -0.2418
  153SAPS  H20S17031   4.221   4.064   2.773 -0.2287 -0.2299  1.5313
  153SAPS  H20T17032   4.073   4.006   2.701  2.8454 -2.1399  0.0906
  153SAPS   C3317033   3.783   5.861   2.551  0.2883  0.1569  1.0090
  153SAPS   H3X17034   3.716   5.941   2.589 -1.5911 -1.4241  1.1820
  153SAPS   H3Y17035   3.888   5.898   2.551  0.2160  0.3887  0.0220
  153SAPS   C3417036   3.763   5.747   2.638 -0.1525  0.2363 -0.2308
  153SAPS   H4X17037   3.816   5.657   2.599 -1.7736 -0.9813  0.2488
  153SAPS   H4Y17038   3.653   5.736   2.631 -0.0477  0.0151 -1.9982
  153SAPS   C3517039   3.812   5.775   2.787  0.0520  0.2430 -0.2930
  153SAPS   H5X17040   3.923   5.774   2.792  0.0719  2.4561  3.2845
  153SAPS   H5Y17041   3.778   5.692   2.852  0.2284  0.2546 -0.1845
  153SAPS   C3617042   3.777   5.908   2.850 -0.3797 -0.0792  0.4183
  153SAPS   H6X17043   3.670   5.919   2.819 -0.6792 -1.8985  0.6569
  153SAPS   H6Y17044   3.843   5.986   2.807  0.1579 -1.0748 -0.6356
  153SAPS   C3717045   3.772   5.899   2.998 -0.4129 -0.3285  0.4571
  153SAPS   H7X17046   3.878   5.882   3.028 -0.2658  0.0993  0.1781
  153SAPS   H7Y17047   3.719   5.807   3.032  0.0662 -0.4768  0.8107
  153SAPS   C3817048   3.721   6.017   3.071  0.4640 -0.6795 -0.1361
  153SAPS   H8X17049   3.759   6.109   3.022 -1.1615 -0.6597 -1.4672
  153SAPS   H8Y17050   3.750   6.006   3.178  0.9067  1.2909 -0.0106
  153SAPS   C3917051   3.561   6.029   3.065  0.4279 -0.5325 -0.3432
  153SAPS   H9X17052   3.526   5.924   3.069  1.4042 -0.8410  0.9353
  153SAPS   H9Y17053   3.519   6.076   2.974 -3.2408 -0.0680  1.4021
  153SAPS  C31017054   3.507   6.108   3.182 -0.9658 -0.5053 -0.4444
  153SAPS  H10X17055   3.407   6.153   3.162  0.0249  2.2660  0.3276
  153SAPS  H10Y17056   3.572   6.197   3.199 -0.0937 -0.8632 -1.7343
  153SAPS  C31117057   3.513   6.029   3.318 -0.4591  0.1723  0.0667
  153SAPS  H11X17058   3.616   5.990   3.327 -0.7388 -0.3883  0.9896
  153SAPS  H11Y17059   3.434   5.950   3.323 -1.9082  1.5315 -0.5161
  153SAPS  C31217060   3.485   6.115   3.446  0.2785 -0.7587 -0.3959
  153SAPS  H12X17061   3.375   6.131   3.450  0.4151  0.3361 -0.8151
  153SAPS  H12Y17062   3.532   6.214   3.433 -0.8342 -0.0693  0.5735
  153SAPS  C31317063   3.531   6.053   3.574 -0.0479 -0.5235  0.0286
  153SAPS  H13X17064   3.641   6.057   3.569  0.1620 -2.9710  1.1621
  153SAPS  H13Y17065   3.514   5.944   3.586 -1.4753 -0.4448 -0.9795
  153SAPS  C31417066   3.492   6.126   3.707  0.1149  0.0442 -1.0369
  153SAPS  H14X17067   3.384   6.135   3.732  0.3459  0.1594 -0.0237
  153SAPS  H14Y17068   3.538   6.226   3.719  1.5482 -0.5481 -1.3896
  153SAPS  C31517069   3.553   6.053   3.827 -0.0607 -0.8706  0.1968
  153SAPS  H15X17070   3.664   6.065   3.831 -0.1412 -0.2177  0.5096
  153SAPS  H15Y17071   3.543   5.945   3.801  0.4143 -1.2279  1.4377
  153SAPS  C31617072   3.479   6.082   3.956 -0.5876  0.1610 -0.4550
  153SAPS  H16X17073   3.370   6.079   3.934 -0.6508  2.5431 -0.7653
  153SAPS  H16Y17074   3.512   6.182   3.990 -0.4335 -0.3620  1.0225
  153SAPS  C31717075   3.523   5.987   4.071  0.3104 -0.0051 -0.3478
  153SAPS  H17X17076   3.496   5.881   4.053 -0.3694  0.5895 -3.5178
  153SAPS  H17Y17077   3.472   6.024   4.163  1.3452 -3.1157  1.6133
  153SAPS  C31817078   3.673   5.987   4.099  0.5099 -0.2763  0.0635
  153SAPS  H18X17079   3.699   5.924   4.187  0.9492 -0.4393 -0.1789
  153SAPS  H18Y17080   3.711   6.088   4.126  2.5500 -0.9652 -0.0377
  153SAPS  H18Z17081   3.731   5.951   4.012  2.7212  2.1231  0.4110
  154SAPS     N17082   1.777   5.074   1.569 -0.2855  0.0819  0.1219
  154SAPS   HN117083   1.677   5.088   1.544  0.1732  2.0804 -0.8597
  154SAPS   HN217084   1.826   5.163   1.591 -0.7774  0.2353  0.6184
  154SAPS   HN317085   1.820   5.025   1.488 -3.6688 -2.3923 -0.4028
  154SAPS   C1217086   1.793   4.968   1.665 -0.1022 -0.2604  0.3775
  154SAPS  H12A17087   1.737   4.885   1.625  1.0926 -1.0123  0.1902
  154SAPS   C1317088   1.932   4.907   1.683  0.0346 -0.6696  0.0009
  154SAPS  O13A17089   2.031   4.970   1.642  0.0117 -0.1207 -0.4446
  154SAPS  O13B17090   1.943   4.797   1.741  0.1853 -0.2166 -0.3712
  154SAPS   C1117091   1.747   5.014   1.806 -0.0122 -0.1630 -0.0881
  154SAPS  H11A17092   1.803   5.102   1.843 -2.0084  0.7751  0.8498
  154SAPS  H11B17093   1.769   4.944   1.889  0.7746  0.5706  0.3269
  154SAPS     P17094   1.488   4.938   1.814  0.1096 -0.3182  0.2177
  154SAPS   O1317095   1.355   4.998   1.781  0.1379 -0.3768 -0.6861
  154SAPS   O1417096   1.519   4.808   1.746 -0.9729  0.0560 -0.3148
  154SAPS   O1217097   1.603   5.050   1.799  0.2080  0.4335  0.5061
  154SAPS   O1117098   1.478   4.910   1.975  0.3639 -0.2788  0.5704
  154SAPS    C117099   1.460   5.027   2.060 -0.5411 -0.1293  0.7233
  154SAPS    HA17100   1.488   5.123   2.012  3.6108 -0.8090  1.3726
  154SAPS    HB17101   1.357   5.029   2.099 -0.4039 -0.2213  1.0951
  154SAPS    C217102   1.550   5.023   2.182 -0.5836  0.5515  0.1372
  154SAPS    HS17103   1.652   5.038   2.142  0.0869 -1.9694  0.6888
  154SAPS   O2117104   1.539   4.889   2.234  0.1681  1.1214 -0.4396
  154SAPS   C2117105   1.646   4.835   2.299 -0.6314  0.4008 -0.6761
  154SAPS   O2217106   1.759   4.884   2.301 -0.5179  0.4567  0.4090
  154SAPS   C2217107   1.609   4.710   2.372 -0.2647  0.0606 -0.6075
  154SAPS   H2R17108   1.519   4.734   2.432 -0.8107  1.4731 -1.9143
  154SAPS   H2S17109   1.578   4.629   2.303 -0.0757 -0.7482  0.2345
  154SAPS    C317110   1.531   5.134   2.290  0.2191 -0.4299  0.5622
  154SAPS    HX17111   1.423   5.134   2.315 -0.7739 -2.8294 -2.8844
  154SAPS    HY17112   1.546   5.232   2.241 -0.1022 -0.2895  0.7455
  154SAPS   O3117113   1.615   5.125   2.409 -0.1922  0.3021 -0.4765
  154SAPS   C3117114   1.565   5.055   2.504  0.0293  0.0147 -0.1192
  154SAPS   O3217115   1.461   4.992   2.497 -0.0144  0.4723  0.2205
  154SAPS   C3217116   1.657   5.069   2.630  0.5886 -0.1122  0.0689
  154SAPS   H2X17117   1.725   5.157   2.625  0.9162 -0.2146  2.0100
  154SAPS   H2Y17118   1.714   4.974   2.636 -1.1367 -1.2028 -0.1337
  154SAPS   C2317119   1.726   4.664   2.468 -0.2324 -0.2941  0.5041
  154SAPS   H3R17120   1.705   4.724   2.559  0.5664  0.0718  0.4534
  154SAPS   H3S17121   1.829   4.689   2.433 -0.8881 -1.6599 -2.7981
  154SAPS   C2417122   1.710   4.512   2.496  0.1495 -0.1983 -0.3592
  154SAPS   H4R17123   1.736   4.458   2.403 -2.0646 -0.3169 -0.9732
  154SAPS   H4S17124   1.601   4.489   2.496  0.0579  0.1990  0.1798
  154SAPS   C2517125   1.791   4.480   2.618 -0.7993  0.2182 -0.2694
  154SAPS   H5R17126   1.900   4.484   2.604 -0.4639 -0.0009  1.9684
  154SAPS   C2617127   1.758   4.457   2.748  0.3312  0.6094 -0.2877
  154SAPS   H6R17128   1.834   4.427   2.823 -0.6799  0.5439  0.7411
  154SAPS   C2717129   1.622   4.453   2.799  0.7517 -0.3478  0.9906
  154SAPS   H7R17130   1.607   4.352   2.844  0.4688 -1.0279 -0.5530
  154SAPS   H7S17131   1.547   4.457   2.717  1.5857  2.7337  0.2630
  154SAPS   C2817132   1.596   4.554   2.900 -0.7065  0.0155  0.0224
  154SAPS   H8R17133   1.622   4.657   2.870 -1.1764  0.1836  0.1927
  154SAPS   C2917134   1.564   4.528   3.025  0.2248  0.3546 -0.0698
  154SAPS   H9R17135   1.536   4.617   3.082  1.4291  0.9189 -0.3421
  154SAPS  C21017136   1.539   4.396   3.096 -0.2167 -0.3865 -0.9466
  154SAPS  H10R17137   1.486   4.326   3.029  0.2204 -1.0383 -0.6181
  154SAPS  H10S17138   1.459   4.419   3.170 -0.0364  2.4265 -1.5179
  154SAPS  C21117139   1.662   4.313   3.143  0.5686 -0.5998  0.7999
  154SAPS  H11R17140   1.750   4.322   3.078  1.4173 -1.6402  1.7568
  154SAPS  C21217141   1.676   4.251   3.259 -0.1032  0.6709 -0.6386
  154SAPS  H12R17142   1.768   4.193   3.277 -0.9543 -0.2115  1.2246
  154SAPS  C21317143   1.575   4.234   3.370  0.2286  0.7301  0.2715
  154SAPS  H13R17144   1.510   4.323   3.383  1.0767  1.1082  2.3237
  154SAPS  H13S17145   1.616   4.254   3.471 -2.6076  1.1193  1.4574
  154SAPS  C21417146   1.492   4.102   3.355 -0.1483 -0.3459 -0.2629
  154SAPS  H14R17147   1.460   4.071   3.254 -1.8170 -1.6738  0.6227
  154SAPS  C21517148   1.484   4.007   3.452 -0.1531 -0.0852  0.1623
  154SAPS  H15R17149   1.430   3.913   3.432  2.9687 -2.2429  1.1429
  154SAPS  C21617150   1.560   4.018   3.584  0.6730 -0.0251  0.1065
  154SAPS  H16R17151   1.653   4.068   3.550  0.4081 -0.7231 -1.7233
  154SAPS  H16S17152   1.586   3.915   3.614  3.1234  0.7839  0.9884
  154SAPS  C21717153   1.493   4.103   3.699 -0.1109 -0.1327 -0.6807
  154SAPS  H17R17154   1.494   4.208   3.663 -0.3746  0.3012  0.5529
  154SAPS  H17S17155   1.550   4.085   3.792 -1.9919 -2.4739  0.1286
  154SAPS  C21817156   1.341   4.072   3.725 -0.6746 -0.4086 -0.7655
  154SAPS  H18R17157   1.335   3.975   3.779 -0.5818  0.6854  1.3309
  154SAPS  H18S17158   1.287   4.069   3.628  1.9711  0.0428 -2.3361
  154SAPS  C21917159   1.276   4.174   3.822 -0.0609 -0.4633  0.1942
  154SAPS  H19R17160   1.329   4.270   3.801 -1.0507  0.4003  1.4193
  154SAPS  H19S17161   1.301   4.144   3.926  0.6391 -0.7095 -0.0401
  154SAPS  C22017162   1.127   4.192   3.802 -0.2135  0.8181  0.1915
  154SAPS  H20R17163   1.088   4.273   3.866 -0.5363  1.8576 -1.2676
  154SAPS  H20S17164   1.071   4.097   3.813 -1.0983  0.9107 -2.6415
  154SAPS  H20T17165   1.104   4.225   3.698  1.4761  0.3940 -0.3400
  154SAPS   C3317166   1.572   5.095   2.761  0.2262  0.1068 -0.3455
  154SAPS   H3X17167   1.486   5.026   2.767  2.1816 -2.5666 -1.3409
  154SAPS   H3Y17168   1.537   5.201   2.765 -1.1357 -0.2585 -1.7930
  154SAPS   C3417169   1.654   5.065   2.889  0.2418 -0.6204 -0.9799
  154SAPS   H4X17170   1.751   5.118   2.873  0.5499 -0.6521  0.5836
  154SAPS   H4Y17171   1.679   4.958   2.905 -0.3913 -0.6700 -0.2752
  154SAPS   C3517172   1.578   5.121   3.006  0.5017 -0.4666  0.4314
  154SAPS   H5X17173   1.538   5.224   2.991 -3.2731 -1.4394  2.4980
  154SAPS   H5Y17174   1.650   5.126   3.091  0.5219  0.4740  0.3709
  154SAPS   C3617175   1.455   5.031   3.046 -0.3946 -0.0832  0.0459
  154SAPS   H6X17176   1.478   4.927   3.014 -1.8170 -0.4710  0.2125
  154SAPS   H6Y17177   1.362   5.054   2.990  1.3444 -0.1457 -3.1360
  154SAPS   C3717178   1.442   5.025   3.200 -0.0157  0.1356 -0.3181
  154SAPS   H7X17179   1.444   5.128   3.241 -0.6017  0.1285 -0.2715
  154SAPS   H7Y17180   1.530   4.968   3.237 -1.2146 -1.6587 -0.1283
  154SAPS   C3817181   1.321   4.947   3.252  0.3998 -0.2859 -0.3265
  154SAPS   H8X17182   1.333   4.838   3.233  0.6637 -0.3266  0.0560
  154SAPS   H8Y17183   1.234   4.996   3.203  0.1703  0.9589  1.2390
  154SAPS   C3917184   1.306   4.979   3.405  0.1877  0.6423 -0.0624
  154SAPS   H9X17185   1.217   4.928   3.447  1.1613 -2.6628 -1.6992
  154SAPS   H9Y17186   1.287   5.088   3.418  0.0246  0.6386 -0.2538
  154SAPS  C31017187   1.424   4.933   3.493  0.4433  0.3768  0.5297
  154SAPS  H10X17188   1.513   4.992   3.462 -0.5515  1.9060  0.4374
  154SAPS  H10Y17189   1.443   4.825   3.475  0.3120  0.5744 -0.9955
  154SAPS  C31117190   1.400   4.964   3.645  0.2645 -0.4883  0.0347
  154SAPS  H11X17191   1.472   4.913   3.714  0.3740  0.9901  1.0531
  154SAPS  H11Y17192   1.299   4.925   3.667  0.7634 -2.8405 -1.5051
  154SAPS  C31217193   1.398   5.112   3.684 -0.3412 -0.3099  0.2842
  154SAPS  H12X17194   1.325   5.174   3.627  0.6669  1.3190  0.7192
  154SAPS  H12Y17195   1.496   5.162   3.667 -0.4677  0.1038  0.7535
  154SAPS  C31317196   1.360   5.137   3.830  0.2596  0.7602 -0.1632
  154SAPS  H13X17197   1.406   5.052   3.886 -2.5801 -1.5404 -1.1120
  154SAPS  H13Y17198   1.251   5.117   3.839  0.8943 -3.1908  0.5430
  154SAPS  C31417199   1.398   5.276   3.885 -0.0659 -0.3350 -0.1450
  154SAPS  H14X17200   1.340   5.347   3.822 -0.8754 -0.0989  0.8501
  154SAPS  H14Y17201   1.506   5.299   3.867  0.1697 -1.4252 -0.1560
  154SAPS  C31517202   1.368   5.297   4.027 -0.3670 -0.6168 -0.0838
  154SAPS  H15X17203   1.420   5.224   4.091 -0.2260  0.4193  1.0097
  154SAPS  H15Y17204   1.261   5.288   4.056 -0.6099  2.0882  0.1697
  154SAPS  C31617205   1.400   5.441   4.087 -0.6123  0.0232  0.4773
  154SAPS  H16X17206   1.347   5.435   4.184 -0.2862 -1.7852  0.5812
  154SAPS  H16Y17207   1.346   5.517   4.027  2.6996  2.3408  0.1786
  154SAPS  C31717208   1.544   5.479   4.087  0.2766  0.5409  0.3836
  154SAPS  H17X17209   1.586   5.461   3.986 -2.3271 -0.8583 -0.5503
  154SAPS  H17Y17210   1.590   5.401   4.150 -0.4453 -0.6994 -0.5869
  154SAPS  C31817211   1.585   5.611   4.146  0.3891 -0.5292 -0.0475
  154SAPS  H18X17212   1.542   5.693   4.085  3.2252  0.8205 -0.3786
  154SAPS  H18Y17213   1.695   5.623   4.152  0.1101  2.6692  1.3253
  154SAPS  H18Z17214   1.536   5.621   4.246 -0.5388  0.3894 -0.5688
  155SAPS     N17215   2.570   0.764   1.852 -0.0131  0.3435 -0.0032
  155SAPS   HN117216   2.611   0.849   1.896  1.6986 -1.1695  1.5207
  155SAPS   HN217217   2.542   0.693   1.923  1.8193 -1.4496 -0.9584
  155SAPS   HN317218   2.648   0.716   1.801 -0.4387  1.2217 -1.5251
  155SAPS   C1217219   2.451   0.797   1.768  0.4697 -0.0462 -0.5230
  155SAPS  H12A17220   2.460   0.888   1.710  0.9469 -0.8227 -1.7111
  155SAPS   C1317221   2.421   0.688   1.667 -0.3503  0.2304  0.6874
  155SAPS  O13A17222   2.510   0.611   1.627  0.1736  0.0034  0.1254
  155SAPS  O13B17223   2.321   0.714   1.595  0.3620  0.4706  0.2061
  155SAPS   C1117224   2.326   0.812   1.867  0.0036 -0.1490 -0.5195
  155SAPS  H11A17225   2.308   0.710   1.906  0.6492  0.3999  1.2919
  155SAPS  H11B17226   2.243   0.835   1.796  0.0386 -2.1265 -1.2673
  155SAPS     P17227   2.215   0.959   2.049 -0.2419  0.4076  0.0122
  155SAPS   O1317228   2.176   1.097   2.024 -0.4365 -1.1192  0.3569
  155SAPS   O1417229   2.098   0.867   2.032 -0.3280 -0.1208  0.1229
  155SAPS   O1217230   2.346   0.913   1.967  0.4150  0.6448  1.1959
  155SAPS   O1117231   2.247   0.946   2.204 -0.4017  0.2321 -0.4330
  155SAPS    C117232   2.363   0.873   2.253 -0.4624 -0.2434 -0.2542
  155SAPS    HA17233   2.330   0.781   2.306  0.8549 -1.2783 -1.1704
  155SAPS    HB17234   2.432   0.838   2.173 -0.8859 -2.0778  0.1340
  155SAPS    C217235   2.441   0.954   2.371  0.2765  0.1953 -0.4922
  155SAPS    HS17236   2.372   0.966   2.457 -1.4993  0.1618 -1.8585
  155SAPS   O2117237   2.484   1.078   2.319 -0.1618 -0.3515  0.1890
  155SAPS   C2117238   2.395   1.166   2.336 -0.2520  0.1580 -0.5231
  155SAPS   O2217239   2.289   1.158   2.395  0.2346  0.6880  0.5172
  155SAPS   C2217240   2.429   1.288   2.248  0.5079  0.2243  0.5888
  155SAPS   H2R17241   2.417   1.258   2.142  0.9492  0.1527  0.5574
  155SAPS   H2S17242   2.358   1.370   2.271  1.1214 -0.1465  4.4791
  155SAPS    C317243   2.563   0.875   2.420 -0.2886  0.2035 -0.6716
  155SAPS    HX17244   2.644   0.883   2.344  0.1950 -0.7254 -0.2712
  155SAPS    HY17245   2.526   0.770   2.415 -0.1326  0.0591  0.6993
  155SAPS   O3117246   2.614   0.920   2.549  0.4115 -0.6294  0.4520
  155SAPS   C3117247   2.610   0.831   2.641  0.0005 -0.4360  0.1651
  155SAPS   O3217248   2.567   0.716   2.635 -0.5566 -0.1157  0.5339
  155SAPS   C3217249   2.638   0.899   2.779  0.1637  0.1420  0.3508
  155SAPS   H2X17250   2.548   0.934   2.833 -2.0004 -1.0214 -2.2924
  155SAPS   H2Y17251   2.696   0.992   2.762  1.0345  0.5110  4.4015
  155SAPS   C2317252   2.573   1.355   2.267  0.5537  0.0819  0.1506
  155SAPS   H3R17253   2.599   1.411   2.175 -0.3648 -0.3394 -0.3750
  155SAPS   H3S17254   2.646   1.271   2.268 -0.5568 -1.1335 -3.5146
  155SAPS   C2417255   2.586   1.442   2.391  0.1598 -0.0293 -0.4844
  155SAPS   H4R17256   2.514   1.413   2.471 -1.0144  0.1729 -1.4415
  155SAPS   H4S17257   2.559   1.545   2.359 -1.6486 -1.1427 -2.8062
  155SAPS   C2517258   2.727   1.437   2.438 -0.6236  0.7166  0.2894
  155SAPS   H5R17259   2.799   1.402   2.362  0.1772  0.4070  1.1740
  155SAPS   C2617260   2.768   1.430   2.571 -0.1222  0.1688  0.0329
  155SAPS   H6R17261   2.873   1.404   2.593 -0.5316 -1.6976 -0.0619
  155SAPS   C2717262   2.684   1.446   2.687  0.2852  0.1671 -1.0277
  155SAPS   H7R17263   2.601   1.373   2.679  0.2515 -0.0728  0.9947
  155SAPS   H7S17264   2.630   1.542   2.696  1.3519  0.8021 -1.3226
  155SAPS   C2817265   2.751   1.437   2.824 -0.2869  0.3477 -0.0477
  155SAPS   H8R17266   2.786   1.334   2.832 -1.2862  0.1177  1.8850
  155SAPS   C2917267   2.757   1.518   2.928 -0.5943 -0.6414  0.5479
  155SAPS   H9R17268   2.820   1.494   3.015 -0.9199 -1.9896  0.4387
  155SAPS  C21017269   2.701   1.657   2.934  0.6417 -0.4392  0.1738
  155SAPS  H10R17270   2.625   1.662   3.015 -0.9227  2.4879 -1.2914
  155SAPS  H10S17271   2.639   1.688   2.846 -1.0211 -0.3589  1.3261
  155SAPS  C21117272   2.804   1.759   2.954 -0.2280 -0.2582 -0.1332
  155SAPS  H11R17273   2.872   1.782   2.871 -0.9664 -0.7278 -0.8874
  155SAPS  C21217274   2.822   1.831   3.068 -0.3074 -0.2423 -0.4947
  155SAPS  H12R17275   2.891   1.916   3.059 -0.0706 -0.5738 -2.0812
  155SAPS  C21317276   2.743   1.832   3.190  0.6382 -0.0095 -0.1450
  155SAPS  H13R17277   2.778   1.750   3.256  0.1488 -0.5768 -0.5859
  155SAPS  H13S17278   2.639   1.805   3.163  1.0305 -2.4269  0.5106
  155SAPS  C21417279   2.762   1.958   3.274 -0.0165  0.6852 -0.2531
  155SAPS  H14R17280   2.837   2.033   3.246  0.1949  0.4201 -0.4036
  155SAPS  C21517281   2.694   1.974   3.395  0.7050 -0.4129  1.1972
  155SAPS  H15R17282   2.691   2.066   3.454 -0.4631 -0.0244  0.5689
  155SAPS  C21617283   2.590   1.882   3.441  0.4114 -0.4235  0.3155
  155SAPS  H16R17284   2.568   1.795   3.375  0.3892 -0.6842  0.6645
  155SAPS  H16S17285   2.489   1.929   3.448 -0.2597 -1.7933  0.2092
  155SAPS  C21717286   2.610   1.830   3.584 -0.3669  0.5783  0.1350
  155SAPS  H17R17287   2.700   1.765   3.585 -0.5109  0.3829  0.6277
  155SAPS  H17S17288   2.530   1.760   3.616  1.3893 -0.7009  1.9735
  155SAPS  C21817289   2.602   1.941   3.687  0.8615  0.7564  0.3196
  155SAPS  H18R17290   2.496   1.974   3.685  1.3400  2.3614 -0.8703
  155SAPS  H18S17291   2.660   2.029   3.651  0.4440  1.6046  1.6421
  155SAPS  C21917292   2.638   1.906   3.836 -0.6838  0.1069  0.6267
  155SAPS  H19R17293   2.587   1.815   3.873 -0.1979  0.0356  1.1295
  155SAPS  H19S17294   2.602   1.989   3.901  2.1311  2.2960 -0.4414
  155SAPS  C22017295   2.786   1.905   3.850 -0.5108  0.0332 -0.2084
  155SAPS  H20R17296   2.821   2.005   3.815 -2.3286  1.2991  1.3859
  155SAPS  H20S17297   2.840   1.824   3.798 -0.9150 -1.7980  2.0735
  155SAPS  H20T17298   2.812   1.898   3.958 -0.2916 -0.3493 -0.2862
  155SAPS   C3317299   2.724   0.809   2.877 -0.6605 -0.7611  0.2782
  155SAPS   H3X17300   2.829   0.800   2.842 -0.1948  3.3089  0.1288
  155SAPS   H3Y17301   2.685   0.706   2.886 -1.3838 -0.6252 -1.1180
  155SAPS   C3417302   2.726   0.863   3.023  0.5251  0.0495  0.0362
  155SAPS   H4X17303   2.623   0.896   3.047 -0.0795 -0.7733 -1.3337
  155SAPS   H4Y17304   2.800   0.945   3.029 -1.3767  1.7962  0.5954
  155SAPS   C3517305   2.775   0.759   3.128 -0.5434 -0.1896 -0.6827
  155SAPS   H5X17306   2.874   0.718   3.097 -0.5129  0.9924 -2.3012
  155SAPS   H5Y17307   2.708   0.671   3.141 -1.9895  1.1225  1.3199
  155SAPS   C3617308   2.804   0.810   3.275 -0.9096  1.3589  0.4637
  155SAPS   H6X17309   2.882   0.889   3.267  1.3887 -0.7239  1.0018
  155SAPS   H6Y17310   2.846   0.727   3.335  0.3548 -0.1487 -2.2998
  155SAPS   C3717311   2.677   0.863   3.341  0.0807  0.2907  0.5518
  155SAPS   H7X17312   2.596   0.791   3.315  0.3972  0.7281 -1.9235
  155SAPS   H7Y17313   2.657   0.961   3.294  1.2468  0.1087 -0.3655
  155SAPS   C3817314   2.686   0.876   3.491 -0.3601  0.1732 -0.4401
  155SAPS   H8X17315   2.761   0.953   3.521 -0.8032  0.6809 -0.6166
  155SAPS   H8Y17316   2.723   0.778   3.528  0.0646  0.1380 -0.9329
  155SAPS   C3917317   2.558   0.921   3.562 -0.5665  0.0190  0.2052
  155SAPS   H9X17318   2.496   0.833   3.589 -0.7886  0.2933  0.5882
  155SAPS   H9Y17319   2.511   0.992   3.491  1.4039  0.5145 -0.6598
  155SAPS  C31017320   2.586   0.990   3.691  0.2688 -0.4433 -0.1623
  155SAPS  H10X17321   2.670   1.060   3.676  0.7280 -1.0317 -0.3767
  155SAPS  H10Y17322   2.625   0.915   3.763  0.8392 -0.1649 -0.1803
  155SAPS  C31117323   2.463   1.066   3.745  0.0680  0.4752  0.2813
  155SAPS  H11X17324   2.380   0.993   3.749 -0.3846  1.0361  1.6207
  155SAPS  H11Y17325   2.427   1.150   3.682 -0.2682  1.5733  1.8782
  155SAPS  C31217326   2.490   1.128   3.883 -0.1944 -0.1869  0.3580
  155SAPS  H12X17327   2.549   1.220   3.862 -1.9822  0.9093 -0.0386
  155SAPS  H12Y17328   2.552   1.069   3.954  1.3704  1.7782  0.6906
  155SAPS  C31317329   2.362   1.179   3.952  0.0738 -0.4115  0.9088
  155SAPS  H13X17330   2.268   1.133   3.915 -0.0415  0.8218 -0.4384
  155SAPS  H13Y17331   2.353   1.282   3.911 -0.3309 -0.2981  1.2755
  155SAPS  C31417332   2.380   1.199   4.106 -0.4620  0.1130  0.0934
  155SAPS  H14X17333   2.334   1.299   4.121 -1.7284 -0.3593 -0.5263
  155SAPS  H14Y17334   2.485   1.199   4.143  0.2264  1.5876 -1.7437
  155SAPS  C31517335   2.308   1.090   4.191  0.4941 -0.8414 -0.4713
  155SAPS  H15X17336   2.329   1.104   4.299 -0.2815  1.4992 -0.5656
  155SAPS  H15Y17337   2.344   0.988   4.166  0.0676 -1.2167  0.4234
  155SAPS  C31617338   2.156   1.104   4.183  0.6814  0.1074 -0.1516
  155SAPS  H16X17339   2.126   1.071   4.081 -0.2235 -0.5401  0.3197
  155SAPS  H16Y17340   2.113   1.207   4.188 -0.3755 -0.2396 -1.5945
  155SAPS  C31717341   2.072   1.038   4.288 -0.5073  0.6792 -0.5220
  155SAPS  H17X17342   2.097   1.081   4.387  0.0884 -1.1270  0.1482
  155SAPS  H17Y17343   2.105   0.934   4.307 -0.3144  1.0504  1.2921
  155SAPS  C31817344   1.924   1.044   4.261 -0.3361  0.1219 -0.8139
  155SAPS  H18X17345   1.885   1.144   4.230 -1.6514  0.7224  2.4405
  155SAPS  H18Y17346   1.867   1.012   4.350  2.0183  1.3441  1.2594
  155SAPS  H18Z17347   1.905   0.985   4.169  1.3322 -1.0735 -0.4377
  156SAPS     N17348   1.702   5.517   1.782 -0.4773 -0.4444 -0.1211
  156SAPS   HN117349   1.801   5.502   1.809 -0.3178 -0.3372 -0.6288
  156SAPS   HN217350   1.663   5.554   1.871  1.9614  0.8658  0.4729
  156SAPS   HN317351   1.640   5.437   1.759 -1.7403  0.2304  0.7990
  156SAPS   C1217352   1.706   5.626   1.672  0.3542  0.1325 -0.0246
  156SAPS  H12A17353   1.777   5.700   1.707  1.6785 -0.5571 -1.1559
  156SAPS   C1317354   1.746   5.569   1.532  0.2195  0.3568 -0.3817
  156SAPS  O13A17355   1.749   5.448   1.513 -0.6538  0.1022  0.2933
  156SAPS  O13B17356   1.752   5.650   1.434 -0.3056 -0.0191 -0.9128
  156SAPS   C1117357   1.562   5.690   1.664 -0.3844  1.0838 -0.8359
  156SAPS  H11A17358   1.506   5.604   1.623  1.0687 -0.5096  0.3897
  156SAPS  H11B17359   1.566   5.767   1.584 -0.5803  0.4770 -1.4353
  156SAPS     P17360   1.361   5.758   1.823 -0.2199 -0.3507  0.7676
  156SAPS   O1317361   1.354   5.840   1.944  0.0134  0.5498  0.6203
  156SAPS   O1417362   1.285   5.812   1.706  0.1417 -0.1342 -0.1685
  156SAPS   O1217363   1.509   5.736   1.785  0.0186  1.0787 -0.4409
  156SAPS   O1117364   1.300   5.612   1.851  0.1066  0.2697 -0.3010
  156SAPS    C117365   1.321   5.521   1.966  0.0601 -0.5379  0.0589
  156SAPS    HA17366   1.378   5.434   1.925  2.7341  0.8719  0.5171
  156SAPS    HB17367   1.396   5.555   2.040  0.1518 -1.7906  0.5627
  156SAPS    C217368   1.191   5.478   2.034 -0.7263 -0.4675  0.0643
  156SAPS    HS17369   1.123   5.451   1.950 -2.1241  0.5852  0.8076
  156SAPS   O2117370   1.139   5.592   2.108 -1.1034  0.6448  0.1420
  156SAPS   C2117371   1.010   5.598   2.131  0.3749 -0.0604 -0.5416
  156SAPS   O2217372   0.922   5.522   2.090  0.0805  0.5546 -0.3329
  156SAPS   C2217373   0.972   5.724   2.222 -0.5005  1.0283 -0.1004
  156SAPS   H2R17374   0.991   5.695   2.327 -0.1505 -0.2277 -0.4971
  156SAPS   H2S17375   1.034   5.807   2.184  0.9384 -0.3362 -0.8272
  156SAPS    C317376   1.218   5.355   2.126  0.4467 -0.1241  0.2537
  156SAPS    HX17377   1.243   5.267   2.063 -0.0800  0.6897 -1.1467
  156SAPS    HY17378   1.121   5.332   2.175  0.7005  0.0616  0.8462
  156SAPS   O3117379   1.321   5.381   2.218  1.5164  0.4155 -0.2463
  156SAPS   C3117380   1.283   5.426   2.336 -0.4702  0.5925  0.1045
  156SAPS   O3217381   1.169   5.426   2.381 -0.4742  0.4362  0.3182
  156SAPS   C3217382   1.413   5.456   2.422  0.7532 -0.3987 -0.3768
  156SAPS   H2X17383   1.480   5.508   2.350  1.6800 -0.3709  0.4844
  156SAPS   H2Y17384   1.446   5.356   2.457 -2.4510 -1.7497 -0.8821
  156SAPS   C2317385   0.816   5.753   2.204 -0.3541  0.0177 -0.3675
  156SAPS   H3R17386   0.754   5.671   2.248 -0.1647  0.3481  0.5230
  156SAPS   H3S17387   0.797   5.752   2.095  0.5528 -2.3404 -0.5732
  156SAPS   C2417388   0.771   5.885   2.269  0.5429 -0.3900 -0.2539
  156SAPS   H4R17389   0.660   5.889   2.267  0.1238 -3.6512  3.4017
  156SAPS   H4S17390   0.787   5.964   2.193 -2.0559  2.0783  1.5888
  156SAPS   C2517391   0.821   5.920   2.409  0.3612  0.2380  0.3288
  156SAPS   H5R17392   0.866   6.021   2.404  0.6420  0.1547  1.0587
  156SAPS   C2617393   0.807   5.859   2.526 -0.5358  0.1069 -0.1031
  156SAPS   H6R17394   0.853   5.908   2.612 -2.9054  0.9957  0.7344
  156SAPS   C2717395   0.740   5.726   2.554 -0.5014  0.9098  1.0021
  156SAPS   H7R17396   0.704   5.678   2.462 -0.5662 -2.4896  2.6665
  156SAPS   H7S17397   0.652   5.744   2.619 -2.0324 -3.4696  0.4074
  156SAPS   C2817398   0.845   5.639   2.612 -0.6282 -0.1421  0.0692
  156SAPS   H8R17399   0.900   5.582   2.535 -4.4246 -0.1679 -2.9585
  156SAPS   C2917400   0.866   5.624   2.735 -0.1449  0.1974 -0.4454
  156SAPS   H9R17401   0.943   5.551   2.764 -1.4909 -0.9443  0.3889
  156SAPS  C21017402   0.783   5.688   2.846 -0.5922 -0.0841 -0.0029
  156SAPS  H10R17403   0.677   5.714   2.825 -0.3299  1.2756  0.2758
  156SAPS  H10S17404   0.831   5.785   2.875  0.4593 -0.5919  0.0037
  156SAPS  C21117405   0.792   5.598   2.967  0.3487  0.4071 -0.1837
  156SAPS  H11R17406   0.805   5.489   2.951  0.7136  0.1018  1.9032
  156SAPS  C21217407   0.796   5.630   3.094  0.0326 -0.4669 -0.5231
  156SAPS  H12R17408   0.788   5.549   3.168  0.9664  0.6088  0.8032
  156SAPS  C21317409   0.793   5.765   3.158 -0.4651  0.2179  0.1947
  156SAPS  H13R17410   0.707   5.778   3.228  0.0922 -0.9814  1.1478
  156SAPS  H13S17411   0.790   5.845   3.081  0.6736 -1.0253 -1.2079
  156SAPS  C21417412   0.922   5.785   3.232 -0.1376 -0.0491 -0.2646
  156SAPS  H14R17413   1.004   5.792   3.158 -2.0238 -1.8264 -2.7255
  156SAPS  C21517414   0.941   5.825   3.358 -0.0751  1.1623  0.6807
  156SAPS  H15R17415   1.044   5.841   3.392  0.3514  0.6301 -0.3197
  156SAPS  C21617416   0.838   5.838   3.470  0.1168 -0.2682  0.5795
  156SAPS  H16R17417   0.812   5.742   3.519 -0.3834 -0.4402  0.0005
  156SAPS  H16S17418   0.741   5.883   3.441 -0.7104 -0.7743  2.4555
  156SAPS  C21717419   0.885   5.933   3.578 -0.4109  0.0306  0.2969
  156SAPS  H17R17420   0.898   6.038   3.543 -2.4984 -0.1385 -1.1443
  156SAPS  H17S17421   0.979   5.891   3.620  0.2337  0.2250 -0.9120
  156SAPS  C21817422   0.781   5.950   3.695 -0.1784  0.1556 -0.6393
  156SAPS  H18R17423   0.759   5.847   3.729 -2.8058 -0.2384 -3.0830
  156SAPS  H18S17424   0.681   5.981   3.658  0.1584  0.2259 -1.5050
  156SAPS  C21917425   0.833   6.032   3.816  0.0708 -0.0407 -0.0012
  156SAPS  H19R17426   0.757   6.027   3.897  0.9910 -1.4105  0.8061
  156SAPS  H19S17427   0.836   6.139   3.784  0.5395  0.3151  1.1714
  156SAPS  C22017428   0.970   5.990   3.880 -0.4837  0.3555 -0.3091
  156SAPS  H20R17429   0.999   5.890   3.840 -1.5481  0.4893 -1.4744
  156SAPS  H20S17430   0.970   5.989   3.991 -0.5344 -2.0153 -0.2844
  156SAPS  H20T17431   1.052   6.056   3.843  0.4790  0.6180  2.0591
  156SAPS   C3317432   1.386   5.548   2.541 -0.4919  0.1449 -1.1288
  156SAPS   H3X17433   1.301   5.615   2.513 -0.4524  0.7856  0.1917
  156SAPS   H3Y17434   1.472   5.614   2.562 -0.4371 -0.1373 -0.4491
  156SAPS   C3417435   1.366   5.471   2.672 -0.0949  0.2973  0.6165
  156SAPS   H4X17436   1.465   5.426   2.696 -0.0868  0.5633  1.0962
  156SAPS   H4Y17437   1.305   5.378   2.671 -0.2772  0.3553  2.5847
  156SAPS   C3517438   1.327   5.557   2.788 -0.0688  0.3472  0.1955
  156SAPS   H5X17439   1.228   5.603   2.765 -0.7707 -1.6089 -0.8779
  156SAPS   H5Y17440   1.405   5.636   2.793  0.9900 -0.6679  0.1437
  156SAPS   C3617441   1.311   5.484   2.923 -0.6314 -0.2177  0.3981
  156SAPS   H6X17442   1.406   5.440   2.960 -0.3735  0.4864  0.5849
  156SAPS   H6Y17443   1.242   5.398   2.908 -1.2248 -0.0009  1.7973
  156SAPS   C3717444   1.257   5.574   3.035 -0.2328 -0.0944  0.1410
  156SAPS   H7X17445   1.154   5.604   3.007 -0.6132 -1.0592  0.4945
  156SAPS   H7Y17446   1.322   5.664   3.041 -2.3257  1.4948  0.1602
  156SAPS   C3817447   1.252   5.499   3.167  0.2658  0.5480 -0.4739
  156SAPS   H8X17448   1.352   5.451   3.175  0.8208  1.9330  2.2667
  156SAPS   H8Y17449   1.174   5.421   3.158  1.4020 -0.5703 -0.9580
  156SAPS   C3917450   1.222   5.589   3.287 -0.0450  0.4808 -0.2766
  156SAPS   H9X17451   1.118   5.626   3.278  0.5840  2.7601  0.8758
  156SAPS   H9Y17452   1.281   5.683   3.273 -0.9651  1.1137  0.0331
  156SAPS  C31017453   1.236   5.522   3.421  0.2140 -0.0655 -0.6694
  156SAPS  H10X17454   1.336   5.537   3.468  0.1694  1.0692 -0.9130
  156SAPS  H10Y17455   1.204   5.416   3.405 -2.6974  0.7210 -0.5634
  156SAPS  C31117456   1.143   5.591   3.532  0.1010  0.7515 -0.2732
  156SAPS  H11X17457   1.038   5.594   3.496 -0.5511  2.1537  1.5594
  156SAPS  H11Y17458   1.179   5.696   3.533 -0.1332  0.8700 -1.9645
  156SAPS  C31217459   1.153   5.520   3.666 -0.2927  0.3831  0.1562
  156SAPS  H12X17460   1.255   5.523   3.709  0.1961  0.9248 -1.0068
  156SAPS  H12Y17461   1.128   5.414   3.645  0.9168  0.2797 -0.8527
  156SAPS  C31317462   1.042   5.562   3.771 -0.0682 -0.0606 -0.1960
  156SAPS  H13X17463   0.947   5.539   3.719  0.2512  1.4368 -1.5018
  156SAPS  H13Y17464   1.047   5.671   3.789 -0.8170  0.1440 -1.1893
  156SAPS  C31417465   1.051   5.500   3.912 -0.4648 -0.0447  0.0926
  156SAPS  H14X17466   1.148   5.512   3.964  1.5220 -1.3609 -3.0246
  156SAPS  H14Y17467   1.041   5.390   3.899 -1.2452  0.1120 -0.7580
  156SAPS  C31517468   0.930   5.552   3.986  0.3491 -0.3304 -0.3384
  156SAPS  H15X17469   0.842   5.541   3.920  0.7116 -2.0777 -0.5809
  156SAPS  H15Y17470   0.954   5.660   4.002 -1.7749  0.1564 -0.2054
  156SAPS  C31617471   0.895   5.495   4.126  0.3637  0.4492  0.1210
  156SAPS  H16X17472   0.812   5.551   4.176 -0.5754 -1.8336  1.2832
  156SAPS  H16Y17473   0.987   5.519   4.183  0.1874  2.1498 -0.2419
  156SAPS  C31717474   0.863   5.346   4.119  0.0628  0.0753 -0.1184
  156SAPS  H17X17475   0.941   5.268   4.110  0.4167  0.4295 -0.1629
  156SAPS  H17Y17476   0.807   5.326   4.025 -0.1215  1.8463 -0.4324
  156SAPS  C31817477   0.761   5.304   4.224  0.0794 -0.2767  0.1682
  156SAPS  H18X17478   0.670   5.368   4.226 -0.6610 -1.3121  0.2216
  156SAPS  H18Y17479   0.817   5.310   4.319 -0.3956 -1.5212  0.5385
  156SAPS  H18Z17480   0.737   5.196   4.210 -0.0665 -0.7209  3.3079
  157SAPS     N17481   5.650   5.134   2.207  0.9168  0.6085  0.1728
  157SAPS   HN117482   5.718   5.161   2.281 -0.0919  2.1121  0.5880
  157SAPS   HN217483   5.592   5.216   2.180 -1.5481 -0.9169  0.5367
  157SAPS   HN317484   5.596   5.054   2.247  0.1760  1.9070  1.8952
  157SAPS   C1217485   5.734   5.090   2.085 -0.4425 -0.6489 -0.2507
  157SAPS  H12A17486   5.811   5.022   2.118  2.0243  1.8300 -0.5220
  157SAPS   C1317487   5.655   5.024   1.980  0.1130 -0.3105  0.4949
  157SAPS  O13A17488   5.535   4.982   1.995 -0.1643  0.6631  0.0377
  157SAPS  O13B17489   5.722   4.995   1.876 -0.1717  0.6051  0.2873
  157SAPS   C1117490   5.815   5.216   2.033 -0.5017 -0.5750 -0.5900
  157SAPS  H11A17491   5.743   5.293   1.998 -0.6811  0.3429  1.6321
  157SAPS  H11B17492   5.881   5.181   1.951  0.3657 -0.9543  0.2547
  157SAPS     P17493   5.964   5.413   2.102  0.0102 -0.4528  0.6495
  157SAPS   O1317494   6.086   5.385   2.019 -0.5134 -0.4247 -0.5140
  157SAPS   O1417495   5.873   5.500   2.027 -0.3884  0.0751 -0.2902
  157SAPS   O1217496   5.897   5.273   2.138 -0.2565  0.5291  0.7572
  157SAPS   O1117497   5.996   5.485   2.241 -0.3033 -0.5355 -0.4608
  157SAPS    C117498   5.916   5.589   2.296 -0.6079 -0.7579  0.4414
  157SAPS    HA17499   5.951   5.687   2.259 -1.0354 -1.1229 -1.0059
  157SAPS    HB17500   5.812   5.587   2.256 -0.4496  0.5831 -0.0891
  157SAPS    C217501   5.912   5.578   2.451 -0.4258  1.0858 -0.4555
  157SAPS    HS17502   5.852   5.665   2.485 -1.1209  0.8818 -1.1188
  157SAPS   O2117503   6.051   5.577   2.508  0.3520  0.2638  0.1922
  157SAPS   C2117504   6.121   5.693   2.490 -0.4684  0.6943 -0.8488
  157SAPS   O2217505   6.072   5.798   2.454 -0.1313  0.0858 -0.2292
  157SAPS   C2217506   6.267   5.659   2.532  0.4922  0.0237 -0.4920
  157SAPS   H2R17507   6.266   5.551   2.558 -0.2502 -0.0430 -0.7775
  157SAPS   H2S17508   6.334   5.678   2.446  1.0250 -0.0932 -0.1093
  157SAPS    C317509   5.855   5.438   2.488  0.5706 -0.7410  0.1709
  157SAPS    HX17510   5.929   5.361   2.458 -0.3564 -1.4812 -0.2780
  157SAPS    HY17511   5.771   5.410   2.420  0.2825 -0.3963  0.3790
  157SAPS   O3117512   5.812   5.429   2.622 -1.1968 -0.4821 -0.0535
  157SAPS   C3117513   5.847   5.331   2.693 -0.4589  0.1642 -0.1446
  157SAPS   O3217514   5.932   5.248   2.666 -0.1641  0.6044 -0.0465
  157SAPS   C3217515   5.773   5.321   2.826  0.2235 -0.7137  0.1164
  157SAPS   H2X17516   5.805   5.222   2.863 -1.3334 -1.5352 -0.6126
  157SAPS   H2Y17517   5.663   5.308   2.815 -0.2589  1.4974  1.5749
  157SAPS   C2317518   6.309   5.760   2.651  0.3545 -0.1744 -0.4877
  157SAPS   H3R17519   6.297   5.866   2.622 -0.9261  0.1758  1.1906
  157SAPS   H3S17520   6.418   5.741   2.667  0.4847  0.0458 -1.0665
  157SAPS   C2417521   6.256   5.723   2.796 -0.2477  0.0414  0.1891
  157SAPS   H4R17522   6.146   5.738   2.796 -0.2589 -0.0381  0.0357
  157SAPS   H4S17523   6.293   5.798   2.869 -1.8573  0.4569  0.6277
  157SAPS   C2517524   6.296   5.587   2.846 -0.0241  0.2035  0.2525
  157SAPS   H5R17525   6.351   5.526   2.772  1.9248  0.4305  1.4523
  157SAPS   C2617526   6.263   5.536   2.961 -0.5114 -0.2158  0.3671
  157SAPS   H6R17527   6.298   5.435   2.986 -0.9274 -0.5174 -0.2401
  157SAPS   C2717528   6.171   5.581   3.076  0.5420  0.3569  0.4195
  157SAPS   H7R17529   6.077   5.524   3.064  1.5741 -1.2802 -0.1797
  157SAPS   H7S17530   6.153   5.690   3.061  1.8358  0.7264  1.3427
  157SAPS   C2817531   6.241   5.565   3.207  0.1566  0.0946  0.7731
  157SAPS   H8R17532   6.327   5.497   3.219 -0.6425 -1.1742 -0.4523
  157SAPS   C2917533   6.203   5.631   3.316 -0.0032  0.1110 -0.2984
  157SAPS   H9R17534   6.266   5.628   3.406  2.4712  0.2593 -1.9117
  157SAPS  C21017535   6.091   5.737   3.327  0.3266  0.1127 -0.0644
  157SAPS  H10R17536   5.998   5.697   3.282  0.7790 -1.6834  0.4717
  157SAPS  H10S17537   6.113   5.832   3.275 -1.6639  2.5391  3.2034
  157SAPS  C21117538   6.075   5.782   3.472  0.5067  0.0392 -0.0486
  157SAPS  H11R17539   6.010   5.720   3.535 -0.0624  1.0474  0.3883
  157SAPS  C21217540   6.112   5.891   3.540  0.4731 -0.5355  0.2505
  157SAPS  H12R17541   6.087   5.898   3.647  0.5455 -1.2034  0.3175
  157SAPS  C21317542   6.187   6.015   3.497  0.1417 -0.1586  0.6514
  157SAPS  H13R17543   6.247   5.993   3.406  0.9558  1.3097  0.7951
  157SAPS  H13S17544   6.252   6.055   3.577 -0.7107  0.1838  1.1896
  157SAPS  C21417545   6.081   6.122   3.461  0.5905  0.6389  0.4367
  157SAPS  H14R17546   6.027   6.098   3.369 -2.4231  1.3899  1.8971
  157SAPS  C21517547   6.063   6.242   3.520  0.6732  0.3144  0.0550
  157SAPS  H15R17548   5.987   6.312   3.483  1.2916  0.7188 -0.4625
  157SAPS  C21617549   6.146   6.297   3.631  0.1273 -0.8367 -0.1427
  157SAPS  H16R17550   6.208   6.384   3.603 -1.9164  0.1649 -1.8861
  157SAPS  H16S17551   6.213   6.214   3.663 -0.2237 -1.3069 -0.5981
  157SAPS  C21717552   6.049   6.340   3.749 -0.2499  0.1607  0.3883
  157SAPS  H17R17553   5.983   6.254   3.770 -0.9100  0.3821 -0.6831
  157SAPS  H17S17554   5.976   6.419   3.722 -0.5456 -0.0924  0.4426
  157SAPS  C21817555   6.128   6.411   3.861  0.0616  0.0353  0.6596
  157SAPS  H18R17556   6.068   6.449   3.947  1.0516 -1.1665  1.9432
  157SAPS  H18S17557   6.199   6.488   3.825 -1.2190  0.3809 -1.2233
  157SAPS  C21917558   6.219   6.306   3.938  0.3245 -1.1808  0.0360
  157SAPS  H19R17559   6.305   6.288   3.870  0.5585  0.4320 -0.1215
  157SAPS  H19S17560   6.159   6.212   3.947 -1.6172 -0.3882 -2.9732
  157SAPS  C22017561   6.243   6.358   4.077  0.6359 -0.6412 -0.3992
  157SAPS  H20R17562   6.292   6.287   4.147 -0.2037 -0.0668  0.8298
  157SAPS  H20S17563   6.150   6.392   4.128  1.9648  1.6636  0.6489
  157SAPS  H20T17564   6.308   6.446   4.055 -0.5675  0.8906  1.7457
  157SAPS   C3317565   5.798   5.436   2.926  0.1930  0.5783  0.4075
  157SAPS   H3X17566   5.762   5.532   2.883 -0.0215 -0.4508 -1.8420
  157SAPS   H3Y17567   5.907   5.443   2.950  0.4052  0.9340 -0.6082
  157SAPS   C3417568   5.729   5.402   3.058 -0.1870 -0.5459 -0.2458
  157SAPS   H4X17569   5.739   5.296   3.089  1.6453  0.1510  1.7704
  157SAPS   H4Y17570   5.621   5.424   3.056  0.0525  0.6830 -0.4086
  157SAPS   C3517571   5.795   5.462   3.182  0.0988 -1.3140  0.4182
  157SAPS   H5X17572   5.821   5.570   3.175 -4.4922 -0.0032 -0.0004
  157SAPS   H5Y17573   5.895   5.414   3.180  1.5617  1.4316  1.3942
  157SAPS   C3617574   5.726   5.422   3.316 -0.1520 -0.3352  0.0873
  157SAPS   H6X17575   5.698   5.315   3.330  2.3411 -1.0745 -0.0581
  157SAPS   H6Y17576   5.628   5.474   3.315  1.2252  2.3952 -1.3206
  157SAPS   C3717577   5.801   5.479   3.440  0.2507 -0.9260 -0.1398
  157SAPS   H7X17578   5.824   5.588   3.437 -1.7864 -0.2826  2.5936
  157SAPS   H7Y17579   5.897   5.425   3.446 -0.3720 -1.9755  0.7134
  157SAPS   C3817580   5.721   5.458   3.569  0.2707  0.3334 -0.0487
  157SAPS   H8X17581   5.670   5.359   3.566 -0.4900  0.6810  0.7707
  157SAPS   H8Y17582   5.649   5.543   3.572  1.4116  1.3066  1.2741
  157SAPS   C3917583   5.800   5.457   3.698 -0.2169 -0.1749  0.7094
  157SAPS   H9X17584   5.862   5.548   3.683  3.2063 -2.8210 -3.4993
  157SAPS   H9Y17585   5.860   5.364   3.705 -0.3044 -0.3157 -0.2787
  157SAPS  C31017586   5.716   5.470   3.828 -0.5436  0.1961 -0.3907
  157SAPS  H10X17587   5.664   5.568   3.827  0.8803  0.9813 -1.3239
  157SAPS  H10Y17588   5.775   5.474   3.923 -1.8666  0.5215  0.4489
  157SAPS  C31117589   5.618   5.351   3.850  0.2157 -0.3211  0.7974
  157SAPS  H11X17590   5.682   5.263   3.826  1.4890  0.5650  0.8469
  157SAPS  H11Y17591   5.538   5.337   3.775  0.7255 -0.3492  0.2581
  157SAPS  C31217592   5.559   5.338   3.995  0.4815  0.3101 -0.3167
  157SAPS  H12X17593   5.648   5.325   4.061  0.0023 -5.4104 -0.2968
  157SAPS  H12Y17594   5.502   5.244   4.010  1.3773 -0.1563  0.2482
  157SAPS  C31317595   5.453   5.446   4.022  0.6593  0.7738  0.2618
  157SAPS  H13X17596   5.365   5.417   3.961 -1.1047  2.3666  1.9321
  157SAPS  H13Y17597   5.497   5.539   3.980 -0.8080  0.4999 -2.0670
  157SAPS  C31417598   5.415   5.470   4.170 -0.3602  0.0407 -0.1315
  157SAPS  H14X17599   5.345   5.554   4.189  0.2572  0.8370 -1.2743
  157SAPS  H14Y17600   5.513   5.500   4.211 -0.6995 -0.9579  1.4880
  157SAPS  C31517601   5.362   5.352   4.254  0.2153 -0.0879  0.0594
  157SAPS  H15X17602   5.411   5.259   4.220 -0.4700 -0.4339  0.0027
  157SAPS  H15Y17603   5.253   5.352   4.232  0.3832  2.2001 -1.0871
  157SAPS  C31617604   5.386   5.370   4.405 -0.3321  0.1789  0.0710
  157SAPS  H16X17605   5.349   5.471   4.433  0.0592  0.7514 -1.3756
  157SAPS  H16Y17606   5.497   5.376   4.410 -0.4637  2.4572  2.9568
  157SAPS  C31717607   5.319   5.264   4.486  0.8478  0.4995  0.0338
  157SAPS  H17X17608   5.209   5.275   4.471  0.5073 -3.5833 -2.0271
  157SAPS  H17Y17609   5.354   5.277   4.590  0.7609  1.6247 -0.0721
  157SAPS  C31817610   5.350   5.117   4.443  0.6200 -0.3281  0.3445
  157SAPS  H18X17611   5.300   5.112   4.344 -0.6750 -0.0053  0.9598
  157SAPS  H18Y17612   5.294   5.045   4.505  0.8824 -0.5200  0.3618
  157SAPS  H18Z17613   5.459   5.095   4.438  0.3728 -1.4802 -0.3798
  158SAPS     N17614   2.016   6.829   2.128  0.8553  0.2506 -0.2398
  158SAPS   HN117615   2.088   6.863   2.060  0.0862  2.1843 -0.1619
  158SAPS   HN217616   2.019   6.885   2.216  1.6537  1.7659 -1.1668
  158SAPS   HN317617   2.035   6.729   2.149 -2.8976 -0.4322  0.5356
  158SAPS   C1217618   1.885   6.848   2.058 -0.6147 -0.5950  0.2484
  158SAPS  H12A17619   1.887   6.953   2.034  2.3476 -0.5072  0.4524
  158SAPS   C1317620   1.866   6.791   1.911  0.0393  0.2742 -0.2517
  158SAPS  O13A17621   1.959   6.717   1.874  0.2838  0.2265 -0.1759
  158SAPS  O13B17622   1.761   6.810   1.843  0.4346  0.4608 -0.3038
  158SAPS   C1117623   1.774   6.796   2.149  0.3205  0.2925  0.0522
  158SAPS  H11A17624   1.779   6.685   2.151  0.1720  0.2885  0.2191
  158SAPS  H11B17625   1.674   6.815   2.104  0.4310  0.1743 -0.2439
  158SAPS     P17626   1.753   7.000   2.304  0.1415 -0.3732  0.0073
  158SAPS   O1317627   1.877   7.076   2.281 -0.2470 -0.3694  0.7783
  158SAPS   O1417628   1.637   7.035   2.223 -0.0268  0.7373 -0.1293
  158SAPS   O1217629   1.783   6.851   2.281  0.2153 -0.0042 -0.1631
  158SAPS   O1117630   1.716   7.020   2.456  0.3039 -0.1895 -0.1923
  158SAPS    C117631   1.658   6.906   2.528 -0.0845  0.8805  0.0060
  158SAPS    HA17632   1.694   6.807   2.493  0.5964  0.5178  1.6321
  158SAPS    HB17633   1.684   6.910   2.636 -2.1214  0.7417  0.5419
  158SAPS    C217634   1.506   6.916   2.524 -0.0310 -0.6426  0.5549
  158SAPS    HS17635   1.481   6.948   2.420 -0.6113  0.0603  0.9032
  158SAPS   O2117636   1.467   7.019   2.618  0.4304  0.9612  0.3625
  158SAPS   C2117637   1.359   7.080   2.582 -0.7252  0.8129  0.2511
  158SAPS   O2217638   1.305   7.075   2.473  0.2901  0.3250 -0.2437
  158SAPS   C2217639   1.309   7.170   2.699  0.1396 -0.5058  0.1389
  158SAPS   H2R17640   1.240   7.105   2.756  0.4944  0.2374  1.4481
  158SAPS   H2S17641   1.388   7.186   2.776 -0.3334  0.2543  0.4736
  158SAPS    C317642   1.432   6.786   2.550 -0.0326 -0.4003 -0.4180
  158SAPS    HX17643   1.470   6.720   2.469 -0.3814 -1.8827  0.5974
  158SAPS    HY17644   1.324   6.813   2.543 -0.4159 -0.7319  2.8730
  158SAPS   O3117645   1.468   6.737   2.683 -0.4277  0.2368  0.3768
  158SAPS   C3117646   1.388   6.771   2.776  0.0056  0.0541  0.0751
  158SAPS   O3217647   1.283   6.825   2.772  0.1559  0.0235 -0.0273
  158SAPS   C3217648   1.454   6.744   2.913 -0.0449 -0.3520 -0.5642
  158SAPS   H2X17649   1.477   6.636   2.916  0.7260 -0.1763  0.3114
  158SAPS   H2Y17650   1.380   6.773   2.990 -1.6420  1.1185 -2.5171
  158SAPS   C2317651   1.238   7.301   2.670  0.4169  0.0388  0.1968
  158SAPS   H3R17652   1.146   7.291   2.609  0.8958 -1.9555 -0.3066
  158SAPS   H3S17653   1.306   7.363   2.607 -0.7636 -0.3799 -1.5778
  158SAPS   C2417654   1.223   7.381   2.803 -0.2716 -0.6985 -0.2119
  158SAPS   H4R17655   1.180   7.476   2.765  0.1234 -1.5584 -3.0230
  158SAPS   H4S17656   1.322   7.397   2.852  0.4357 -1.7956 -1.2063
  158SAPS   C2517657   1.117   7.313   2.886  0.4839  0.2811 -0.4254
  158SAPS   H5R17658   1.023   7.291   2.833  0.4505 -2.4596  0.5851
  158SAPS   C2617659   1.136   7.236   2.997  0.3889  1.1976 -0.1128
  158SAPS   H6R17660   1.054   7.195   3.057 -0.0048 -0.1785 -1.5175
  158SAPS   C2717661   1.271   7.220   3.056 -0.5194 -0.1171 -0.3603
  158SAPS   H7R17662   1.286   7.309   3.121  1.9325 -0.1028 -0.8410
  158SAPS   H7S17663   1.349   7.228   2.977 -0.7129  1.6317 -0.4036
  158SAPS   C2817664   1.292   7.098   3.141  0.8111  0.6138 -0.2600
  158SAPS   H8R17665   1.350   7.017   3.093 -1.6972 -0.0862 -2.3651
  158SAPS   C2917666   1.251   7.086   3.268  1.2094  0.3635 -0.1687
  158SAPS   H9R17667   1.288   6.997   3.321  0.4039  1.3538  2.1815
  158SAPS  C21017668   1.173   7.172   3.363 -0.2301 -0.1039 -0.3412
  158SAPS  H10R17669   1.167   7.279   3.332 -0.9212 -0.1354 -0.3285
  158SAPS  H10S17670   1.227   7.175   3.460 -0.2574 -2.5953 -0.1814
  158SAPS  C21117671   1.032   7.121   3.377 -0.3759 -1.3064 -0.7650
  158SAPS  H11R17672   0.992   7.068   3.290 -3.5643 -0.3207 -0.0560
  158SAPS  C21217673   0.939   7.150   3.475 -0.1155 -0.0239 -0.5101
  158SAPS  H12R17674   0.844   7.095   3.473 -0.2711  0.1659  0.9767
  158SAPS  C21317675   0.966   7.252   3.585 -0.0602  0.6990 -0.4419
  158SAPS  H13R17676   0.883   7.325   3.577 -0.1727  0.5206 -0.9462
  158SAPS  H13S17677   1.063   7.303   3.568  0.5436 -0.8195 -1.8672
  158SAPS  C21417678   0.986   7.197   3.724  0.3921 -0.6729 -0.3063
  158SAPS  H14R17679   1.027   7.094   3.723  1.3812 -0.3014  0.3775
  158SAPS  C21517680   0.954   7.261   3.839 -0.0052 -0.0482 -0.0890
  158SAPS  H15R17681   0.978   7.216   3.937  0.8794  0.6597  0.0390
  158SAPS  C21617682   0.892   7.396   3.854 -0.4212  0.0628  0.0902
  158SAPS  H16R17683   0.884   7.451   3.758 -1.6926  0.5379  0.4351
  158SAPS  H16S17684   0.964   7.459   3.911 -0.2538 -1.5099  1.7218
  158SAPS  C21717685   0.760   7.368   3.925 -0.0432  0.4212 -0.4331
  158SAPS  H17R17686   0.776   7.317   4.022 -1.4593 -1.3418 -1.0694
  158SAPS  H17S17687   0.701   7.299   3.862  0.9685  0.1333 -1.0875
  158SAPS  C21817688   0.678   7.497   3.950  0.5897 -0.4783 -0.1285
  158SAPS  H18R17689   0.641   7.547   3.858 -0.0187 -1.2656 -0.3268
  158SAPS  H18S17690   0.730   7.576   4.008  0.4360  0.8188 -1.6967
  158SAPS  C21917691   0.543   7.457   4.006  0.0913 -0.3547 -0.7705
  158SAPS  H19R17692   0.564   7.420   4.108 -0.3012  0.1324 -0.5034
  158SAPS  H19S17693   0.497   7.382   3.939 -0.9425 -0.2926 -0.1624
  158SAPS  C22017694   0.444   7.577   4.023  0.4460 -0.5852 -0.4769
  158SAPS  H20R17695   0.475   7.642   4.108  0.2886 -0.3860 -0.5694
  158SAPS  H20S17696   0.342   7.539   4.046  0.0133  1.2056  0.7904
  158SAPS  H20T17697   0.436   7.651   3.940 -2.4489  1.3051  1.2799
  158SAPS   C3317698   1.581   6.841   2.925 -0.5499 -0.2345  0.2399
  158SAPS   H3X17699   1.553   6.948   2.913  2.2921  0.6660  0.7081
  158SAPS   H3Y17700   1.651   6.805   2.846 -0.1449  1.0709 -0.0359
  158SAPS   C3417701   1.660   6.830   3.061  0.0784 -0.4572  0.0329
  158SAPS   H4X17702   1.716   6.736   3.084 -0.9085 -0.8181  1.0664
  158SAPS   H4Y17703   1.589   6.867   3.138  2.0532  3.7805  0.0741
  158SAPS   C3517704   1.767   6.942   3.045 -0.3584  0.4999  0.0306
  158SAPS   H5X17705   1.720   7.039   3.021 -2.3072 -0.0199  1.4547
  158SAPS   H5Y17706   1.833   6.907   2.963  1.2643 -1.9355  2.2216
  158SAPS   C3617707   1.839   6.983   3.176  0.6536  0.0323  0.6024
  158SAPS   H6X17708   1.769   6.974   3.262 -0.5770  1.6854 -0.1671
  158SAPS   H6Y17709   1.877   7.087   3.165  1.5124 -0.3240  0.0815
  158SAPS   C3717710   1.951   6.889   3.215 -0.0017  0.1044  0.6722
  158SAPS   H7X17711   2.022   6.875   3.130 -0.1541  1.9612  0.2046
  158SAPS   H7Y17712   1.909   6.789   3.239  1.3634 -1.0578 -1.4185
  158SAPS   C3817713   2.019   6.937   3.343  0.2442  0.9034 -0.2132
  158SAPS   H8X17714   1.940   6.983   3.406  0.4172 -0.4501  1.0467
  158SAPS   H8Y17715   2.095   7.016   3.324 -0.5180  1.3340 -1.5627
  158SAPS   C3917716   2.095   6.827   3.420  0.1486 -0.2881  0.0856
  158SAPS   H9X17717   2.168   6.795   3.343 -0.6863 -0.0757 -0.8263
  158SAPS   H9Y17718   2.030   6.739   3.442  0.2680 -0.6615 -1.0187
  158SAPS  C31017719   2.171   6.881   3.538 -0.4423 -0.3690  0.0861
  158SAPS  H10X17720   2.182   6.991   3.525  1.5074 -0.7808 -2.3898
  158SAPS  H10Y17721   2.274   6.840   3.531 -0.2496 -0.2572  1.7365
  158SAPS  C31117722   2.114   6.856   3.683 -0.0917  0.9375  1.1466
  158SAPS  H11X17723   2.200   6.881   3.748 -1.3101  2.0590  2.3851
  158SAPS  H11Y17724   2.088   6.748   3.688  0.6127  0.5514 -1.7652
  158SAPS  C31217725   1.995   6.937   3.731  0.0636  0.2052  0.0293
  158SAPS  H12X17726   1.902   6.904   3.680  0.3175 -0.4547 -0.0102
  158SAPS  H12Y17727   2.001   7.047   3.721 -0.5839  0.4339  1.7747
  158SAPS  C31317728   1.952   6.924   3.875  0.3888 -0.2511  0.0278
  158SAPS  H13X17729   2.007   6.974   3.957 -1.5773 -1.0954  1.9485
  158SAPS  H13Y17730   1.966   6.815   3.890  1.7930 -0.2443 -1.0791
  158SAPS  C31417731   1.802   6.964   3.910  0.3590 -0.5086  0.4653
  158SAPS  H14X17732   1.742   6.959   3.817  0.2355  1.7501  0.3682
  158SAPS  H14Y17733   1.808   7.067   3.951  0.8295 -0.9648  1.5839
  158SAPS  C31517734   1.744   6.864   4.014  0.0624  0.3989 -0.1712
  158SAPS  H15X17735   1.822   6.849   4.093 -1.0327 -2.2526  0.5383
  158SAPS  H15Y17736   1.729   6.761   3.974  0.8606  0.2746 -0.1700
  158SAPS  C31617737   1.612   6.918   4.075 -0.2277  0.1472  0.0039
  158SAPS  H16X17738   1.532   6.926   3.998  1.6966  2.6125 -1.9271
  158SAPS  H16Y17739   1.639   7.024   4.094 -0.3128  0.5726 -2.0510
  158SAPS  C31717740   1.565   6.848   4.201 -0.2047 -0.0373 -0.3256
  158SAPS  H17X17741   1.489   6.913   4.249 -0.4256 -2.0578  2.3309
  158SAPS  H17Y17742   1.658   6.846   4.262 -0.0334 -0.0734 -0.5882
  158SAPS  C31817743   1.513   6.706   4.202 -0.4189  0.1459 -0.2579
  158SAPS  H18X17744   1.591   6.633   4.169 -0.3036  1.3378 -2.8886
  158SAPS  H18Y17745   1.430   6.698   4.129  0.3557 -1.1645 -1.0386
  158SAPS  H18Z17746   1.466   6.673   4.297 -0.1124  1.3787  0.3369
  159SAPS     N17747   0.618   5.990   1.832 -0.0260 -0.3844 -0.3133
  159SAPS   HN117748   0.531   5.933   1.833  0.0095 -0.4324  0.5632
  159SAPS   HN217749   0.705   5.934   1.840  0.3282  0.2481  0.4142
  159SAPS   HN317750   0.610   6.040   1.923  1.2269 -1.4127  0.3941
  159SAPS   C1217751   0.621   6.091   1.727  0.5027  0.6722 -0.0563
  159SAPS  H12A17752   0.714   6.138   1.754 -0.7355  2.4571  1.3057
  159SAPS   C1317753   0.634   6.037   1.585  0.3735 -1.0536  0.3884
  159SAPS  O13A17754   0.624   5.917   1.567 -0.1041  0.1529 -0.9450
  159SAPS  O13B17755   0.650   6.120   1.488  0.4547  0.6253 -0.4489
  159SAPS   C1117756   0.507   6.188   1.739  0.9767 -0.3002  0.0429
  159SAPS  H11A17757   0.410   6.142   1.709  0.9263 -0.0253 -0.2221
  159SAPS  H11B17758   0.517   6.268   1.663 -0.0867  2.1790  2.3519
  159SAPS     P17759   0.419   6.370   1.901 -0.0988 -0.2501 -0.1179
  159SAPS   O1317760   0.434   6.417   2.041  0.4680  0.0309  0.0419
  159SAPS   O1417761   0.441   6.471   1.792  0.7361 -0.0979 -0.4728
  159SAPS   O1217762   0.503   6.247   1.868 -0.2037 -0.0458 -0.5934
  159SAPS   O1117763   0.277   6.303   1.892  0.0376 -0.0751 -0.2581
  159SAPS    C117764   0.249   6.176   1.955  0.0993 -0.3344 -0.4452
  159SAPS    HA17765   0.231   6.097   1.879  1.5741 -0.4474 -0.7087
  159SAPS    HB17766   0.331   6.138   2.020  0.3045  0.5896 -0.1510
  159SAPS    C217767   0.133   6.194   2.055  0.4512 -0.5214 -0.2389
  159SAPS    HS17768   0.063   6.268   2.011  1.2927 -0.0182 -0.7610
  159SAPS   O2117769   0.182   6.250   2.178  0.5514  0.0054 -0.6899
  159SAPS   C2117770   0.081   6.311   2.252  0.2854 -0.2784 -0.2038
  159SAPS   O2217771  -0.037   6.331   2.222  0.1056  0.2737 -0.1294
  159SAPS   C2217772   0.136   6.364   2.378 -0.3836 -0.4691 -0.7113
  159SAPS   H2R17773   0.229   6.425   2.368 -0.1178 -0.4979  1.1996
  159SAPS   H2S17774   0.059   6.425   2.429 -0.9348 -1.4657 -0.3326
  159SAPS    C317775   0.065   6.060   2.093  0.1672  0.9894  0.7779
  159SAPS    HX17776   0.153   6.005   2.134 -0.8675 -0.3338  1.2659
  159SAPS    HY17777   0.045   6.003   1.999  0.7328 -0.1692  1.3410
  159SAPS   O3117778  -0.045   6.063   2.188  0.3832 -0.7107  0.3732
  159SAPS   C3117779  -0.169   6.034   2.143  0.1820  0.2886 -1.1568
  159SAPS   O3217780  -0.190   6.002   2.030  0.2572 -0.1711  0.5383
  159SAPS   C3217781  -0.270   6.065   2.254  0.6021 -0.5546  0.5657
  159SAPS   H2X17782  -0.361   6.042   2.196  0.3480  0.6054  0.4869
  159SAPS   H2Y17783  -0.259   6.175   2.264  0.1688 -0.6222  1.9280
  159SAPS   C2317784   0.176   6.257   2.486  1.3272  0.3467 -0.3892
  159SAPS   H3R17785   0.253   6.191   2.442  0.2219 -1.4351  0.2244
  159SAPS   H3S17786   0.088   6.204   2.529  1.4068  0.7733  0.3166
  159SAPS   C2417787   0.251   6.316   2.608 -0.2772 -0.5018  0.7226
  159SAPS   H4R17788   0.197   6.400   2.657 -0.9375 -0.3839 -0.1830
  159SAPS   H4S17789   0.347   6.357   2.569 -1.8128  2.1402 -0.5999
  159SAPS   C2517790   0.282   6.212   2.699 -0.0318  0.0037  0.3489
  159SAPS   H5R17791   0.379   6.164   2.678 -0.4537 -0.7481  0.0885
  159SAPS   C2617792   0.207   6.178   2.806  0.9663  0.1924  0.1918
  159SAPS   H6R17793   0.236   6.096   2.874  0.7199 -0.6198 -0.6546
  159SAPS   C2717794   0.079   6.242   2.849  0.5478 -0.3693 -0.1400
  159SAPS   H7R17795   0.051   6.326   2.782  2.3901  1.7828  1.5713
  159SAPS   H7S17796   0.084   6.293   2.948 -2.6838 -2.4287  1.2191
  159SAPS   C2817797  -0.029   6.142   2.849  0.4266 -0.0016 -0.9221
  159SAPS   H8R17798  -0.061   6.118   2.746  1.8536 -0.1236 -1.3540
  159SAPS   C2917799  -0.083   6.081   2.958  0.5044  0.5401 -0.1533
  159SAPS   H9R17800  -0.163   6.012   2.926  1.6794 -1.0644  0.2411
  159SAPS  C21017801  -0.048   6.098   3.105 -0.2586 -0.5496  0.0844
  159SAPS  H10R17802   0.060   6.075   3.109 -0.1144 -1.3565 -4.1501
  159SAPS  H10S17803  -0.102   6.018   3.160  0.3812 -0.7397  0.4471
  159SAPS  C21117804  -0.076   6.229   3.171 -0.3940  0.3769  0.3725
  159SAPS  H11R17805  -0.155   6.284   3.117 -0.4512 -0.2692 -0.2079
  159SAPS  C21217806  -0.028   6.267   3.291  0.3824 -0.2433  0.2892
  159SAPS  H12R17807  -0.076   6.359   3.328 -0.4082 -0.3237 -0.5231
  159SAPS  C21317808   0.067   6.187   3.381 -0.5617  0.2087 -0.7508
  159SAPS  H13R17809   0.105   6.252   3.463  0.6167 -1.1916 -0.1208
  159SAPS  H13S17810   0.163   6.174   3.326  1.1431  1.5237  1.7186
  159SAPS  C21417811   0.018   6.052   3.429 -0.3463 -0.5757 -0.3065
  159SAPS  H14R17812  -0.013   5.984   3.348 -1.4316 -1.3043  0.6830
  159SAPS  C21517813   0.005   6.023   3.562  0.2453  0.0047 -0.2810
  159SAPS  H15R17814  -0.046   5.929   3.586  1.6198 -0.9927 -1.1406
  159SAPS  C21617815   0.042   6.118   3.672  0.2080  0.1449  0.7151
  159SAPS  H16R17816  -0.036   6.196   3.683  0.7310  1.2358 -2.3154
  159SAPS  H16S17817   0.138   6.169   3.649 -1.2242  2.9183  0.3923
  159SAPS  C21717818   0.078   6.036   3.801 -0.1241  0.4777  0.4364
  159SAPS  H17R17819   0.130   6.099   3.876  1.3243  0.8320 -0.8030
  159SAPS  H17S17820   0.131   5.948   3.758 -0.9495  0.8141 -1.3441
  159SAPS  C21817821  -0.039   5.975   3.871  0.1086 -0.0779 -0.6667
  159SAPS  H18R17822  -0.063   5.873   3.834 -0.2292  0.1041 -0.9564
  159SAPS  H18S17823  -0.127   6.043   3.863 -0.5971 -0.8246  0.4368
  159SAPS  C21917824  -0.013   5.964   4.028 -0.1557  0.4838  0.5724
  159SAPS  H19R17825   0.027   6.058   4.072  1.3420 -0.0302  0.3688
  159SAPS  H19S17826   0.067   5.888   4.043 -1.1193 -0.9462 -1.1683
  159SAPS  C22017827  -0.132   5.898   4.101 -0.0054 -0.3915 -0.0745
  159SAPS  H20R17828  -0.147   5.791   4.072 -0.7935 -0.4252  0.4318
  159SAPS  H20S17829  -0.221   5.962   4.087 -1.5176 -1.8548  2.1493
  159SAPS  H20T17830  -0.098   5.891   4.207  0.0448  0.4967 -0.0303
  159SAPS   C3317831  -0.245   5.991   2.387  0.8152 -0.3738 -0.9195
  159SAPS   H3X17832  -0.145   6.025   2.424 -0.0222  1.0962  0.1383
  159SAPS   H3Y17833  -0.255   5.882   2.369 -0.1300 -0.7423  1.5174
  159SAPS   C3417834  -0.349   6.029   2.488 -0.3351 -0.1505  0.0029
  159SAPS   H4X17835  -0.450   6.022   2.443 -0.4774 -0.7245  0.4120
  159SAPS   H4Y17836  -0.327   6.135   2.515 -0.9604  0.2177 -0.8659
  159SAPS   C3517837  -0.344   5.956   2.615  0.0947  0.2264  0.0829
  159SAPS   H5X17838  -0.251   5.969   2.676 -0.6701  2.0921  0.9055
  159SAPS   H5Y17839  -0.346   5.851   2.578  0.0966  0.2908 -0.0988
  159SAPS   C3617840  -0.458   6.001   2.705 -0.1296  0.1501  0.5977
  159SAPS   H6X17841  -0.557   5.986   2.656 -0.5095  1.6366  0.8395
  159SAPS   H6Y17842  -0.452   6.112   2.716  1.0469  0.3970 -1.8736
  159SAPS   C3717843  -0.451   5.935   2.848  0.5491  0.0888 -0.3040
  159SAPS   H7X17844  -0.345   5.939   2.880  0.8664 -0.2774 -1.2563
  159SAPS   H7Y17845  -0.470   5.825   2.847  1.5320 -0.1411 -2.8699
  159SAPS   C3817846  -0.536   6.001   2.956  0.9707  0.7195  0.4949
  159SAPS   H8X17847  -0.644   6.012   2.932  0.4622  0.0112  2.3117
  159SAPS   H8Y17848  -0.512   6.107   2.980 -1.4808  1.4994 -0.2056
  159SAPS   C3917849  -0.543   5.913   3.087 -0.2882  0.0721  0.0481
  159SAPS   H9X17850  -0.543   5.808   3.051  1.3354 -0.0153  0.2436
  159SAPS   H9Y17851  -0.638   5.922   3.145 -0.2803  0.9510 -0.0569
  159SAPS  C31017852  -0.421   5.941   3.182  0.5672 -0.2997  0.1591
  159SAPS  H10X17853  -0.412   6.050   3.199  0.9222 -0.1747 -0.7923
  159SAPS  H10Y17854  -0.327   5.916   3.129  0.8936  1.9043 -0.4066
  159SAPS  C31117855  -0.436   5.860   3.311 -0.6419 -0.0879 -0.4040
  159SAPS  H11X17856  -0.446   5.752   3.287  0.2145 -0.0922 -0.7713
  159SAPS  H11Y17857  -0.529   5.895   3.359  1.3968  2.9685  1.6655
  159SAPS  C31217858  -0.319   5.889   3.403  0.2081  0.3835 -0.6830
  159SAPS  H12X17859  -0.342   5.989   3.446  0.4335  0.9007 -1.7101
  159SAPS  H12Y17860  -0.220   5.896   3.352  0.0456  1.1631 -0.9088
  159SAPS  C31317861  -0.301   5.773   3.509  0.9026  0.1964 -0.1430
  159SAPS  H13X17862  -0.230   5.796   3.591 -0.1681  0.6880  0.6738
  159SAPS  H13Y17863  -0.274   5.679   3.456 -0.2357 -0.2076 -0.0299
  159SAPS  C31417864  -0.432   5.735   3.591 -0.5053  0.0770  0.2870
  159SAPS  H14X17865  -0.404   5.644   3.648  0.2064 -1.2072 -1.9430
  159SAPS  H14Y17866  -0.503   5.693   3.516  0.1346  1.7866 -1.3797
  159SAPS  C31517867  -0.491   5.855   3.664 -0.1939  0.7441 -0.5302
  159SAPS  H15X17868  -0.590   5.823   3.703 -0.4199  0.5135 -1.2830
  159SAPS  H15Y17869  -0.526   5.931   3.592 -1.8464 -0.2813 -0.8602
  159SAPS  C31617870  -0.403   5.916   3.767 -0.4484 -0.5508 -0.2916
  159SAPS  H16X17871  -0.299   5.938   3.733 -0.8058  0.0662 -1.0080
  159SAPS  H16Y17872  -0.399   5.838   3.846 -0.1837 -1.4424 -1.1659
  159SAPS  C31717873  -0.462   6.045   3.835  0.0579 -0.9582 -0.0728
  159SAPS  H17X17874  -0.494   6.121   3.761 -1.3070  0.0913  1.5294
  159SAPS  H17Y17875  -0.386   6.102   3.893  1.0351  0.8389 -2.9241
  159SAPS  C31817876  -0.577   6.014   3.926 -0.2068  1.1429  0.0855
  159SAPS  H18X17877  -0.551   5.926   3.988 -2.1309 -0.1738 -0.8634
  159SAPS  H18Y17878  -0.617   6.094   3.991 -0.3155  0.3898  0.9693
  159SAPS  H18Z17879  -0.657   5.976   3.859  0.6978 -0.1339 -0.2995
  160SAPS     N17880   0.482   0.169   1.547  0.2062  0.2694 -0.0018
  160SAPS   HN117881   0.491   0.232   1.629 -1.3204  1.0221 -0.3792
  160SAPS   HN217882   0.504   0.070   1.569  0.4645 -0.6742 -3.7486
  160SAPS   HN317883   0.553   0.198   1.477 -0.4188 -2.0489 -1.7223
  160SAPS   C1217884   0.345   0.175   1.478  0.8383  0.0019 -0.0134
  160SAPS  H12A17885   0.310   0.273   1.505 -0.5978 -0.6801  0.6776
  160SAPS   C1317886   0.334   0.145   1.325  0.4889 -1.0743  0.1475
  160SAPS  O13A17887   0.441   0.100   1.270  0.0377  0.0090 -0.1694
  160SAPS  O13B17888   0.223   0.138   1.272  0.3017 -0.0214  0.0655
  160SAPS   C1117889   0.248   0.085   1.553  0.3661  0.2323 -0.6731
  160SAPS  H11A17890   0.278  -0.022   1.549 -2.7176 -0.7407 -0.5192
  160SAPS  H11B17891   0.153   0.105   1.500  0.0723  0.5415 -0.0338
  160SAPS     P17892   0.113   0.107   1.777  0.0820  0.0141 -0.4452
  160SAPS   O1317893   0.054   0.239   1.789 -0.0490 -0.0991 -0.0479
  160SAPS   O1417894   0.027  -0.002   1.725  0.0528  0.5321  0.1173
  160SAPS   O1217895   0.241   0.126   1.692  0.2063 -0.6124  0.5174
  160SAPS   O1117896   0.163   0.062   1.924  0.4383  0.1068 -0.4229
  160SAPS    C117897   0.214  -0.068   1.955 -0.4640  0.2862 -0.2280
  160SAPS    HA17898   0.274  -0.104   1.869 -3.9215 -0.5436 -2.5307
  160SAPS    HB17899   0.269  -0.072   2.051  0.0173 -0.8090 -0.5363
  160SAPS    C217900   0.097  -0.174   1.978  0.7012 -0.8443  0.3301
  160SAPS    HS17901   0.049  -0.178   1.877 -1.8252  2.1691  1.2706
  160SAPS   O2117902   0.003  -0.128   2.080 -0.3583  0.2733 -0.2383
  160SAPS   C2117903  -0.118  -0.187   2.068 -0.0606  0.4995 -0.8080
  160SAPS   O2217904  -0.139  -0.278   1.987  0.2316 -0.5943 -0.5357
  160SAPS   C2217905  -0.212  -0.134   2.173 -0.4622 -0.2384 -0.4643
  160SAPS   H2R17906  -0.230  -0.027   2.148  1.7001  0.3612  0.3816
  160SAPS   H2S17907  -0.310  -0.185   2.161 -1.1401  0.3101  2.1253
  160SAPS    C317908   0.162  -0.303   2.002 -0.4872  0.4566  0.1293
  160SAPS    HX17909   0.207  -0.346   1.910 -0.5933  0.3775  0.1130
  160SAPS    HY17910   0.087  -0.384   2.019  0.9829 -1.3049 -1.3908
  160SAPS   O3117911   0.274  -0.296   2.095 -0.0747  0.1498 -0.5979
  160SAPS   C3117912   0.247  -0.319   2.218 -0.0872  0.2270  0.1580
  160SAPS   O3217913   0.148  -0.375   2.265  0.0829 -0.5374  0.5218
  160SAPS   C3217914   0.367  -0.269   2.303 -0.2239 -0.2113 -0.6996
  160SAPS   H2X17915   0.410  -0.182   2.249  0.5410  0.9091  1.6128
  160SAPS   H2Y17916   0.445  -0.348   2.301  0.3131  0.3193 -1.3205
  160SAPS   C2317917  -0.159  -0.151   2.317 -0.3277 -0.1197 -0.1268
  160SAPS   H3R17918  -0.064  -0.097   2.335 -0.7181  0.5719 -0.0938
  160SAPS   H3S17919  -0.145  -0.260   2.334 -1.8006 -0.1340  1.2189
  160SAPS   C2417920  -0.264  -0.097   2.413 -0.8575  0.0932 -0.1421
  160SAPS   H4R17921  -0.361  -0.149   2.393 -0.0230 -1.3208 -0.6139
  160SAPS   H4S17922  -0.279   0.013   2.411 -1.0093  0.0700 -0.4127
  160SAPS   C2517923  -0.242  -0.147   2.555 -0.1462 -0.7107 -0.1287
  160SAPS   H5R17924  -0.206  -0.251   2.566 -1.6307 -1.0773  1.7328
  160SAPS   C2617925  -0.252  -0.084   2.678  1.0081  0.1713  0.2720
  160SAPS   H6R17926  -0.247  -0.137   2.774 -0.4809  0.6360  0.6248
  160SAPS   C2717927  -0.283   0.062   2.709 -0.0979  0.2835  0.0098
  160SAPS   H7R17928  -0.297   0.119   2.614 -0.6837 -0.0591 -0.1184
  160SAPS   H7S17929  -0.194   0.102   2.762 -0.4438  0.8786  0.1500
  160SAPS   C2817930  -0.408   0.078   2.789 -1.2595  0.2923 -0.5635
  160SAPS   H8R17931  -0.495   0.074   2.722 -0.6935  0.1458 -1.2954
  160SAPS   C2917932  -0.412   0.048   2.922  0.5429  0.2630 -0.4789
  160SAPS   H9R17933  -0.503   0.064   2.982 -0.1011 -0.1372 -1.3155
  160SAPS  C21017934  -0.298   0.001   3.011  0.8674  0.9460 -0.0549
  160SAPS  H10R17935  -0.208   0.059   2.981  1.6568  0.2654  0.9388
  160SAPS  H10S17936  -0.282  -0.106   2.987  0.9654  1.2616 -1.5069
  160SAPS  C21117937  -0.323   0.009   3.162 -0.3149  0.2484  1.1117
  160SAPS  H11R17938  -0.264   0.081   3.220  1.1345  0.6718 -0.7714
  160SAPS  C21217939  -0.399  -0.082   3.232  0.4534 -0.0301 -0.2417
  160SAPS  H12R17940  -0.420  -0.071   3.339 -0.9412 -1.0243 -0.3931
  160SAPS  C21317941  -0.479  -0.194   3.163  0.3519 -0.1024 -0.4926
  160SAPS  H13R17942  -0.482  -0.181   3.053  0.8146 -2.7057 -0.8810
  160SAPS  H13S17943  -0.586  -0.187   3.195  0.7817 -1.3037  1.4171
  160SAPS  C21417944  -0.409  -0.326   3.194 -0.1200  0.1994 -0.0478
  160SAPS  H14R17945  -0.414  -0.354   3.300 -0.5784 -0.3573 -0.2085
  160SAPS  C21517946  -0.361  -0.422   3.106  0.6743 -0.5223 -0.7706
  160SAPS  H15R17947  -0.290  -0.501   3.134  2.2974  1.3099  0.5031
  160SAPS  C21617948  -0.377  -0.417   2.960 -0.5179 -0.6121  0.6279
  160SAPS  H16R17949  -0.287  -0.362   2.925 -0.1440 -2.3970 -1.4255
  160SAPS  H16S17950  -0.466  -0.357   2.931 -0.0066 -0.2686 -0.2930
  160SAPS  C21717951  -0.369  -0.550   2.885  0.1785  0.7323 -0.5189
  160SAPS  H17R17952  -0.472  -0.592   2.882  0.6785 -0.7147  0.9437
  160SAPS  H17S17953  -0.298  -0.623   2.931 -1.7364 -1.9949 -1.5740
  160SAPS  C21817954  -0.333  -0.546   2.737 -0.1833 -0.3807  0.1708
  160SAPS  H18R17955  -0.284  -0.639   2.701 -0.3831 -0.2147 -0.5494
  160SAPS  H18S17956  -0.264  -0.460   2.729 -1.6504  0.9498  1.2228
  160SAPS  C21917957  -0.452  -0.504   2.654  0.1369 -0.3349  0.7391
  160SAPS  H19R17958  -0.500  -0.406   2.675 -0.1550 -0.0607 -1.0264
  160SAPS  H19S17959  -0.534  -0.577   2.672 -1.7356  1.4402 -0.1463
  160SAPS  C22017960  -0.423  -0.508   2.501 -0.1770  0.5140  0.4793
  160SAPS  H20R17961  -0.518  -0.482   2.448 -0.1593  0.0237  0.2078
  160SAPS  H20S17962  -0.406  -0.612   2.466 -4.5342 -0.5169  0.8430
  160SAPS  H20T17963  -0.340  -0.441   2.472  0.9694 -1.0863 -0.0508
  160SAPS   C3317964   0.335  -0.212   2.443  0.1193 -0.3080  0.0610
  160SAPS   H3X17965   0.249  -0.145   2.421  0.8879  0.5717 -0.3332
  160SAPS   H3Y17966   0.416  -0.150   2.488  0.1885 -0.2330 -0.1635
  160SAPS   C3417967   0.291  -0.318   2.554  0.3299 -0.1389 -0.1990
  160SAPS   H4X17968   0.378  -0.385   2.575  0.2907  0.4397  1.9819
  160SAPS   H4Y17969   0.202  -0.373   2.515 -0.1491  1.2773 -1.2136
  160SAPS   C3517970   0.224  -0.251   2.684  0.2785  0.3681  0.0374
  160SAPS   H5X17971   0.139  -0.182   2.668 -0.5099 -0.7620 -0.8024
  160SAPS   H5Y17972   0.300  -0.182   2.727 -1.7601  1.1371  2.6639
  160SAPS   C3617973   0.182  -0.360   2.790  0.0588 -0.0361 -1.3214
  160SAPS   H6X17974   0.259  -0.438   2.810  0.5419  0.8413  0.3962
  160SAPS   H6Y17975   0.099  -0.414   2.740 -1.2805  2.0068 -1.4151
  160SAPS   C3717976   0.136  -0.317   2.935 -0.2298 -0.1926  0.5951
  160SAPS   H7X17977   0.044  -0.260   2.909  0.1870  0.7510  1.1389
  160SAPS   H7Y17978   0.219  -0.254   2.972  1.3971 -1.7106 -0.3471
  160SAPS   C3817979   0.093  -0.433   3.022 -0.3183  0.1642 -0.6475
  160SAPS   H8X17980   0.183  -0.495   3.044 -0.8419 -0.1647  0.6911
  160SAPS   H8Y17981   0.030  -0.503   2.962  0.0264 -0.4019 -0.3669
  160SAPS   C3917982   0.021  -0.384   3.149 -0.1897  0.8320 -0.7517
  160SAPS   H9X17983  -0.015  -0.474   3.203 -0.3960  0.6252 -1.2231
  160SAPS   H9Y17984  -0.070  -0.324   3.128 -1.5024 -0.2747  1.5093
  160SAPS  C31017985   0.109  -0.316   3.253  0.0637  0.4250 -0.8588
  160SAPS  H10X17986   0.136  -0.212   3.224 -0.3100  0.7379 -0.1124
  160SAPS  H10Y17987   0.204  -0.373   3.256 -0.2177 -0.0101  1.4114
  160SAPS  C31117988   0.066  -0.321   3.401 -0.0154  0.6466 -0.8920
  160SAPS  H11X17989   0.157  -0.346   3.460 -0.1652  0.3292 -0.7917
  160SAPS  H11Y17990  -0.008  -0.402   3.419  0.2797  0.6718  0.5363
  160SAPS  C31217991  -0.005  -0.191   3.442 -0.9157 -0.3335 -0.5384
  160SAPS  H12X17992  -0.089  -0.163   3.375 -0.6223 -1.0777 -1.2313
  160SAPS  H12Y17993   0.073  -0.112   3.431 -1.4759  0.2693 -0.2650
  160SAPS  C31317994  -0.048  -0.191   3.593 -0.2735 -0.5346  0.3675
  160SAPS  H13X17995   0.036  -0.232   3.653 -0.6274 -0.1629  1.1348
  160SAPS  H13Y17996  -0.131  -0.265   3.597  0.1357 -1.2006 -2.0742
  160SAPS  C31417997  -0.092  -0.061   3.643  0.5784 -0.3961  0.1257
  160SAPS  H14X17998  -0.001   0.004   3.642  0.3083 -0.0155  0.1924
  160SAPS  H14Y17999  -0.117  -0.059   3.752  2.4201  0.8803  0.5942
  160SAPS  C31518000  -0.203   0.000   3.562  0.3698  0.2759  0.5178
  160SAPS  H15X18001  -0.278  -0.081   3.560 -2.0546  2.3395 -2.6925
  160SAPS  H15Y18002  -0.174   0.020   3.457  0.5761  0.6007  0.6333
  160SAPS  C31618003  -0.261   0.137   3.616  0.2082 -0.4337 -0.4186
  160SAPS  H16X18004  -0.346   0.162   3.548  0.9318 -1.3766 -1.7168
  160SAPS  H16Y18005  -0.184   0.217   3.617 -0.7468  0.5032  0.0548
  160SAPS  C31718006  -0.323   0.125   3.763 -0.2238  0.3861  0.9619
  160SAPS  H17X18007  -0.238   0.116   3.834 -1.0660  1.2025  2.1185
  160SAPS  H17Y18008  -0.387   0.034   3.767 -1.8102  1.1107 -3.1909
  160SAPS  C31818009  -0.401   0.245   3.801  0.0942  0.8158 -0.0956
  160SAPS  H18X18010  -0.326   0.326   3.816  0.2155  0.5920  0.5700
  160SAPS  H18Y18011  -0.457   0.235   3.897 -0.0507  0.4303 -0.2174
  160SAPS  H18Z18012  -0.466   0.287   3.722  0.2574 -0.1011 -0.7281
  161SAPE     N18013   4.485   4.979   6.380  0.0121 -0.8639 -0.3445
  161SAPE   HN118014   4.430   4.896   6.408  0.3154 -0.7340  0.6850
  161SAPE   HN218015   4.442   5.063   6.424  0.4266 -1.7348  1.8938
  161SAPE   HN318016   4.485   4.995   6.277  0.0022 -0.5813 -0.3020
  161SAPE   C1218017   4.634   4.987   6.419 -0.8603 -0.0513  0.1315
  161SAPE  H12A18018   4.634   4.984   6.530  0.5385 -0.7986  0.1337
  161SAPE  H12B18019   4.677   5.081   6.379  1.5202 -1.0764  0.1602
  161SAPE   C1118020   4.720   4.876   6.361  0.7032  0.5779 -0.2233
  161SAPE  H11A18021   4.822   4.901   6.397 -0.0871  1.0928  1.7971
  161SAPE  H11B18022   4.716   4.873   6.250  3.4367  2.9831 -0.5131
  161SAPE     P18023   4.627   4.630   6.326  0.3331  0.3944 -0.1930
  161SAPE   O1318024   4.617   4.501   6.402  0.0094  0.2945 -0.0514
  161SAPE   O1418025   4.514   4.691   6.257 -0.0436 -0.3878  0.7937
  161SAPE   O1218026   4.687   4.746   6.421 -0.1297  0.5459  0.6176
  161SAPE   O1118027   4.743   4.606   6.213  0.4989 -0.4062 -0.5188
  161SAPE    C118028   4.853   4.523   6.223  0.3616 -0.5428  0.5674
  161SAPE    HA18029   4.840   4.464   6.316 -0.3838  1.1240  1.5768
  161SAPE    HB18030   4.839   4.450   6.141 -0.6712  0.9846 -0.6899
  161SAPE    C218031   4.987   4.592   6.216 -0.6100 -0.7023 -0.2740
  161SAPE    HS18032   4.993   4.655   6.308  1.1262 -2.3170  0.8036
  161SAPE   O2118033   4.984   4.674   6.095  0.3326  0.2055 -0.3994
  161SAPE   C2118034   5.056   4.783   6.092 -0.2542  0.5574  0.6342
  161SAPE   O2218035   5.125   4.823   6.183  0.0490  0.3640  0.5648
  161SAPE   C2218036   5.032   4.856   5.971  0.4388 -0.8487 -0.0287
  161SAPE   H2R18037   5.021   4.789   5.883 -0.8527  0.1933 -0.6889
  161SAPE   H2S18038   4.936   4.911   5.984  0.7933 -0.7447  2.8031
  161SAPE    C318039   5.099   4.494   6.223  0.3329  0.1069  0.4656
  161SAPE    HX18040   5.088   4.435   6.317 -1.9621 -3.2593 -1.7213
  161SAPE    HY18041   5.199   4.543   6.228 -0.4308  1.8724 -0.6024
  161SAPE   O3118042   5.076   4.403   6.111 -0.1202  0.6821  0.5179
  161SAPE   C3118043   5.165   4.313   6.078  0.1559 -0.2585  0.7734
  161SAPE   O3218044   5.268   4.296   6.140  0.5203  0.1584 -0.0586
  161SAPE   C3218045   5.115   4.222   5.974  0.3886  0.1848  0.6299
  161SAPE   H2X18046   5.004   4.216   5.972  0.3606 -0.0762  2.1272
  161SAPE   H2Y18047   5.150   4.120   5.997  0.8162  0.0425 -0.5744
  161SAPE   C2318048   5.141   4.964   5.952  0.3247 -0.4514 -0.0065
  161SAPE   H3R18049   5.129   5.034   6.038  0.2223 -0.3122 -0.1324
  161SAPE   H3S18050   5.119   5.015   5.856  1.9053 -0.1277 -0.2248
  161SAPE   C2418051   5.281   4.921   5.921  0.1676  0.1608  0.0421
  161SAPE   H4R18052   5.330   4.892   6.016 -0.7917  0.4379  0.6386
  161SAPE   H4S18053   5.339   5.009   5.886  1.5864 -0.6372  0.3290
  161SAPE   C2518054   5.292   4.804   5.833 -0.1166  0.3036  0.1011
  161SAPE   H5R18055   5.240   4.820   5.737 -0.5305 -1.0713  0.0670
  161SAPE   C2618056   5.364   4.690   5.845  0.0007  0.3770 -0.8531
  161SAPE   H6R18057   5.370   4.621   5.760  1.5228 -0.2737 -0.2561
  161SAPE   C2718058   5.461   4.647   5.954 -0.5186  0.2139 -1.0009
  161SAPE   H7R18059   5.430   4.550   5.998  0.2542  0.2954 -0.2546
  161SAPE   H7S18060   5.460   4.713   6.043  0.2157 -0.2732 -0.6244
  161SAPE   C2818061   5.605   4.637   5.904 -0.2421  0.1537  0.2194
  161SAPE   H8R18062   5.670   4.721   5.933 -0.3276  0.7856 -1.3168
  161SAPE   C2918063   5.656   4.527   5.837 -0.8110  0.5723 -0.2335
  161SAPE   H9R18064   5.764   4.532   5.819 -1.1238  1.9939 -2.1325
  161SAPE  C21018065   5.582   4.403   5.793 -0.3725  0.0042  0.4293
  161SAPE  H10R18066   5.472   4.412   5.781 -0.4230 -1.8098 -0.8663
  161SAPE  H10S18067   5.578   4.336   5.882 -0.8030 -1.2121 -0.4858
  161SAPE  C21118068   5.632   4.316   5.682 -0.2009 -0.3073 -0.7432
  161SAPE  H11R18069   5.710   4.244   5.711  1.0625  0.3403 -2.3896
  161SAPE  C21218070   5.596   4.314   5.554  0.3435 -0.8809  0.2951
  161SAPE  H12R18071   5.652   4.245   5.489  1.4988  0.0622  0.2395
  161SAPE  C21318072   5.492   4.407   5.484 -0.3627 -0.6816 -0.5186
  161SAPE  H13R18073   5.444   4.465   5.566 -1.2139 -0.1304 -1.3882
  161SAPE  H13S18074   5.400   4.358   5.446 -0.7260  0.3016 -0.9345
  161SAPE  C21418075   5.546   4.495   5.370  0.6594 -0.5041 -0.2824
  161SAPE  H14R18076   5.555   4.602   5.393 -0.3210 -0.1055 -1.6023
  161SAPE  C21518077   5.586   4.453   5.243 -0.0961 -0.0999 -0.2969
  161SAPE  H15R18078   5.615   4.515   5.158  0.2249 -0.8415 -0.7391
  161SAPE  C21618079   5.568   4.303   5.191 -0.0578 -0.0364  0.6090
  161SAPE  H16R18080   5.469   4.294   5.142 -0.8031  0.7900  1.9016
  161SAPE  H16S18081   5.572   4.230   5.274  0.5215  0.1984  0.7950
  161SAPE  C21718082   5.683   4.280   5.093 -0.4828  0.0519  0.4305
  161SAPE  H17R18083   5.782   4.312   5.132  0.3376  1.1570 -2.3108
  161SAPE  H17S18084   5.663   4.338   5.000  0.2916  3.0444  1.9818
  161SAPE  C21818085   5.693   4.129   5.066  0.1763  0.0074 -0.9466
  161SAPE  H18R18086   5.695   4.081   5.166  2.4502 -0.3890 -1.1200
  161SAPE  H18S18087   5.788   4.103   5.014  0.8056 -0.2689  0.2975
  161SAPE  C21918088   5.572   4.067   4.996  0.0707 -0.1336  0.0286
  161SAPE  H19R18089   5.480   4.129   5.007  0.9917  1.2304  0.4143
  161SAPE  H19S18090   5.545   3.976   5.052 -0.6588  0.6367  0.9593
  161SAPE  C22018091   5.601   4.039   4.849 -0.2237 -0.2161 -0.2396
  161SAPE  H20R18092   5.517   3.997   4.789  0.8206 -0.6026 -1.4714
  161SAPE  H20S18093   5.684   3.965   4.842 -0.3221 -0.5795  1.7592
  161SAPE  H20T18094   5.626   4.133   4.797 -0.3379  0.1993  0.4487
  161SAPE   C3318095   5.169   4.256   5.833 -0.4255  0.6329  0.8886
  161SAPE   H3X18096   5.145   4.171   5.765  1.8097 -1.2551  2.2765
  161SAPE   H3Y18097   5.279   4.262   5.849 -0.1722 -1.3672  0.1480
  161SAPE   C3418098   5.105   4.387   5.775 -0.6456  0.1132  0.1512
  161SAPE   H4X18099   5.128   4.467   5.848 -1.6696  0.4938  0.0806
  161SAPE   H4Y18100   4.995   4.370   5.769 -0.8129 -0.0248  2.6742
  161SAPE   C3518101   5.162   4.423   5.643 -0.2207  0.6420 -0.6575
  161SAPE   H5X18102   5.183   4.325   5.595  0.2813  0.7651 -0.7000
  161SAPE   H5Y18103   5.266   4.462   5.653  0.3375 -1.0718  0.6987
  161SAPE   C3618104   5.081   4.521   5.560  0.6946 -0.2939 -0.3019
  161SAPE   H6X18105   5.046   4.598   5.632  0.6655 -2.0349  1.6494
  161SAPE   H6Y18106   4.988   4.469   5.528 -1.2001  2.7139 -0.0793
  161SAPE   C3718107   5.162   4.577   5.440  0.3746 -0.2080  0.4921
  161SAPE   H7X18108   5.209   4.495   5.380  0.5483  1.7690 -2.2916
  161SAPE   H7Y18109   5.240   4.645   5.480 -1.3899  0.8789  2.2373
  161SAPE   C3818110   5.088   4.671   5.337 -0.5287 -0.6342  0.1126
  161SAPE   H8X18111   5.025   4.738   5.399 -0.9831  0.5990 -1.6229
  161SAPE   H8Y18112   5.026   4.612   5.266 -0.8860  1.1738 -1.1405
  161SAPE   C3918113   5.188   4.764   5.266 -0.9209 -0.1500  0.3897
  161SAPE   H9X18114   5.247   4.700   5.197 -1.9995 -0.6177 -0.1338
  161SAPE   H9Y18115   5.255   4.810   5.341 -0.1716 -1.1312  0.3401
  161SAPE  C31018116   5.108   4.876   5.193 -0.1894  0.0518 -0.0695
  161SAPE  H10X18117   5.186   4.942   5.148 -2.1876  2.2507 -0.4877
  161SAPE  H10Y18118   5.048   4.925   5.273  0.6047  0.5382  0.2451
  161SAPE  C31118119   5.019   4.822   5.084 -0.3376  0.0619 -0.5341
  161SAPE  H11X18120   4.937   4.761   5.127 -0.9338  1.6837  0.7308
  161SAPE  H11Y18121   5.088   4.763   5.020  0.1108  0.4185 -0.3859
  161SAPE  C31218122   4.955   4.922   4.985 -0.0943  0.2712 -0.3336
  161SAPE  H12X18123   4.867   4.972   5.030 -0.5601  0.4799 -1.4522
  161SAPE  H12Y18124   4.918   4.858   4.902 -0.4872  0.4832 -0.3220
  161SAPE  C31318125   5.050   5.033   4.929  0.4765 -1.1479 -0.5413
  161SAPE  H13X18126   5.062   5.100   5.017 -0.0138 -0.2432 -1.1487
  161SAPE  H13Y18127   5.154   5.000   4.911  1.0804  1.2235 -1.7145
  161SAPE  C31418128   5.005   5.103   4.805  0.5339 -0.1415  0.1888
  161SAPE  H14X18129   4.896   5.123   4.815  0.5125 -0.0803 -0.1538
  161SAPE  H14Y18130   5.024   5.043   4.713  1.9436 -0.1445  0.4633
  161SAPE  C31518131   5.081   5.239   4.796 -0.4439 -0.0411  0.8327
  161SAPE  H15X18132   5.049   5.288   4.701 -2.0040 -1.2341  0.7046
  161SAPE  H15Y18133   5.191   5.230   4.790 -0.3686  0.9344  0.5353
  161SAPE  C31618134   5.057   5.334   4.914 -0.3927 -0.3101  0.2458
  161SAPE  H16X18135   5.123   5.424   4.912  1.0212 -1.3290 -0.4642
  161SAPE  H16Y18136   5.095   5.291   5.009  0.2589 -1.2262 -0.4124
  161SAPE  C31718137   4.916   5.387   4.924 -0.3256  0.0906 -0.6459
  161SAPE  H17X18138   4.909   5.448   5.016  0.3256 -0.3443 -0.3007
  161SAPE  H17Y18139   4.849   5.299   4.935  1.2840 -1.0032  1.0457
  161SAPE  C31818140   4.869   5.481   4.809 -0.6382 -1.5449 -0.3368
  161SAPE  H18X18141   4.944   5.562   4.803 -1.5477 -0.5572  0.9291
  161SAPE  H18Y18142   4.767   5.517   4.835  0.1760 -0.6902  1.8709
  161SAPE  H18Z18143   4.859   5.414   4.721 -2.6552 -0.0997 -1.2896
  162SAPE     N18144   4.560   4.664   5.982 -0.6825  0.0904 -0.3402
  162SAPE   HN118145   4.529   4.680   6.080  3.0649  1.9248  0.7409
  162SAPE   HN218146   4.544   4.564   5.961  1.7557 -0.6016  0.7730
  162SAPE   HN318147   4.664   4.665   5.989 -0.6904 -2.5998  1.6802
  162SAPE   C1218148   4.496   4.750   5.881 -0.4129  0.1601  0.2111
  162SAPE  H12A18149   4.388   4.727   5.872 -0.9690  2.6720 -0.3751
  162SAPE  H12B18150   4.539   4.732   5.780 -0.4952 -1.9816  0.5235
  162SAPE   C1118151   4.502   4.902   5.923  0.0027 -0.3673 -0.5729
  162SAPE  H11A18152   4.415   4.920   5.989  0.2346  0.1804 -0.4095
  162SAPE  H11B18153   4.486   4.960   5.829  1.1382 -2.4948 -2.1803
  162SAPE     P18154   4.637   5.091   6.039  0.1393 -0.9425 -0.1530
  162SAPE   O1318155   4.517   5.118   6.124  0.4687 -0.3702 -1.0118
  162SAPE   O1418156   4.765   5.110   6.112 -0.9155 -0.3663  0.1438
  162SAPE   O1218157   4.628   4.942   5.988 -0.2487  0.2209 -0.3179
  162SAPE   O1118158   4.641   5.179   5.905  0.4927 -0.4130 -0.0274
  162SAPE    C118159   4.719   5.140   5.790 -0.0618 -0.2396 -0.0470
  162SAPE    HA18160   4.716   5.030   5.775 -0.7274 -0.2754  0.3447
  162SAPE    HB18161   4.680   5.196   5.702 -1.0049 -0.9908 -0.1124
  162SAPE    C218162   4.873   5.178   5.806  0.1937  0.7773 -0.2392
  162SAPE    HS18163   4.907   5.111   5.888  0.2952  0.6695 -0.3702
  162SAPE   O2118164   4.874   5.310   5.850 -0.9393  0.0793 -0.0821
  162SAPE   C2118165   4.979   5.345   5.919  0.2257  0.5409 -0.1422
  162SAPE   O2218166   5.073   5.278   5.949  0.1121  0.3907  0.4299
  162SAPE   C2218167   4.972   5.498   5.950 -0.3648 -0.2205 -0.3576
  162SAPE   H2R18168   4.866   5.528   5.942 -0.6525 -1.6025 -2.4323
  162SAPE   H2S18169   4.994   5.514   6.058  0.1530  1.5040 -0.6960
  162SAPE    C318170   4.963   5.160   5.677  0.4866  0.5253  0.0449
  162SAPE    HX18171   4.944   5.054   5.648 -0.3742  0.9107 -0.8855
  162SAPE    HY18172   5.067   5.181   5.710  0.2659  0.4567  0.7966
  162SAPE   O3118173   4.925   5.259   5.575  0.6318  0.0086 -0.4106
  162SAPE   C3118174   4.955   5.216   5.451  0.3984  0.0927 -0.6166
  162SAPE   O3218175   5.006   5.109   5.425  0.3125 -0.1060  0.5751
  162SAPE   C3218176   4.922   5.325   5.341 -1.0355  0.2594 -0.0836
  162SAPE   H2X18177   4.813   5.317   5.322 -0.7556 -0.0344 -1.6673
  162SAPE   H2Y18178   4.962   5.297   5.241 -1.5078 -2.0926  0.3318
  162SAPE   C2318179   5.081   5.580   5.881 -0.1746  0.0692 -0.4820
  162SAPE   H3R18180   5.180   5.548   5.921 -0.7390 -0.8874  0.1641
  162SAPE   H3S18181   5.058   5.686   5.907 -1.5253 -0.4686  0.5642
  162SAPE   C2418182   5.076   5.584   5.725 -0.2268 -0.1046 -0.8865
  162SAPE   H4R18183   4.977   5.622   5.694 -0.6984 -1.2618 -0.8376
  162SAPE   H4S18184   5.073   5.480   5.686  0.7440 -0.8755  0.9455
  162SAPE   C2518185   5.191   5.652   5.641  0.1162  0.3840 -0.5222
  162SAPE   H5R18186   5.275   5.588   5.613  1.6078  0.6305  2.9309
  162SAPE   C2618187   5.201   5.778   5.622 -0.0145 -1.3706  0.2862
  162SAPE   H6R18188   5.291   5.820   5.574  0.0996  0.5316  2.0429
  162SAPE   C2718189   5.102   5.885   5.659  0.4549  0.0604  0.0898
  162SAPE   H7R18190   5.012   5.844   5.710  0.4675 -2.2690 -1.6165
  162SAPE   H7S18191   5.074   5.930   5.561  2.8328 -1.3660 -1.3205
  162SAPE   C2818192   5.176   5.989   5.747 -0.1950  0.5970 -0.3555
  162SAPE   H8R18193   5.193   5.962   5.852  1.3316  0.0710 -0.7143
  162SAPE   C2918194   5.205   6.112   5.713  0.0484  0.6930 -0.6821
  162SAPE   H9R18195   5.264   6.165   5.789 -1.4632  1.3593  0.0667
  162SAPE  C21018196   5.180   6.187   5.586 -0.1915  1.2363  0.8141
  162SAPE  H10R18197   5.076   6.226   5.596 -0.7808 -0.8107  4.0418
  162SAPE  H10S18198   5.188   6.119   5.499 -0.2088 -0.4916  2.1145
  162SAPE  C21118199   5.277   6.306   5.572  0.5497  0.7348  1.2448
  162SAPE  H11R18200   5.352   6.319   5.651  1.2678 -0.4999  0.7921
  162SAPE  C21218201   5.295   6.379   5.454  0.8084  0.5722 -1.6669
  162SAPE  H12R18202   5.367   6.462   5.449 -0.5430  1.7831 -1.8831
  162SAPE  C21318203   5.212   6.366   5.330  0.4302 -0.8605  0.0416
  162SAPE  H13R18204   5.109   6.330   5.353 -0.6734  1.3947 -1.0312
  162SAPE  H13S18205   5.256   6.288   5.264  1.3180  1.2230 -1.9704
  162SAPE  C21418206   5.208   6.496   5.260  0.5091 -0.7191  1.0196
  162SAPE  H14R18207   5.232   6.583   5.322  0.7253 -2.0771  2.9517
  162SAPE  C21518208   5.183   6.516   5.129 -0.4374 -0.4245  0.6423
  162SAPE  H15R18209   5.209   6.613   5.086 -1.0732 -1.2820 -1.8438
  162SAPE  C21618210   5.166   6.407   5.021  0.7776 -0.1350  0.6333
  162SAPE  H16R18211   5.060   6.407   4.988  1.3221 -1.3091 -1.2707
  162SAPE  H16S18212   5.191   6.305   5.058 -0.8391 -0.6522  0.3557
  162SAPE  C21718213   5.256   6.437   4.894 -0.6259  0.2471 -0.2920
  162SAPE  H17R18214   5.261   6.341   4.838  1.5795  0.8973 -1.2914
  162SAPE  H17S18215   5.360   6.450   4.930 -0.1206 -0.0859 -1.5625
  162SAPE  C21818216   5.205   6.548   4.805  0.4624  0.1016  0.3917
  162SAPE  H18R18217   5.282   6.580   4.731 -1.3601  1.0164 -1.2112
  162SAPE  H18S18218   5.174   6.629   4.873  0.3525 -0.7121  1.3314
  162SAPE  C21918219   5.082   6.504   4.727  0.1049 -0.1069  0.3710
  162SAPE  H19R18220   4.996   6.487   4.795  0.4748  1.8396  1.4021
  162SAPE  H19S18221   5.107   6.410   4.673 -0.4267  1.2611 -2.3930
  162SAPE  C22018222   5.035   6.599   4.613  0.2159 -0.4776  0.3017
  162SAPE  H20R18223   4.968   6.679   4.651  0.7676  0.9251 -1.5220
  162SAPE  H20S18224   4.991   6.533   4.535  1.5939 -1.3403  0.2091
  162SAPE  H20T18225   5.115   6.656   4.562  1.4695 -0.3728  2.2684
  162SAPE   C3318226   4.958   5.466   5.404 -0.1073 -0.4262 -0.3733
  162SAPE   H3X18227   5.052   5.464   5.464 -1.3117  0.7171  1.6649
  162SAPE   H3Y18228   4.866   5.476   5.466 -0.4188 -0.5404 -0.8172
  162SAPE   C3418229   4.981   5.580   5.309  0.4357  0.3785  0.1926
  162SAPE   H4X18230   4.972   5.675   5.367 -2.1019 -0.0166  0.5474
  162SAPE   H4Y18231   4.904   5.583   5.229  0.5474  0.7271  0.0960
  162SAPE   C3518232   5.118   5.578   5.238 -0.5981 -0.0001 -0.0044
  162SAPE   H5X18233   5.118   5.500   5.158  1.6653 -0.2672  0.1769
  162SAPE   H5Y18234   5.200   5.569   5.312  0.9007  4.2053 -0.8623
  162SAPE   C3618235   5.149   5.713   5.169 -0.0509  0.3268  0.3634
  162SAPE   H6X18236   5.145   5.792   5.247  1.2846  0.3566  0.4348
  162SAPE   H6Y18237   5.069   5.745   5.099 -1.6942 -0.4004  1.8428
  162SAPE   C3718238   5.285   5.719   5.095 -0.5561 -0.5092  0.5848
  162SAPE   H7X18239   5.295   5.652   5.007 -0.0246  0.3200 -0.0031
  162SAPE   H7Y18240   5.369   5.695   5.164 -0.1145  1.1294  0.6653
  162SAPE   C3818241   5.326   5.850   5.018  0.5012 -0.1703 -0.5865
  162SAPE   H8X18242   5.436   5.845   5.006  0.9099 -4.0858  2.7546
  162SAPE   H8Y18243   5.301   5.938   5.082  1.1733  0.0015 -0.5539
  162SAPE   C3918244   5.241   5.868   4.890 -0.8180  0.2412 -0.5393
  162SAPE   H9X18245   5.262   5.966   4.841  0.5230  1.3728  2.0807
  162SAPE   H9Y18246   5.133   5.878   4.912 -0.4111  1.1191  1.3289
  162SAPE  C31018247   5.247   5.747   4.793  0.2846 -0.4389  0.2655
  162SAPE  H10X18248   5.186   5.664   4.834  2.0686 -2.0046 -0.0632
  162SAPE  H10Y18249   5.349   5.703   4.798  0.5617  0.3349  2.3160
  162SAPE  C31118250   5.209   5.797   4.650 -0.6261  0.0874 -0.2395
  162SAPE  H11X18251   5.272   5.881   4.613  0.9731 -0.2314  1.6340
  162SAPE  H11Y18252   5.106   5.839   4.651 -0.5927  0.2208 -1.3242
  162SAPE  C31218253   5.239   5.680   4.546 -0.2206  0.2651 -0.1760
  162SAPE  H12X18254   5.198   5.584   4.583 -1.6558  0.3923 -1.3686
  162SAPE  H12Y18255   5.349   5.668   4.547 -0.2753 -0.8531 -2.0771
  162SAPE  C31318256   5.199   5.713   4.408  0.5494  0.3663 -0.3217
  162SAPE  H13X18257   5.226   5.633   4.336  1.0807 -2.6697  2.9885
  162SAPE  H13Y18258   5.249   5.806   4.374 -0.0961 -0.1968 -3.0427
  162SAPE  C31418259   5.042   5.730   4.391 -0.8228 -0.0109 -0.3861
  162SAPE  H14X18260   5.029   5.789   4.297 -0.0082 -0.9970 -1.1376
  162SAPE  H14Y18261   5.008   5.799   4.471  0.5042  1.1684 -0.7919
  162SAPE  C31518262   4.977   5.600   4.365 -0.0259 -0.2389 -0.0177
  162SAPE  H15X18263   5.057   5.524   4.355 -1.5702 -2.1494  1.4623
  162SAPE  H15Y18264   4.928   5.615   4.267 -1.3810 -0.2211  0.6487
  162SAPE  C31618265   4.867   5.559   4.464 -0.3902 -0.0359  1.2490
  162SAPE  H16X18266   4.910   5.583   4.564 -0.6823  0.2316  1.3096
  162SAPE  H16Y18267   4.848   5.450   4.465 -3.2354  0.3874  0.7398
  162SAPE  C31718268   4.724   5.626   4.435 -0.3451  0.0474  0.5286
  162SAPE  H17X18269   4.690   5.580   4.340  0.2216 -2.9735  1.6631
  162SAPE  H17Y18270   4.748   5.734   4.426 -0.8360  0.0721 -0.6643
  162SAPE  C31818271   4.622   5.584   4.548  0.2350 -0.3264  0.4587
  162SAPE  H18X18272   4.609   5.474   4.553 -1.6524 -0.1088  0.9869
  162SAPE  H18Y18273   4.521   5.627   4.538  0.6542  0.7928  0.8673
  162SAPE  H18Z18274   4.656   5.625   4.646 -0.8602  0.1800  0.6394
  163SAPE     N18275   4.456   0.846   6.649 -0.2566 -0.1316  0.5438
  163SAPE   HN118276   4.376   0.825   6.711  0.9748 -1.5833  1.7365
  163SAPE   HN218277   4.530   0.796   6.703 -1.6268 -0.5025  2.1251
  163SAPE   HN318278   4.462   0.950   6.647 -2.2322 -0.0026  0.0420
  163SAPE   C1218279   4.427   0.801   6.505  0.1132  0.0172  0.3514
  163SAPE  H12A18280   4.351   0.721   6.513  0.6685 -0.6660 -1.0184
  163SAPE  H12B18281   4.522   0.756   6.470 -0.0826 -1.0266  1.1081
  163SAPE   C1118282   4.402   0.915   6.412 -0.6123  0.3798 -0.5283
  163SAPE  H11A18283   4.382   0.876   6.310  0.8092  0.7694 -0.9759
  163SAPE  H11B18284   4.486   0.987   6.402  0.0140 -0.0099  1.5249
  163SAPE     P18285   4.236   1.110   6.379  0.2561  0.2387  0.2195
  163SAPE   O1318286   4.093   1.096   6.391 -0.2491 -0.1635 -0.2162
  163SAPE   O1418287   4.294   1.227   6.436 -0.6023 -0.2583 -0.4157
  163SAPE   O1218288   4.295   0.988   6.461 -0.4552 -0.2316  0.5534
  163SAPE   O1118289   4.270   1.091   6.221 -0.2150 -0.6160 -0.1247
  163SAPE    C118290   4.248   1.187   6.116 -0.7590  0.5109 -0.2105
  163SAPE    HA18291   4.194   1.143   6.029  0.0077  0.5659 -0.7245
  163SAPE    HB18292   4.195   1.277   6.154  1.3417  2.0327 -0.6654
  163SAPE    C218293   4.385   1.239   6.051  0.1954  0.0350  0.0539
  163SAPE    HS18294   4.449   1.285   6.129  1.1803 -1.3497  0.0953
  163SAPE   O2118295   4.338   1.330   5.949 -0.1419 -0.1440 -0.2834
  163SAPE   C2118296   4.432   1.412   5.910 -0.3919  0.6505 -0.8207
  163SAPE   O2218297   4.549   1.407   5.948  0.5519  0.5355 -0.4249
  163SAPE   C2218298   4.382   1.506   5.802  0.2658 -0.1008  0.3841
  163SAPE   H2R18299   4.293   1.455   5.757  0.5701 -0.9561  0.7313
  163SAPE   H2S18300   4.342   1.589   5.864  0.1601  0.0232  0.1518
  163SAPE    C318301   4.462   1.115   5.991  0.2629  0.0654  0.6605
  163SAPE    HX18302   4.466   1.042   6.074 -1.6272  0.7378  1.3918
  163SAPE    HY18303   4.563   1.147   5.959  1.2460 -0.8413  2.6826
  163SAPE   O3118304   4.379   1.061   5.888  0.2539  0.3642 -0.6196
  163SAPE   C3118305   4.396   0.931   5.859  0.7112 -0.0495 -0.0791
  163SAPE   O3218306   4.490   0.866   5.902  0.9099 -0.3920 -0.0532
  163SAPE   C3218307   4.304   0.879   5.746 -0.8101 -0.1419 -0.0992
  163SAPE   H2X18308   4.327   0.932   5.651  0.4351 -2.7598 -1.3759
  163SAPE   H2Y18309   4.200   0.903   5.778 -0.9529 -0.6657 -0.1529
  163SAPE   C2318310   4.477   1.557   5.695 -0.0949 -0.2552 -0.0615
  163SAPE   H3R18311   4.489   1.478   5.618 -1.0874 -0.8357  0.3546
  163SAPE   H3S18312   4.573   1.579   5.746  0.0154 -1.6729  0.3669
  163SAPE   C2418313   4.422   1.690   5.642  0.5768  1.2453 -0.5811
  163SAPE   H4R18314   4.417   1.756   5.731 -2.7007  0.2556  0.0987
  163SAPE   H4S18315   4.318   1.666   5.610  0.7937 -0.0517 -0.3948
  163SAPE   C2518316   4.511   1.724   5.527 -0.5490 -0.4111  0.0653
  163SAPE   H5R18317   4.597   1.791   5.546  0.2350 -0.9669 -1.3409
  163SAPE   C2618318   4.497   1.675   5.403 -0.3719 -0.2979  0.9048
  163SAPE   H6R18319   4.569   1.721   5.334  1.8382 -1.7950  2.0894
  163SAPE   C2718320   4.391   1.584   5.342  0.8546 -0.8914  0.7808
  163SAPE   H7R18321   4.327   1.636   5.267  2.4144 -1.9694 -1.4016
  163SAPE   H7S18322   4.319   1.543   5.415 -0.7190 -2.4087 -1.4647
  163SAPE   C2818323   4.457   1.465   5.281 -0.5566  0.3757 -0.1924
  163SAPE   H8R18324   4.485   1.384   5.350 -3.0023 -2.6776 -2.4498
  163SAPE   C2918325   4.477   1.441   5.155  0.8480  0.3988 -0.5255
  163SAPE   H9R18326   4.507   1.339   5.126 -0.0611 -0.2580  0.7163
  163SAPE  C21018327   4.417   1.524   5.034  0.7832  0.3431 -0.4344
  163SAPE  H10R18328   4.496   1.554   4.961  0.4490 -0.4994 -1.1617
  163SAPE  H10S18329   4.383   1.628   5.054 -2.0320  0.1287 -3.2914
  163SAPE  C21118330   4.306   1.437   4.964  0.8907  0.2172  0.0273
  163SAPE  H11R18331   4.213   1.435   5.023  0.4128  0.9437 -0.6821
  163SAPE  C21218332   4.305   1.404   4.832 -0.5859  0.1921 -0.8168
  163SAPE  H12R18333   4.220   1.350   4.787 -0.9089 -0.0661  0.0967
  163SAPE  C21318334   4.400   1.450   4.723 -0.5009  0.9238 -0.8126
  163SAPE  H13R18335   4.451   1.544   4.755  2.6264 -1.2020  1.0416
  163SAPE  H13S18336   4.335   1.476   4.637 -0.3855  4.0049 -0.0793
  163SAPE  C21418337   4.507   1.346   4.706  0.6703 -0.4889 -0.7381
  163SAPE  H14R18338   4.549   1.314   4.802  0.2243  1.9153  0.3206
  163SAPE  C21518339   4.537   1.281   4.593 -0.4162  0.5111 -0.5174
  163SAPE  H15R18340   4.618   1.206   4.594  0.2575  1.1684  1.6147
  163SAPE  C21618341   4.465   1.279   4.464 -0.4740  0.3401 -0.3057
  163SAPE  H16R18342   4.385   1.355   4.457 -2.3525 -1.5131  0.1663
  163SAPE  H16S18343   4.424   1.177   4.450  1.6291 -0.5674 -0.2308
  163SAPE  C21718344   4.557   1.313   4.347 -0.3589  0.7793 -0.2162
  163SAPE  H17R18345   4.601   1.413   4.365  0.6125  0.2676  0.3249
  163SAPE  H17S18346   4.490   1.318   4.258 -0.2204 -1.7314 -0.5233
  163SAPE  C21818347   4.665   1.201   4.308 -0.4260 -0.9231 -0.4092
  163SAPE  H18R18348   4.735   1.191   4.393  0.6991 -1.9488 -1.4191
  163SAPE  H18S18349   4.718   1.229   4.215 -2.3617  1.5985 -0.8636
  163SAPE  C21918350   4.602   1.061   4.280  0.1924  0.2872 -0.0518
  163SAPE  H19R18351   4.542   1.036   4.370 -1.1623  1.9955 -0.4302
  163SAPE  H19S18352   4.683   0.986   4.281  1.9295  2.0985  0.5021
  163SAPE  C22018353   4.519   1.063   4.151  0.3779 -0.0068 -0.3657
  163SAPE  H20R18354   4.427   1.124   4.168 -0.4807 -1.3759  0.0414
  163SAPE  H20S18355   4.475   0.966   4.120 -0.4372 -0.2445  1.4393
  163SAPE  H20T18356   4.584   1.093   4.066  0.6564  2.5417  0.6400
  163SAPE   C3318357   4.307   0.728   5.723 -0.5229  0.3736 -0.0790
  163SAPE   H3X18358   4.301   0.674   5.820  2.1563  0.9532  0.5072
  163SAPE   H3Y18359   4.412   0.704   5.696 -0.4580  0.2007  0.3151
  163SAPE   C3418360   4.198   0.684   5.626 -0.7914  0.0405 -0.5787
  163SAPE   H4X18361   4.113   0.744   5.664 -0.8716 -0.8848  0.7940
  163SAPE   H4Y18362   4.185   0.574   5.635 -1.2383  0.0711 -0.8808
  163SAPE   C3518363   4.220   0.725   5.480 -0.2387  0.0548 -0.1433
  163SAPE   H5X18364   4.305   0.656   5.457 -1.2504 -2.7169  3.4274
  163SAPE   H5Y18365   4.252   0.831   5.483 -1.0030  0.2922 -0.2021
  163SAPE   C3618366   4.093   0.697   5.398 -0.9333 -0.6956  0.5308
  163SAPE   H6X18367   4.011   0.756   5.444 -0.1592  1.2757 -0.5228
  163SAPE   H6Y18368   4.083   0.586   5.402  1.6326 -1.1217 -1.8269
  163SAPE   C3718369   4.104   0.726   5.249 -0.4449  0.6307 -0.0766
  163SAPE   H7X18370   4.189   0.669   5.207  0.0874 -0.8115  2.6734
  163SAPE   H7Y18371   4.127   0.834   5.239 -0.8073  0.6806 -0.3955
  163SAPE   C3818372   3.978   0.685   5.177  0.2220 -0.2232  0.1604
  163SAPE   H8X18373   3.897   0.726   5.241  1.3856  0.9303  0.9355
  163SAPE   H8Y18374   3.978   0.574   5.177  1.9912 -0.2611  1.5658
  163SAPE   C3918375   3.972   0.747   5.036 -0.6562 -0.1735 -0.5986
  163SAPE   H9X18376   4.054   0.700   4.977 -0.7178  2.0453 -2.6358
  163SAPE   H9Y18377   3.989   0.857   5.038  2.5499 -0.5964  1.5368
  163SAPE  C31018378   3.843   0.711   4.977  1.0617  0.4386  0.4961
  163SAPE  H10X18379   3.767   0.761   5.041  0.8049 -0.2780  0.7591
  163SAPE  H10Y18380   3.817   0.604   4.994 -0.0350  0.1776 -2.2256
  163SAPE  C31118381   3.830   0.751   4.831  0.8537 -0.4888 -0.7032
  163SAPE  H11X18382   3.898   0.690   4.768 -0.9100 -0.7790 -2.4215
  163SAPE  H11Y18383   3.851   0.859   4.813  0.3533  0.0871  1.6945
  163SAPE  C31218384   3.691   0.717   4.775 -0.8740 -0.4177  0.2217
  163SAPE  H12X18385   3.609   0.768   4.830 -1.6375 -3.4163  2.1049
  163SAPE  H12Y18386   3.672   0.609   4.797  0.6434 -0.4210  1.6850
  163SAPE  C31318387   3.679   0.751   4.626 -0.8905 -0.5510 -0.5386
  163SAPE  H13X18388   3.751   0.696   4.563  0.9997 -0.8849  1.7754
  163SAPE  H13Y18389   3.705   0.858   4.613 -0.4420 -0.7914 -1.6885
  163SAPE  C31418390   3.544   0.722   4.580 -0.0512 -0.0682 -0.3944
  163SAPE  H14X18391   3.529   0.796   4.499 -0.3557 -1.3987 -1.6038
  163SAPE  H14Y18392   3.470   0.739   4.661 -0.3187 -0.4470 -0.5552
  163SAPE  C31518393   3.526   0.587   4.525  0.0242  0.6091  0.6911
  163SAPE  H15X18394   3.545   0.516   4.608  0.0172 -1.0083 -0.6231
  163SAPE  H15Y18395   3.592   0.565   4.438  1.6319  1.3029  1.6892
  163SAPE  C31618396   3.377   0.565   4.480 -0.6621  0.1844 -0.4617
  163SAPE  H16X18397   3.380   0.639   4.397  1.6424  1.1744  0.4194
  163SAPE  H16Y18398   3.304   0.595   4.558  2.5244  1.2882  2.3342
  163SAPE  C31718399   3.361   0.408   4.448 -0.3021  0.2824 -0.6666
  163SAPE  H17X18400   3.368   0.354   4.545  1.9338 -1.3026 -1.6049
  163SAPE  H17Y18401   3.449   0.369   4.392  0.7740 -0.0395  1.1581
  163SAPE  C31818402   3.233   0.368   4.381  0.2451  0.1320  0.1113
  163SAPE  H18X18403   3.237   0.425   4.286  0.6940 -0.3972 -0.1916
  163SAPE  H18Y18404   3.142   0.407   4.432 -0.1359  0.7483 -1.0130
  163SAPE  H18Z18405   3.227   0.258   4.374 -1.0838  0.1805  0.1599
  164SAPE     N18406   1.190   5.490   6.306 -0.2462 -0.3248 -0.0847
  164SAPE   HN118407   1.275   5.523   6.256  0.6539  0.6181  1.9570
  164SAPE   HN218408   1.135   5.431   6.240  2.1034 -2.2583 -0.4630
  164SAPE   HN318409   1.136   5.573   6.337 -0.5899  0.2873 -2.1615
  164SAPE   C1218410   1.226   5.388   6.412  0.1402 -0.0183  0.0572
  164SAPE  H12A18411   1.138   5.343   6.463  0.1749  0.5765  0.6615
  164SAPE  H12B18412   1.273   5.446   6.494  0.0210 -0.2660  0.3049
  164SAPE   C1118413   1.321   5.285   6.364  0.4305 -0.0064 -0.0089
  164SAPE  H11A18414   1.285   5.223   6.279  1.3080 -0.9082  0.2507
  164SAPE  H11B18415   1.327   5.218   6.453  0.4468 -0.4383 -0.3282
  164SAPE     P18416   1.568   5.266   6.261 -0.3038 -0.1411 -0.0243
  164SAPE   O1318417   1.676   5.366   6.224  0.2184  0.2430 -0.1084
  164SAPE   O1418418   1.596   5.141   6.338  0.5414 -0.1299  0.1465
  164SAPE   O1218419   1.452   5.342   6.338  0.6986 -0.3660  0.2723
  164SAPE   O1118420   1.497   5.228   6.124  0.3103  0.5625  0.1848
  164SAPE    C118421   1.494   5.323   6.017 -0.0781  0.3258 -0.0232
  164SAPE    HA18422   1.457   5.423   6.048 -0.2959  0.4548 -0.6771
  164SAPE    HB18423   1.599   5.324   5.982  0.2493  1.0608  0.9252
  164SAPE    C218424   1.395   5.288   5.904 -0.7166  0.1457 -0.5769
  164SAPE    HS18425   1.297   5.259   5.948  0.7707 -5.7933 -0.3238
  164SAPE   O2118426   1.448   5.174   5.831 -0.5934 -0.2797  0.3861
  164SAPE   C2118427   1.350   5.111   5.761  0.7615 -0.0992 -0.1093
  164SAPE   O2218428   1.229   5.128   5.775 -0.0666  0.4608 -0.4890
  164SAPE   C2218429   1.406   5.004   5.671 -0.5019  0.6340 -0.3071
  164SAPE   H2R18430   1.517   5.012   5.678 -0.4176 -0.2865 -0.4615
  164SAPE   H2S18431   1.366   4.906   5.704 -0.1310  0.6717  0.2637
  164SAPE    C318432   1.373   5.413   5.819  0.3691 -0.1650  1.1508
  164SAPE    HX18433   1.333   5.494   5.883  0.4131  0.2713  0.6365
  164SAPE    HY18434   1.296   5.394   5.741  2.8294 -0.8621 -1.2604
  164SAPE   O3118435   1.492   5.466   5.764 -0.4364 -0.3797 -0.0801
  164SAPE   C3118436   1.516   5.443   5.644 -0.4759  0.2045  0.0229
  164SAPE   O3218437   1.450   5.407   5.552  0.2846  0.5029 -0.0638
  164SAPE   C3218438   1.647   5.513   5.615 -0.0706 -0.1635  0.2652
  164SAPE   H2X18439   1.731   5.445   5.640  0.3616 -0.4058 -1.6741
  164SAPE   H2Y18440   1.648   5.604   5.679 -0.3154  1.8319 -2.3989
  164SAPE   C2318441   1.368   5.026   5.521  0.3567 -0.6246 -0.2722
  164SAPE   H3R18442   1.434   5.108   5.487  0.5293  0.0876  1.6676
  164SAPE   H3S18443   1.261   5.053   5.512  0.3613 -1.1348 -2.2051
  164SAPE   C2418444   1.399   4.919   5.418 -0.6716  0.5942 -0.5525
  164SAPE   H4R18445   1.356   4.821   5.445 -0.6539  0.8389  0.3958
  164SAPE   H4S18446   1.508   4.896   5.422 -0.8872 -1.1650 -2.7636
  164SAPE   C2518447   1.372   4.970   5.279 -0.1391 -0.1898  0.8823
  164SAPE   H5R18448   1.271   4.948   5.243 -0.1787 -1.2333  1.5774
  164SAPE   C2618449   1.468   5.029   5.206  0.3658 -0.5075  0.8258
  164SAPE   H6R18450   1.426   5.066   5.111  1.9966  1.5893  0.8689
  164SAPE   C2718451   1.613   5.075   5.240 -0.5048 -0.0069  0.5436
  164SAPE   H7R18452   1.682   5.015   5.178 -0.0478 -0.8425  1.8384
  164SAPE   H7S18453   1.636   5.045   5.344  1.9843 -0.2482 -0.0190
  164SAPE   C2818454   1.618   5.229   5.229  0.2014  0.9478 -0.0629
  164SAPE   H8R18455   1.541   5.286   5.283 -0.0090  1.1455 -0.5693
  164SAPE   C2918456   1.715   5.294   5.164  0.5141 -0.6078 -0.5205
  164SAPE   H9R18457   1.704   5.404   5.166 -1.6330 -0.7926  0.6568
  164SAPE  C21018458   1.837   5.244   5.095  0.0083  1.1037 -0.1017
  164SAPE  H10R18459   1.821   5.148   5.042 -0.0136  0.1049  1.6569
  164SAPE  H10S18460   1.919   5.232   5.169 -0.5736  2.0199  0.7141
  164SAPE  C21118461   1.887   5.346   4.993  0.1154 -0.4193 -0.1564
  164SAPE  H11R18462   1.920   5.440   5.039 -0.9726  0.4247 -1.0692
  164SAPE  C21218463   1.931   5.330   4.865  0.0287 -0.2894  0.8834
  164SAPE  H12R18464   1.993   5.410   4.822  0.6740 -0.5315  1.3511
  164SAPE  C21318465   1.943   5.206   4.777  0.3561  0.0326  0.3217
  164SAPE  H13R18466   1.957   5.229   4.670  1.8700 -1.0185  0.2539
  164SAPE  H13S18467   1.863   5.129   4.782 -0.7184  0.9725 -1.6073
  164SAPE  C21418468   2.073   5.140   4.813 -0.0535 -0.3392 -0.1605
  164SAPE  H14R18469   2.116   5.184   4.904  0.8932  2.3530 -1.8033
  164SAPE  C21518470   2.136   5.039   4.746 -0.4256 -0.6812  0.1593
  164SAPE  H15R18471   2.232   5.008   4.790 -0.4978 -2.0689 -0.5975
  164SAPE  C21618472   2.091   4.967   4.624  0.3762  0.6662  0.2769
  164SAPE  H16R18473   1.993   5.000   4.583  0.6482  0.1187 -0.8381
  164SAPE  H16S18474   2.085   4.858   4.644  0.3215  0.3385 -1.3731
  164SAPE  C21718475   2.183   4.981   4.505  0.5409 -0.4468 -0.1168
  164SAPE  H17R18476   2.285   4.971   4.549 -0.1335 -0.4889  1.5221
  164SAPE  H17S18477   2.180   5.087   4.473 -3.8108 -0.4824 -0.4819
  164SAPE  C21818478   2.152   4.889   4.389 -0.1306  0.2615 -0.0783
  164SAPE  H18R18479   2.169   4.786   4.426  1.8613  1.4353  2.6582
  164SAPE  H18S18480   2.226   4.907   4.308 -1.2863  2.6118 -0.7143
  164SAPE  C21918481   2.020   4.906   4.318 -0.1324 -0.4784  0.3721
  164SAPE  H19R18482   1.937   4.863   4.379  0.3528 -2.3317 -0.2176
  164SAPE  H19S18483   2.014   4.840   4.229 -0.5205  1.5732 -1.1905
  164SAPE  C22018484   1.966   5.048   4.275 -0.6006  0.3925 -0.1346
  164SAPE  H20R18485   2.042   5.095   4.208 -0.5371  0.8088  0.2259
  164SAPE  H20S18486   1.963   5.118   4.362 -1.8877 -1.1672  1.1263
  164SAPE  H20T18487   1.865   5.049   4.229 -1.8754  1.3460  2.5168
  164SAPE   C3318488   1.659   5.562   5.467  0.1130 -0.4506  0.0804
  164SAPE   H3X18489   1.573   5.625   5.434 -1.3470 -2.9346 -1.1496
  164SAPE   H3Y18490   1.655   5.472   5.402  0.8010  0.8224 -1.8257
  164SAPE   C3418491   1.781   5.647   5.440  0.7918  0.0980 -0.3599
  164SAPE   H4X18492   1.875   5.588   5.437  0.1257 -1.0576  0.3556
  164SAPE   H4Y18493   1.785   5.715   5.527 -1.1262 -2.6104  2.0513
  164SAPE   C3518494   1.776   5.731   5.309 -0.1669 -0.1685 -0.5581
  164SAPE   H5X18495   1.672   5.769   5.307 -0.3791 -0.6943  0.1672
  164SAPE   H5Y18496   1.792   5.674   5.215  0.3806  0.4772 -0.8596
  164SAPE   C3618497   1.889   5.836   5.306  0.1745  0.0984 -0.6983
  164SAPE   H6X18498   1.980   5.774   5.317 -0.1806 -0.6266 -1.6635
  164SAPE   H6Y18499   1.879   5.908   5.390  2.4405 -0.5660  0.2019
  164SAPE   C3718500   1.898   5.917   5.182 -0.2790 -0.0326  0.7116
  164SAPE   H7X18501   1.987   5.983   5.191 -1.8368  1.9160  3.1942
  164SAPE   H7Y18502   1.814   5.988   5.166 -1.8135 -2.2952 -2.6066
  164SAPE   C3818503   1.894   5.845   5.044  0.0532 -0.5843  0.5753
  164SAPE   H8X18504   1.796   5.793   5.032  0.6224 -1.2282 -1.8397
  164SAPE   H8Y18505   1.974   5.769   5.051  2.4416  1.7748  0.2867
  164SAPE   C3918506   1.938   5.929   4.927  0.1831 -0.1798 -0.0446
  164SAPE   H9X18507   2.031   5.986   4.949  1.0801 -1.2703 -0.8976
  164SAPE   H9Y18508   1.866   6.014   4.930 -0.6123 -0.8411  3.2250
  164SAPE  C31018509   1.942   5.867   4.792 -0.0354 -0.7428  0.2163
  164SAPE  H10X18510   1.842   5.845   4.749  1.1986 -1.0331 -2.7336
  164SAPE  H10Y18511   1.991   5.767   4.796  1.0042 -0.2727 -0.2413
  164SAPE  C31118512   2.017   5.951   4.680 -0.1253 -0.9236 -0.0113
  164SAPE  H11X18513   2.116   5.986   4.716 -1.6617  1.7379  2.0082
  164SAPE  H11Y18514   1.957   6.044   4.666  1.6323  0.2928  0.2494
  164SAPE  C31218515   2.036   5.863   4.552 -0.7995  0.0393  0.0936
  164SAPE  H12X18516   2.098   5.781   4.594  1.2289  0.8112 -1.2649
  164SAPE  H12Y18517   2.110   5.915   4.488  1.4274 -1.1470  1.5726
  164SAPE  C31318518   1.911   5.810   4.500 -1.0211 -0.0291 -0.3319
  164SAPE  H13X18519   1.843   5.898   4.494  1.7093  2.1975 -0.5800
  164SAPE  H13Y18520   1.872   5.728   4.564  0.8650 -2.8243 -2.5123
  164SAPE  C31418521   1.931   5.767   4.355  0.4648  0.2574  0.2237
  164SAPE  H14X18522   1.827   5.762   4.317  0.3346 -1.2241  0.7279
  164SAPE  H14Y18523   1.968   5.662   4.360 -1.8099 -0.6619 -0.5982
  164SAPE  C31518524   2.023   5.848   4.260 -0.2903 -0.0798 -0.3066
  164SAPE  H15X18525   2.123   5.846   4.307 -0.6175  0.5284  0.4442
  164SAPE  H15Y18526   1.982   5.951   4.268  0.4299  0.2240 -0.4348
  164SAPE  C31618527   2.019   5.800   4.113 -0.0833 -0.0511  1.1443
  164SAPE  H16X18528   2.088   5.845   4.039  0.7691 -2.5210  0.3147
  164SAPE  H16Y18529   1.922   5.830   4.069  1.1211  1.7046 -0.4480
  164SAPE  C31718530   2.034   5.648   4.088  0.1417  0.6278 -0.3663
  164SAPE  H17X18531   1.958   5.581   4.132  0.3557  0.5296 -0.1441
  164SAPE  H17Y18532   2.130   5.625   4.141 -0.2741  0.4183  0.3058
  164SAPE  C31818533   2.037   5.609   3.938  0.3955  0.2994 -0.6980
  164SAPE  H18X18534   2.114   5.672   3.888  0.2031  1.2934  0.2199
  164SAPE  H18Y18535   1.938   5.610   3.888  1.1601 -0.5412 -2.3235
  164SAPE  H18Z18536   2.064   5.502   3.928  0.9533  0.4650 -1.0521
  165SAPE     N18537   4.595   6.489   6.211  0.3291 -0.0767 -0.3645
  165SAPE   HN118538   4.570   6.538   6.299  0.7949  0.0639 -0.3104
  165SAPE   HN218539   4.507   6.461   6.162  0.9407 -1.4091 -0.7299
  165SAPE   HN318540   4.645   6.403   6.239  0.1936 -0.0352  0.0130
  165SAPE   C1218541   4.675   6.574   6.116 -0.3004 -0.3716  0.4153
  165SAPE  H12A18542   4.598   6.638   6.068 -0.7695 -1.2574 -0.0442
  165SAPE  H12B18543   4.723   6.503   6.044  2.2123 -1.1521  2.6839
  165SAPE   C1118544   4.775   6.644   6.205  0.3088 -0.5919 -0.5630
  165SAPE  H11A18545   4.727   6.700   6.288  1.4671 -2.4363  1.4568
  165SAPE  H11B18546   4.820   6.718   6.134 -0.4519 -0.2566 -0.7126
  165SAPE     P18547   5.002   6.518   6.198  0.4798  0.4209 -0.0596
  165SAPE   O1318548   5.079   6.639   6.212  0.5266 -0.3213 -0.5464
  165SAPE   O1418549   5.060   6.399   6.263  0.7904  0.7160  0.6325
  165SAPE   O1218550   4.866   6.548   6.265  0.2439  0.2455 -0.1709
  165SAPE   O1118551   4.972   6.503   6.045 -0.5656  0.2937 -1.1508
  165SAPE    C118552   4.988   6.387   5.971 -0.3361  0.4922 -0.2296
  165SAPE    HA18553   5.061   6.319   6.020 -0.7721  0.8670  0.9641
  165SAPE    HB18554   4.893   6.329   5.970  0.8377 -1.6369  1.7012
  165SAPE    C218555   5.033   6.415   5.829 -0.3190 -0.1055  0.2734
  165SAPE    HS18556   5.108   6.337   5.802  1.2423  1.0613  1.0774
  165SAPE   O2118557   5.098   6.542   5.809  0.6163 -0.1909 -0.4068
  165SAPE   C2118558   5.230   6.547   5.834 -0.0731  0.7680  0.8177
  165SAPE   O2218559   5.296   6.453   5.882  0.1586 -0.2097 -0.1211
  165SAPE   C2218560   5.285   6.683   5.809  0.1194 -0.0518  0.0344
  165SAPE   H2R18561   5.203   6.757   5.813 -2.9944 -3.2538  0.3753
  165SAPE   H2S18562   5.349   6.696   5.899  0.8187 -0.7251 -0.3459
  165SAPE    C318563   4.912   6.395   5.737  0.1324 -0.0034  0.2495
  165SAPE    HX18564   4.832   6.458   5.783  0.7387  1.0728 -0.1256
  165SAPE    HY18565   4.889   6.287   5.729  1.1049 -0.2681  0.9472
  165SAPE   O3118566   4.930   6.442   5.603  0.1690  0.1018 -0.4890
  165SAPE   C3118567   4.892   6.563   5.559  0.2692 -0.0980 -0.3868
  165SAPE   O3218568   4.862   6.655   5.631  0.5654 -0.1416 -0.3339
  165SAPE   C3218569   4.867   6.562   5.409 -0.0880 -0.3542  0.0299
  165SAPE   H2X18570   4.779   6.502   5.379 -0.0271  0.5090 -2.0945
  165SAPE   H2Y18571   4.958   6.520   5.361  1.2057  0.7641  1.3963
  165SAPE   C2318572   5.355   6.689   5.668  0.2066  0.5575  0.3132
  165SAPE   H3R18573   5.396   6.589   5.641 -1.1761  0.0993 -0.1845
  165SAPE   H3S18574   5.445   6.754   5.667 -1.2280  2.6430  0.2418
  165SAPE   C2418575   5.256   6.745   5.562 -0.8916 -0.4029  0.1924
  165SAPE   H4R18576   5.161   6.687   5.554 -2.2177  1.4583  1.7239
  165SAPE   H4S18577   5.311   6.725   5.468 -0.5309 -0.2907  0.3810
  165SAPE   C2518578   5.226   6.892   5.571 -0.3695 -0.4608 -0.0156
  165SAPE   H5R18579   5.217   6.933   5.673 -2.3083 -0.7114 -0.0436
  165SAPE   C2618580   5.204   6.976   5.466  0.0749 -0.0656 -0.3437
  165SAPE   H6R18581   5.169   7.079   5.486 -0.4408 -0.2513 -0.2817
  165SAPE   C2718582   5.204   6.945   5.323 -1.1536 -0.0283 -0.5287
  165SAPE   H7R18583   5.124   7.002   5.271 -0.0742  0.4954 -1.6635
  165SAPE   H7S18584   5.175   6.838   5.319 -0.0123 -0.5012  1.7648
  165SAPE   C2818585   5.335   6.980   5.254  0.7410 -0.1698  0.3244
  165SAPE   H8R18586   5.405   7.034   5.320  1.2174  0.5487 -0.7236
  165SAPE   C2918587   5.362   6.953   5.124  0.3059 -0.3015 -0.8054
  165SAPE   H9R18588   5.446   7.006   5.078  0.6756 -0.1133  0.0723
  165SAPE  C21018589   5.264   6.887   5.033 -0.7066  0.0408 -0.7294
  165SAPE  H10R18590   5.175   6.849   5.087 -0.1007  1.2262  1.2195
  165SAPE  H10S18591   5.290   6.784   5.001 -1.4421 -0.2682 -0.3601
  165SAPE  C21118592   5.233   6.963   4.911  0.3795  0.2689  0.0570
  165SAPE  H11R18593   5.316   6.977   4.840 -0.3199 -1.4240 -1.1509
  165SAPE  C21218594   5.111   7.015   4.885 -0.2782  0.1277 -0.5050
  165SAPE  H12R18595   5.084   7.062   4.789  0.5398  1.5689 -0.0563
  165SAPE  C21318596   4.986   7.006   4.968  0.1196 -0.4548  0.1389
  165SAPE  H13R18597   5.016   7.016   5.075  1.8765 -2.3019 -0.1151
  165SAPE  H13S18598   4.947   6.902   4.959 -1.4917  0.1265  0.0075
  165SAPE  C21418599   4.889   7.118   4.928 -0.4519 -0.3345 -0.0786
  165SAPE  H14R18600   4.917   7.196   4.856  0.8406 -1.3999 -0.7662
  165SAPE  C21518601   4.775   7.157   4.992  0.4177  0.5873 -0.2900
  165SAPE  H15R18602   4.732   7.253   4.961  2.3848  0.1695 -5.1474
  165SAPE  C21618603   4.714   7.081   5.113  0.3057  0.0653  0.9799
  165SAPE  H16R18604   4.744   6.974   5.117  0.1471  0.0404  1.6072
  165SAPE  H16S18605   4.605   7.094   5.100 -0.1957 -3.4124  1.0002
  165SAPE  C21718606   4.768   7.148   5.238 -0.1504 -0.1623 -0.2010
  165SAPE  H17R18607   4.737   7.254   5.254 -2.6611 -1.1288  2.1546
  165SAPE  H17S18608   4.877   7.168   5.233 -0.6233  2.8826 -0.1451
  165SAPE  C21818609   4.756   7.064   5.369 -0.0436  0.2890 -0.6481
  165SAPE  H18R18610   4.810   6.972   5.340  1.4184  0.7551  0.4611
  165SAPE  H18S18611   4.650   7.052   5.400  0.2148  2.2669  1.2473
  165SAPE  C21918612   4.821   7.131   5.496 -0.4430 -0.1182  0.1113
  165SAPE  H19R18613   4.766   7.225   5.518  0.5616 -0.1281  3.2423
  165SAPE  H19S18614   4.921   7.177   5.479 -1.4648  1.2779 -2.6148
  165SAPE  C22018615   4.802   7.058   5.621 -0.1979 -0.3533 -0.2943
  165SAPE  H20R18616   4.859   7.097   5.708  0.9207 -2.1953 -0.1508
  165SAPE  H20S18617   4.823   6.949   5.622 -2.9597 -0.9911  1.9395
  165SAPE  H20T18618   4.697   7.069   5.656  0.4300  1.2799  1.2151
  165SAPE   C3318619   4.852   6.705   5.345 -0.0798  0.0250  0.0182
  165SAPE   H3X18620   4.942   6.756   5.386  2.5343 -1.2077 -3.5770
  165SAPE   H3Y18621   4.761   6.748   5.389 -1.2213 -1.2543 -0.9869
  165SAPE   C3418622   4.853   6.704   5.189 -0.2361 -0.1061  0.3087
  165SAPE   H4X18623   4.954   6.670   5.161  0.4985  2.0989  0.1071
  165SAPE   H4Y18624   4.845   6.806   5.145  3.7116 -0.2513 -1.0681
  165SAPE   C3518625   4.747   6.619   5.123  0.3924  0.0209  0.3418
  165SAPE   H5X18626   4.644   6.651   5.149  0.7467  1.4406  0.0475
  165SAPE   H5Y18627   4.748   6.515   5.162  1.1261 -0.0611  0.1143
  165SAPE   C3618628   4.771   6.611   4.967  0.1181  0.0046 -0.7895
  165SAPE   H6X18629   4.863   6.550   4.958  0.6094  0.5543  0.3679
  165SAPE   H6Y18630   4.791   6.709   4.918  2.6810 -0.1175 -0.1304
  165SAPE   C3718631   4.666   6.533   4.898  0.4554  0.1905 -0.1321
  165SAPE   H7X18632   4.569   6.587   4.900  1.4074  1.9660 -0.1817
  165SAPE   H7Y18633   4.656   6.433   4.946  0.2294  0.5653  0.6267
  165SAPE   C3818634   4.682   6.513   4.743 -0.5147 -0.1864 -0.5758
  165SAPE   H8X18635   4.778   6.466   4.713  0.4544  1.7709 -0.7305
  165SAPE   H8Y18636   4.667   6.611   4.693 -1.1448  0.0504  0.0558
  165SAPE   C3918637   4.566   6.444   4.681  0.2648 -0.0901  0.8722
  165SAPE   H9X18638   4.470   6.481   4.722 -0.6793 -1.0328 -0.4043
  165SAPE   H9Y18639   4.568   6.334   4.699  2.5603 -0.2012  0.2122
  165SAPE  C31018640   4.568   6.447   4.522  0.4333 -0.4283 -0.5086
  165SAPE  H10X18641   4.522   6.354   4.481 -0.5213  0.2641 -1.0380
  165SAPE  H10Y18642   4.674   6.456   4.488  0.4150  3.6242  0.1099
  165SAPE  C31118643   4.493   6.569   4.465 -0.7444  0.4336 -0.4964
  165SAPE  H11X18644   4.551   6.661   4.487  3.3154 -2.0839  0.6723
  165SAPE  H11Y18645   4.390   6.575   4.506 -0.5296  1.2637 -0.0625
  165SAPE  C31218646   4.487   6.545   4.311  0.2781  0.1556  0.2560
  165SAPE  H12X18647   4.440   6.445   4.303  1.7262 -0.6554  1.3403
  165SAPE  H12Y18648   4.592   6.542   4.273  1.0477 -1.9103  2.2999
  165SAPE  C31318649   4.404   6.663   4.246 -0.5612 -0.0465  0.2866
  165SAPE  H13X18650   4.458   6.759   4.258 -3.3303  1.4599  1.6525
  165SAPE  H13Y18651   4.305   6.676   4.295 -1.1624  2.3840 -1.4078
  165SAPE  C31418652   4.367   6.625   4.103  0.7419 -0.1770  1.1434
  165SAPE  H14X18653   4.451   6.572   4.052  0.0946  0.4328 -0.6371
  165SAPE  H14Y18654   4.361   6.727   4.058 -2.9817 -0.4527  0.7660
  165SAPE  C31518655   4.237   6.555   4.086  0.0426 -0.6377 -0.0247
  165SAPE  H15X18656   4.161   6.588   4.161 -1.7176 -0.9070 -1.6091
  165SAPE  H15Y18657   4.266   6.452   4.115  1.8808  0.1006  0.9289
  165SAPE  C31618658   4.180   6.571   3.947  0.6004 -0.3688  0.1497
  165SAPE  H16X18659   4.260   6.550   3.873  0.9231  1.7000 -0.1425
  165SAPE  H16Y18660   4.146   6.675   3.924  1.1471 -0.6569 -2.2140
  165SAPE  C31718661   4.072   6.476   3.920  0.4252  0.1835 -0.0823
  165SAPE  H17X18662   4.113   6.375   3.900 -2.8543 -1.3142  0.0400
  165SAPE  H17Y18663   4.030   6.503   3.821 -0.3508 -2.9189 -0.7173
  165SAPE  C31818664   3.959   6.481   4.015  0.2887  0.0011  0.3305
  165SAPE  H18X18665   3.933   6.587   4.036 -0.1376 -0.4874  2.5272
  165SAPE  H18Y18666   3.996   6.447   4.114  0.3078 -0.0209  0.3155
  165SAPE  H18Z18667   3.864   6.432   3.985 -0.7782  0.8283  2.1755
  166SAPE     N18668   1.588   0.388   6.462 -0.2214  0.5633  0.2551
  166SAPE   HN118669   1.580   0.490   6.448  1.4007  0.9299  1.6222
  166SAPE   HN218670   1.490   0.353   6.453 -0.0767 -0.3192  1.7466
  166SAPE   HN318671   1.618   0.366   6.559  0.3832  1.6187  0.3244
  166SAPE   C1218672   1.670   0.302   6.371 -0.8327  0.6636  0.2197
  166SAPE  H12A18673   1.635   0.198   6.387  0.2627  0.3882  0.9584
  166SAPE  H12B18674   1.776   0.312   6.404 -1.4080  1.5989  1.8944
  166SAPE   C1118675   1.689   0.358   6.227 -0.3147 -0.0798 -0.2429
  166SAPE  H11A18676   1.734   0.277   6.165 -0.6027  0.3836 -1.0843
  166SAPE  H11B18677   1.761   0.442   6.228  2.5172 -2.3519 -0.7950
  166SAPE     P18678   1.509   0.551   6.178  0.0599 -0.2393  0.3927
  166SAPE   O1318679   1.374   0.576   6.118 -0.2149 -0.1815  0.6503
  166SAPE   O1418680   1.539   0.600   6.315  0.2538 -0.2185 -0.7434
  166SAPE   O1218681   1.560   0.401   6.174  0.0804 -0.3758  0.3624
  166SAPE   O1118682   1.608   0.620   6.074 -0.3578 -0.4244  0.2026
  166SAPE    C118683   1.621   0.549   5.945  0.6308 -0.4346 -0.4051
  166SAPE    HA18684   1.644   0.440   5.955  2.3679 -0.2552 -1.8437
  166SAPE    HB18685   1.525   0.556   5.889  0.4663 -4.2743 -0.9142
  166SAPE    C218686   1.740   0.601   5.864 -0.0603  0.0503  0.4271
  166SAPE    HS18687   1.727   0.712   5.866 -1.9591 -0.1168 -0.5950
  166SAPE   O2118688   1.741   0.539   5.733  0.4427 -0.1238  0.1769
  166SAPE   C2118689   1.799   0.619   5.638 -0.7559  0.6326 -0.0430
  166SAPE   O2218690   1.863   0.722   5.653  0.5000 -0.0104 -0.0489
  166SAPE   C2218691   1.775   0.558   5.497  0.7691  0.7720 -0.1062
  166SAPE   H2R18692   1.785   0.448   5.511  1.5239  0.7423 -0.7913
  166SAPE   H2S18693   1.669   0.572   5.466  0.7464 -0.1890 -0.5201
  166SAPE    C318694   1.878   0.587   5.931 -0.0049 -0.6892 -0.5081
  166SAPE    HX18695   1.874   0.645   6.025 -0.9856  1.8023 -1.9856
  166SAPE    HY18696   1.960   0.635   5.873  1.9998 -1.6786  1.3659
  166SAPE   O3118697   1.895   0.448   5.966 -0.9300  0.0553  0.3178
  166SAPE   C3118698   1.974   0.382   5.891  0.4471 -0.4132 -0.1435
  166SAPE   O3218699   2.037   0.423   5.795  0.0334  1.0600 -0.0026
  166SAPE   C3218700   1.969   0.233   5.941 -0.1321 -0.3098 -0.2697
  166SAPE   H2X18701   1.865   0.194   5.945 -0.7792  1.2966 -0.6578
  166SAPE   H2Y18702   2.000   0.227   6.047  1.0873  0.3098 -0.5758
  166SAPE   C2318703   1.864   0.609   5.390  0.2368 -0.8363  0.0791
  166SAPE   H3R18704   1.969   0.575   5.404  0.2322 -0.8888 -0.0096
  166SAPE   H3S18705   1.868   0.720   5.395 -1.4017 -0.6927 -1.0686
  166SAPE   C2418706   1.813   0.575   5.247  0.5920  0.6785  0.8034
  166SAPE   H4R18707   1.705   0.602   5.244  0.6100  0.7176 -1.6781
  166SAPE   H4S18708   1.814   0.469   5.216 -1.3211  0.5088  1.1977
  166SAPE   C2518709   1.889   0.644   5.134  0.9955  0.3547 -0.5994
  166SAPE   H5R18710   1.997   0.644   5.158  0.4805 -0.5372  2.1080
  166SAPE   C2618711   1.837   0.697   5.021  0.2766  0.1030  0.2035
  166SAPE   H6R18712   1.909   0.746   4.954  0.8919 -1.0304  0.0050
  166SAPE   C2718713   1.691   0.709   4.990 -0.8746 -0.3732 -0.4570
  166SAPE   H7R18714   1.634   0.724   5.084  0.0134  0.9330 -0.0973
  166SAPE   H7S18715   1.647   0.612   4.960 -0.5679 -1.3999  2.1137
  166SAPE   C2818716   1.672   0.816   4.886  0.0935  0.5197 -0.3249
  166SAPE   H8R18717   1.747   0.896   4.883  1.5073 -0.7312  0.5688
  166SAPE   C2918718   1.566   0.830   4.804 -0.3092 -0.0508  0.4313
  166SAPE   H9R18719   1.557   0.919   4.741 -0.8286  0.7223  1.5652
  166SAPE  C21018720   1.444   0.740   4.807 -0.0761  0.5403 -0.9116
  166SAPE  H10R18721   1.453   0.651   4.873 -1.7206 -0.3136 -1.7610
  166SAPE  H10S18722   1.430   0.686   4.711  0.3185 -0.9562 -0.1594
  166SAPE  C21118723   1.310   0.808   4.822  0.0262 -0.5455  0.0152
  166SAPE  H11R18724   1.250   0.782   4.910 -1.0442  1.5907 -0.0196
  166SAPE  C21218725   1.255   0.901   4.751 -0.3947 -0.3085 -0.7170
  166SAPE  H12R18726   1.153   0.937   4.770  0.4692  1.6152  0.5959
  166SAPE  C21318727   1.314   0.970   4.635  0.2842 -0.2216 -0.0594
  166SAPE  H13R18728   1.411   0.944   4.587 -0.5670 -0.4332 -1.7475
  166SAPE  H13S18729   1.318   1.075   4.672  1.1358 -0.1487 -0.3402
  166SAPE  C21418730   1.212   0.962   4.523  0.3331 -0.8091  0.2670
  166SAPE  H14R18731   1.222   0.876   4.455 -2.9374  0.1763 -1.6711
  166SAPE  C21518732   1.108   1.048   4.495 -0.7236  0.7662  0.1456
  166SAPE  H15R18733   1.054   1.021   4.404  1.9402 -0.3537 -1.2057
  166SAPE  C21618734   1.074   1.179   4.556 -0.3209  0.3279 -0.2926
  166SAPE  H16R18735   1.093   1.267   4.490 -0.4104  1.0287  0.5961
  166SAPE  H16S18736   1.135   1.196   4.648 -2.2121 -0.2128  1.1100
  166SAPE  C21718737   0.934   1.194   4.626  0.0081 -0.0156  0.0259
  166SAPE  H17R18738   0.852   1.186   4.551  0.0691 -0.4561 -0.0009
  166SAPE  H17S18739   0.922   1.293   4.673 -1.7395  0.3691 -1.1279
  166SAPE  C21818740   0.903   1.104   4.746 -0.6238 -0.3659  0.1316
  166SAPE  H18R18741   0.980   1.124   4.824 -2.1778  0.4836  1.4935
  166SAPE  H18S18742   0.906   0.994   4.730 -1.6429 -0.5026  0.8152
  166SAPE  C21918743   0.764   1.125   4.802  0.0080  0.5181  0.4520
  166SAPE  H19R18744   0.750   1.230   4.836  2.3889  1.2343 -0.6193
  166SAPE  H19S18745   0.754   1.062   4.893 -0.6407  1.4845  1.0754
  166SAPE  C22018746   0.649   1.081   4.708 -0.3974  0.1361 -0.4556
  166SAPE  H20R18747   0.665   1.127   4.608 -1.7747 -1.7614 -1.6110
  166SAPE  H20S18748   0.551   1.113   4.749 -1.0621 -0.7126 -1.3316
  166SAPE  H20T18749   0.648   0.970   4.701  0.3450  0.1164 -0.3666
  166SAPE   C3318750   2.057   0.131   5.863 -0.4402  0.7184  0.4127
  166SAPE   H3X18751   2.073   0.042   5.926  1.1001  0.8650  0.2753
  166SAPE   H3Y18752   2.159   0.173   5.848 -0.0029  0.9093  3.4298
  166SAPE   C3418753   2.001   0.094   5.721  0.4969  0.7184  0.1349
  166SAPE   H4X18754   1.981   0.190   5.668 -2.2366 -0.9506 -2.1344
  166SAPE   H4Y18755   1.901   0.045   5.727  0.5151  0.1371 -2.7907
  166SAPE   C3518756   2.096   0.010   5.642 -0.2774 -0.4769  0.2764
  166SAPE   H5X18757   2.137  -0.076   5.700  0.5804 -1.5635 -1.8139
  166SAPE   H5Y18758   2.186   0.068   5.610 -0.7570  0.3294  0.3668
  166SAPE   C3618759   2.042  -0.059   5.514 -0.3859 -0.1288  0.5726
  166SAPE   H6X18760   1.966   0.010   5.471  1.9034  1.7642 -0.6251
  166SAPE   H6Y18761   1.992  -0.151   5.552 -0.8810 -1.3009 -2.5907
  166SAPE   C3718762   2.145  -0.107   5.412 -0.3240 -0.3617  0.1526
  166SAPE   H7X18763   2.212  -0.183   5.458 -1.1509 -0.3932  1.3198
  166SAPE   H7Y18764   2.213  -0.022   5.386  1.5834 -1.5286  1.0766
  166SAPE   C3818765   2.085  -0.168   5.281  0.7911 -0.1682  0.6680
  166SAPE   H8X18766   2.030  -0.088   5.228 -0.6223  0.6994  3.2948
  166SAPE   H8Y18767   2.020  -0.257   5.296 -0.5715  0.8214  0.7951
  166SAPE   C3918768   2.210  -0.210   5.196  0.7375  0.1738  0.0912
  166SAPE   H9X18769   2.283  -0.257   5.266  3.3203 -0.9015 -3.0558
  166SAPE   H9Y18770   2.266  -0.120   5.161  0.2365  1.4219  2.3003
  166SAPE  C31018771   2.172  -0.311   5.085  0.2241  0.1559 -0.0923
  166SAPE  H10X18772   2.112  -0.384   5.143  0.2899 -0.8234 -1.2068
  166SAPE  H10Y18773   2.260  -0.363   5.039  0.1329  1.3956 -1.7561
  166SAPE  C31118774   2.093  -0.255   4.974 -0.0420  0.0950  0.1068
  166SAPE  H11X18775   2.147  -0.178   4.914 -1.0346  0.7444  0.0225
  166SAPE  H11Y18776   2.012  -0.200   5.026 -0.8280 -0.9037 -0.0453
  166SAPE  C31218777   2.043  -0.359   4.878  0.6037  0.2476  0.7323
  166SAPE  H12X18778   1.932  -0.345   4.875  0.6742  0.7452 -0.7136
  166SAPE  H12Y18779   2.063  -0.465   4.902  1.3556 -0.0072 -0.8668
  166SAPE  C31318780   2.084  -0.334   4.727 -0.2917  0.2558 -0.2324
  166SAPE  H13X18781   2.194  -0.345   4.717 -0.1563  1.9299 -0.8883
  166SAPE  H13Y18782   2.052  -0.228   4.716 -0.1204  0.2918 -0.3919
  166SAPE  C31418783   2.009  -0.435   4.636 -0.4823  0.3305  0.0084
  166SAPE  H14X18784   1.898  -0.432   4.651 -0.6860  1.5551 -1.5240
  166SAPE  H14Y18785   2.044  -0.539   4.649  0.6195  1.0139  3.9564
  166SAPE  C31518786   2.021  -0.391   4.481  0.4041  0.8458 -1.1346
  166SAPE  H15X18787   2.126  -0.391   4.445  0.5192  1.6051 -0.8396
  166SAPE  H15Y18788   1.991  -0.284   4.496 -0.4403  0.3729  1.0613
  166SAPE  C31618789   1.918  -0.467   4.392  0.3519  0.1173 -1.0010
  166SAPE  H16X18790   1.827  -0.460   4.455  1.6638  2.4550  0.8127
  166SAPE  H16Y18791   1.943  -0.575   4.387  2.0483  0.3890  0.5606
  166SAPE  C31718792   1.894  -0.403   4.257  0.0818  0.4332 -0.7070
  166SAPE  H17X18793   1.860  -0.299   4.277  1.7136  0.5230  2.0131
  166SAPE  H17Y18794   1.802  -0.452   4.218  0.5487 -0.5859 -0.5484
  166SAPE  C31818795   2.010  -0.413   4.163  0.3851  0.0548  0.3976
  166SAPE  H18X18796   1.988  -0.359   4.068 -0.1654 -1.2689 -0.2655
  166SAPE  H18Y18797   2.033  -0.520   4.143  0.0924  0.1420 -0.4657
  166SAPE  H18Z18798   2.096  -0.364   4.212 -0.3280  1.6770  0.0875
  167SAPE     N18799   0.127   4.188   6.474  0.1798  0.3060  0.2595
  167SAPE   HN118800   0.161   4.285   6.462  1.0856  0.3157  2.3927
  167SAPE   HN218801   0.076   4.186   6.565  0.6465  0.2744  0.5251
  167SAPE   HN318802   0.201   4.116   6.486 -0.4328 -0.4615 -0.4151
  167SAPE   C1218803   0.035   4.138   6.362 -0.1199 -0.2265  0.0218
  167SAPE  H12A18804  -0.008   4.044   6.402 -2.1666  0.5712 -0.1744
  167SAPE  H12B18805   0.094   4.121   6.270  0.3463  0.7939  0.1174
  167SAPE   C1118806  -0.075   4.245   6.329  0.3427  0.4958  0.0267
  167SAPE  H11A18807  -0.136   4.253   6.422 -1.8367  0.2911 -1.3231
  167SAPE  H11B18808  -0.138   4.205   6.248 -0.1746 -0.9993  1.1250
  167SAPE     P18809   0.027   4.419   6.164  0.0088 -0.0671 -0.7635
  167SAPE   O1318810  -0.069   4.510   6.110 -0.1146 -0.2370  0.2819
  167SAPE   O1418811   0.169   4.458   6.179  0.0156 -0.3399  0.2858
  167SAPE   O1218812  -0.024   4.376   6.306  0.2563  0.0558 -0.3955
  167SAPE   O1118813   0.019   4.291   6.081 -0.2801 -0.4307  0.3056
  167SAPE    C118814   0.034   4.275   5.944 -0.1557  0.2996  0.0107
  167SAPE    HA18815   0.007   4.367   5.888 -2.4792 -0.3522 -0.0380
  167SAPE    HB18816   0.144   4.262   5.933 -0.2661  0.4351 -1.4391
  167SAPE    C218817  -0.049   4.165   5.884  0.0208 -0.0605 -0.4530
  167SAPE    HS18818  -0.028   4.071   5.939 -0.4485 -0.7729 -1.4580
  167SAPE   O2118819  -0.008   4.148   5.753  0.0864  0.0689 -0.0552
  167SAPE   C2118820  -0.053   4.037   5.697  0.0020 -0.3625 -0.5763
  167SAPE   O2218821  -0.133   3.969   5.761  0.1520  0.3273  1.1861
  167SAPE   C2218822  -0.014   4.015   5.554 -0.1358  0.2870 -0.7099
  167SAPE   H2R18823  -0.028   4.110   5.498  2.5008  1.0431 -0.2227
  167SAPE   H2S18824   0.096   4.000   5.562 -0.2486 -0.0603  0.3346
  167SAPE    C318825  -0.204   4.195   5.891  0.1875  0.5197 -0.1627
  167SAPE    HX18826  -0.228   4.230   5.993  1.2457  1.0076 -0.0666
  167SAPE    HY18827  -0.270   4.106   5.878 -0.5763  0.9368  0.7833
  167SAPE   O3118828  -0.240   4.290   5.789 -0.1794 -0.8505 -0.2078
  167SAPE   C3118829  -0.327   4.382   5.827  0.2530  0.2166  0.4509
  167SAPE   O3218830  -0.394   4.370   5.927  0.4552 -0.0732  0.2964
  167SAPE   C3218831  -0.342   4.484   5.716  0.6599 -0.7653 -0.0838
  167SAPE   H2X18832  -0.237   4.517   5.699  0.4075  0.0260 -0.1740
  167SAPE   H2Y18833  -0.397   4.578   5.742  1.3862 -1.0176  2.6991
  167SAPE   C2318834  -0.086   3.900   5.492  0.0316  0.8025  0.0369
  167SAPE   H3R18835  -0.042   3.803   5.524  1.2820  1.7560  1.3409
  167SAPE   H3S18836  -0.053   3.899   5.386 -0.0141  0.3578  0.0257
  167SAPE   C2418837  -0.240   3.903   5.491 -0.1786  0.7933  0.4675
  167SAPE   H4R18838  -0.272   3.895   5.597  1.2176 -1.4892  0.7765
  167SAPE   H4S18839  -0.262   3.805   5.443 -2.9390  1.9997 -0.9746
  167SAPE   C2518840  -0.292   4.018   5.406  0.6285 -0.1176  1.3257
  167SAPE   H5R18841  -0.277   4.111   5.464 -3.0601  1.0013  0.7641
  167SAPE   C2618842  -0.355   4.022   5.289  0.0693 -0.1579 -0.0570
  167SAPE   H6R18843  -0.382   4.120   5.246  1.2084  0.7915  1.3100
  167SAPE   C2718844  -0.376   3.900   5.199 -0.2385 -0.1143 -0.0973
  167SAPE   H7R18845  -0.333   3.806   5.239  3.1198  0.6729 -1.5011
  167SAPE   H7S18846  -0.316   3.919   5.107 -0.0736  0.0526  0.0462
  167SAPE   C2818847  -0.517   3.877   5.160  0.3840  0.3717  0.2152
  167SAPE   H8R18848  -0.570   3.837   5.247  0.8234  0.1483  0.3866
  167SAPE   C2918849  -0.575   3.878   5.039 -0.4359 -0.0572  0.3903
  167SAPE   H9R18850  -0.679   3.844   5.034  0.2133 -2.1388 -0.3391
  167SAPE  C21018851  -0.510   3.891   4.900  0.5875  0.9963 -0.6308
  167SAPE  H10R18852  -0.572   3.838   4.825  0.4278  0.1097  0.1008
  167SAPE  H10S18853  -0.415   3.833   4.897 -0.1386 -0.2406 -0.6848
  167SAPE  C21118854  -0.469   4.028   4.853 -0.8922  0.2058 -0.4222
  167SAPE  H11R18855  -0.397   4.084   4.914 -1.7420 -0.2001  0.9893
  167SAPE  C21218856  -0.519   4.088   4.742 -0.6114  0.4031 -0.4828
  167SAPE  H12R18857  -0.492   4.195   4.734 -0.5577  0.5511  1.3444
  167SAPE  C21318858  -0.617   4.032   4.642  0.1893 -0.2885  0.0210
  167SAPE  H13R18859  -0.682   4.112   4.602  0.5750 -0.1575 -0.3528
  167SAPE  H13S18860  -0.686   3.965   4.697 -1.4440 -0.1034 -1.6926
  167SAPE  C21418861  -0.550   3.938   4.542  0.3003  0.2175 -0.3175
  167SAPE  H14R18862  -0.521   3.839   4.580 -2.0457 -0.5069 -0.2536
  167SAPE  C21518863  -0.501   3.981   4.419 -0.6588 -0.2452  0.1295
  167SAPE  H15R18864  -0.417   3.927   4.374 -1.2150  0.0798 -1.3553
  167SAPE  C21618865  -0.509   4.126   4.368 -0.1478  0.3207 -0.4627
  167SAPE  H16R18866  -0.410   4.175   4.379  0.1616 -0.7497  2.1172
  167SAPE  H16S18867  -0.580   4.187   4.428 -1.1987 -1.5953  0.3378
  167SAPE  C21718868  -0.559   4.131   4.228 -0.0672 -0.4303  0.2694
  167SAPE  H17R18869  -0.479   4.085   4.167  0.0529  2.9437 -2.3427
  167SAPE  H17S18870  -0.553   4.237   4.197  2.1573 -0.2377  1.1721
  167SAPE  C21818871  -0.696   4.085   4.204  0.8288 -0.5715 -0.1932
  167SAPE  H18R18872  -0.771   4.139   4.265 -2.6538 -2.0796 -2.7785
  167SAPE  H18S18873  -0.712   3.979   4.234 -2.3830  0.1062  0.9428
  167SAPE  C21918874  -0.749   4.104   4.064  0.1534 -0.0738 -0.0230
  167SAPE  H19R18875  -0.664   4.095   3.992 -0.2029  0.0911 -0.4701
  167SAPE  H19S18876  -0.784   4.208   4.054  1.5883  0.4820  0.4473
  167SAPE  C22018877  -0.856   4.011   4.018  0.0888  0.0002  0.0588
  167SAPE  H20R18878  -0.814   3.908   4.020  1.2883  0.4739  0.0902
  167SAPE  H20S18879  -0.887   4.044   3.916  3.7845  2.4642 -0.4884
  167SAPE  H20T18880  -0.950   4.023   4.074  0.0676  1.2557 -0.2019
  167SAPE   C3318881  -0.409   4.411   5.599  0.2440  0.3913  0.0632
  167SAPE   H3X18882  -0.516   4.425   5.623  0.1935  2.8083 -1.1773
  167SAPE   H3Y18883  -0.381   4.304   5.589  2.1331  0.9715 -1.4318
  167SAPE   C3418884  -0.389   4.481   5.469  0.5838  0.2628  0.0725
  167SAPE   H4X18885  -0.281   4.464   5.446  0.3066 -0.2571 -0.8892
  167SAPE   H4Y18886  -0.414   4.588   5.485 -1.0350 -0.2099  0.8284
  167SAPE   C3518887  -0.474   4.425   5.353  0.4676  0.0309 -0.2506
  167SAPE   H5X18888  -0.580   4.427   5.385  0.6493  0.7975  0.3410
  167SAPE   H5Y18889  -0.442   4.319   5.352  0.9000 -0.0002  3.3960
  167SAPE   C3618890  -0.450   4.496   5.220  0.1280  0.4318  0.2457
  167SAPE   H6X18891  -0.348   4.482   5.178 -0.3739  1.2188 -1.3173
  167SAPE   H6Y18892  -0.466   4.606   5.229 -0.3299  0.3093  1.0031
  167SAPE   C3718893  -0.551   4.449   5.122  0.7613  0.2151 -0.2552
  167SAPE   H7X18894  -0.656   4.465   5.157  0.4725 -3.3828  0.8986
  167SAPE   H7Y18895  -0.545   4.340   5.102 -1.0574 -0.2625  1.4395
  167SAPE   C3818896  -0.540   4.524   4.984 -0.1006 -0.6730 -0.8588
  167SAPE   H8X18897  -0.432   4.521   4.957 -0.2099 -2.3626 -1.2375
  167SAPE   H8Y18898  -0.560   4.632   4.995  1.4122 -0.5441  1.1585
  167SAPE   C3918899  -0.611   4.471   4.864  0.2688  0.0001  0.1491
  167SAPE   H9X18900  -0.721   4.482   4.871  0.4654  1.9262  0.6189
  167SAPE   H9Y18901  -0.588   4.362   4.858 -1.0640 -0.2171 -2.4074
  167SAPE  C31018902  -0.559   4.549   4.740  0.1052 -0.0279 -0.4658
  167SAPE  H10X18903  -0.453   4.522   4.723 -0.3791 -2.4266 -0.0897
  167SAPE  H10Y18904  -0.567   4.657   4.767  0.1834  0.1617 -1.1656
  167SAPE  C31118905  -0.649   4.527   4.615 -0.2419 -0.1431  0.0297
  167SAPE  H11X18906  -0.756   4.542   4.639 -0.0444  1.4830  0.0003
  167SAPE  H11Y18907  -0.630   4.419   4.593  0.1880 -0.0377 -0.1112
  167SAPE  C31218908  -0.619   4.623   4.498 -0.8903  0.7419 -0.1689
  167SAPE  H12X18909  -0.561   4.699   4.556 -1.1476 -1.8313  3.8263
  167SAPE  H12Y18910  -0.707   4.669   4.449 -2.0012 -0.2419  0.8599
  167SAPE  C31318911  -0.530   4.558   4.392  0.4636 -0.4755  0.3390
  167SAPE  H13X18912  -0.570   4.462   4.353  0.4363 -0.9492  1.5171
  167SAPE  H13Y18913  -0.436   4.530   4.444  1.7435  1.5016 -0.7627
  167SAPE  C31418914  -0.486   4.653   4.276  0.2309 -0.6621 -0.5489
  167SAPE  H14X18915  -0.410   4.722   4.319 -2.0986  2.3351 -0.9238
  167SAPE  H14Y18916  -0.576   4.704   4.237 -0.4435 -1.1344  0.3659
  167SAPE  C31518917  -0.425   4.573   4.162 -0.0406  0.2983 -0.3849
  167SAPE  H15X18918  -0.373   4.640   4.091  2.2999 -1.8104 -0.8226
  167SAPE  H15Y18919  -0.506   4.521   4.106  1.7991 -2.4887 -0.6469
  167SAPE  C31618920  -0.309   4.470   4.188 -0.0562  0.0076 -0.6234
  167SAPE  H16X18921  -0.347   4.410   4.274  2.0952 -2.1418 -1.0695
  167SAPE  H16Y18922  -0.230   4.536   4.228 -0.3697  0.0883 -0.1230
  167SAPE  C31718923  -0.281   4.385   4.072 -0.4785  1.0084  0.3328
  167SAPE  H17X18924  -0.365   4.373   4.001  0.4597 -2.3698 -0.3919
  167SAPE  H17Y18925  -0.259   4.280   4.102  0.4388  0.7953 -0.9791
  167SAPE  C31818926  -0.155   4.417   3.985  0.1913  0.2257 -0.7258
  167SAPE  H18X18927  -0.147   4.343   3.902 -0.6751  0.7270 -1.2715
  167SAPE  H18Y18928  -0.062   4.419   4.045 -0.2721  1.0787 -0.0001
  167SAPE  H18Z18929  -0.182   4.512   3.934 -1.3024 -0.1165 -0.6138
  168SAPE     N18930   6.367   6.402   6.545  0.4598  0.2781  0.1430
  168SAPE   HN118931   6.289   6.333   6.543  0.7128 -0.1615  2.5524
  168SAPE   HN218932   6.453   6.345   6.529  0.6460  0.5911  0.0299
  168SAPE   HN318933   6.371   6.443   6.640  1.3639 -0.8272  0.6090
  168SAPE   C1218934   6.333   6.512   6.445 -0.2077 -0.1271 -0.0266
  168SAPE  H12A18935   6.429   6.528   6.390 -0.0714  1.6644  0.6618
  168SAPE  H12B18936   6.315   6.612   6.491 -1.7164  1.8851 -4.3779
  168SAPE   C1118937   6.231   6.457   6.350 -0.1622 -0.0810 -0.2440
  168SAPE  H11A18938   6.275   6.363   6.309 -0.0415 -1.9193  3.6438
  168SAPE  H11B18939   6.229   6.533   6.269  1.6922 -1.4082 -1.6369
  168SAPE     P18940   6.045   6.307   6.455  0.4800  0.6967  0.2991
  168SAPE   O1318941   6.146   6.233   6.538  0.2987 -0.4355  0.2634
  168SAPE   O1418942   5.911   6.332   6.522 -0.7240 -0.5653 -0.3645
  168SAPE   O1218943   6.115   6.449   6.424 -0.0852  0.5953 -0.4699
  168SAPE   O1118944   6.024   6.235   6.311 -1.2482  0.1016 -0.6143
  168SAPE    C118945   5.955   6.295   6.199  1.0257  0.2620 -0.4252
  168SAPE    HA18946   5.948   6.405   6.216  0.2696  0.2247 -0.4728
  168SAPE    HB18947   6.003   6.279   6.101  0.3332  2.7905 -1.2523
  168SAPE    C218948   5.803   6.247   6.184  0.3263  0.1835 -0.1117
  168SAPE    HS18949   5.762   6.258   6.287  1.1050  0.8147  0.1475
  168SAPE   O2118950   5.806   6.103   6.142 -0.5492 -0.2065 -0.4813
  168SAPE   C2118951   5.690   6.040   6.146 -0.4980 -1.2957  0.0089
  168SAPE   O2218952   5.582   6.087   6.173  0.1755  0.4809  0.6882
  168SAPE   C2218953   5.716   5.896   6.097  0.0833  0.4923  0.4651
  168SAPE   H2R18954   5.785   5.856   6.174  1.9691  0.3871 -1.2030
  168SAPE   H2S18955   5.616   5.849   6.106 -0.3945  1.0544 -1.4148
  168SAPE    C318956   5.730   6.342   6.082 -0.5471 -0.1264 -0.0593
  168SAPE    HX18957   5.724   6.445   6.125  0.5798 -0.0929  0.0496
  168SAPE    HY18958   5.627   6.309   6.058 -0.0183  0.2144 -3.2208
  168SAPE   O3118959   5.809   6.343   5.958  0.6302  0.0287 -0.2433
  168SAPE   C3118960   5.761   6.416   5.863 -0.7708 -0.3798  0.1871
  168SAPE   O3218961   5.655   6.477   5.863  0.2086  0.0617  0.0412
  168SAPE   C3218962   5.863   6.406   5.745  0.7990  0.4237 -0.1905
  168SAPE   H2X18963   5.894   6.300   5.754  0.3699  0.4401  2.3394
  168SAPE   H2Y18964   5.943   6.483   5.751 -0.0654  1.5384 -2.0066
  168SAPE   C2318965   5.779   5.895   5.958  1.0259  0.3718 -0.0076
  168SAPE   H3R18966   5.888   5.916   5.962  1.6734 -2.7267  0.8764
  168SAPE   H3S18967   5.728   5.974   5.898 -0.1551  0.6542  1.3179
  168SAPE   C2418968   5.767   5.754   5.885  0.6194 -0.3988  0.5783
  168SAPE   H4R18969   5.804   5.692   5.969 -0.0544 -0.8269  0.5661
  168SAPE   H4S18970   5.841   5.744   5.802  2.8916  0.8549  2.3472
  168SAPE   C2518971   5.625   5.714   5.863  0.8203  0.0274  0.0121
  168SAPE   H5R18972   5.569   5.697   5.956 -1.4550 -0.1071 -1.3066
  168SAPE   C2618973   5.560   5.712   5.745 -0.3559  0.0569 -0.2825
  168SAPE   H6R18974   5.451   5.698   5.744 -0.2693 -0.7187  0.2475
  168SAPE   C2718975   5.627   5.742   5.612 -0.2044 -0.0431  0.0591
  168SAPE   H7R18976   5.715   5.673   5.613 -0.6569 -0.7041 -1.5475
  168SAPE   H7S18977   5.665   5.846   5.623  0.2012 -0.3563  1.9805
  168SAPE   C2818978   5.542   5.725   5.485  0.3757 -0.1732  1.4261
  168SAPE   H8R18979   5.496   5.628   5.463  1.2436 -0.2541 -0.2193
  168SAPE   C2918980   5.499   5.834   5.408  1.0100  0.2437 -0.2955
  168SAPE   H9R18981   5.438   5.820   5.318 -3.0698 -0.5555  2.3239
  168SAPE  C21018982   5.532   5.975   5.448 -0.0945 -0.2096  0.3161
  168SAPE  H10R18983   5.643   5.977   5.444 -0.0543  1.1743  1.5928
  168SAPE  H10S18984   5.510   5.989   5.556 -0.1267  0.6972  0.2008
  168SAPE  C21118985   5.468   6.081   5.363  0.3634 -0.3716  0.2656
  168SAPE  H11R18986   5.358   6.086   5.358  0.4270 -0.1091 -1.8569
  168SAPE  C21218987   5.538   6.171   5.293  0.4306 -0.0675 -0.1316
  168SAPE  H12R18988   5.480   6.250   5.244 -0.3021  0.2121  1.1509
  168SAPE  C21318989   5.687   6.179   5.270  0.1232  0.3463  0.1628
  168SAPE  H13R18990   5.746   6.084   5.274  1.0486  0.9417  1.3606
  168SAPE  H13S18991   5.726   6.242   5.353 -0.5677  0.5044  0.3695
  168SAPE  C21418992   5.724   6.254   5.143  0.5124 -0.4634  0.3098
  168SAPE  H14R18993   5.799   6.334   5.156 -2.1419  2.1341  0.8057
  168SAPE  C21518994   5.672   6.235   5.023 -0.6264 -0.6892 -0.4109
  168SAPE  H15R18995   5.704   6.291   4.934 -0.7537 -0.8677 -0.5681
  168SAPE  C21618996   5.567   6.138   4.983 -1.1168 -0.0124 -0.7487
  168SAPE  H16R18997   5.469   6.191   4.986 -1.1781  0.2288 -3.6393
  168SAPE  H16S18998   5.561   6.043   5.040 -0.9546  0.5048  0.1416
  168SAPE  C21718999   5.589   6.102   4.836 -0.1933  0.2994 -0.1143
  168SAPE  H17R19000   5.520   6.017   4.815 -0.8445  0.7500  0.1906
  168SAPE  H17S19001   5.690   6.055   4.830 -1.4389 -2.9047  1.3992
  168SAPE  C21819002   5.557   6.213   4.734 -0.1722  0.1920  0.7008
  168SAPE  H18R19003   5.637   6.289   4.750 -0.3913  0.7602 -0.8003
  168SAPE  H18S19004   5.456   6.256   4.752  0.1406  0.9644  0.6609
  168SAPE  C21919005   5.556   6.154   4.588 -0.2919  0.2495 -0.4248
  168SAPE  H19R19006   5.495   6.061   4.591 -0.0988  0.1447  1.7782
  168SAPE  H19S19007   5.660   6.123   4.565 -0.7094 -1.2660 -0.4191
  168SAPE  C22019008   5.498   6.247   4.479 -0.0464 -0.0177  0.4874
  168SAPE  H20R19009   5.541   6.349   4.468 -1.9797  0.7219 -0.7760
  168SAPE  H20S19010   5.389   6.263   4.499  0.1590  0.0423  1.6525
  168SAPE  H20T19011   5.514   6.190   4.386 -2.2759 -1.4104  0.8911
  168SAPE   C3319012   5.782   6.417   5.615 -0.4867  0.4304  0.1394
  168SAPE   H3X19013   5.687   6.360   5.623  1.2218 -2.4284  1.9520
  168SAPE   H3Y19014   5.837   6.362   5.535 -2.4626 -0.0376 -0.9572
  168SAPE   C3419015   5.753   6.555   5.568 -0.4335  0.0809 -0.1729
  168SAPE   H4X19016   5.844   6.617   5.552 -0.7147  0.3078 -0.9715
  168SAPE   H4Y19017   5.689   6.615   5.636 -0.5544  1.1076 -1.1678
  168SAPE   C3519018   5.676   6.546   5.433 -0.1644  0.1060  0.3671
  168SAPE   H5X19019   5.593   6.471   5.431 -0.0680 -0.0558 -2.5794
  168SAPE   H5Y19020   5.756   6.509   5.365  1.6049  0.1848  2.3109
  168SAPE   C3619021   5.636   6.685   5.384 -0.4212  0.0707  0.2053
  168SAPE   H6X19022   5.736   6.733   5.374 -0.5199  0.3850  0.7044
  168SAPE   H6Y19023   5.562   6.722   5.458 -0.2421 -0.1505  0.4982
  168SAPE   C3719024   5.565   6.690   5.253  0.8182 -0.2095  0.6714
  168SAPE   H7X19025   5.525   6.791   5.231 -0.3620 -0.8814 -0.3432
  168SAPE   H7Y19026   5.478   6.622   5.261 -1.1162  1.9692 -0.4196
  168SAPE   C3819027   5.650   6.647   5.130  0.0363 -0.8064  0.0572
  168SAPE   H8X19028   5.688   6.543   5.137 -1.5995 -1.4304  0.1319
  168SAPE   H8Y19029   5.734   6.719   5.118  0.2271 -1.2972 -1.7420
  168SAPE   C3919030   5.577   6.649   4.996 -0.5937  0.0258  0.4681
  168SAPE   H9X19031   5.556   6.754   4.967  0.2391  0.2921  0.7932
  168SAPE   H9Y19032   5.484   6.589   5.002 -1.8093  1.7630 -0.2514
  168SAPE  C31019033   5.671   6.594   4.880 -0.3647  0.1798 -0.0743
  168SAPE  H10X19034   5.693   6.487   4.900 -0.5676 -0.4036 -2.6609
  168SAPE  H10Y19035   5.770   6.644   4.887  0.0040 -0.6267  0.7086
  168SAPE  C31119036   5.619   6.589   4.731  0.1298 -0.3743 -0.1890
  168SAPE  H11X19037   5.537   6.515   4.725  0.1395 -0.4916  0.8401
  168SAPE  H11Y19038   5.706   6.561   4.669 -0.4849 -1.1100 -0.7317
  168SAPE  C31219039   5.583   6.727   4.676 -0.1057  0.1684  0.1639
  168SAPE  H12X19040   5.666   6.800   4.684 -0.3768  0.2336  4.4780
  168SAPE  H12Y19041   5.501   6.767   4.739 -0.5734 -1.7626  0.8446
  168SAPE  C31319042   5.541   6.722   4.527 -0.3681 -0.0263  0.7845
  168SAPE  H13X19043   5.495   6.622   4.513 -0.4324 -0.1110  1.5451
  168SAPE  H13Y19044   5.630   6.721   4.460  0.3089  0.0781  1.6579
  168SAPE  C31419045   5.439   6.832   4.492  0.1873 -0.2759  0.7980
  168SAPE  H14X19046   5.505   6.920   4.471 -0.2607 -0.5469 -2.1902
  168SAPE  H14Y19047   5.379   6.859   4.581 -1.6037  1.0356 -0.7065
  168SAPE  C31519048   5.353   6.806   4.367 -0.2107  0.1615 -0.4612
  168SAPE  H15X19049   5.279   6.724   4.381  1.1930 -0.9429  0.8898
  168SAPE  H15Y19050   5.413   6.775   4.279 -0.8030 -0.1304 -0.7701
  168SAPE  C31619051   5.277   6.934   4.322  0.7985  0.1370  0.3063
  168SAPE  H16X19052   5.221   6.930   4.226  1.0298  0.6466  0.1435
  168SAPE  H16Y19053   5.344   7.022   4.313  1.0759  0.2210  2.6718
  168SAPE  C31719054   5.175   6.985   4.433 -0.0768  1.2226 -0.0803
  168SAPE  H17X19055   5.237   7.010   4.522  2.2305  0.5025 -1.4038
  168SAPE  H17Y19056   5.097   6.910   4.461  1.1196  0.3449  1.0216
  168SAPE  C31819057   5.112   7.116   4.390 -0.0167  0.1386 -0.1335
  168SAPE  H18X19058   5.030   7.148   4.459  0.4263 -1.8312  1.4068
  168SAPE  H18Y19059   5.058   7.097   4.295 -2.9913  1.1784  1.2004
  168SAPE  H18Z19060   5.192   7.191   4.375  0.3789 -0.7635 -3.2604
  169SAPE     N19061   4.931   0.069   6.405  0.1644  0.0101 -0.1141
  169SAPE   HN119062   5.020   0.019   6.425  1.5409  1.9441 -1.0257
  169SAPE   HN219063   4.851   0.037   6.462 -2.6727  0.8554 -3.3226
  169SAPE   HN319064   4.888   0.041   6.315  0.0359 -0.0967 -0.0186
  169SAPE   C1219065   4.961   0.216   6.394 -0.0492 -0.5221 -0.6472
  169SAPE  H12A19066   5.044   0.224   6.321  0.5515 -2.7717 -0.2760
  169SAPE  H12B19067   4.994   0.256   6.492  0.1593 -1.7806 -0.1922
  169SAPE   C1119068   4.840   0.302   6.363  0.9514 -0.4602 -0.1792
  169SAPE  H11A19069   4.781   0.266   6.276 -0.4487  1.7726 -0.2259
  169SAPE  H11B19070   4.877   0.406   6.349 -1.7055  0.8626  1.7488
  169SAPE     P19071   4.612   0.388   6.470 -0.2481 -0.0861  0.4315
  169SAPE   O1319072   4.523   0.343   6.579 -0.2470 -0.2422  0.1895
  169SAPE   O1419073   4.655   0.527   6.475 -0.3951  0.6668 -0.1071
  169SAPE   O1219074   4.745   0.302   6.475 -0.0956  0.1272 -0.3965
  169SAPE   O1119075   4.560   0.355   6.326 -0.4440 -0.4081 -0.4100
  169SAPE    C119076   4.450   0.267   6.317  0.5581 -0.5785 -0.6117
  169SAPE    HA19077   4.449   0.192   6.399 -2.0089  0.3848  0.3332
  169SAPE    HB19078   4.356   0.324   6.330  1.2685  0.1976  1.6682
  169SAPE    C219079   4.453   0.192   6.183 -0.1152  0.7136 -1.0502
  169SAPE    HS19080   4.561   0.173   6.163  0.1344 -0.3600  1.0725
  169SAPE   O2119081   4.390   0.273   6.082 -0.6109  1.0785 -0.4482
  169SAPE   C2119082   4.445   0.277   5.962  0.5367 -0.1061  0.5966
  169SAPE   O2219083   4.540   0.214   5.921 -0.5004 -1.2516 -0.4793
  169SAPE   C2219084   4.373   0.383   5.877  0.0428 -0.3510 -0.1082
  169SAPE   H2R19085   4.278   0.413   5.927  0.0249  1.8748 -1.3832
  169SAPE   H2S19086   4.437   0.473   5.866  0.4760 -0.6592 -0.1180
  169SAPE    C319087   4.386   0.054   6.201 -0.3701 -0.5210  0.6775
  169SAPE    HX19088   4.286   0.068   6.247 -0.5705 -0.0501  0.1123
  169SAPE    HY19089   4.442   0.002   6.281  0.4449  0.2481  0.6252
  169SAPE   O3119090   4.371  -0.026   6.080 -0.0610 -0.1894  0.2781
  169SAPE   C3119091   4.449  -0.128   6.056 -0.1882 -0.3457 -0.8968
  169SAPE   O3219092   4.549  -0.158   6.119  0.2638 -0.0388 -0.3750
  169SAPE   C3219093   4.383  -0.211   5.946  0.2144  0.6357 -0.1805
  169SAPE   H2X19094   4.277  -0.181   5.934 -0.0673  0.5309  1.6842
  169SAPE   H2Y19095   4.384  -0.318   5.977  2.2215  1.0061  1.2443
  169SAPE   C2319096   4.339   0.318   5.740 -0.3369  0.7493  0.4142
  169SAPE   H3R19097   4.246   0.368   5.704  0.3455  0.9724 -1.1038
  169SAPE   H3S19098   4.304   0.213   5.753 -4.8765  2.0288  0.2896
  169SAPE   C2419099   4.453   0.336   5.633  0.4007 -0.7529 -0.2734
  169SAPE   H4R19100   4.553   0.331   5.680  1.4449  0.6229 -2.1847
  169SAPE   H4S19101   4.441   0.440   5.595  1.6655  0.4636  2.3640
  169SAPE   C2519102   4.449   0.239   5.520  0.6527  0.4320 -0.2034
  169SAPE   H5R19103   4.456   0.135   5.553 -0.9116 -0.2334 -1.7364
  169SAPE   C2619104   4.427   0.259   5.383  0.5240 -0.4996 -0.1748
  169SAPE   H6R19105   4.408   0.167   5.326 -1.8268 -0.9294  1.1483
  169SAPE   C2719106   4.403   0.390   5.321  0.5452  0.7996  0.6380
  169SAPE   H7R19107   4.351   0.456   5.393  0.7333  1.5302  0.1226
  169SAPE   H7S19108   4.322   0.379   5.245 -0.3812 -0.0446  1.7176
  169SAPE   C2819109   4.524   0.456   5.268 -0.1000  0.2711  0.4184
  169SAPE   H8R19110   4.598   0.490   5.341 -1.7845  3.4157  0.8429
  169SAPE   C2919111   4.573   0.465   5.140  0.1681  0.0967  0.4929
  169SAPE   H9R19112   4.676   0.491   5.112  0.4534 -2.6291 -1.3812
  169SAPE  C21019113   4.488   0.402   5.034 -0.3401  0.7874  0.5857
  169SAPE  H10R19114   4.383   0.436   5.047 -0.5599  0.2436  0.2636
  169SAPE  H10S19115   4.479   0.292   5.028 -1.8087  0.9816 -2.2438
  169SAPE  C21119116   4.524   0.453   4.892 -0.2336 -0.1804 -0.6410
  169SAPE  H11R19117   4.579   0.549   4.895 -1.2079  0.4142  2.7462
  169SAPE  C21219118   4.491   0.388   4.772  0.3363 -0.8623  0.5653
  169SAPE  H12R19119   4.523   0.433   4.677 -2.6206 -0.3470 -0.3055
  169SAPE  C21319120   4.413   0.266   4.753 -0.6096  0.0004  0.4729
  169SAPE  H13R19121   4.320   0.268   4.814 -0.4556  0.8710  0.6878
  169SAPE  H13S19122   4.459   0.172   4.790 -1.2561 -0.8447 -0.7942
  169SAPE  C21419123   4.346   0.241   4.616 -0.6372 -0.2293 -0.2565
  169SAPE  H14R19124   4.239   0.266   4.604 -0.2795  1.4649 -0.1041
  169SAPE  C21519125   4.406   0.186   4.510 -0.5438  0.5702 -0.2082
  169SAPE  H15R19126   4.343   0.165   4.422  0.3631 -3.0188 -0.1853
  169SAPE  C21619127   4.555   0.148   4.511  0.3389  0.5346 -0.5142
  169SAPE  H16R19128   4.602   0.157   4.612 -0.2526 -1.6472 -0.0019
  169SAPE  H16S19129   4.601   0.207   4.429  0.8498  2.1217  0.8545
  169SAPE  C21719130   4.583  -0.003   4.455  0.2811  0.2558  0.0515
  169SAPE  H17R19131   4.548  -0.013   4.350 -0.0544  0.0385  0.1834
  169SAPE  H17S19132   4.519  -0.066   4.521  0.4268 -1.5693 -1.4540
  169SAPE  C21819133   4.729  -0.037   4.457  0.5103  0.0531 -0.2719
  169SAPE  H18R19134   4.782   0.040   4.397 -0.7579  0.5104 -0.8392
  169SAPE  H18S19135   4.747  -0.136   4.411 -1.1862 -0.2104 -0.4378
  169SAPE  C21919136   4.796  -0.040   4.602  0.2039 -1.1510 -0.1533
  169SAPE  H19R19137   4.802   0.064   4.638  0.3950 -1.3240  0.3222
  169SAPE  H19S19138   4.892  -0.095   4.605  0.6628 -0.3309  1.2684
  169SAPE  C22019139   4.711  -0.114   4.711  0.5619 -0.0910 -0.5646
  169SAPE  H20R19140   4.694  -0.215   4.668 -0.7861 -0.0705 -0.1379
  169SAPE  H20S19141   4.606  -0.077   4.719  0.0631 -1.6683  0.5555
  169SAPE  H20T19142   4.754  -0.110   4.813  0.1313  0.6401 -0.4027
  169SAPE   C3319143   4.462  -0.197   5.813 -0.6344  0.6503  0.9689
  169SAPE   H3X19144   4.538  -0.278   5.813 -2.4563 -1.3132 -2.5118
  169SAPE   H3Y19145   4.512  -0.098   5.807 -0.4716  0.6088  1.5729
  169SAPE   C3419146   4.373  -0.222   5.687  0.1013 -0.1475  0.9015
  169SAPE   H4X19147   4.305  -0.135   5.699  0.5046 -0.0026  2.4202
  169SAPE   H4Y19148   4.309  -0.311   5.701 -0.3249  0.3297  2.1866
  169SAPE   C3519149   4.447  -0.214   5.556 -0.2093 -0.1835 -0.4312
  169SAPE   H5X19150   4.538  -0.279   5.556  0.3304  0.5595 -0.9837
  169SAPE   H5Y19151   4.479  -0.110   5.537 -1.9085  0.8232  1.8485
  169SAPE   C3619152   4.348  -0.241   5.442  0.4566  0.1780 -1.3118
  169SAPE   H6X19153   4.259  -0.179   5.465  0.3972 -0.5732  0.6988
  169SAPE   H6Y19154   4.319  -0.347   5.453 -2.0463  0.8590 -0.6488
  169SAPE   C3719155   4.404  -0.221   5.305  0.1533  0.4552  0.1203
  169SAPE   H7X19156   4.488  -0.294   5.292 -0.5375 -0.4937  0.8883
  169SAPE   H7Y19157   4.458  -0.124   5.307 -0.2423  0.7579 -1.5854
  169SAPE   C3819158   4.303  -0.229   5.194  0.2653  0.0439  0.2415
  169SAPE   H8X19159   4.228  -0.148   5.199 -1.9326 -1.8714  0.1548
  169SAPE   H8Y19160   4.252  -0.327   5.188  1.4212 -0.5019 -2.8047
  169SAPE   C3919161   4.370  -0.212   5.064 -0.3982  0.1534  0.6133
  169SAPE   H9X19162   4.456  -0.280   5.049 -0.2996  0.3553  0.2530
  169SAPE   H9Y19163   4.409  -0.108   5.064 -0.2621  0.1026  0.4080
  169SAPE  C31019164   4.269  -0.220   4.945  0.3408  0.1697  0.2423
  169SAPE  H10X19165   4.182  -0.150   4.953  2.8883  3.6842 -0.1618
  169SAPE  H10Y19166   4.237  -0.325   4.934 -1.1004  0.7762 -2.0105
  169SAPE  C31119167   4.338  -0.200   4.813  0.0341 -0.6233  0.2678
  169SAPE  H11X19168   4.401  -0.288   4.786  2.3198  1.2298 -0.8236
  169SAPE  H11Y19169   4.410  -0.117   4.828  0.8296 -0.6523 -2.6397
  169SAPE  C31219170   4.245  -0.160   4.701  0.8075 -0.1712 -0.0481
  169SAPE  H12X19171   4.306  -0.164   4.608  1.9993  2.2579  0.5506
  169SAPE  H12Y19172   4.201  -0.058   4.709 -0.3597 -0.7521  1.2660
  169SAPE  C31319173   4.131  -0.268   4.697  0.2647 -0.4903  0.0156
  169SAPE  H13X19174   4.073  -0.271   4.791 -2.7447  0.4053 -1.6605
  169SAPE  H13Y19175   4.167  -0.373   4.689 -1.4260 -1.0214 -1.2929
  169SAPE  C31419176   4.032  -0.252   4.580 -0.3980  0.0847  0.0377
  169SAPE  H14X19177   3.946  -0.191   4.616 -0.3447  0.2192 -0.0604
  169SAPE  H14Y19178   3.996  -0.356   4.566  1.1534 -0.4831  0.0462
  169SAPE  C31519179   4.094  -0.192   4.452 -0.2401  0.3696  0.6083
  169SAPE  H15X19180   4.190  -0.248   4.450 -0.2376  0.3421  1.3073
  169SAPE  H15Y19181   4.120  -0.087   4.480  1.4528 -0.3718  1.9781
  169SAPE  C31619182   4.012  -0.205   4.329  0.6925  0.6749 -1.0018
  169SAPE  H16X19183   3.915  -0.152   4.344 -0.1086 -1.0485  0.3063
  169SAPE  H16Y19184   3.968  -0.307   4.315 -0.1052  1.0774 -1.5370
  169SAPE  C31719185   4.072  -0.165   4.195 -0.5090 -0.3171  0.2851
  169SAPE  H17X19186   4.000  -0.203   4.118  1.0076 -0.3153 -1.2045
  169SAPE  H17Y19187   4.175  -0.205   4.179 -0.6789 -0.0806 -1.6439
  169SAPE  C31819188   4.089  -0.009   4.177  0.2009  0.3788  0.3426
  169SAPE  H18X19189   4.074   0.007   4.068 -1.9495 -1.3934  0.3028
  169SAPE  H18Y19190   4.177   0.039   4.223  0.7243  0.1268 -0.3815
  169SAPE  H18Z19191   4.005   0.038   4.234 -0.0491  1.6538 -1.0114
  170SAPE     N19192   0.635   4.580   6.368  0.0500 -0.4341 -0.5273
  170SAPE   HN119193   0.717   4.521   6.345  0.5061 -0.7072  1.5939
  170SAPE   HN219194   0.606   4.552   6.463 -0.0627 -0.9868 -0.7261
  170SAPE   HN319195   0.563   4.548   6.300 -1.2897 -1.8502  1.4695
  170SAPE   C1219196   0.672   4.727   6.361 -0.3331  0.2761 -0.3564
  170SAPE  H12A19197   0.735   4.754   6.448 -0.1699  2.3430 -1.0505
  170SAPE  H12B19198   0.582   4.792   6.355  0.4752  1.7768  2.2213
  170SAPE   C1119199   0.765   4.758   6.242 -0.3026 -0.5132  0.5670
  170SAPE  H11A19200   0.855   4.694   6.257 -0.7224 -1.7883 -1.9335
  170SAPE  H11B19201   0.801   4.863   6.231 -0.5298 -0.6641 -2.0219
  170SAPE     P19202   0.590   4.798   6.046 -0.4538 -0.2551 -0.0473
  170SAPE   O1319203   0.483   4.835   6.137  0.4033  0.0902  0.2430
  170SAPE   O1419204   0.642   4.906   5.958  0.2466  0.5347  0.5943
  170SAPE   O1219205   0.708   4.717   6.119 -0.3521  0.7099 -0.2118
  170SAPE   O1119206   0.529   4.680   5.966  0.3889  0.1333  0.2549
  170SAPE    C119207   0.609   4.579   5.895  0.8758  0.2268 -0.2624
  170SAPE    HA19208   0.707   4.620   5.863  1.7524 -1.7154 -0.2258
  170SAPE    HB19209   0.636   4.504   5.973  0.3069 -0.9944 -1.2071
  170SAPE    C219210   0.541   4.522   5.776  0.0799  0.0082  0.1103
  170SAPE    HS19211   0.620   4.462   5.727  0.1499 -0.1465  0.4155
  170SAPE   O2119212   0.489   4.625   5.690 -0.2640 -0.3264  0.0339
  170SAPE   C2119213   0.570   4.702   5.625  0.2826 -1.0343  0.0070
  170SAPE   O2219214   0.694   4.696   5.630 -0.2535  0.4623 -0.5156
  170SAPE   C2219215   0.491   4.783   5.525 -0.3730 -0.4049 -0.0781
  170SAPE   H2R19216   0.446   4.874   5.570 -0.0731  0.3879 -1.3248
  170SAPE   H2S19217   0.560   4.825   5.449  0.2269 -0.0453  0.6536
  170SAPE    C319218   0.419   4.434   5.811 -0.8342 -0.8978 -0.8300
  170SAPE    HX19219   0.351   4.475   5.889 -0.2034 -1.8206  0.2329
  170SAPE    HY19220   0.453   4.339   5.858 -1.8021  0.7147  3.6622
  170SAPE   O3119221   0.353   4.391   5.689  0.2109 -0.2360  0.3456
  170SAPE   C3119222   0.221   4.426   5.681  0.5379 -0.2702 -0.6876
  170SAPE   O3219223   0.167   4.511   5.751 -0.1612  0.4145 -0.1649
  170SAPE   C3219224   0.156   4.361   5.557 -0.0594  0.4895  0.7467
  170SAPE   H2X19225   0.116   4.263   5.592 -1.2211  0.7528  0.2194
  170SAPE   H2Y19226   0.233   4.345   5.478 -1.8316 -2.8625 -0.4873
  170SAPE   C2319227   0.391   4.691   5.444  0.5173  0.4435 -0.7764
  170SAPE   H3R19228   0.326   4.638   5.517  0.8383 -0.4102 -1.0998
  170SAPE   H3S19229   0.452   4.613   5.393  3.0718  1.4889  0.5126
  170SAPE   C2419230   0.311   4.764   5.334  0.2173 -0.7769  0.1345
  170SAPE   H4R19231   0.247   4.692   5.278  0.1729 -0.2244 -0.5376
  170SAPE   H4S19232   0.383   4.802   5.259 -1.5741 -0.4734 -1.5210
  170SAPE   C2519233   0.224   4.874   5.371 -0.5523  0.0383  0.0287
  170SAPE   H5R19234   0.199   4.878   5.478  3.8281  1.7634  1.2248
  170SAPE   C2619235   0.161   4.950   5.280 -0.3856 -0.7999 -0.0760
  170SAPE   H6R19236   0.105   5.041   5.308  0.3867 -0.1130 -0.6867
  170SAPE   C2719237   0.201   4.942   5.132 -0.2530 -1.0418  0.0026
  170SAPE   H7R19238   0.199   4.835   5.101 -1.6242 -0.4497 -2.0848
  170SAPE   H7S19239   0.307   4.972   5.116 -0.5740  0.8109  1.0595
  170SAPE   C2819240   0.108   5.022   5.041  0.0863 -0.3256  0.0380
  170SAPE   H8R19241   0.005   5.046   5.069  0.4963  1.1556  0.3453
  170SAPE   C2919242   0.140   5.043   4.912  0.3830  0.3455 -0.7714
  170SAPE   H9R19243   0.074   5.098   4.844 -0.0833  2.2552  1.1116
  170SAPE  C21019244   0.271   5.000   4.849 -0.2439  0.4175  0.6098
  170SAPE  H10R19245   0.330   4.922   4.901 -0.7697 -1.1125 -0.9969
  170SAPE  H10S19246   0.334   5.092   4.853  1.5746 -0.3608 -3.9204
  170SAPE  C21119247   0.264   4.965   4.699 -0.2536 -0.4260  0.1526
  170SAPE  H11R19248   0.332   5.020   4.633 -1.5102 -1.3810 -2.0513
  170SAPE  C21219249   0.197   4.864   4.640 -0.5538  0.1936 -0.1034
  170SAPE  H12R19250   0.211   4.855   4.532 -1.2681  0.9017 -0.2607
  170SAPE  C21319251   0.105   4.764   4.703  0.2546 -0.2684 -0.2374
  170SAPE  H13R19252   0.090   4.791   4.810  1.1478  0.5146 -0.2913
  170SAPE  H13S19253   0.142   4.659   4.698 -1.3871 -0.9224  0.5567
  170SAPE  C21419254  -0.018   4.772   4.614 -0.1826  0.1955  0.3252
  170SAPE  H14R19255  -0.081   4.861   4.620 -2.5050 -1.3213 -0.0302
  170SAPE  C21519256  -0.076   4.671   4.551  1.0385 -0.3884 -0.3331
  170SAPE  H15R19257  -0.166   4.699   4.494  1.9419  2.1262 -0.6671
  170SAPE  C21619258  -0.042   4.524   4.533 -0.2622 -0.2411 -0.1441
  170SAPE  H16R19259   0.064   4.513   4.566 -0.2192  1.5810  0.4489
  170SAPE  H16S19260  -0.041   4.487   4.428  1.4709 -1.0469  0.1138
  170SAPE  C21719261  -0.138   4.421   4.604  0.0646 -0.5088  1.2802
  170SAPE  H17R19262  -0.112   4.318   4.574 -1.0229 -0.1370 -1.1562
  170SAPE  H17S19263  -0.243   4.428   4.570  0.7977 -0.3923 -1.1202
  170SAPE  C21819264  -0.139   4.429   4.754 -0.3075 -0.2082 -0.2772
  170SAPE  H18R19265  -0.171   4.526   4.797 -0.2014 -0.1319 -0.3674
  170SAPE  H18S19266  -0.035   4.413   4.791 -0.9400  1.3197  2.4144
  170SAPE  C21919267  -0.230   4.313   4.812 -0.2675  0.2203  0.2007
  170SAPE  H19R19268  -0.232   4.218   4.754  0.8237  1.2101 -1.5530
  170SAPE  H19S19269  -0.333   4.353   4.800 -0.1651  1.7047  3.1743
  170SAPE  C22019270  -0.204   4.287   4.959  0.1711 -0.6048  0.1741
  170SAPE  H20R19271  -0.298   4.256   5.010  1.4246 -1.5155  2.0639
  170SAPE  H20S19272  -0.161   4.382   4.995 -0.6230 -0.1480 -0.0636
  170SAPE  H20T19273  -0.123   4.210   4.959  0.9474  0.2032  0.4405
  170SAPE   C3319274   0.043   4.447   5.491  0.2610  0.0326  0.1969
  170SAPE   H3X19275   0.077   4.551   5.471 -1.8677  1.1337  1.8181
  170SAPE   H3Y19276  -0.037   4.463   5.566 -1.1160  0.5842 -1.3256
  170SAPE   C3419277  -0.011   4.392   5.353 -0.2693 -0.0587 -0.5984
  170SAPE   H4X19278  -0.080   4.469   5.314 -0.0795  0.6902  0.4802
  170SAPE   H4Y19279  -0.065   4.297   5.374  1.4374 -0.8260  0.6071
  170SAPE   C3519280   0.081   4.357   5.240  1.0119 -0.4748 -0.5522
  170SAPE   H5X19281   0.009   4.325   5.162  1.1284 -1.2403 -0.3595
  170SAPE   H5Y19282   0.141   4.266   5.265 -0.2086 -0.9494  0.7515
  170SAPE   C3619283   0.166   4.474   5.192 -0.4330  0.0607  0.6356
  170SAPE   H6X19284   0.244   4.485   5.271  0.8666  0.2781 -0.6381
  170SAPE   H6Y19285   0.102   4.563   5.176 -1.8715 -1.1993 -0.9575
  170SAPE   C3719286   0.232   4.446   5.052  0.0235  0.1121 -0.1159
  170SAPE   H7X19287   0.153   4.407   4.986  0.0502 -1.3010  0.6407
  170SAPE   H7Y19288   0.303   4.364   5.075 -1.1305 -0.6090  0.9997
  170SAPE   C3819289   0.299   4.572   5.001  0.3082  0.3597  0.0582
  170SAPE   H8X19290   0.351   4.618   5.087 -0.9284  2.6734 -0.3627
  170SAPE   H8Y19291   0.208   4.635   4.993  2.5566  3.6648 -1.4027
  170SAPE   C3919292   0.371   4.561   4.865 -0.0298  0.3905 -0.1267
  170SAPE   H9X19293   0.474   4.548   4.904 -0.6771  1.6163  2.1698
  170SAPE   H9Y19294   0.381   4.662   4.820  0.9726  1.5488  2.4909
  170SAPE  C31019295   0.330   4.443   4.774 -0.4574 -1.1036 -0.1798
  170SAPE  H10X19296   0.227   4.453   4.736  0.1997  0.9680 -1.5941
  170SAPE  H10Y19297   0.333   4.343   4.824 -0.7619 -2.2547 -2.3333
  170SAPE  C31119298   0.415   4.439   4.644  0.6300 -0.3045 -0.0818
  170SAPE  H11X19299   0.511   4.397   4.682  1.0985  1.0869  0.3126
  170SAPE  H11Y19300   0.423   4.539   4.597 -1.8901 -1.2348 -2.8187
  170SAPE  C31219301   0.342   4.363   4.536 -0.5335  1.0426 -0.3594
  170SAPE  H12X19302   0.232   4.374   4.544 -0.4548  1.4420  0.2748
  170SAPE  H12Y19303   0.369   4.256   4.552  3.2248  1.7931 -0.7127
  170SAPE  C31319304   0.393   4.405   4.398 -0.3942 -0.0749  0.3300
  170SAPE  H13X19305   0.503   4.391   4.395 -0.1960  1.3934 -1.5874
  170SAPE  H13Y19306   0.370   4.514   4.389  1.2327  0.2595 -0.1345
  170SAPE  C31419307   0.320   4.335   4.284  0.3273  1.1201  0.1252
  170SAPE  H14X19308   0.216   4.303   4.310  0.6813 -1.0541 -0.8691
  170SAPE  H14Y19309   0.361   4.238   4.248 -2.0159  1.2769 -3.4078
  170SAPE  C31519310   0.325   4.430   4.162 -0.2231  0.5214  0.1062
  170SAPE  H15X19311   0.425   4.478   4.168 -1.1294  2.3487  1.6862
  170SAPE  H15Y19312   0.242   4.501   4.183  0.4687  1.3195  0.1889
  170SAPE  C31619313   0.291   4.336   4.042  0.0193 -0.1674 -0.4371
  170SAPE  H16X19314   0.190   4.292   4.058 -0.4187  1.2434  0.9302
  170SAPE  H16Y19315   0.363   4.252   4.040 -0.1337 -0.3181  0.3060
  170SAPE  C31719316   0.288   4.408   3.905 -0.3462 -0.7501 -0.7509
  170SAPE  H17X19317   0.216   4.353   3.840  1.7969 -2.0459 -2.1529
  170SAPE  H17Y19318   0.389   4.400   3.859  0.7068  1.8619  0.8980
  170SAPE  C31819319   0.244   4.555   3.920  0.5683  0.4041  0.5888
  170SAPE  H18X19320   0.324   4.620   3.964  1.4122  0.6781 -1.2424
  170SAPE  H18Y19321   0.158   4.566   3.989  0.9339  1.2692  0.9268
  170SAPE  H18Z19322   0.215   4.606   3.825  0.2462  1.3549  1.1848
  171SAPE     N19323   1.526   6.830   6.470 -0.2392 -0.6227 -0.0909
  171SAPE   HN119324   1.442   6.772   6.489 -1.5639  1.7768  2.1127
  171SAPE   HN219325   1.585   6.825   6.556 -1.9115 -0.9509  1.0776
  171SAPE   HN319326   1.482   6.924   6.459 -0.5893 -0.8917 -1.1208
  171SAPE   C1219327   1.607   6.802   6.347 -0.0211  0.5414 -0.0562
  171SAPE  H12A19328   1.663   6.707   6.363  3.6661  2.7796  1.9302
  171SAPE  H12B19329   1.692   6.873   6.352  0.3688  0.0176  1.1785
  171SAPE   C1119330   1.523   6.811   6.220  0.1721 -0.8909  0.0201
  171SAPE  H11A19331   1.583   6.812   6.126  2.3978 -0.0537  1.3640
  171SAPE  H11B19332   1.461   6.903   6.228  0.1514 -0.9397  0.4257
  171SAPE     P19333   1.456   6.567   6.148  0.5062 -0.4656 -0.2948
  171SAPE   O1319334   1.591   6.506   6.175  0.9619  0.1252  0.9185
  171SAPE   O1419335   1.333   6.487   6.183  0.5953 -0.4268  0.1417
  171SAPE   O1219336   1.438   6.699   6.223  0.0867  0.0915 -0.1300
  171SAPE   O1119337   1.445   6.603   5.993 -0.7505  0.1584  0.3333
  171SAPE    C119338   1.372   6.716   5.938 -0.3493  0.3016 -0.1511
  171SAPE    HA19339   1.386   6.812   5.992 -0.3944  0.5143 -0.5135
  171SAPE    HB19340   1.399   6.732   5.831  0.7804  0.1700  0.1097
  171SAPE    C219341   1.215   6.697   5.947  0.3087  0.0997  0.4562
  171SAPE    HS19342   1.182   6.687   6.052  0.1939  0.4777  0.4585
  171SAPE   O2119343   1.185   6.575   5.883  0.3813 -0.1882  0.2960
  171SAPE   C2119344   1.082   6.510   5.921 -0.3340  0.3333 -0.0705
  171SAPE   O2219345   1.006   6.537   6.015 -0.1924 -0.0311  0.1618
  171SAPE   C2219346   1.082   6.374   5.846 -0.1474 -0.2052 -0.1889
  171SAPE   H2R19347   1.180   6.366   5.794  0.1071  1.7935 -0.0730
  171SAPE   H2S19348   1.075   6.286   5.913  0.7859 -1.0233 -1.1213
  171SAPE    C319349   1.127   6.815   5.878 -0.2946  0.0877  0.9564
  171SAPE    HX19350   1.165   6.913   5.912 -0.2087  0.4917 -0.2569
  171SAPE    HY19351   1.023   6.823   5.915 -1.1493 -0.9073 -1.1031
  171SAPE   O3119352   1.117   6.794   5.729 -0.0107  0.0712 -0.2413
  171SAPE   C3119353   1.191   6.857   5.649  0.5255 -0.1341 -0.2268
  171SAPE   O3219354   1.257   6.954   5.671 -0.1495 -0.7982 -0.3839
  171SAPE   C3219355   1.181   6.787   5.517  0.5853  0.0124  0.6834
  171SAPE   H2X19356   1.074   6.774   5.488  1.4495 -3.4541 -1.4696
  171SAPE   H2Y19357   1.226   6.687   5.529 -0.2790 -0.2399  2.0595
  171SAPE   C2319358   0.969   6.381   5.741 -0.0113  0.6260 -0.1264
  171SAPE   H3R19359   0.871   6.398   5.790 -0.2398 -1.9735  0.4597
  171SAPE   H3S19360   0.952   6.289   5.682  0.3450  0.6339 -0.2440
  171SAPE   C2419361   0.995   6.491   5.639  0.6570  0.0434 -0.0572
  171SAPE   H4R19362   1.101   6.505   5.608  0.3519 -0.0643 -1.2263
  171SAPE   H4S19363   0.951   6.585   5.680  0.8087 -0.3125  0.9315
  171SAPE   C2519364   0.925   6.473   5.510 -0.0294  0.6018  0.3141
  171SAPE   H5R19365   0.823   6.512   5.515 -0.1137  0.2334  2.4378
  171SAPE   C2619366   0.973   6.404   5.403  0.4180  0.1974 -0.9378
  171SAPE   H6R19367   0.911   6.408   5.312  0.7341  1.7101 -1.1176
  171SAPE   C2719368   1.107   6.339   5.384 -0.1725 -0.3076  0.5996
  171SAPE   H7R19369   1.140   6.282   5.473 -2.2878 -2.5033  0.0822
  171SAPE   H7S19370   1.180   6.420   5.360  0.1079 -0.9488 -0.8220
  171SAPE   C2819371   1.122   6.243   5.273 -0.0920 -0.7493  0.0534
  171SAPE   H8R19372   1.141   6.138   5.302 -1.6019 -1.8346 -2.5951
  171SAPE   C2919373   1.147   6.275   5.146  0.8538  0.4919 -0.1214
  171SAPE   H9R19374   1.146   6.196   5.070 -0.9692  1.2379 -0.9407
  171SAPE  C21019375   1.163   6.419   5.099 -0.5496  0.0399 -0.3134
  171SAPE  H10R19376   1.264   6.464   5.094 -2.2228  4.1796 -0.2970
  171SAPE  H10S19377   1.096   6.481   5.162  1.6140  0.5700  1.5821
  171SAPE  C21119378   1.114   6.429   4.954  0.3167  0.5166 -0.5255
  171SAPE  H11R19379   1.007   6.405   4.947  0.4128 -0.8454  1.8102
  171SAPE  C21219380   1.185   6.413   4.842 -0.6006 -0.2994  0.1186
  171SAPE  H12R19381   1.139   6.423   4.743 -1.1187 -1.3442  0.2464
  171SAPE  C21319382   1.329   6.394   4.846 -0.5005 -0.2442 -0.8330
  171SAPE  H13R19383   1.360   6.342   4.939 -0.8249 -2.9168 -2.1495
  171SAPE  H13S19384   1.376   6.495   4.851 -1.0453 -0.0226 -0.0531
  171SAPE  C21419385   1.367   6.313   4.724 -0.0459 -0.7354  0.2923
  171SAPE  H14R19386   1.381   6.205   4.733  0.2015 -0.7739 -0.4927
  171SAPE  C21519387   1.375   6.366   4.597  0.7077 -0.7074 -0.2063
  171SAPE  H15R19388   1.396   6.287   4.523  2.1892 -0.8682  0.3578
  171SAPE  C21619389   1.344   6.505   4.542 -1.3262 -0.0157  0.1014
  171SAPE  H16R19390   1.425   6.549   4.481 -0.9085 -1.1535 -0.1897
  171SAPE  H16S19391   1.322   6.575   4.625 -0.3215 -0.9425  1.1796
  171SAPE  C21719392   1.221   6.499   4.445 -0.0528 -0.5050  0.1206
  171SAPE  H17R19393   1.149   6.426   4.487 -0.8530 -0.5761 -1.3131
  171SAPE  H17S19394   1.244   6.468   4.341 -0.0212 -0.9240  0.2462
  171SAPE  C21819395   1.167   6.638   4.426  0.1894 -0.3818 -0.2400
  171SAPE  H18R19396   1.238   6.702   4.369  1.2229  0.4328  1.8566
  171SAPE  H18S19397   1.152   6.691   4.522 -1.5065 -1.2083 -0.0062
  171SAPE  C21919398   1.022   6.624   4.357 -0.6916  0.0490  0.3167
  171SAPE  H19R19399   0.952   6.552   4.405  0.6123 -0.4774  1.5006
  171SAPE  H19S19400   1.037   6.587   4.254 -1.3179  0.5240  0.0483
  171SAPE  C22019401   0.941   6.758   4.351  0.2066  0.1165  0.3238
  171SAPE  H20R19402   0.910   6.799   4.450 -1.7072 -1.3625  0.3972
  171SAPE  H20S19403   1.000   6.823   4.283  4.3514 -2.0372  1.5214
  171SAPE  H20T19404   0.847   6.732   4.298  0.5453  0.6293 -0.5513
  171SAPE   C3319405   1.235   6.873   5.408 -0.5006  0.3658 -0.1708
  171SAPE   H3X19406   1.345   6.882   5.418 -0.4771  0.6371 -0.6202
  171SAPE   H3Y19407   1.199   6.977   5.391  2.4296  1.2747 -1.5202
  171SAPE   C3419408   1.221   6.796   5.271  0.5001  0.1166 -0.2779
  171SAPE   H4X19409   1.111   6.783   5.260  0.3944  0.0300  0.7658
  171SAPE   H4Y19410   1.272   6.698   5.277  0.7791  0.2037 -1.0676
  171SAPE   C3519411   1.282   6.876   5.158 -0.5113 -0.1642  0.8193
  171SAPE   H5X19412   1.381   6.916   5.190  0.0255 -0.4420 -0.4191
  171SAPE   H5Y19413   1.212   6.959   5.132 -2.3373 -1.7743  0.3976
  171SAPE   C3619414   1.297   6.813   5.027 -0.8572  0.1221 -0.1772
  171SAPE   H6X19415   1.203   6.756   5.008 -0.0698 -0.8629 -1.2892
  171SAPE   H6Y19416   1.379   6.738   5.031  1.2707  2.2915 -0.4615
  171SAPE   C3719417   1.327   6.904   4.910 -0.0543  0.9975  0.0574
  171SAPE   H7X19418   1.410   6.976   4.924  1.0193 -0.1117 -0.4726
  171SAPE   H7Y19419   1.235   6.959   4.880  0.2169  1.2561 -0.3103
  171SAPE   C3819420   1.355   6.829   4.775 -0.9391  0.0308 -0.1243
  171SAPE   H8X19421   1.269   6.760   4.765  0.5989 -1.9999 -0.0859
  171SAPE   H8Y19422   1.432   6.751   4.793 -1.6848 -0.2904  1.9471
  171SAPE   C3919423   1.373   6.910   4.651 -0.5500  0.4147 -0.0214
  171SAPE   H9X19424   1.409   6.844   4.569 -0.8254 -1.9735  1.6585
  171SAPE   H9Y19425   1.447   6.992   4.665 -0.0313 -0.0917  0.2931
  171SAPE  C31019426   1.252   6.987   4.593 -0.3349  0.2866 -0.0306
  171SAPE  H10X19427   1.218   7.065   4.664 -0.1069 -0.2907  0.7212
  171SAPE  H10Y19428   1.175   6.908   4.581 -0.3908  0.2349  0.6493
  171SAPE  C31119429   1.275   7.052   4.455  0.0867 -0.2753  0.4477
  171SAPE  H11X19430   1.284   6.977   4.373 -1.4080  0.2920 -0.2790
  171SAPE  H11Y19431   1.369   7.110   4.450 -0.2626  0.2347 -0.3253
  171SAPE  C31219432   1.161   7.146   4.419  0.7741  0.0743  0.7315
  171SAPE  H12X19433   1.130   7.214   4.500  2.4512  2.2757 -0.3774
  171SAPE  H12Y19434   1.074   7.078   4.403  0.2562  1.0751 -0.9460
  171SAPE  C31319435   1.188   7.230   4.291  0.8413 -0.2933 -0.1323
  171SAPE  H13X19436   1.222   7.161   4.210  1.3654 -1.3400  0.9404
  171SAPE  H13Y19437   1.265   7.308   4.303 -0.4478  1.1353 -0.8809
  171SAPE  C31419438   1.061   7.299   4.237  0.8176 -0.4733  0.0762
  171SAPE  H14X19439   0.982   7.221   4.231  1.5313 -1.2653  0.6732
  171SAPE  H14Y19440   1.067   7.333   4.131 -1.5880 -0.9109 -0.2475
  171SAPE  C31519441   0.997   7.417   4.323  0.2020  0.0009 -0.6387
  171SAPE  H15X19442   0.980   7.377   4.426 -0.8113  1.0013 -0.4035
  171SAPE  H15Y19443   0.898   7.443   4.281  1.5461  0.4881 -3.7933
  171SAPE  C31619444   1.087   7.542   4.331  0.3311  0.0812  0.1526
  171SAPE  H16X19445   1.169   7.490   4.385  0.1440 -0.4053 -0.0182
  171SAPE  H16Y19446   1.043   7.626   4.389 -3.3714 -1.1302 -0.6341
  171SAPE  C31719447   1.134   7.606   4.202  0.1765  1.0114  0.1598
  171SAPE  H17X19448   1.162   7.529   4.127 -1.0816  0.0620  0.6365
  171SAPE  H17Y19449   1.224   7.670   4.208  2.6539 -2.1830 -0.5622
  171SAPE  C31819450   1.028   7.691   4.139  0.6686 -0.2783  0.3067
  171SAPE  H18X19451   1.067   7.738   4.046  0.1278 -0.3241  0.0507
  171SAPE  H18Y19452   0.999   7.779   4.200  1.3920  1.6368 -1.9471
  171SAPE  H18Z19453   0.935   7.630   4.132 -0.0962  0.4521  2.8895
  172SAPE     N19454   5.777   6.701   6.239  0.1206 -0.8114 -0.5772
  172SAPE   HN119455   5.753   6.802   6.250  0.9516 -0.5021 -1.4712
  172SAPE   HN219456   5.829   6.685   6.151  0.0628  1.5075 -1.1001
  172SAPE   HN319457   5.686   6.651   6.239  0.6056 -1.7320 -1.3514
  172SAPE   C1219458   5.857   6.650   6.364 -0.4360  0.6959 -0.3805
  172SAPE  H12A19459   5.880   6.545   6.338  0.0597  0.5178  0.7309
  172SAPE  H12B19460   5.796   6.670   6.454  0.1756  0.9597 -0.0179
  172SAPE   C1119461   5.993   6.728   6.367  0.2580  0.6571 -0.4228
  172SAPE  H11A19462   6.065   6.694   6.290 -0.2197 -1.0349 -0.1590
  172SAPE  H11B19463   6.040   6.701   6.464 -2.0632 -2.1434  0.0658
  172SAPE     P19464   6.083   6.977   6.359 -0.1579  0.5469 -0.2621
  172SAPE   O1319465   6.009   7.107   6.382 -0.3654 -0.0039  0.2166
  172SAPE   O1419466   6.198   6.942   6.448  0.7216 -0.0078  0.0995
  172SAPE   O1219467   5.966   6.872   6.373 -0.7407 -0.0193  0.2427
  172SAPE   O1119468   6.114   6.959   6.206  0.4663 -0.0112 -0.1437
  172SAPE    C119469   6.012   6.941   6.106  0.2394 -0.6378  0.0281
  172SAPE    HA19470   5.997   6.832   6.093 -0.4667 -0.6329  0.7293
  172SAPE    HB19471   5.914   6.982   6.138 -0.0848 -0.0512 -1.6006
  172SAPE    C219472   6.036   7.000   5.966  0.1220 -0.8101  0.5888
  172SAPE    HS19473   5.951   6.987   5.897 -0.2879 -0.5866  1.0454
  172SAPE   O2119474   6.164   6.944   5.914  0.0587 -0.6639  0.0437
  172SAPE   C2119475   6.154   6.840   5.843 -0.4684  0.0007 -0.6264
  172SAPE   O2219476   6.055   6.775   5.827  0.0796  0.6630  0.1031
  172SAPE   C2219477   6.284   6.823   5.770  0.2354 -0.4692 -0.3513
  172SAPE   H2R19478   6.363   6.877   5.827  0.9673 -1.3832 -0.4824
  172SAPE   H2S19479   6.309   6.715   5.775  1.9423 -0.0816  0.4614
  172SAPE    C319480   6.067   7.157   5.967  0.6387  0.1143 -0.8394
  172SAPE    HX19481   6.143   7.185   6.043 -1.7541 -0.6190  2.0086
  172SAPE    HY19482   5.971   7.203   5.999  0.8858 -0.0216  0.1353
  172SAPE   O3119483   6.120   7.204   5.847 -0.1348 -0.1325 -0.3661
  172SAPE   C3119484   6.040   7.268   5.762 -1.2596 -0.6410  0.0050
  172SAPE   O3219485   5.927   7.295   5.783  0.6847  0.4831  0.3352
  172SAPE   C3219486   6.121   7.300   5.638  0.2165  0.3278 -0.2766
  172SAPE   H2X19487   6.166   7.209   5.593  0.8758  0.5482 -0.0850
  172SAPE   H2Y19488   6.214   7.357   5.662  0.9377 -0.4830 -1.0384
  172SAPE   C2319489   6.278   6.878   5.623  0.2696  0.0330  0.3510
  172SAPE   H3R19490   6.200   6.956   5.614 -1.0560 -1.1986  0.8383
  172SAPE   H3S19491   6.251   6.803   5.546  1.2050 -1.1639  1.1437
  172SAPE   C2419492   6.412   6.935   5.573  1.2620  0.0975  0.4528
  172SAPE   H4R19493   6.436   7.009   5.652  2.1671  1.5612 -1.1331
  172SAPE   H4S19494   6.397   6.989   5.478  0.8827 -0.4625  0.1857
  172SAPE   C2519495   6.531   6.842   5.559  0.2785  0.0614 -0.3214
  172SAPE   H5R19496   6.574   6.820   5.658  0.6491  0.8075 -0.3063
  172SAPE   C2619497   6.596   6.785   5.454 -0.1904 -0.5971  0.8048
  172SAPE   H6R19498   6.685   6.728   5.485  0.4679  0.0510  0.1450
  172SAPE   C2719499   6.567   6.791   5.302 -0.1565  0.5038  0.2609
  172SAPE   H7R19500   6.662   6.761   5.254  0.0876  2.0305 -0.2741
  172SAPE   H7S19501   6.533   6.886   5.255  0.7865  0.5571 -0.3380
  172SAPE   C2819502   6.466   6.687   5.266  0.1889  0.6872 -0.4367
  172SAPE   H8R19503   6.479   6.592   5.320  0.0655  1.6774  1.3865
  172SAPE   C2919504   6.360   6.697   5.178 -0.5688 -0.1799  0.3095
  172SAPE   H9R19505   6.291   6.612   5.172  1.6766 -2.1252  0.3362
  172SAPE  C21019506   6.331   6.810   5.083  0.5674 -0.3360 -0.0315
  172SAPE  H10R19507   6.318   6.899   5.148  0.9753  0.0511 -0.4671
  172SAPE  H10S19508   6.235   6.793   5.030  1.1382  0.3645 -1.3378
  172SAPE  C21119509   6.436   6.848   4.980 -0.4605  0.1150  1.1284
  172SAPE  H11R19510   6.541   6.835   5.011 -0.1096  0.6764  0.1905
  172SAPE  C21219511   6.417   6.909   4.859  0.1881 -0.3746 -0.1536
  172SAPE  H12R19512   6.497   6.912   4.784 -0.9516 -2.5058 -1.5573
  172SAPE  C21319513   6.292   6.951   4.785 -0.0185 -0.0624 -0.4181
  172SAPE  H13R19514   6.314   7.040   4.724  1.5018  0.9468  1.4875
  172SAPE  H13S19515   6.228   7.000   4.862  1.6440  1.6005 -0.0208
  172SAPE  C21419516   6.228   6.841   4.704 -0.1097 -0.5927  0.4050
  172SAPE  H14R19517   6.298   6.776   4.649 -0.9254 -0.4587 -0.8315
  172SAPE  C21519518   6.098   6.810   4.678  0.0639  0.1379  0.5289
  172SAPE  H15R19519   6.075   6.720   4.620 -2.1018 -0.5399  2.3287
  172SAPE  C21619520   5.975   6.883   4.732 -0.2427  0.3340  0.2361
  172SAPE  H16R19521   5.972   6.904   4.841 -2.8228  0.2471  0.2522
  172SAPE  H16S19522   5.894   6.808   4.719 -0.6353  0.6771  0.6569
  172SAPE  C21719523   5.924   7.009   4.652 -0.5150 -0.0940 -0.4332
  172SAPE  H17R19524   6.002   7.087   4.664 -2.0208  1.1092  2.5730
  172SAPE  H17S19525   5.841   7.057   4.709  1.0268  2.7496 -0.3712
  172SAPE  C21819526   5.897   6.981   4.508  0.2184 -0.4840 -0.3893
  172SAPE  H18R19527   5.817   6.905   4.497  1.0758 -1.6447  1.0695
  172SAPE  H18S19528   5.986   6.939   4.456  0.5034  0.8590 -1.0494
  172SAPE  C21919529   5.861   7.112   4.439 -0.0240  0.2918 -0.2553
  172SAPE  H19R19530   5.867   7.094   4.330  0.9955 -0.1770 -0.1416
  172SAPE  H19S19531   5.930   7.192   4.472  0.5407 -0.5029  0.5352
  172SAPE  C22019532   5.725   7.163   4.483  0.4755 -0.6663 -0.2826
  172SAPE  H20R19533   5.650   7.085   4.457 -1.6117  0.9846  0.5804
  172SAPE  H20S19534   5.695   7.256   4.430  1.4453  0.9830  1.9132
  172SAPE  H20T19535   5.725   7.169   4.594 -0.5316  0.4077 -0.3228
  172SAPE   C3319536   6.038   7.376   5.538  0.0925 -0.6179  0.2726
  172SAPE   H3X19537   5.979   7.459   5.583 -0.2994 -0.3248 -0.7370
  172SAPE   H3Y19538   5.973   7.301   5.488 -1.2967  0.0541  0.9937
  172SAPE   C3419539   6.131   7.412   5.421 -0.2669  0.3558 -0.2639
  172SAPE   H4X19540   6.164   7.315   5.377  2.4907  0.4938  1.2755
  172SAPE   H4Y19541   6.211   7.479   5.459 -0.0188  0.3849 -0.8290
  172SAPE   C3519542   6.047   7.502   5.320  0.0257  0.1546  0.5304
  172SAPE   H5X19543   6.013   7.598   5.364 -0.1798 -0.5380  1.9316
  172SAPE   H5Y19544   5.948   7.454   5.299  0.1617  0.4438 -0.9166
  172SAPE   C3619545   6.126   7.533   5.186 -0.0389 -0.1683 -0.5463
  172SAPE   H6X19546   6.120   7.446   5.117  0.5499 -1.1215  0.5670
  172SAPE   H6Y19547   6.229   7.567   5.209 -0.5080  1.9543 -1.4235
  172SAPE   C3719548   6.076   7.662   5.120  0.3045 -0.2652  0.1669
  172SAPE   H7X19549   6.084   7.751   5.186  1.8734  1.3189 -2.0104
  172SAPE   H7Y19550   5.966   7.652   5.105 -0.0458  1.9132  0.8591
  172SAPE   C3819551   6.148   7.704   4.991 -0.0553 -0.3753  0.2392
  172SAPE   H8X19552   6.258   7.691   5.006  0.1607  2.6144  2.2227
  172SAPE   H8Y19553   6.151   7.815   4.985  2.1326 -0.2353  2.2949
  172SAPE   C3919554   6.096   7.641   4.860  0.0443 -0.3232  0.2019
  172SAPE   H9X19555   6.087   7.530   4.863  0.4866 -0.4626 -1.8298
  172SAPE   H9Y19556   6.173   7.669   4.784  0.1346  0.1646  0.4684
  172SAPE  C31019557   5.964   7.698   4.821 -0.1737 -0.2430 -0.0707
  172SAPE  H10X19558   5.971   7.809   4.826  0.6285 -0.3237  1.1319
  172SAPE  H10Y19559   5.875   7.662   4.876  0.4907 -1.5011  0.2364
  172SAPE  C31119560   5.942   7.673   4.668  0.0647  0.2746  0.0119
  172SAPE  H11X19561   5.953   7.564   4.648  1.2261 -0.0427  2.1674
  172SAPE  H11Y19562   6.020   7.722   4.606  1.4282 -1.0129  0.6482
  172SAPE  C31219563   5.806   7.722   4.620 -0.0735 -0.2468  0.0840
  172SAPE  H12X19564   5.803   7.833   4.627 -1.6418 -0.2212 -0.6052
  172SAPE  H12Y19565   5.714   7.677   4.663 -2.2209  1.3633 -2.4992
  172SAPE  C31319566   5.797   7.703   4.464 -0.9105  0.3383 -0.8440
  172SAPE  H13X19567   5.769   7.598   4.441  0.7699 -0.5530  0.8772
  172SAPE  H13Y19568   5.901   7.723   4.432 -0.2221 -0.7538  0.5793
  172SAPE  C31419569   5.713   7.803   4.394  0.5028 -0.5192  0.7042
  172SAPE  H14X19570   5.737   7.776   4.289 -0.9090  2.0111 -0.3395
  172SAPE  H14Y19571   5.749   7.906   4.414  0.7577 -0.1749 -1.3732
  172SAPE  C31519572   5.562   7.795   4.407  0.4288  1.0637  0.2047
  172SAPE  H15X19573   5.544   7.776   4.515 -1.7877  1.9406  0.0297
  172SAPE  H15Y19574   5.525   7.706   4.352  2.5978 -0.2314  0.7059
  172SAPE  C31619575   5.492   7.924   4.368  0.5101 -0.0975 -1.0198
  172SAPE  H16X19576   5.381   7.923   4.360  0.3205 -1.3599  0.9035
  172SAPE  H16Y19577   5.531   7.952   4.268  1.4112 -0.5782 -0.8127
  172SAPE  C31719578   5.523   8.031   4.463 -0.1721 -0.0968  0.2280
  172SAPE  H17X19579   5.515   8.130   4.413 -2.2895  0.1848  1.0168
  172SAPE  H17Y19580   5.633   8.037   4.478  0.3489 -0.2603 -2.8410
  172SAPE  C31819581   5.457   8.031   4.602  0.6228  0.6908  0.3908
  172SAPE  H18X19582   5.485   8.118   4.665 -1.8803  0.8175  1.4658
  172SAPE  H18Y19583   5.475   7.934   4.653  0.2331 -0.4791 -1.5872
  172SAPE  H18Z19584   5.349   8.042   4.577  0.8893  1.1845 -0.5686
  173SAPE     N19585   6.619   5.754   6.171 -0.1924  0.4254 -0.3438
  173SAPE   HN119586   6.661   5.837   6.217  1.7408  0.8091 -2.5807
  173SAPE   HN219587   6.522   5.742   6.207 -0.2034  2.3228  0.3447
  173SAPE   HN319588   6.688   5.683   6.204  2.7930  2.9789 -0.5904
  173SAPE   C1219589   6.595   5.778   6.029  0.5430  0.5079 -0.1753
  173SAPE  H12A19590   6.512   5.851   6.023  0.8333  1.2497  3.2176
  173SAPE  H12B19591   6.562   5.684   5.979  0.4840  0.5797 -0.2724
  173SAPE   C1119592   6.720   5.844   5.983 -0.5833  0.2041 -0.1404
  173SAPE  H11A19593   6.722   5.945   6.030  0.0439 -0.8992  2.3816
  173SAPE  H11B19594   6.707   5.872   5.876  0.8853  0.6571 -0.2197
  173SAPE     P19595   6.923   5.689   5.916  0.2196 -0.0667  0.2618
  173SAPE   O1319596   7.018   5.620   6.008 -0.2215 -0.3094 -0.1391
  173SAPE   O1419597   6.825   5.610   5.834 -0.4608  0.4702  0.1718
  173SAPE   O1219598   6.844   5.791   6.010 -0.1705  0.4039  0.1497
  173SAPE   O1119599   7.001   5.791   5.825  0.3884 -0.5014 -0.3392
  173SAPE    C119600   6.975   5.798   5.684  0.2772 -0.1379 -0.0798
  173SAPE    HA19601   6.988   5.697   5.640 -1.7316 -0.3663 -0.2369
  173SAPE    HB19602   6.867   5.823   5.670 -0.1865 -2.0449 -0.1839
  173SAPE    C219603   7.055   5.910   5.609 -0.0869 -0.2011 -0.5089
  173SAPE    HS19604   7.019   6.006   5.651  0.0360 -0.6267  0.6177
  173SAPE   O2119605   7.046   5.901   5.462  0.3302 -0.5244  0.1793
  173SAPE   C2119606   6.937   5.946   5.404  0.6283  0.6037  0.2582
  173SAPE   O2219607   6.835   5.969   5.462  0.7310 -0.4775  0.2820
  173SAPE   C2219608   6.965   5.941   5.255  0.6841 -0.5534  0.4350
  173SAPE   H2R19609   7.006   6.038   5.218  0.9420 -2.0620 -3.8172
  173SAPE   H2S19610   7.034   5.858   5.232  0.1794 -0.9758  0.4306
  173SAPE    C319611   7.206   5.889   5.632 -0.3846  0.2078 -0.6307
  173SAPE    HX19612   7.224   5.910   5.740 -0.9156  0.5763 -0.6120
  173SAPE    HY19613   7.261   5.959   5.565  1.1666 -1.1059 -0.8013
  173SAPE   O3119614   7.247   5.755   5.601 -0.1012  0.6329 -0.4454
  173SAPE   C3119615   7.385   5.739   5.604  0.1516 -0.3333 -0.8487
  173SAPE   O3219616   7.459   5.833   5.638  0.0922 -0.3635 -0.0252
  173SAPE   C3219617   7.419   5.595   5.581  0.6894  0.3600 -0.0090
  173SAPE   H2X19618   7.347   5.553   5.506  0.9192  0.0064 -0.0342
  173SAPE   H2Y19619   7.433   5.536   5.674 -1.4463  2.0959  1.5309
  173SAPE   C2319620   6.832   5.939   5.169  0.1886 -0.1859  0.6194
  173SAPE   H3R19621   6.752   6.008   5.204 -0.1723 -0.1612 -0.2259
  173SAPE   H3S19622   6.796   5.834   5.168 -0.7598  0.1311  0.5264
  173SAPE   C2419623   6.855   5.973   5.020  0.2647  0.0460 -0.1012
  173SAPE   H4R19624   6.879   6.081   5.016 -2.6913  0.7814 -0.2045
  173SAPE   H4S19625   6.756   5.981   4.972  0.7835 -0.0249 -1.2224
  173SAPE   C2519626   6.955   5.896   4.934 -0.2841  0.2156  0.6684
  173SAPE   H5R19627   7.055   5.874   4.975 -0.9166 -1.1550  1.5513
  173SAPE   C2619628   6.946   5.885   4.802  0.3208 -0.7797  0.2979
  173SAPE   H6R19629   7.025   5.835   4.743 -1.3430  0.0684 -2.9151
  173SAPE   C2719630   6.853   5.950   4.703 -0.3636  0.2008  0.1710
  173SAPE   H7R19631   6.808   6.044   4.745 -2.8263 -1.1425  0.7524
  173SAPE   H7S19632   6.762   5.886   4.703 -0.4598  0.2378  2.4259
  173SAPE   C2819633   6.905   5.972   4.564  0.2312 -0.0640  1.1944
  173SAPE   H8R19634   7.008   5.940   4.543 -0.1877 -0.1802 -0.9040
  173SAPE   C2919635   6.824   6.010   4.462 -0.2680 -0.3274  0.2850
  173SAPE   H9R19636   6.874   6.025   4.365  0.9333  0.7832  1.0389
  173SAPE  C21019637   6.673   6.029   4.465 -0.7778 -0.2920 -0.5097
  173SAPE  H10R19638   6.653   6.134   4.495  1.3405  0.0421 -0.1354
  173SAPE  H10S19639   6.626   5.968   4.545  0.5912 -1.6134 -0.6566
  173SAPE  C21119640   6.599   6.023   4.333 -0.4905  0.2472  0.2527
  173SAPE  H11R19641   6.622   5.951   4.253  1.5951  2.5281 -1.3607
  173SAPE  C21219642   6.492   6.110   4.311 -0.0916 -0.4863  0.5264
  173SAPE  H12R19643   6.440   6.101   4.214 -1.0285 -2.1212  1.1491
  173SAPE  C21319644   6.433   6.215   4.401 -0.3066 -0.0247  0.5992
  173SAPE  H13R19645   6.417   6.174   4.503  0.1664 -1.0035  0.2942
  173SAPE  H13S19646   6.328   6.219   4.366  0.1471 -1.0557 -0.9925
  173SAPE  C21419647   6.492   6.355   4.391 -0.2465 -0.0181 -0.0822
  173SAPE  H14R19648   6.547   6.368   4.296  0.1425 -2.2225 -0.2271
  173SAPE  C21519649   6.490   6.456   4.485 -0.2004  0.7024  0.1400
  173SAPE  H15R19650   6.541   6.553   4.477  0.9792 -0.0789 -3.7570
  173SAPE  C21619651   6.407   6.448   4.610 -0.4570  0.1018 -0.6170
  173SAPE  H16R19652   6.365   6.346   4.625 -0.8511  0.0576 -1.9397
  173SAPE  H16S19653   6.312   6.505   4.601 -0.5452  0.5130  2.0524
  173SAPE  C21719654   6.459   6.509   4.748 -0.6579  0.5047  0.8406
  173SAPE  H17R19655   6.379   6.512   4.825 -0.8075 -2.0622  0.8718
  173SAPE  H17S19656   6.500   6.610   4.730 -2.9333  0.8738 -3.8436
  173SAPE  C21819657   6.559   6.436   4.830 -0.2685  1.1216  0.6374
  173SAPE  H18R19658   6.594   6.512   4.902 -1.8586  1.2031  1.3507
  173SAPE  H18S19659   6.648   6.415   4.765 -0.7111  0.8795  0.0973
  173SAPE  C21919660   6.503   6.306   4.884 -0.7617  0.2175 -0.1523
  173SAPE  H19R19661   6.465   6.247   4.799  1.3753 -3.1060  0.9758
  173SAPE  H19S19662   6.419   6.321   4.955  0.1503  1.7702  0.6696
  173SAPE  C22019663   6.605   6.212   4.949  0.4430 -0.0334  0.3618
  173SAPE  H20R19664   6.686   6.198   4.874 -0.4072  0.3629 -0.6556
  173SAPE  H20S19665   6.564   6.111   4.965  2.6430 -0.9631  0.4913
  173SAPE  H20T19666   6.636   6.251   5.048  0.7297  0.6073  0.0334
  173SAPE   C3319667   7.552   5.581   5.500  0.5448 -0.0982 -0.2206
  173SAPE   H3X19668   7.592   5.477   5.499 -3.1503 -1.6413 -0.3327
  173SAPE   H3Y19669   7.626   5.633   5.564 -0.9256 -0.0122  1.4749
  173SAPE   C3419670   7.553   5.639   5.357 -0.0155  1.0666 -0.3794
  173SAPE   H4X19671   7.518   5.745   5.356 -2.5158  0.3099 -1.6103
  173SAPE   H4Y19672   7.490   5.583   5.285  0.9397 -1.2240  0.5001
  173SAPE   C3519673   7.700   5.634   5.291  0.6727 -0.5320  0.4869
  173SAPE   H5X19674   7.731   5.528   5.305  0.8240 -1.0803 -3.0736
  173SAPE   H5Y19675   7.768   5.701   5.347  0.9964  0.7821 -1.3652
  173SAPE   C3619676   7.694   5.676   5.141  0.4166 -0.4201 -0.3786
  173SAPE   H6X19677   7.676   5.785   5.132  2.4459 -0.0018  0.0397
  173SAPE   H6Y19678   7.611   5.620   5.092  0.6801 -0.3203 -0.9537
  173SAPE   C3719679   7.820   5.633   5.071  1.0285  0.3977 -0.3929
  173SAPE   H7X19680   7.848   5.527   5.089  2.1354  0.4306 -1.7919
  173SAPE   H7Y19681   7.904   5.686   5.120  2.0918 -1.2296 -0.3956
  173SAPE   C3819682   7.802   5.666   4.919 -0.3061 -0.2429 -0.2076
  173SAPE   H8X19683   7.789   5.777   4.916  2.5635  0.1644 -0.1580
  173SAPE   H8Y19684   7.705   5.623   4.886  0.9503 -3.3901 -0.1390
  173SAPE   C3919685   7.919   5.611   4.850  0.3530 -0.0549  0.5764
  173SAPE   H9X19686   7.898   5.506   4.880 -0.7197  0.1358  0.5165
  173SAPE   H9Y19687   8.012   5.656   4.891  0.1478  1.0501 -0.1375
  173SAPE  C31019688   7.926   5.624   4.698  0.4032 -0.4267 -0.2224
  173SAPE  H10X19689   7.942   5.730   4.670 -0.4588 -0.4234 -0.7327
  173SAPE  H10Y19690   7.828   5.603   4.650 -0.1491  1.0576  0.2299
  173SAPE  C31119691   8.040   5.545   4.641 -0.0401  0.5445 -0.2215
  173SAPE  H11X19692   8.037   5.444   4.687 -2.0481  0.0074 -1.4179
  173SAPE  H11Y19693   8.139   5.584   4.673  0.3533  0.8831 -1.7801
  173SAPE  C31219694   8.057   5.536   4.492 -0.2112 -0.7537 -0.2370
  173SAPE  H12X19695   8.085   5.638   4.456 -0.1503 -0.7458 -0.1693
  173SAPE  H12Y19696   7.961   5.511   4.442 -1.7814 -0.0413  2.2671
  173SAPE  C31319697   8.157   5.440   4.425  0.4518  0.2321 -1.2279
  173SAPE  H13X19698   8.257   5.468   4.465  0.1605  0.5143 -0.6936
  173SAPE  H13Y19699   8.164   5.478   4.321  0.2057 -0.2422 -1.4206
  173SAPE  C31419700   8.127   5.286   4.449  0.9420 -0.2708  0.0485
  173SAPE  H14X19701   8.018   5.266   4.446  0.6637  0.6857  2.0573
  173SAPE  H14Y19702   8.161   5.272   4.554 -0.6222 -0.2111  0.5854
  173SAPE  C31519703   8.202   5.189   4.350  0.4968  0.0382 -0.3213
  173SAPE  H15X19704   8.306   5.230   4.342  0.5945 -0.2915 -0.7579
  173SAPE  H15Y19705   8.161   5.188   4.247  0.6111  0.5739 -0.3749
  173SAPE  C31619706   8.206   5.044   4.391 -0.0305 -0.1634 -0.4606
  173SAPE  H16X19707   8.247   5.040   4.495  2.0949 -0.8444 -1.2600
  173SAPE  H16Y19708   8.287   4.990   4.337  2.4255  1.0808  1.7162
  173SAPE  C31719709   8.063   4.972   4.372  0.4022  0.4714 -0.1339
  173SAPE  H17X19710   8.041   4.982   4.263  0.7126 -0.3891 -0.2797
  173SAPE  H17Y19711   7.987   5.020   4.437 -2.5935 -3.2667 -0.5395
  173SAPE  C31819712   8.069   4.827   4.419 -0.1988  0.2150 -0.1689
  173SAPE  H18X19713   7.980   4.770   4.384 -0.2261  1.0198 -1.4986
  173SAPE  H18Y19714   8.081   4.822   4.529  3.0832  0.4441 -0.4379
  173SAPE  H18Z19715   8.158   4.778   4.375 -0.1967  0.9046 -0.9472
  174SAPE     N19716   6.946   0.024   6.279  0.5010 -0.5697  0.4361
  174SAPE   HN119717   7.045   0.053   6.268 -0.2841  2.2381 -0.1190
  174SAPE   HN219718   6.893   0.101   6.324  1.5304  0.3150  0.1586
  174SAPE   HN319719   6.938  -0.056   6.345  2.9715 -1.4879 -0.2597
  174SAPE   C1219720   6.895  -0.012   6.145  0.5339 -0.4159  0.8260
  174SAPE  H12A19721   6.925   0.061   6.068 -0.6510  0.0252  0.7529
  174SAPE  H12B19722   6.784  -0.016   6.156  0.6148 -1.1736  1.4415
  174SAPE   C1119723   6.954  -0.152   6.104 -0.4689 -0.2201  0.3778
  174SAPE  H11A19724   7.064  -0.138   6.098 -0.6350  1.3357  0.5434
  174SAPE  H11B19725   6.922  -0.172   6.000  1.6500  1.2381 -0.6301
  174SAPE     P19726   6.805  -0.346   6.193 -0.1593 -0.1354  0.0620
  174SAPE   O1319727   6.832  -0.473   6.263 -0.4093 -0.8257 -0.1499
  174SAPE   O1419728   6.700  -0.259   6.245  0.1451 -0.0166 -0.5531
  174SAPE   O1219729   6.934  -0.261   6.191  0.4168  0.2838 -0.1207
  174SAPE   O1119730   6.768  -0.366   6.039  0.5658 -0.1836 -0.3494
  174SAPE    C119731   6.833  -0.473   5.964  0.2203 -0.0873 -0.0740
  174SAPE    HA19732   6.816  -0.574   6.006  1.3223 -0.0048  0.6055
  174SAPE    HB19733   6.787  -0.476   5.863 -3.1827  0.0282  1.3372
  174SAPE    C219734   6.992  -0.474   5.951 -0.0862 -0.7286 -0.3551
  174SAPE    HS19735   7.032  -0.469   6.055  2.3163  0.5924 -1.2798
  174SAPE   O2119736   7.032  -0.348   5.877 -0.3663  0.6804 -0.2047
  174SAPE   C2119737   7.165  -0.322   5.897 -0.5029 -0.6277 -0.0883
  174SAPE   O2219738   7.239  -0.385   5.961 -0.4895 -0.4295  0.6351
  174SAPE   C2219739   7.215  -0.207   5.805 -0.3534  0.6602  0.8009
  174SAPE   H2R19740   7.139  -0.159   5.740 -0.3401  0.0636  0.3346
  174SAPE   H2S19741   7.255  -0.130   5.874  0.8114 -0.8851  1.9185
  174SAPE    C319742   7.054  -0.600   5.885 -0.4866 -0.4023  0.7512
  174SAPE    HX19743   7.031  -0.684   5.953 -0.2560  1.0092  2.6498
  174SAPE    HY19744   7.164  -0.582   5.884  0.1123 -2.8712  4.2108
  174SAPE   O3119745   6.991  -0.608   5.753 -0.0192 -0.2115 -0.1520
  174SAPE   C3119746   7.025  -0.700   5.678 -0.6146 -0.1201  0.1000
  174SAPE   O3219747   7.108  -0.786   5.699 -0.5129  0.0795  0.3460
  174SAPE   C3219748   6.955  -0.694   5.539 -0.6491  0.5769 -0.0524
  174SAPE   H2X19749   6.890  -0.603   5.542 -1.7460 -0.2115  0.8853
  174SAPE   H2Y19750   6.891  -0.783   5.524  2.1461 -1.7844  0.9932
  174SAPE   C2319751   7.324  -0.258   5.709  0.1545 -0.1110 -0.3702
  174SAPE   H3R19752   7.409  -0.309   5.759 -0.4017  0.4634  1.2104
  174SAPE   H3S19753   7.367  -0.166   5.663  1.4417  0.2525  1.4295
  174SAPE   C2419754   7.278  -0.351   5.597  0.2152 -0.0258  0.0886
  174SAPE   H4R19755   7.244  -0.442   5.649  0.4330  0.6298  1.4116
  174SAPE   H4S19756   7.372  -0.376   5.543 -0.2532 -1.6067 -0.0195
  174SAPE   C2519757   7.179  -0.298   5.491  0.2975 -0.5890 -0.5434
  174SAPE   H5R19758   7.082  -0.273   5.535  1.9671  3.3663  1.3901
  174SAPE   C2619759   7.204  -0.263   5.365  0.5245  0.1752 -0.6675
  174SAPE   H6R19760   7.130  -0.202   5.312 -0.1061 -0.0887 -0.1051
  174SAPE   C2719761   7.331  -0.274   5.293 -0.3833  0.2331 -0.4599
  174SAPE   H7R19762   7.410  -0.254   5.369 -2.5360 -0.1526  1.9895
  174SAPE   H7S19763   7.333  -0.180   5.233  0.7989 -0.0503 -0.9042
  174SAPE   C2819764   7.366  -0.397   5.212 -0.5428 -0.5763 -0.3337
  174SAPE   H8R19765   7.399  -0.481   5.276 -0.4375  0.5843  1.1970
  174SAPE   C2919766   7.362  -0.413   5.078  0.0310  0.3141 -0.6040
  174SAPE   H9R19767   7.382  -0.513   5.036  3.4029  0.2017  0.9209
  174SAPE  C21019768   7.320  -0.307   4.979  0.6589 -0.3700  0.3276
  174SAPE  H10R19769   7.284  -0.216   5.031 -1.6656  0.4139 -2.3938
  174SAPE  H10S19770   7.243  -0.338   4.905 -0.0391  2.2316 -0.1430
  174SAPE  C21119771   7.436  -0.251   4.900  0.1149  0.0733  0.4189
  174SAPE  H11R19772   7.533  -0.303   4.909  0.2335  0.2583  0.2117
  174SAPE  C21219773   7.435  -0.151   4.808 -0.3149 -0.1982  0.0380
  174SAPE  H12R19774   7.526  -0.131   4.750 -0.3241  1.0994  0.4301
  174SAPE  C21319775   7.319  -0.065   4.760  0.7943  0.2386  0.5176
  174SAPE  H13R19776   7.307   0.018   4.833  0.7628 -1.6205  2.7563
  174SAPE  H13S19777   7.227  -0.125   4.781  1.2521 -0.4327  0.6236
  174SAPE  C21419778   7.335  -0.012   4.620  0.2611  0.3668 -0.8673
  174SAPE  H14R19779   7.394   0.080   4.612  1.4779 -0.1705  1.2211
  174SAPE  C21519780   7.293  -0.064   4.499 -0.4846  0.4761  0.4759
  174SAPE  H15R19781   7.338  -0.018   4.409  0.8129  0.3447  1.0361
  174SAPE  C21619782   7.204  -0.186   4.495  0.2572  0.0456 -0.1362
  174SAPE  H16R19783   7.133  -0.184   4.410  1.7539  0.2009 -1.4150
  174SAPE  H16S19784   7.140  -0.193   4.585  1.5935 -2.8744  0.7367
  174SAPE  C21719785   7.290  -0.312   4.500  0.0521  0.1477 -0.3380
  174SAPE  H17R19786   7.223  -0.399   4.483  2.5503 -1.9672 -0.0160
  174SAPE  H17S19787   7.332  -0.315   4.603 -0.0942 -0.3546 -0.2920
  174SAPE  C21819788   7.409  -0.326   4.404  0.2209  0.1607  0.1308
  174SAPE  H18R19789   7.474  -0.410   4.435  1.4110  0.4452 -1.4638
  174SAPE  H18S19790   7.478  -0.240   4.412  1.0944 -0.5621  0.4691
  174SAPE  C21919791   7.379  -0.381   4.267  0.1716  0.3963  0.8800
  174SAPE  H19R19792   7.335  -0.481   4.286 -0.1103  0.2583 -0.4329
  174SAPE  H19S19793   7.459  -0.388   4.191  0.3654 -1.3446  1.2047
  174SAPE  C22019794   7.261  -0.322   4.177  0.1800  0.3083 -0.2708
  174SAPE  H20R19795   7.287  -0.229   4.121  2.9718 -0.3141 -0.1305
  174SAPE  H20S19796   7.174  -0.308   4.246  0.4844 -1.3755  0.4966
  174SAPE  H20T19797   7.243  -0.395   4.096  2.3947 -1.5177  0.7871
  174SAPE   C3319798   7.058  -0.687   5.431  0.6402 -0.6422  0.9237
  174SAPE   H3X19799   7.125  -0.775   5.430  0.2153 -0.9860  1.6160
  174SAPE   H3Y19800   7.109  -0.592   5.457  0.0946  0.5264 -1.8578
  174SAPE   C3419801   6.996  -0.678   5.288 -0.2607  0.3408 -0.4273
  174SAPE   H4X19802   6.926  -0.763   5.271 -0.5055  0.0402  1.7408
  174SAPE   H4Y19803   7.077  -0.674   5.212 -0.3175 -0.3031 -0.5335
  174SAPE   C3519804   6.925  -0.545   5.268  0.4531 -0.0234 -0.7568
  174SAPE   H5X19805   6.979  -0.474   5.334 -0.6624  1.2901 -1.2091
  174SAPE   H5Y19806   6.820  -0.562   5.302  0.0357 -1.0342 -2.4599
  174SAPE   C3619807   6.903  -0.506   5.122 -0.0380 -0.0952 -1.0985
  174SAPE   H6X19808   6.843  -0.413   5.128  0.5917  0.2121  2.8492
  174SAPE   H6Y19809   6.833  -0.581   5.078  0.4212 -0.7655 -0.7117
  174SAPE   C3719810   7.015  -0.473   5.029  0.6315  0.1820  0.0223
  174SAPE   H7X19811   7.087  -0.558   5.023 -1.0694 -1.2035 -2.1185
  174SAPE   H7Y19812   7.062  -0.381   5.070  0.3967  0.0219  0.6636
  174SAPE   C3819813   6.954  -0.446   4.886 -0.0830 -0.2283  0.5488
  174SAPE   H8X19814   6.880  -0.521   4.854  0.4814 -0.5946  0.0754
  174SAPE   H8Y19815   7.042  -0.457   4.818  1.2342  0.7038  2.0113
  174SAPE   C3919816   6.905  -0.304   4.853  0.1362 -0.0135  0.1727
  174SAPE   H9X19817   6.993  -0.237   4.859 -0.7682  1.1544  0.7379
  174SAPE   H9Y19818   6.829  -0.276   4.929 -0.4448 -0.7325 -0.1312
  174SAPE  C31019819   6.840  -0.292   4.715  0.2037 -0.1813 -0.2795
  174SAPE  H10X19820   6.753  -0.361   4.709  1.7080 -2.2476  0.3925
  174SAPE  H10Y19821   6.915  -0.330   4.642 -0.6003  1.2502 -1.9232
  174SAPE  C31119822   6.801  -0.143   4.682 -0.1805  0.0622 -0.2631
  174SAPE  H11X19823   6.890  -0.077   4.678 -0.6664  0.7411 -0.1207
  174SAPE  H11Y19824   6.738  -0.100   4.762 -2.1627 -0.1341 -1.6494
  174SAPE  C31219825   6.733  -0.117   4.547 -0.2086 -0.5825 -0.1462
  174SAPE  H12X19826   6.670  -0.026   4.557  3.3162  1.9970  0.9378
  174SAPE  H12Y19827   6.669  -0.203   4.519 -1.1809 -0.9534  2.9043
  174SAPE  C31319828   6.843  -0.084   4.442  0.1425 -0.1091  0.1493
  174SAPE  H13X19829   6.910  -0.172   4.427  0.3605  0.4740 -2.9330
  174SAPE  H13Y19830   6.899  -0.001   4.492  1.4975 -0.8827 -0.0251
  174SAPE  C31419831   6.791  -0.037   4.306  0.6098 -0.4752 -0.5433
  174SAPE  H14X19832   6.713   0.043   4.308  0.7493 -0.2743 -2.2236
  174SAPE  H14Y19833   6.731  -0.108   4.246  0.8710  0.8971 -2.5172
  174SAPE  C31519834   6.906  -0.012   4.202 -0.3775 -0.2917 -0.2174
  174SAPE  H15X19835   6.861   0.023   4.107  1.8619  1.3337 -0.7596
  174SAPE  H15Y19836   6.950  -0.112   4.186  1.2078 -0.0950  2.3366
  174SAPE  C31619837   7.009   0.096   4.243 -0.7375 -0.4192  0.0954
  174SAPE  H16X19838   7.058   0.077   4.341 -1.5678 -1.7118  0.2757
  174SAPE  H16Y19839   6.947   0.187   4.255 -2.5559 -1.6174  0.1115
  174SAPE  C31719840   7.116   0.114   4.132  0.2417  0.3006 -0.9098
  174SAPE  H17X19841   7.064   0.157   4.043  0.9372 -1.1712 -2.0822
  174SAPE  H17Y19842   7.141   0.013   4.093  0.6464  0.1622 -0.2977
  174SAPE  C31819843   7.242   0.192   4.181 -1.0329 -0.2862 -0.0299
  174SAPE  H18X19844   7.301   0.117   4.238  1.1668  0.4192 -1.2414
  174SAPE  H18Y19845   7.212   0.270   4.253  1.0091  1.5106 -1.0068
  174SAPE  H18Z19846   7.300   0.230   4.094  1.8282  0.0991  1.8832
  175SAPE     N19847   4.482   4.120   1.974  0.1483 -0.1680 -0.1521
  175SAPE   HN119848   4.525   4.036   2.016 -0.8133  0.1409  1.5547
  175SAPE   HN219849   4.416   4.081   1.903 -1.2273 -0.6102  1.3085
  175SAPE   HN319850   4.554   4.184   1.935  0.1016  0.2004  0.3563
  175SAPE   C1219851   4.389   4.161   2.087 -0.0108 -0.3182 -0.0111
  175SAPE  H12A19852   4.343   4.259   2.061  1.6924  0.3618 -0.6363
  175SAPE  H12B19853   4.460   4.175   2.171  1.5711 -2.4583 -0.8873
  175SAPE   C1119854   4.276   4.056   2.113  0.2589  0.9502  0.6465
  175SAPE  H11A19855   4.201   4.107   2.177 -0.4978 -2.0163  2.2803
  175SAPE  H11B19856   4.312   3.963   2.161 -1.6721 -0.0019  0.3240
  175SAPE     P19857   4.096   3.925   1.979 -0.2560 -0.0249  0.1959
  175SAPE   O1319858   3.975   4.000   1.936  0.2906 -0.1635 -0.4685
  175SAPE   O1419859   4.127   3.811   1.895  0.3264  0.8492  0.5203
  175SAPE   O1219860   4.225   4.021   1.986 -1.0581 -0.0556  0.0388
  175SAPE   O1119861   4.067   3.889   2.130 -0.1028 -0.2695 -0.2996
  175SAPE    C119862   3.943   3.819   2.152  0.2582 -0.0177 -1.0503
  175SAPE    HA19863   3.917   3.755   2.065 -0.4046 -1.6294  0.2709
  175SAPE    HB19864   3.964   3.757   2.241 -2.0936  0.3657 -0.1700
  175SAPE    C219865   3.826   3.912   2.188  0.0158  0.2111 -0.0991
  175SAPE    HS19866   3.812   3.981   2.103 -1.2398  0.7109  0.4947
  175SAPE   O2119867   3.864   3.983   2.309 -0.2538 -0.0775  0.1458
  175SAPE   C2119868   3.781   4.081   2.348  0.3696  0.4807 -0.5387
  175SAPE   O2219869   3.691   4.117   2.273  0.2083 -0.5907 -0.3869
  175SAPE   C2219870   3.826   4.137   2.478 -0.0680  0.5453 -0.5197
  175SAPE   H2R19871   3.849   4.061   2.556  0.0391  1.8459  0.7554
  175SAPE   H2S19872   3.918   4.197   2.459  0.9833 -0.7992  0.2174
  175SAPE    C319873   3.692   3.827   2.203  0.6672  0.2352 -0.0143
  175SAPE    HX19874   3.671   3.767   2.113  1.0574 -0.6195  0.4555
  175SAPE    HY19875   3.605   3.895   2.213 -0.5761 -1.4054  0.7105
  175SAPE   O3119876   3.704   3.746   2.324  0.1241 -0.0653 -0.2650
  175SAPE   C3119877   3.621   3.640   2.308  0.0354 -0.1151 -1.0329
  175SAPE   O3219878   3.528   3.641   2.229 -0.1831 -0.3913  0.5128
  175SAPE   C3219879   3.650   3.534   2.417 -0.4789  0.3064  0.0772
  175SAPE   H2X19880   3.682   3.569   2.518  1.5023 -3.1263  0.7745
  175SAPE   H2Y19881   3.741   3.482   2.380 -1.4732 -0.3064 -1.6369
  175SAPE   C2319882   3.712   4.231   2.530 -0.1249  0.0428  0.0952
  175SAPE   H3R19883   3.648   4.276   2.451  3.8995 -0.4165 -3.8091
  175SAPE   H3S19884   3.767   4.317   2.574  0.5392  0.5879 -1.6890
  175SAPE   C2419885   3.628   4.165   2.634  0.6721  1.1264  0.4085
  175SAPE   H4R19886   3.558   4.241   2.674 -0.1438 -0.0554  1.3276
  175SAPE   H4S19887   3.703   4.137   2.711  2.3804  1.6668 -0.9903
  175SAPE   C2519888   3.550   4.042   2.590  0.4269 -0.6012  0.4644
  175SAPE   H5R19889   3.471   4.066   2.518  0.9507  1.1124  0.4063
  175SAPE   C2619890   3.557   3.916   2.642  0.1125 -0.5609 -0.2262
  175SAPE   H6R19891   3.492   3.840   2.597  0.7461  0.6328 -3.3690
  175SAPE   C2719892   3.639   3.866   2.750 -0.1652 -0.1383 -0.2719
  175SAPE   H7R19893   3.577   3.790   2.802  0.9081 -0.7341  0.1682
  175SAPE   H7S19894   3.650   3.947   2.825 -1.7355 -0.2882  0.1491
  175SAPE   C2819895   3.774   3.796   2.726 -0.0558  0.2455  0.4118
  175SAPE   H8R19896   3.819   3.799   2.625 -1.0492  0.1172 -0.0433
  175SAPE   C2919897   3.843   3.728   2.821  0.4633 -0.1191 -0.1455
  175SAPE   H9R19898   3.932   3.671   2.794  0.6593  0.4317 -0.6788
  175SAPE  C21019899   3.805   3.724   2.972  0.0018  0.2851 -0.0044
  175SAPE  H10R19900   3.795   3.618   3.001 -0.4889  0.8658  2.1231
  175SAPE  H10S19901   3.704   3.767   2.988 -0.1428 -0.0367 -0.0419
  175SAPE  C21119902   3.904   3.792   3.062 -0.3411 -0.6753 -0.9836
  175SAPE  H11R19903   3.986   3.842   3.009 -1.1167  0.3659 -1.2404
  175SAPE  C21219904   3.891   3.807   3.198 -0.0517 -0.4080 -0.0739
  175SAPE  H12R19905   3.973   3.862   3.246 -1.7289  0.4594  1.9182
  175SAPE  C21319906   3.765   3.768   3.275  0.2282 -0.5008  0.7570
  175SAPE  H13R19907   3.681   3.745   3.207 -1.0979 -0.5445  2.3490
  175SAPE  H13S19908   3.734   3.858   3.333  1.8309 -0.5802  1.8026
  175SAPE  C21419909   3.789   3.651   3.374  0.1007 -0.4589 -0.1667
  175SAPE  H14R19910   3.834   3.562   3.327  1.9967  0.5026 -0.2685
  175SAPE  C21519911   3.778   3.652   3.507  0.0782  0.5810  0.5776
  175SAPE  H15R19912   3.786   3.551   3.550 -0.0135 -0.0845 -0.8934
  175SAPE  C21619913   3.735   3.758   3.598 -0.5291 -0.1079 -0.0735
  175SAPE  H16R19914   3.676   3.699   3.671 -0.7762  1.5210  1.1118
  175SAPE  H16S19915   3.663   3.826   3.549  0.6364  0.6681 -0.7649
  175SAPE  C21719916   3.843   3.842   3.661  0.2337 -0.3772 -0.1347
  175SAPE  H17R19917   3.814   3.921   3.733  0.7850 -1.2093  1.0424
  175SAPE  H17S19918   3.888   3.893   3.573 -0.2986  1.6509  0.7043
  175SAPE  C21819919   3.957   3.766   3.730  0.4727  0.2429 -0.1590
  175SAPE  H18R19920   4.022   3.709   3.660  1.1249 -1.1611  1.5168
  175SAPE  H18S19921   3.910   3.694   3.800  4.8428 -1.0461  1.7966
  175SAPE  C21919922   4.045   3.866   3.796  0.3865 -0.1249 -0.3555
  175SAPE  H19R19923   3.986   3.937   3.858 -2.6836 -3.2427  0.6280
  175SAPE  H19S19924   4.114   3.914   3.724  2.2302 -0.7934  0.9075
  175SAPE  C22019925   4.128   3.787   3.900 -1.1346 -1.0434  0.3193
  175SAPE  H20R19926   4.069   3.730   3.975  0.1879 -1.7892  0.8353
  175SAPE  H20S19927   4.207   3.845   3.954  1.2224 -4.6003  1.0624
  175SAPE  H20T19928   4.192   3.711   3.849  2.4716 -0.4239  3.3936
  175SAPE   C3319929   3.532   3.434   2.443  0.0171 -0.4488 -0.1509
  175SAPE   H3X19930   3.557   3.358   2.520 -1.2378 -0.5086  0.2203
  175SAPE   H3Y19931   3.529   3.377   2.347  2.6395  1.6476 -1.5840
  175SAPE   C3419932   3.406   3.499   2.498 -0.0196 -0.3915 -0.9008
  175SAPE   H4X19933   3.333   3.415   2.496  0.0685 -0.4998 -0.0104
  175SAPE   H4Y19934   3.374   3.580   2.429  3.3942  1.4712 -0.5192
  175SAPE   C3519935   3.413   3.552   2.647 -0.2095 -0.2035  0.6112
  175SAPE   H5X19936   3.494   3.626   2.662 -1.2421  1.6965 -2.2669
  175SAPE   H5Y19937   3.426   3.467   2.718 -1.4939 -2.0177 -1.1859
  175SAPE   C3619938   3.279   3.623   2.682 -0.5772  0.6673 -0.6002
  175SAPE   H6X19939   3.191   3.559   2.660 -0.5063  0.7397 -1.1098
  175SAPE   H6Y19940   3.277   3.716   2.623 -0.9636  0.3594 -1.0845
  175SAPE   C3719941   3.258   3.679   2.825 -0.1420  0.5015  0.3269
  175SAPE   H7X19942   3.156   3.721   2.832  0.0526  0.7345  2.5227
  175SAPE   H7Y19943   3.340   3.754   2.831  1.6355 -1.2830 -0.3551
  175SAPE   C3819944   3.281   3.570   2.932 -0.0100 -0.0623  0.2710
  175SAPE   H8X19945   3.389   3.550   2.947 -0.4210 -1.2020  1.9758
  175SAPE   H8Y19946   3.238   3.478   2.887  1.7848 -0.5454 -0.5393
  175SAPE   C3919947   3.233   3.607   3.070 -0.0475  0.4904 -0.3486
  175SAPE   H9X19948   3.221   3.523   3.142 -0.0266  0.7347 -0.0562
  175SAPE   H9Y19949   3.131   3.651   3.058 -1.5549 -2.2138  1.3256
  175SAPE  C31019950   3.324   3.707   3.136  0.9322  0.3700  0.3981
  175SAPE  H10X19951   3.360   3.777   3.058  0.7313 -0.6441 -0.6365
  175SAPE  H10Y19952   3.415   3.660   3.181  0.4679 -0.3228  0.6206
  175SAPE  C31119953   3.258   3.775   3.257  0.6053  0.1470  0.7758
  175SAPE  H11X19954   3.240   3.693   3.330  0.4578 -2.2011 -1.7633
  175SAPE  H11Y19955   3.165   3.826   3.224  2.6043  2.7054 -1.3559
  175SAPE  C31219956   3.350   3.885   3.317 -0.9557 -0.1345 -0.2211
  175SAPE  H12X19957   3.357   3.967   3.242  0.2913  0.9256  1.0009
  175SAPE  H12Y19958   3.457   3.859   3.329 -0.7286  1.2613  1.0794
  175SAPE  C31319959   3.293   3.951   3.441 -0.5160  0.1920 -0.1516
  175SAPE  H13X19960   3.189   3.989   3.427 -1.7823 -2.0595  2.2841
  175SAPE  H13Y19961   3.354   4.042   3.461 -2.0814  1.0171  1.0583
  175SAPE  C31419962   3.297   3.863   3.563  0.1463 -0.5624 -0.1826
  175SAPE  H14X19963   3.406   3.846   3.574  0.6701  2.0345 -0.6597
  175SAPE  H14Y19964   3.237   3.771   3.547  0.3706 -0.5770 -1.0085
  175SAPE  C31519965   3.248   3.928   3.691 -0.1383 -1.2802  0.1271
  175SAPE  H15X19966   3.150   3.976   3.671 -1.0573 -2.3054  1.8798
  175SAPE  H15Y19967   3.310   4.008   3.736 -0.9135 -0.0107 -0.9797
  175SAPE  C31619968   3.217   3.822   3.791 -0.3332  0.2757 -0.5910
  175SAPE  H16X19969   3.314   3.785   3.830 -1.7331 -1.8763  1.1381
  175SAPE  H16Y19970   3.158   3.729   3.776 -0.4216  0.3005 -0.4028
  175SAPE  C31719971   3.162   3.883   3.924  0.1036  0.8167  0.8239
  175SAPE  H17X19972   3.057   3.912   3.902  0.7308  1.5566 -1.4854
  175SAPE  H17Y19973   3.218   3.976   3.946 -0.4697  2.0375 -2.3487
  175SAPE  C31819974   3.184   3.790   4.043  0.2331 -0.0829  0.2705
  175SAPE  H18X19975   3.287   3.749   4.043  0.4677  0.5030  0.2447
  175SAPE  H18Y19976   3.106   3.711   4.036 -0.5561  0.6843  0.3054
  175SAPE  H18Z19977   3.159   3.843   4.137  0.1540 -3.7150  2.4840
  176SAPE     N19978   2.477   2.230   1.991  0.2706  0.1272 -0.3235
  176SAPE   HN119979   2.561   2.224   2.051 -0.6271 -0.8755  0.8787
  176SAPE   HN219980   2.474   2.148   1.927  0.8315  0.5727 -0.9355
  176SAPE   HN319981   2.505   2.309   1.928 -0.0769 -1.7221 -2.9736
  176SAPE   C1219982   2.344   2.250   2.067 -0.8172  0.5586 -0.1304
  176SAPE  H12A19983   2.360   2.191   2.160 -1.6844 -1.1112 -1.0085
  176SAPE  H12B19984   2.272   2.194   2.004 -0.6459 -1.4868  1.3810
  176SAPE   C1119985   2.324   2.403   2.098 -0.2795  0.9328  0.1239
  176SAPE  H11A19986   2.233   2.422   2.159 -1.8026 -1.0097 -1.3795
  176SAPE  H11B19987   2.305   2.452   2.000 -0.2671  0.0391 -0.3414
  176SAPE     P19988   2.481   2.605   2.171  0.0749  0.3618  0.0017
  176SAPE   O1319989   2.477   2.665   2.033 -0.6281  0.2420 -0.5149
  176SAPE   O1419990   2.395   2.666   2.274 -0.4146  1.0363  0.1186
  176SAPE   O1219991   2.448   2.454   2.160  0.4311  0.2440 -0.8619
  176SAPE   O1119992   2.631   2.621   2.208 -0.0585  0.1781 -0.0655
  176SAPE    C119993   2.715   2.517   2.260  0.5371 -0.3568 -0.2018
  176SAPE    HA19994   2.670   2.416   2.244 -0.2605  0.0288 -0.4279
  176SAPE    HB19995   2.812   2.510   2.207  1.3594 -0.5887  1.3074
  176SAPE    C219996   2.725   2.523   2.417  0.2228 -0.1033  0.1979
  176SAPE    HS19997   2.801   2.454   2.458  0.9055  0.4475 -0.1104
  176SAPE   O2119998   2.593   2.512   2.478  0.0192  0.1410 -0.2368
  176SAPE   C2119999   2.547   2.388   2.489 -0.6429  0.6108  0.5291
  176SAPE   O2220000   2.599   2.285   2.455  0.1611 -0.5181 -0.0364
  176SAPE   C2220001   2.424   2.387   2.569  0.5275  0.1328 -0.9505
  176SAPE   H2R20002   2.421   2.294   2.630  2.6749  1.3202  1.1577
  176SAPE   H2S20003   2.421   2.479   2.630 -1.3701  0.0543 -0.8721
  176SAPE    C320004   2.792   2.664   2.450  0.4262 -0.3476  0.2711
  176SAPE    HX20005   2.721   2.744   2.419  0.1566 -0.1405  1.3699
  176SAPE    HY20006   2.875   2.677   2.377  1.3188 -0.1100  1.2982
  176SAPE   O3120007   2.833   2.678   2.591 -0.1907 -0.2637  0.1878
  176SAPE   C3120008   2.728   2.692   2.678 -0.1393 -0.5850  0.6470
  176SAPE   O3220009   2.616   2.732   2.654 -0.0234 -0.2485 -0.2562
  176SAPE   C3220010   2.778   2.663   2.820 -0.4224  1.0435  0.4433
  176SAPE   H2X20011   2.887   2.680   2.826 -0.4147  0.6614  1.7770
  176SAPE   H2Y20012   2.761   2.556   2.843 -0.1692  0.3460 -2.3432
  176SAPE   C2320013   2.294   2.383   2.485  0.2099 -0.0839  0.4533
  176SAPE   H3R20014   2.307   2.305   2.408 -1.8055 -0.8928  0.8850
  176SAPE   H3S20015   2.289   2.473   2.420 -1.7868  0.0547  0.7491
  176SAPE   C2420016   2.167   2.352   2.559 -0.0750  0.0913  0.3263
  176SAPE   H4R20017   2.174   2.269   2.633  1.5363  0.7203  0.9166
  176SAPE   H4S20018   2.079   2.336   2.492  0.5423 -2.3140 -0.0196
  176SAPE   C2520019   2.132   2.478   2.643  0.1566  0.2392  0.1015
  176SAPE   H5R20020   2.191   2.569   2.625  2.8154 -1.3316  0.2945
  176SAPE   C2620021   2.033   2.477   2.727 -0.1270 -0.0106 -0.2234
  176SAPE   H6R20022   2.017   2.570   2.784 -2.7274 -0.6775  0.2445
  176SAPE   C2720023   1.944   2.361   2.755 -0.0701  0.0153 -0.4648
  176SAPE   H7R20024   1.995   2.292   2.826  2.4478  1.8797 -0.3153
  176SAPE   H7S20025   1.924   2.301   2.663  4.1132  0.2665 -1.7712
  176SAPE   C2820026   1.812   2.407   2.812  0.2631  0.3676  0.6702
  176SAPE   H8R20027   1.729   2.397   2.742 -0.8517  1.7881  1.7269
  176SAPE   C2920028   1.788   2.461   2.929  0.7222  0.1844  0.6518
  176SAPE   H9R20029   1.684   2.483   2.958  1.0770  3.7267 -0.2436
  176SAPE  C21020030   1.886   2.477   3.038  0.5782 -0.6174 -0.2694
  176SAPE  H10R20031   1.942   2.572   3.028  0.0609 -0.2599  0.1607
  176SAPE  H10S20032   1.956   2.391   3.038  0.9021 -0.4212 -2.5965
  176SAPE  C21120033   1.813   2.472   3.172 -0.3953 -0.6446  0.1233
  176SAPE  H11R20034   1.707   2.444   3.168 -0.5356 -0.2371  0.8068
  176SAPE  C21220035   1.868   2.511   3.285  0.0626 -0.3880 -0.1787
  176SAPE  H12R20036   1.811   2.494   3.378  0.8258 -1.5620  0.0951
  176SAPE  C21320037   2.009   2.567   3.300 -0.4996  0.1250 -0.3893
  176SAPE  H13R20038   2.069   2.569   3.207  1.0260 -2.3643  0.4511
  176SAPE  H13S20039   2.062   2.495   3.366 -1.1483  0.1008  0.1191
  176SAPE  C21420040   2.008   2.696   3.372  0.5273  0.3682  0.3521
  176SAPE  H14R20041   1.980   2.784   3.313  0.4309  0.7873  1.0037
  176SAPE  C21520042   2.039   2.714   3.506  0.3523  0.0309  0.3449
  176SAPE  H15R20043   2.038   2.820   3.537  1.6659 -0.8359  3.7918
  176SAPE  C21620044   2.079   2.615   3.610 -0.1053  0.0913 -0.0673
  176SAPE  H16R20045   2.117   2.516   3.575 -0.8173  0.3194 -1.5479
  176SAPE  H16S20046   1.994   2.598   3.679 -0.4712  0.2064 -0.4916
  176SAPE  C21720047   2.186   2.674   3.704  0.3171  0.2666  0.2051
  176SAPE  H17R20048   2.218   2.594   3.773  0.4912 -1.4778 -1.8041
  176SAPE  H17S20049   2.145   2.759   3.763 -0.8521 -1.1370  1.5242
  176SAPE  C21820050   2.325   2.706   3.636  0.1179  0.1499  0.0641
  176SAPE  H18R20051   2.392   2.741   3.717 -0.5581  1.3698  0.1123
  176SAPE  H18S20052   2.319   2.795   3.570 -0.6519 -0.4311 -0.6881
  176SAPE  C21920053   2.394   2.591   3.567  0.8188  0.3511  0.1681
  176SAPE  H19R20054   2.328   2.554   3.485  0.5825 -0.4733  0.7225
  176SAPE  H19S20055   2.413   2.516   3.647 -1.5623  1.6525  2.1086
  176SAPE  C22020056   2.525   2.622   3.496  0.2383  0.6169  0.3850
  176SAPE  H20R20057   2.508   2.694   3.413  0.0923  1.1947  0.9085
  176SAPE  H20S20058   2.573   2.527   3.465  0.8483  1.9980 -3.4451
  176SAPE  H20T20059   2.601   2.667   3.564  0.4333 -1.3625  1.5370
  176SAPE   C3320060   2.702   2.734   2.933 -0.5602  1.0899  0.2378
  176SAPE   H3X20061   2.595   2.703   2.931 -0.8265  1.9503 -1.7725
  176SAPE   H3Y20062   2.713   2.844   2.918  1.8445  0.6910 -1.4397
  176SAPE   C3420063   2.758   2.687   3.077 -0.2707 -0.3461  0.2041
  176SAPE   H4X20064   2.868   2.706   3.075 -0.1665 -0.9497 -0.0396
  176SAPE   H4Y20065   2.749   2.578   3.095  1.4973 -0.3620  1.2279
  176SAPE   C3520066   2.676   2.756   3.184 -0.8178 -0.0740  0.1244
  176SAPE   H5X20067   2.713   2.711   3.279 -0.4661  1.2740  0.6452
  176SAPE   H5Y20068   2.570   2.727   3.166 -1.3734  1.2075  1.1350
  176SAPE   C3620069   2.692   2.910   3.195 -0.0736  0.0988  0.0004
  176SAPE   H6X20070   2.622   2.964   3.127 -0.5964  1.3594  1.4965
  176SAPE   H6Y20071   2.799   2.936   3.183 -0.0328 -0.0212  0.1009
  176SAPE   C3720072   2.651   2.962   3.327 -0.1444 -0.2562 -0.5988
  176SAPE   H7X20073   2.557   2.911   3.358  0.1047  0.0266  0.6538
  176SAPE   H7Y20074   2.640   3.072   3.320 -0.6549 -0.3647 -1.8518
  176SAPE   C3820075   2.751   2.940   3.451 -0.2584 -0.8747 -0.2008
  176SAPE   H8X20076   2.841   3.003   3.436 -2.2143  2.4331  0.9546
  176SAPE   H8Y20077   2.771   2.830   3.450 -1.7867 -1.1842  0.5707
  176SAPE   C3920078   2.702   2.994   3.585  0.2165  0.0681 -0.2603
  176SAPE   H9X20079   2.628   2.917   3.616  1.8925 -1.7663 -0.5878
  176SAPE   H9Y20080   2.656   3.094   3.576  0.3319  0.1869  0.4173
  176SAPE  C31020081   2.807   3.003   3.698  0.0743 -0.1314  0.0324
  176SAPE  H10X20082   2.900   3.050   3.660  1.2476 -1.9098  0.6193
  176SAPE  H10Y20083   2.830   2.900   3.732  2.4505  0.0089 -0.9932
  176SAPE  C31120084   2.761   3.081   3.826 -0.5007  0.1847  0.0436
  176SAPE  H11X20085   2.733   3.180   3.786 -1.9777 -0.6625 -1.1565
  176SAPE  H11Y20086   2.854   3.090   3.887  0.4740  0.0154 -1.3776
  176SAPE  C31220087   2.641   3.023   3.900  0.5952 -0.3038 -0.5215
  176SAPE  H12X20088   2.677   2.928   3.945 -0.3980 -0.0338  0.8785
  176SAPE  H12Y20089   2.559   2.991   3.832  0.2845  0.0735 -0.3303
  176SAPE  C31320090   2.584   3.114   4.021 -0.3988 -0.5803  0.7437
  176SAPE  H13X20091   2.523   3.196   3.977 -0.3766 -0.7771  0.3327
  176SAPE  H13Y20092   2.676   3.147   4.073 -1.1837  0.8927  1.2677
  176SAPE  C31420093   2.508   3.030   4.122 -1.1495  0.6553  0.3227
  176SAPE  H14X20094   2.495   3.087   4.216 -2.3312  0.2322  0.4362
  176SAPE  H14Y20095   2.538   2.929   4.157  0.5396  1.7263  2.2196
  176SAPE  C31520096   2.363   3.016   4.077 -0.0943  0.4164 -0.3986
  176SAPE  H15X20097   2.351   2.942   3.994 -1.2030 -0.2285  0.3122
  176SAPE  H15Y20098   2.327   3.112   4.034 -0.1676  1.2373  1.4055
  176SAPE  C31620099   2.273   2.962   4.193 -0.1717 -0.1574  0.3133
  176SAPE  H16X20100   2.259   3.050   4.260 -1.8983  0.4493 -0.7682
  176SAPE  H16Y20101   2.323   2.884   4.254  0.6512 -0.8453 -1.1649
  176SAPE  C31720102   2.139   2.905   4.145 -0.8242  0.4867 -0.0484
  176SAPE  H17X20103   2.072   2.894   4.232 -0.9397  0.4760 -0.1391
  176SAPE  H17Y20104   2.155   2.807   4.094  0.3241 -0.8376  2.6601
  176SAPE  C31820105   2.062   2.991   4.042 -0.6410 -1.0762 -0.7310
  176SAPE  H18X20106   2.115   2.982   3.945 -0.3146  0.0774 -0.6732
  176SAPE  H18Y20107   2.064   3.099   4.069  0.4973 -2.1449  4.7311
  176SAPE  H18Z20108   1.958   2.961   4.018 -1.1192  1.7980 -2.7463
  177SAPE     N20109   4.260   1.576   2.051 -0.0348  0.3218  0.2036
  177SAPE   HN120110   4.303   1.509   1.984 -0.0678  1.4601 -0.9973
  177SAPE   HN220111   4.313   1.582   2.141  0.6868  0.8579 -0.2502
  177SAPE   HN320112   4.166   1.541   2.078 -1.2543  2.9218 -0.3982
  177SAPE   C1220113   4.253   1.713   1.994 -0.6439  0.2713  0.4942
  177SAPE  H12A20114   4.205   1.707   1.894  0.5963  0.3686 -0.1326
  177SAPE  H12B20115   4.351   1.765   1.986 -0.6035  0.1911  0.4619
  177SAPE   C1120116   4.176   1.823   2.071  0.1610 -0.5870  0.2687
  177SAPE  H11A20117   4.176   1.913   2.007 -1.3037  0.1759  1.2765
  177SAPE  H11B20118   4.231   1.846   2.164 -0.7277 -1.1292  0.9428
  177SAPE     P20119   3.914   1.833   2.027  0.3415  0.2348 -0.2562
  177SAPE   O1320120   3.954   1.939   1.936 -0.1499  0.4620  0.3058
  177SAPE   O1420121   3.853   1.713   1.968 -0.0452  0.5504  0.2507
  177SAPE   O1220122   4.041   1.775   2.103  0.0493 -0.8414 -0.5002
  177SAPE   O1120123   3.817   1.889   2.143  0.3267  0.4265 -0.3851
  177SAPE    C120124   3.797   1.813   2.259 -0.3662  0.3157 -0.2504
  177SAPE    HA20125   3.810   1.703   2.244 -1.5384 -0.1997  1.9958
  177SAPE    HB20126   3.870   1.841   2.338 -2.3047 -3.3513  3.2497
  177SAPE    C220127   3.658   1.841   2.327 -0.2063 -0.0533 -0.2506
  177SAPE    HS20128   3.590   1.805   2.248  1.9504 -2.1360 -1.2960
  177SAPE   O2120129   3.662   1.980   2.360 -0.1754  0.7472 -0.3997
  177SAPE   C2120130   3.544   2.037   2.342 -0.0075  0.3681 -0.1547
  177SAPE   O2220131   3.451   1.981   2.292  0.0839  0.4019 -0.0934
  177SAPE   C2220132   3.546   2.187   2.375  0.4406 -0.0558  0.8388
  177SAPE   H2R20133   3.550   2.233   2.274 -1.2519 -1.7726 -0.0908
  177SAPE   H2S20134   3.450   2.211   2.426  0.0767 -0.4835  0.3684
  177SAPE    C320135   3.634   1.750   2.450  0.9224 -0.0410  0.3315
  177SAPE    HX20136   3.642   1.647   2.409  0.3368  0.1587 -0.3034
  177SAPE    HY20137   3.535   1.756   2.500  1.5602  1.4074  1.5096
  177SAPE   O3120138   3.742   1.768   2.547  0.5727 -1.0732  0.1896
  177SAPE   C3120139   3.717   1.865   2.637 -0.0503  1.2024 -0.2454
  177SAPE   O3220140   3.612   1.926   2.655  0.5401  0.1187  0.2780
  177SAPE   C3220141   3.842   1.887   2.715  0.7151 -0.0297 -0.6980
  177SAPE   H2X20142   3.902   1.961   2.658  0.9217  1.8263  1.7473
  177SAPE   H2Y20143   3.897   1.791   2.726  1.3273  0.5600  2.4442
  177SAPE   C2320144   3.666   2.234   2.461  0.5010 -0.4999  0.2657
  177SAPE   H3R20145   3.764   2.211   2.416  1.7444 -0.2819  2.6857
  177SAPE   H3S20146   3.653   2.177   2.555  1.1215 -2.1265 -0.5963
  177SAPE   C2420147   3.661   2.390   2.503  0.3952  0.1134  0.1542
  177SAPE   H4R20148   3.686   2.453   2.415  1.9553 -0.7610 -0.0734
  177SAPE   H4S20149   3.731   2.396   2.589 -0.6779 -3.0994  1.4076
  177SAPE   C2520150   3.527   2.441   2.546 -0.4045 -0.2415  0.0510
  177SAPE   H5R20151   3.487   2.510   2.470  2.0730  0.5217 -0.6842
  177SAPE   C2620152   3.477   2.431   2.669  0.1713 -0.5152  0.9314
  177SAPE   H6R20153   3.383   2.482   2.694  0.2138  0.8718 -1.4773
  177SAPE   C2720154   3.540   2.357   2.786 -0.0295 -0.8728  0.1983
  177SAPE   H7R20155   3.647   2.385   2.797  0.0289 -0.8532 -0.4001
  177SAPE   H7S20156   3.537   2.251   2.753  0.3371 -1.0167  0.6179
  177SAPE   C2820157   3.466   2.363   2.913  0.0570 -0.2371  0.8682
  177SAPE   H8R20158   3.367   2.410   2.897  1.1877  1.2494 -3.0415
  177SAPE   C2920159   3.506   2.307   3.027 -0.9307  0.6255 -0.1781
  177SAPE   H9R20160   3.448   2.332   3.117 -0.8040  0.8796 -0.1657
  177SAPE  C21020161   3.641   2.246   3.059  0.6651  0.2050  0.2830
  177SAPE  H10R20162   3.726   2.286   2.999  0.3664 -0.6511 -0.7477
  177SAPE  H10S20163   3.642   2.139   3.027  0.9220  1.0662 -2.9750
  177SAPE  C21120164   3.674   2.271   3.205 -0.1325  0.1476  0.6703
  177SAPE  H11R20165   3.687   2.377   3.230  1.0590  0.0629  0.5132
  177SAPE  C21220166   3.683   2.188   3.312 -0.2449 -0.1828 -0.2150
  177SAPE  H12R20167   3.707   2.234   3.409 -1.6545 -0.7834  0.4473
  177SAPE  C21320168   3.672   2.037   3.310  0.5703  0.4873 -0.3141
  177SAPE  H13R20169   3.760   1.985   3.354  0.2519  1.8025  2.0461
  177SAPE  H13S20170   3.654   2.000   3.207  0.8430 -1.0672  0.1782
  177SAPE  C21420171   3.545   1.999   3.378  0.9058 -0.0427 -0.3618
  177SAPE  H14R20172   3.455   2.033   3.325  0.2963 -0.1470  0.5738
  177SAPE  C21520173   3.524   1.933   3.496 -0.0155  0.0889 -0.5859
  177SAPE  H15R20174   3.423   1.913   3.535  0.1950 -0.3078 -0.2311
  177SAPE  C21620175   3.632   1.877   3.588  0.1458 -0.1289  0.2263
  177SAPE  H16R20176   3.725   1.934   3.568 -0.3288 -0.1022 -2.2412
  177SAPE  H16S20177   3.651   1.771   3.561  1.2628 -0.3119  1.5967
  177SAPE  C21720178   3.609   1.888   3.735  0.6663  1.1277  0.8032
  177SAPE  H17R20179   3.538   1.805   3.754  1.7230 -0.1807 -0.6864
  177SAPE  H17S20180   3.565   1.987   3.760 -1.1380  0.3124  0.9747
  177SAPE  C21820181   3.737   1.879   3.820  0.2016 -0.1634  0.1498
  177SAPE  H18R20182   3.705   1.874   3.926 -1.1865 -0.6896 -0.2722
  177SAPE  H18S20183   3.778   1.980   3.795  0.5436 -1.1920 -4.3504
  177SAPE  C21920184   3.829   1.763   3.790 -0.6116 -0.2371 -0.0558
  177SAPE  H19R20185   3.877   1.774   3.690  0.7021  1.6246  0.7008
  177SAPE  H19S20186   3.767   1.672   3.796 -1.6523  0.4179 -0.6348
  177SAPE  C22020187   3.954   1.755   3.877 -0.7968 -0.1316  0.0078
  177SAPE  H20R20188   4.023   1.675   3.842  0.2829  0.3284  0.9886
  177SAPE  H20S20189   3.921   1.728   3.980 -1.0817 -1.3089 -0.3883
  177SAPE  H20T20190   4.009   1.852   3.883  0.5801 -0.9524  1.3464
  177SAPE   C3320191   3.831   1.952   2.858  0.0448  0.6166 -0.4313
  177SAPE   H3X20192   3.747   1.901   2.910  0.1239  0.8685 -0.0464
  177SAPE   H3Y20193   3.828   2.063   2.859 -1.4196  0.5932  0.2186
  177SAPE   C3420194   3.947   1.901   2.953  0.0569 -0.3694  0.3736
  177SAPE   H4X20195   3.942   1.968   3.042  0.8082  0.2084 -0.0111
  177SAPE   H4Y20196   4.049   1.908   2.909  0.4175  0.0156  1.2393
  177SAPE   C3520197   3.934   1.753   2.986 -0.0432  0.4454  0.2417
  177SAPE   H5X20198   3.977   1.709   2.894 -0.1865  0.1901  0.2950
  177SAPE   H5Y20199   3.830   1.715   3.000  1.0105 -2.4757  0.7983
  177SAPE   C3620200   4.015   1.713   3.114 -0.3989 -0.5181  0.3758
  177SAPE   H6X20201   4.121   1.747   3.113 -0.1444 -1.2914  0.0450
  177SAPE   H6Y20202   4.014   1.602   3.121 -0.8736 -0.5814 -0.5087
  177SAPE   C3720203   3.963   1.775   3.244 -0.3079  0.5428 -0.6492
  177SAPE   H7X20204   3.853   1.767   3.249 -0.3383  1.2972  0.0315
  177SAPE   H7Y20205   3.990   1.883   3.235  0.8275  0.4913  1.5934
  177SAPE   C3820206   4.023   1.710   3.364 -0.4303 -0.5816 -0.1791
  177SAPE   H8X20207   3.998   1.602   3.357  0.3254 -0.8052  0.4035
  177SAPE   H8Y20208   3.986   1.752   3.459  0.0279 -0.2830 -0.1314
  177SAPE   C3920209   4.181   1.732   3.375 -0.6118 -0.5963  0.0387
  177SAPE   H9X20210   4.195   1.839   3.400 -0.6479 -0.3312 -1.0208
  177SAPE   H9Y20211   4.245   1.724   3.284  0.5030  2.3962  0.4681
  177SAPE  C31020212   4.236   1.640   3.487 -0.4649  0.5043  0.6131
  177SAPE  H10X20213   4.315   1.580   3.436 -1.9044 -1.4006  0.4940
  177SAPE  H10Y20214   4.164   1.558   3.508  0.1009 -0.0924  0.2795
  177SAPE  C31120215   4.273   1.706   3.617 -0.0249 -0.5627 -0.2723
  177SAPE  H11X20216   4.284   1.617   3.683 -0.4531 -0.6811 -0.3583
  177SAPE  H11Y20217   4.189   1.771   3.651  0.5246  0.1238 -0.1912
  177SAPE  C31220218   4.401   1.796   3.609  0.2729  0.4096  0.2458
  177SAPE  H12X20219   4.372   1.897   3.571  0.1135 -0.0273 -0.8258
  177SAPE  H12Y20220   4.464   1.737   3.539 -0.9525 -0.4612 -0.1635
  177SAPE  C31320221   4.479   1.795   3.741  0.0418  0.0055  0.2899
  177SAPE  H13X20222   4.521   1.695   3.767  1.1608  0.4410  0.1758
  177SAPE  H13Y20223   4.404   1.827   3.817  0.5580  1.4509  0.2084
  177SAPE  C31420224   4.602   1.891   3.752  0.7299  0.0114  0.8691
  177SAPE  H14X20225   4.660   1.878   3.658  0.0467 -3.5641  0.8198
  177SAPE  H14Y20226   4.666   1.855   3.835  0.7159  3.3229  2.4842
  177SAPE  C31520227   4.554   2.037   3.760  0.5199  0.0043 -0.4382
  177SAPE  H15X20228   4.480   2.052   3.842  0.1808  0.1277 -0.7613
  177SAPE  H15Y20229   4.504   2.066   3.664 -0.0483  1.5864  0.3034
  177SAPE  C31620230   4.656   2.148   3.790 -0.1482 -0.0447  0.6563
  177SAPE  H16X20231   4.757   2.109   3.816 -0.6410  0.3218  3.4426
  177SAPE  H16Y20232   4.614   2.205   3.876 -0.8674 -0.0835  0.3360
  177SAPE  C31720233   4.674   2.243   3.671  0.1756  0.4072 -0.7147
  177SAPE  H17X20234   4.731   2.332   3.705  1.8807 -1.0755  0.4530
  177SAPE  H17Y20235   4.569   2.262   3.637  0.5393 -0.8710 -2.6863
  177SAPE  C31820236   4.730   2.169   3.547  0.4061 -0.6314  0.2549
  177SAPE  H18X20237   4.719   2.214   3.446  1.9379 -0.4836  0.1284
  177SAPE  H18Y20238   4.669   2.078   3.533  0.1291 -0.7901  2.2650
  177SAPE  H18Z20239   4.836   2.136   3.561  0.3739 -0.7666  0.1768
  178SAPE     N20240   3.490   5.752   1.958  0.1064 -0.1298 -0.5392
  178SAPE   HN120241   3.590   5.775   1.943  0.6463  0.3417  2.9934
  178SAPE   HN220242   3.486   5.675   1.888  1.0679 -3.2369  2.5444
  178SAPE   HN320243   3.430   5.829   1.924  0.1006 -0.6212 -1.6786
  178SAPE   C1220244   3.454   5.685   2.092  0.0793 -0.0722 -0.5359
  178SAPE  H12A20245   3.426   5.762   2.166 -0.5363  0.5461 -1.3914
  178SAPE  H12B20246   3.545   5.634   2.130  1.0971  0.9546 -1.4937
  178SAPE   C1120247   3.338   5.594   2.072  0.4592  0.4965  0.6694
  178SAPE  H11A20248   3.321   5.550   2.173  1.5655 -1.2261  0.1428
  178SAPE  H11B20249   3.359   5.511   2.001 -1.5245  2.4140 -2.4021
  178SAPE     P20250   3.113   5.613   1.923 -0.0682 -0.2423 -0.1888
  178SAPE   O1320251   3.033   5.726   1.883  0.4132 -0.4175 -0.1996
  178SAPE   O1420252   3.169   5.531   1.815 -0.7635 -0.3926 -0.0931
  178SAPE   O1220253   3.217   5.655   2.028 -0.5261  0.4295  0.3336
  178SAPE   O1120254   3.022   5.505   1.997 -0.0910 -0.6968 -0.0269
  178SAPE    C120255   2.949   5.543   2.114 -0.2602  0.6525 -0.3162
  178SAPE    HA20256   3.005   5.618   2.173 -0.3741 -0.9774  2.0244
  178SAPE    HB20257   2.847   5.574   2.082 -1.4312 -1.6128  0.8822
  178SAPE    C220258   2.929   5.415   2.212 -0.1926  0.3982  0.3629
  178SAPE    HS20259   2.887   5.331   2.153  0.1247  1.3997 -1.3753
  178SAPE   O2120260   2.849   5.465   2.318  0.2552 -0.1166 -0.3436
  178SAPE   C2120261   2.768   5.368   2.365  0.3786 -0.2567 -0.6773
  178SAPE   O2220262   2.762   5.258   2.310 -0.7492 -0.1754  0.7364
  178SAPE   C2220263   2.718   5.413   2.505  0.0266 -0.2563  0.5585
  178SAPE   H2R20264   2.807   5.402   2.571  0.8579  0.4572 -0.4189
  178SAPE   H2S20265   2.686   5.518   2.491 -0.9280 -0.5333  0.5374
  178SAPE    C320266   3.062   5.361   2.264  0.0691  0.1190 -0.7939
  178SAPE    HX20267   3.120   5.442   2.313 -3.9781  2.3087  0.8377
  178SAPE    HY20268   3.131   5.325   2.185  3.1331  1.3236  1.1571
  178SAPE   O3120269   3.039   5.253   2.370  0.6860  0.2790  0.4893
  178SAPE   C3120270   3.035   5.129   2.324 -0.0968 -0.5126 -0.1628
  178SAPE   O3220271   3.041   5.096   2.206  0.3298  0.6671  0.6918
  178SAPE   C3220272   3.033   5.024   2.437 -0.2942  0.3910  0.4350
  178SAPE   H2X20273   3.112   4.952   2.408  0.4625  1.9328 -1.5654
  178SAPE   H2Y20274   2.928   4.988   2.422 -0.6113  2.3546 -3.2751
  178SAPE   C2320275   2.598   5.336   2.549 -0.2018  0.5052  0.1263
  178SAPE   H3R20276   2.529   5.313   2.465  0.2020  1.2372 -0.4214
  178SAPE   H3S20277   2.537   5.396   2.619 -1.6970 -0.1654 -0.5596
  178SAPE   C2420278   2.640   5.207   2.619 -0.3208 -0.1902 -0.6225
  178SAPE   H4R20279   2.684   5.237   2.717 -2.9046  1.0466  0.2575
  178SAPE   H4S20280   2.725   5.159   2.567  1.7443 -0.9612  3.1241
  178SAPE   C2520281   2.528   5.112   2.650  0.8642  0.2162  0.4330
  178SAPE   H5R20282   2.467   5.083   2.563 -0.1647 -1.2923  1.6017
  178SAPE   C2620283   2.495   5.060   2.769  0.0206  0.1112 -0.7116
  178SAPE   H6R20284   2.408   4.995   2.755  0.8248 -0.8758 -1.2452
  178SAPE   C2720285   2.559   5.084   2.904 -0.1827  0.3535  1.0680
  178SAPE   H7R20286   2.486   5.143   2.963 -1.4654 -0.9819  0.8677
  178SAPE   H7S20287   2.649   5.148   2.891 -1.2284  1.5882 -0.5733
  178SAPE   C2820288   2.613   4.961   2.973  0.1225  0.0035 -0.0059
  178SAPE   H8R20289   2.655   4.886   2.904 -1.4314 -0.2301 -0.7462
  178SAPE   C2920290   2.623   4.944   3.101 -0.2200 -0.1449  0.1016
  178SAPE   H9R20291   2.666   4.851   3.141 -0.1638 -0.4669 -0.6881
  178SAPE  C21020292   2.581   5.045   3.201 -0.7395  0.0525 -0.0382
  178SAPE  H10R20293   2.484   5.086   3.165  0.1883  1.4058 -1.0828
  178SAPE  H10S20294   2.652   5.130   3.204 -0.4299 -0.1582 -1.0390
  178SAPE  C21120295   2.554   4.992   3.336 -0.5163  0.7658 -0.4013
  178SAPE  H11R20296   2.448   4.984   3.362 -0.1863 -0.4327  0.6861
  178SAPE  C21220297   2.650   4.947   3.421 -0.7220 -0.0368  0.0335
  178SAPE  H12R20298   2.616   4.915   3.521  0.6402 -0.7650  0.2903
  178SAPE  C21320299   2.800   4.964   3.399 -0.4292 -0.4552 -0.7863
  178SAPE  H13R20300   2.821   5.023   3.307  0.2057 -2.4632 -1.9975
  178SAPE  H13S20301   2.852   4.868   3.380  0.4787  0.1914 -1.7035
  178SAPE  C21420302   2.872   5.030   3.518  0.0494 -0.9712  0.0452
  178SAPE  H14R20303   2.889   5.138   3.512  1.1637 -1.0956  0.5757
  178SAPE  C21520304   2.930   4.968   3.625  0.9780  0.6118 -0.0681
  178SAPE  H15R20305   2.972   5.015   3.715 -0.1013 -2.1498  2.0250
  178SAPE  C21620306   2.945   4.817   3.651  0.8161 -0.8341  0.4629
  178SAPE  H16R20307   3.053   4.803   3.626  0.8063  1.1590 -0.9745
  178SAPE  H16S20308   2.889   4.754   3.579  1.6782  0.8438 -1.8312
  178SAPE  C21720309   2.899   4.776   3.790  0.9401  0.3179  0.3932
  178SAPE  H17R20310   2.948   4.837   3.869  0.1662  0.9079  0.4410
  178SAPE  H17S20311   2.934   4.675   3.817 -0.2475  0.4191  2.5461
  178SAPE  C21820312   2.747   4.786   3.801  0.0977 -0.3144  0.1627
  178SAPE  H18R20313   2.701   4.720   3.724 -2.9485 -0.2035  1.7243
  178SAPE  H18S20314   2.722   4.893   3.788  1.8798  0.1389  0.2505
  178SAPE  C21920315   2.693   4.734   3.934 -0.0773  0.0894  0.0788
  178SAPE  H19R20316   2.583   4.735   3.915  0.0982 -0.5728 -1.0340
  178SAPE  H19S20317   2.726   4.799   4.018  0.2139 -2.2359  1.8796
  178SAPE  C22020318   2.724   4.588   3.977  0.0450 -0.1036  0.0926
  178SAPE  H20R20319   2.680   4.511   3.910 -2.3400  0.3274  1.0711
  178SAPE  H20S20320   2.682   4.584   4.080 -1.7350 -0.5283 -0.6022
  178SAPE  H20T20321   2.833   4.571   3.991  0.2018 -0.1253 -1.0656
  178SAPE   C3320322   3.050   5.086   2.585  0.0962 -0.1707  0.8673
  178SAPE   H3X20323   2.974   5.166   2.597 -1.3249 -1.6552  2.3250
  178SAPE   H3Y20324   3.158   5.111   2.597  0.2113 -1.4364  3.0664
  178SAPE   C3420325   3.012   4.977   2.690  0.1617 -0.1344 -0.2120
  178SAPE   H4X20326   3.094   4.903   2.701  0.8913  0.7830  0.7077
  178SAPE   H4Y20327   2.922   4.927   2.649 -1.5139  0.7124  2.1702
  178SAPE   C3520328   2.972   5.034   2.827 -0.2142 -0.6868  0.2298
  178SAPE   H5X20329   2.879   5.094   2.814  0.1136 -0.2691 -0.2017
  178SAPE   H5Y20330   3.051   5.103   2.864 -0.8782 -1.3087  3.0577
  178SAPE   C3620331   2.952   4.937   2.942  0.2518 -0.2376 -0.6613
  178SAPE   H6X20332   2.885   4.854   2.910  1.1530 -1.3248  0.1670
  178SAPE   H6Y20333   2.905   4.989   3.028  1.5773  0.2059 -0.1882
  178SAPE   C3720334   3.079   4.868   2.992 -0.3051 -0.1081  0.7660
  178SAPE   H7X20335   3.150   4.940   3.038 -1.5957  2.3695 -0.8845
  178SAPE   H7Y20336   3.137   4.828   2.906  1.7997  0.2187  1.9536
  178SAPE   C3820337   3.047   4.759   3.100 -0.0876 -0.4188 -0.0147
  178SAPE   H8X20338   2.969   4.687   3.065 -1.1480  0.3605  0.6867
  178SAPE   H8Y20339   2.987   4.803   3.182  0.2213 -2.3938  1.3508
  178SAPE   C3920340   3.162   4.694   3.166  0.0215  0.5683  0.0884
  178SAPE   H9X20341   3.260   4.735   3.133  0.3800 -1.1574 -1.1403
  178SAPE   H9Y20342   3.159   4.590   3.126  2.7918 -0.9117  3.2678
  178SAPE  C31020343   3.148   4.701   3.323  0.2079  0.0151  0.4104
  178SAPE  H10X20344   3.041   4.711   3.349  0.6027  2.4642  1.4361
  178SAPE  H10Y20345   3.190   4.800   3.351  1.1195 -0.5633  1.1584
  178SAPE  C31120346   3.213   4.586   3.401 -0.6428  0.1231 -0.2369
  178SAPE  H11X20347   3.314   4.573   3.359 -1.9053 -1.0926 -3.1695
  178SAPE  H11Y20348   3.154   4.495   3.377  0.2730 -0.7293  0.6304
  178SAPE  C31220349   3.199   4.585   3.557  0.3797 -0.0262  0.6867
  178SAPE  H12X20350   3.090   4.591   3.576  0.4907  0.8043  1.1169
  178SAPE  H12Y20351   3.254   4.676   3.591  0.5329 -0.0226  0.4297
  178SAPE  C31320352   3.257   4.458   3.621 -0.2543 -0.2417  0.1682
  178SAPE  H13X20353   3.202   4.363   3.601  2.4629 -1.3275 -3.0629
  178SAPE  H13Y20354   3.240   4.469   3.730 -2.3392  0.1456 -0.1629
  178SAPE  C31420355   3.400   4.428   3.586  0.3201 -0.3878  0.0795
  178SAPE  H14X20356   3.450   4.526   3.599  1.6149 -1.1109  0.8489
  178SAPE  H14Y20357   3.391   4.395   3.481 -2.3330  2.0787 -0.5682
  178SAPE  C31520358   3.459   4.309   3.664  0.1332  0.1882  0.3065
  178SAPE  H15X20359   3.382   4.231   3.645  1.2432 -0.9381  0.3099
  178SAPE  H15Y20360   3.456   4.327   3.773  2.6073  1.7966  0.1889
  178SAPE  C31620361   3.603   4.278   3.627  0.0983  0.0035  0.0950
  178SAPE  H16X20362   3.674   4.363   3.630  0.8032 -0.5238 -0.8939
  178SAPE  H16Y20363   3.604   4.256   3.518  1.4767 -0.7077  0.2233
  178SAPE  C31720364   3.653   4.150   3.692  0.1975  0.1524 -0.7120
  178SAPE  H17X20365   3.739   4.111   3.633 -1.0304  0.7346 -3.0125
  178SAPE  H17Y20366   3.571   4.078   3.712  1.7490 -1.0594  1.7461
  178SAPE  C31820367   3.707   4.181   3.828  0.1274 -0.3035  1.2214
  178SAPE  H18X20368   3.742   4.093   3.885 -1.1707 -2.2195 -0.8040
  178SAPE  H18Y20369   3.626   4.227   3.889  0.9595 -2.3193  4.0556
  178SAPE  H18Z20370   3.785   4.260   3.820  0.8243 -1.0660  0.4365
  179SAPE     N20371   3.034   2.635   1.785 -0.6423  0.0308  0.4450
  179SAPE   HN120372   3.052   2.692   1.700 -0.6556 -2.6274 -1.4825
  179SAPE   HN220373   3.037   2.696   1.869  1.0822  2.2167 -1.0731
  179SAPE   HN320374   3.107   2.564   1.806 -2.2484 -0.3927  6.3857
  179SAPE   C1220375   2.895   2.584   1.782 -0.0941  1.1049  0.6100
  179SAPE  H12A20376   2.889   2.504   1.705 -0.9239  1.0619  0.7084
  179SAPE  H12B20377   2.835   2.669   1.743  0.8014  1.2631 -0.4929
  179SAPE   C1120378   2.841   2.552   1.920 -0.1759  0.1523 -0.3784
  179SAPE  H11A20379   2.734   2.522   1.919 -0.5106  0.9264  2.4932
  179SAPE  H11B20380   2.854   2.642   1.984 -1.3338  0.1347 -0.0983
  179SAPE     P20381   2.867   2.299   1.969 -0.3555 -0.4968 -0.0059
  179SAPE   O1320382   2.749   2.291   2.060 -0.1309 -0.0275  0.4640
  179SAPE   O1420383   2.843   2.263   1.825 -0.4033  0.7077  0.4490
  179SAPE   O1220384   2.918   2.450   1.988 -0.2104  0.0823 -0.2794
  179SAPE   O1120385   2.988   2.218   2.024 -0.3024 -0.0239 -0.5814
  179SAPE    C120386   3.039   2.239   2.158 -0.1377 -0.1492 -0.1290
  179SAPE    HA20387   3.138   2.289   2.149 -0.3202  0.0204 -1.3911
  179SAPE    HB20388   2.975   2.290   2.234  0.6879 -0.5555  0.8510
  179SAPE    C220389   3.067   2.097   2.224  0.3339 -0.5167 -0.7497
  179SAPE    HS20390   3.131   2.049   2.147 -0.2889 -1.9690 -0.3969
  179SAPE   O2120391   2.949   2.023   2.252 -0.7871 -0.2005  0.4300
  179SAPE   C2120392   2.963   1.901   2.279  0.6548  0.5945 -0.1244
  179SAPE   O2220393   3.053   1.833   2.237 -0.2247 -0.1328 -0.2437
  179SAPE   C2220394   2.834   1.856   2.338  0.7385  0.6882  0.3916
  179SAPE   H2R20395   2.753   1.881   2.267 -0.9337  1.5115  2.4564
  179SAPE   H2S20396   2.836   1.746   2.356  0.1305  0.6445  0.2172
  179SAPE    C320397   3.148   2.108   2.362 -0.0578 -1.0650 -0.2090
  179SAPE    HX20398   3.249   2.152   2.352  0.2613 -1.6968  0.1834
  179SAPE    HY20399   3.181   2.005   2.384  1.1097 -1.4012 -3.1439
  179SAPE   O3120400   3.070   2.172   2.474  0.0050 -0.1046 -0.5125
  179SAPE   C3120401   3.112   2.289   2.511  0.0066  0.3574  0.0220
  179SAPE   O3220402   3.205   2.354   2.460  0.0308  0.4491  0.0413
  179SAPE   C3220403   3.021   2.331   2.630  0.5252 -0.1075 -0.1049
  179SAPE   H2X20404   2.920   2.283   2.629  0.3683  0.2091  0.3172
  179SAPE   H2Y20405   3.013   2.442   2.626 -0.1162 -0.1653 -0.6690
  179SAPE   C2320406   2.795   1.921   2.473  0.2135  0.5373 -0.5975
  179SAPE   H3R20407   2.739   2.015   2.456  1.8867  1.7920  0.4672
  179SAPE   H3S20408   2.887   1.946   2.531 -0.6813  1.0172  0.6445
  179SAPE   C2420409   2.711   1.838   2.574 -0.0252  0.2932 -1.0854
  179SAPE   H4R20410   2.716   1.893   2.670  0.8302 -0.0749 -0.9057
  179SAPE   H4S20411   2.759   1.741   2.597 -1.6628 -1.1049 -3.1797
  179SAPE   C2520412   2.567   1.804   2.529 -0.0563 -0.2374 -0.1952
  179SAPE   H5R20413   2.561   1.712   2.468 -0.7301 -1.9583  2.3045
  179SAPE   C2620414   2.453   1.869   2.567  0.2853  0.8089  1.5564
  179SAPE   H6R20415   2.365   1.842   2.507  2.6690  1.5926 -2.7545
  179SAPE   C2720416   2.442   1.995   2.650 -0.1877  0.1079  0.0157
  179SAPE   H7R20417   2.359   2.056   2.607 -0.6878 -0.1830  0.5451
  179SAPE   H7S20418   2.531   2.060   2.640 -0.2665 -0.0816 -2.3886
  179SAPE   C2820419   2.418   1.972   2.800 -0.2567  0.1478  0.1515
  179SAPE   H8R20420   2.328   1.912   2.823  0.8472 -2.5823 -2.0893
  179SAPE   C2920421   2.495   2.019   2.902  0.2781  0.2320  0.5602
  179SAPE   H9R20422   2.457   2.002   3.004 -0.9437 -0.6262 -0.0006
  179SAPE  C21020423   2.623   2.097   2.898 -0.2348  0.1502  0.9921
  179SAPE  H10R20424   2.697   2.052   2.827 -1.2447 -0.2005  0.1303
  179SAPE  H10S20425   2.677   2.082   2.994  2.0055 -1.2543 -0.3690
  179SAPE  C21120426   2.610   2.241   2.861 -0.4194  0.0319  0.1296
  179SAPE  H11R20427   2.627   2.258   2.754  1.4567  0.3706  0.4454
  179SAPE  C21220428   2.576   2.342   2.947  0.0395  0.4483 -0.3122
  179SAPE  H12R20429   2.559   2.443   2.906  1.5347  0.2767 -1.4559
  179SAPE  C21320430   2.561   2.333   3.098  0.0155  0.4988 -0.1629
  179SAPE  H13R20431   2.649   2.373   3.153  0.6861 -0.8515 -0.2203
  179SAPE  H13S20432   2.548   2.226   3.125 -0.1788  0.2091 -1.3688
  179SAPE  C21420433   2.447   2.414   3.139  0.0576 -0.3156  0.1224
  179SAPE  H14R20434   2.469   2.521   3.130  0.6876 -0.2880  1.7132
  179SAPE  C21520435   2.327   2.361   3.189 -0.1101  0.2436  0.0515
  179SAPE  H15R20436   2.247   2.428   3.225  0.2945  1.1955 -0.7427
  179SAPE  C21620437   2.295   2.222   3.207  0.1874  0.2994 -0.1650
  179SAPE  H16R20438   2.342   2.160   3.128 -1.3993 -0.7617 -0.3449
  179SAPE  H16S20439   2.186   2.201   3.203  0.5741 -1.9767 -0.1325
  179SAPE  C21720440   2.333   2.185   3.351 -0.0003 -0.3544 -1.3059
  179SAPE  H17R20441   2.443   2.185   3.371  0.0023 -0.2086 -1.3237
  179SAPE  H17S20442   2.308   2.077   3.343  1.2203 -0.6442 -1.3701
  179SAPE  C21820443   2.239   2.245   3.461 -0.1648 -0.3754 -0.0514
  179SAPE  H18R20444   2.138   2.212   3.429 -0.7442  1.6860 -0.4643
  179SAPE  H18S20445   2.229   2.355   3.455 -1.7555 -0.5600 -1.4173
  179SAPE  C21920446   2.280   2.196   3.607  0.0173 -0.1481  0.0044
  179SAPE  H19R20447   2.389   2.215   3.615 -0.3247  2.2325 -0.2185
  179SAPE  H19S20448   2.263   2.086   3.597  0.0945 -0.0702 -1.2660
  179SAPE  C22020449   2.192   2.257   3.714 -0.0773  0.3991  0.1925
  179SAPE  H20R20450   2.181   2.367   3.714  0.2686  0.4700 -1.6567
  179SAPE  H20S20451   2.231   2.218   3.811  2.1845 -0.0987 -0.8516
  179SAPE  H20T20452   2.092   2.209   3.709 -0.4191  1.0492  0.7175
  179SAPE   C3320453   3.094   2.305   2.764  0.7693 -0.5630  0.3498
  179SAPE   H3X20454   3.168   2.387   2.771  0.1275  0.4265 -2.7111
  179SAPE   H3Y20455   3.144   2.206   2.766  2.9574  0.2348 -3.6379
  179SAPE   C3420456   2.996   2.313   2.881 -0.2552  0.3028 -0.3918
  179SAPE   H4X20457   2.900   2.262   2.859 -0.1199 -0.5251  0.8657
  179SAPE   H4Y20458   2.971   2.421   2.889 -0.3848  0.2393  0.0363
  179SAPE   C3520459   3.057   2.254   3.006  0.5972 -0.3741  0.3544
  179SAPE   H5X20460   3.148   2.310   3.032  0.0378  0.0080  1.5342
  179SAPE   H5Y20461   3.096   2.153   2.979  0.9781 -0.1237 -0.0459
  179SAPE   C3620462   2.951   2.264   3.127 -0.9082  0.3650  0.7647
  179SAPE   H6X20463   2.877   2.181   3.116 -1.0604  0.3216  2.0413
  179SAPE   H6Y20464   2.882   2.347   3.097 -3.0097 -1.5544 -0.0217
  179SAPE   C3720465   3.003   2.246   3.265  0.2695 -0.4459  0.5135
  179SAPE   H7X20466   2.916   2.235   3.333 -2.2087  0.2499 -2.3342
  179SAPE   H7Y20467   3.057   2.339   3.293 -1.5205  1.1391 -0.9728
  179SAPE   C3820468   3.093   2.128   3.273  0.1341 -0.7859  1.4089
  179SAPE   H8X20469   3.180   2.136   3.205 -1.5578  1.3487 -0.6918
  179SAPE   H8Y20470   3.042   2.033   3.246 -1.3449  0.6475 -1.1940
  179SAPE   C3920471   3.151   2.118   3.414  0.6563 -0.0862  0.0316
  179SAPE   H9X20472   3.210   2.023   3.418 -0.0189 -0.4919  0.5974
  179SAPE   H9Y20473   3.061   2.106   3.478  0.7656  0.5659  0.3098
  179SAPE  C31020474   3.237   2.238   3.455 -0.0484 -0.1658  0.9959
  179SAPE  H10X20475   3.180   2.332   3.472  2.1982  1.6841 -0.9459
  179SAPE  H10Y20476   3.324   2.243   3.386 -1.1764  1.4753 -0.4094
  179SAPE  C31120477   3.286   2.208   3.600  0.0641  0.9171  0.3301
  179SAPE  H11X20478   3.329   2.111   3.631  1.2800  1.0661 -0.7828
  179SAPE  H11Y20479   3.199   2.234   3.663  0.1813  1.3694  0.3116
  179SAPE  C31220480   3.384   2.312   3.650  0.5100 -0.1381  0.5889
  179SAPE  H12X20481   3.328   2.402   3.614  0.6677  0.4979  1.8978
  179SAPE  H12Y20482   3.479   2.306   3.593  0.8437 -0.2879  1.1543
  179SAPE  C31320483   3.401   2.321   3.797 -0.0704 -0.5294 -0.4272
  179SAPE  H13X20484   3.452   2.228   3.829  1.4527  0.1560 -0.7389
  179SAPE  H13Y20485   3.304   2.335   3.849  0.7562 -0.4746  1.1602
  179SAPE  C31420486   3.492   2.434   3.840  0.1032  0.1757 -0.2173
  179SAPE  H14X20487   3.467   2.533   3.796  1.9500  0.3717 -0.9119
  179SAPE  H14Y20488   3.597   2.427   3.804  0.5741  0.1514  1.1092
  179SAPE  C31520489   3.516   2.436   3.997 -0.3647  0.4866 -0.0141
  179SAPE  H15X20490   3.577   2.527   4.014  1.2674 -0.6013  0.2448
  179SAPE  H15Y20491   3.582   2.352   4.029 -0.2111  0.2794 -0.8440
  179SAPE  C31620492   3.387   2.439   4.084  0.2062  0.8165  0.4645
  179SAPE  H16X20493   3.350   2.334   4.087 -3.7776  2.0747  1.5682
  179SAPE  H16Y20494   3.306   2.504   4.044 -0.5430 -1.6226 -2.2360
  179SAPE  C31720495   3.409   2.479   4.234  0.2879 -0.7410 -0.2426
  179SAPE  H17X20496   3.310   2.491   4.281 -0.3431 -3.8647 -0.5882
  179SAPE  H17Y20497   3.460   2.578   4.239 -1.7136  0.4222 -1.6119
  179SAPE  C31820498   3.480   2.368   4.307  0.6874  0.0183 -0.1925
  179SAPE  H18X20499   3.420   2.275   4.298  2.4185 -0.9798 -2.4761
  179SAPE  H18Y20500   3.493   2.395   4.414 -2.0515 -0.1587  0.2516
  179SAPE  H18Z20501   3.578   2.346   4.260  1.1307 -1.5650  1.3596
  180SAPE     N20502   3.470   1.782   1.954 -0.3743 -0.4144 -0.1140
  180SAPE   HN120503   3.369   1.799   1.971 -1.1133 -1.5483 -2.8317
  180SAPE   HN220504   3.500   1.707   2.019 -1.7352 -0.4550  0.4937
  180SAPE   HN320505   3.526   1.867   1.975  0.9290 -0.4940 -2.7669
  180SAPE   C1220506   3.486   1.733   1.816 -0.3709  0.3541 -0.1358
  180SAPE  H12A20507   3.593   1.704   1.804  0.0722  1.1763  1.5318
  180SAPE  H12B20508   3.455   1.821   1.756 -2.7998  0.1705  0.7524
  180SAPE   C1120509   3.399   1.610   1.797  1.3023  0.1804  0.1598
  180SAPE  H11A20510   3.390   1.581   1.690  0.0344 -0.2284  0.3633
  180SAPE  H11B20511   3.293   1.641   1.809  1.1855  0.1367 -0.6700
  180SAPE     P20512   3.356   1.356   1.851  0.0134 -0.1939 -0.2191
  180SAPE   O1320513   3.210   1.380   1.832 -0.4817 -0.6874 -0.3550
  180SAPE   O1420514   3.422   1.273   1.751  0.1805  0.0146 -0.1666
  180SAPE   O1220515   3.433   1.496   1.875 -0.2931 -0.0676 -0.1056
  180SAPE   O1120516   3.374   1.281   1.988  0.0368  0.2895 -0.1086
  180SAPE    C120517   3.356   1.351   2.113 -0.1248  0.0674  0.5311
  180SAPE    HA20518   3.446   1.412   2.134  1.0334 -0.6943 -1.8668
  180SAPE    HB20519   3.277   1.429   2.109  0.7877  0.9471 -1.1723
  180SAPE    C220520   3.326   1.246   2.221 -0.4564 -0.3736  0.0295
  180SAPE    HS20521   3.407   1.170   2.212  0.0334  0.1847 -0.3398
  180SAPE   O2120522   3.205   1.186   2.191 -0.7280  0.4777  0.3369
  180SAPE   C2120523   3.183   1.063   2.245  0.4061 -0.0072 -0.0598
  180SAPE   O2220524   3.268   1.005   2.304 -0.3187 -0.1465 -0.1167
  180SAPE   C2220525   3.044   1.008   2.209 -0.6380  0.1482  0.0073
  180SAPE   H2R20526   3.032   1.003   2.099  0.5914  0.1123 -0.1418
  180SAPE   H2S20527   3.049   0.900   2.231  0.9654 -0.2151 -1.8490
  180SAPE    C320528   3.336   1.312   2.361  0.2958  0.0072  0.3282
  180SAPE    HX20529   3.438   1.349   2.380  0.1221  0.5665  0.1831
  180SAPE    HY20530   3.315   1.238   2.441  2.2560 -1.6103 -0.5658
  180SAPE   O3120531   3.248   1.429   2.372  0.0066  0.2135  0.5687
  180SAPE   C3120532   3.164   1.438   2.466 -0.2349 -0.6805 -0.4935
  180SAPE   O3220533   3.141   1.359   2.557 -0.6667  0.5018 -0.0520
  180SAPE   C3220534   3.101   1.578   2.465  0.6221 -0.3124 -0.5866
  180SAPE   H2X20535   2.992   1.560   2.468  0.6880 -0.9561 -1.5135
  180SAPE   H2Y20536   3.120   1.634   2.371 -0.9849  1.4531  0.0891
  180SAPE   C2320537   2.934   1.094   2.272 -0.6245 -0.3635 -0.4243
  180SAPE   H3R20538   2.841   1.058   2.222 -0.6026 -1.0090 -0.0174
  180SAPE   H3S20539   2.944   1.201   2.243 -1.1802 -0.5508 -1.3603
  180SAPE   C2420540   2.922   1.096   2.426 -0.0370  0.2618 -0.1739
  180SAPE   H4R20541   2.838   1.155   2.468 -1.2594 -3.0301  2.4980
  180SAPE   H4S20542   3.022   1.130   2.459  0.4073 -0.8065 -0.3647
  180SAPE   C2520543   2.916   0.957   2.494  0.1277  0.3205 -0.0952
  180SAPE   H5R20544   2.853   0.881   2.446  1.6332 -1.9968  1.4265
  180SAPE   C2620545   2.992   0.922   2.595 -0.1753 -0.1754  0.0024
  180SAPE   H6R20546   2.993   0.823   2.644  4.3951 -0.1364  0.3943
  180SAPE   C2720547   3.087   1.020   2.671  0.4880  0.6254 -0.0028
  180SAPE   H7R20548   3.037   1.118   2.687  2.7913  1.6163  1.5742
  180SAPE   H7S20549   3.178   1.039   2.612  2.7209 -0.2251  2.9123
  180SAPE   C2820550   3.125   0.948   2.805 -0.6768  0.0605  0.4436
  180SAPE   H8R20551   3.194   0.863   2.791 -0.5875  0.5946 -3.3943
  180SAPE   C2920552   3.097   0.986   2.927  0.2557  0.0531 -0.2222
  180SAPE   H9R20553   3.130   0.918   3.008  0.0749  0.2202 -0.0078
  180SAPE  C21020554   3.011   1.101   2.972 -0.0883  0.0361  0.0487
  180SAPE  H10R20555   2.973   1.086   3.075  0.7235  1.3456  0.5563
  180SAPE  H10S20556   2.923   1.100   2.903  0.2653  2.0579 -0.4874
  180SAPE  C21120557   3.079   1.238   2.961 -0.6806 -0.8563 -0.2978
  180SAPE  H11R20558   3.046   1.306   2.881  0.9401  1.0215  0.5214
  180SAPE  C21220559   3.149   1.299   3.059 -0.6592 -0.5128  0.1587
  180SAPE  H12R20560   3.185   1.400   3.034 -0.4091  0.0937  2.7009
  180SAPE  C21320561   3.182   1.250   3.197 -0.3391  0.0593  0.3401
  180SAPE  H13R20562   3.293   1.241   3.196 -0.2307  1.1625  0.9479
  180SAPE  H13S20563   3.144   1.147   3.214  1.6497 -0.5367  1.6146
  180SAPE  C21420564   3.140   1.349   3.309  0.3326 -0.5693  0.0889
  180SAPE  H14R20565   3.069   1.425   3.273  0.3912 -1.3265 -1.7224
  180SAPE  C21520566   3.156   1.322   3.444 -0.2709 -1.0805  0.5758
  180SAPE  H15R20567   3.114   1.394   3.516  2.1778  0.7003  0.3321
  180SAPE  C21620568   3.208   1.191   3.500  0.3270  0.2722  0.8111
  180SAPE  H16R20569   3.303   1.208   3.555  0.3522  0.2685  0.7692
  180SAPE  H16S20570   3.242   1.130   3.414 -1.4235 -1.1143  1.0457
  180SAPE  C21720571   3.104   1.117   3.590  0.0610  0.5324  0.1196
  180SAPE  H17R20572   3.011   1.110   3.531 -1.4532 -1.5729  2.5269
  180SAPE  H17S20573   3.091   1.185   3.676  1.9421  2.4204 -0.9722
  180SAPE  C21820574   3.161   0.991   3.656 -0.0296  0.6061 -0.0878
  180SAPE  H18R20575   3.225   1.011   3.745 -0.7647  0.8428  0.3944
  180SAPE  H18S20576   3.225   0.933   3.586 -0.0642  1.7548 -1.1020
  180SAPE  C21920577   3.052   0.900   3.710 -0.1634 -0.6167  0.1496
  180SAPE  H19R20578   3.098   0.820   3.772 -1.1566 -1.2278  0.1360
  180SAPE  H19S20579   2.997   0.848   3.629 -1.3104 -1.3897  1.3707
  180SAPE  C22020580   2.956   0.982   3.795 -0.5960  0.3259 -0.8351
  180SAPE  H20R20581   2.993   1.042   3.881 -0.2351  0.5378 -1.1329
  180SAPE  H20S20582   2.869   0.917   3.817 -0.7490  0.1592 -1.8743
  180SAPE  H20T20583   2.918   1.069   3.737 -1.1250  0.9106  0.3616
  180SAPE   C3320584   3.153   1.670   2.584 -0.1959 -0.1560  0.8797
  180SAPE   H3X20585   3.140   1.772   2.541  1.9176  0.1507  0.8651
  180SAPE   H3Y20586   3.263   1.657   2.595 -0.2439 -0.4884  0.9733
  180SAPE   C3420587   3.081   1.658   2.718 -0.3218  0.3310  0.5951
  180SAPE   H4X20588   3.110   1.562   2.765 -2.1293  0.1252  1.3437
  180SAPE   H4Y20589   2.970   1.660   2.723 -0.3202  0.9210  0.4652
  180SAPE   C3520590   3.116   1.777   2.808 -0.4395  0.0199 -0.2827
  180SAPE   H5X20591   3.071   1.756   2.907 -2.4367 -0.6117 -1.2595
  180SAPE   H5Y20592   3.075   1.868   2.758  1.3511  1.5875  0.9774
  180SAPE   C3620593   3.269   1.801   2.819  0.3090 -0.0542 -0.7699
  180SAPE   H6X20594   3.292   1.867   2.732  0.7377  1.1541  0.2353
  180SAPE   H6Y20595   3.316   1.700   2.817 -0.7814 -0.5713 -1.6813
  180SAPE   C3720596   3.307   1.872   2.952 -0.3797 -0.0798  0.1781
  180SAPE   H7X20597   3.257   1.971   2.951 -1.1102 -0.2887 -3.8401
  180SAPE   H7Y20598   3.415   1.895   2.937 -0.1609 -2.3652 -2.7371
  180SAPE   C3820599   3.324   1.787   3.082 -0.1230  0.0140  0.8745
  180SAPE   H8X20600   3.400   1.839   3.144 -2.0443  4.1177  0.1057
  180SAPE   H8Y20601   3.367   1.688   3.054  2.8141  1.1346  1.1047
  180SAPE   C3920602   3.203   1.778   3.170 -0.1452  0.0036 -0.3373
  180SAPE   H9X20603   3.121   1.722   3.121  0.2802 -2.8162  1.8923
  180SAPE   H9Y20604   3.159   1.879   3.185  1.2095  0.2135  3.0370
  180SAPE  C31020605   3.223   1.717   3.306 -0.6908 -0.1008 -0.2109
  180SAPE  H10X20606   3.295   1.784   3.358 -1.4811 -0.6327  1.6421
  180SAPE  H10Y20607   3.272   1.617   3.297 -1.8844 -0.8242  1.0202
  180SAPE  C31120608   3.091   1.731   3.387  0.2818 -0.0825  0.1302
  180SAPE  H11X20609   3.015   1.660   3.347  1.5783 -1.2194 -0.3805
  180SAPE  H11Y20610   3.049   1.834   3.379  1.0148  0.2025 -0.1590
  180SAPE  C31220611   3.118   1.677   3.527  0.5115  0.8611 -0.1720
  180SAPE  H12X20612   3.219   1.629   3.524  0.6882  1.2703 -0.7956
  180SAPE  H12Y20613   3.032   1.613   3.557 -0.6910  2.4411 -0.1696
  180SAPE  C31320614   3.123   1.793   3.627  0.0118  0.5617 -0.4195
  180SAPE  H13X20615   3.028   1.849   3.639  0.0617  0.2479  1.9575
  180SAPE  H13Y20616   3.182   1.860   3.562 -0.0624 -1.5235 -2.8221
  180SAPE  C31420617   3.175   1.744   3.757 -0.6546 -0.4771 -0.3534
  180SAPE  H14X20618   3.270   1.686   3.746 -1.7768 -2.4948  0.0722
  180SAPE  H14Y20619   3.110   1.674   3.814  0.1749 -1.5007 -0.6215
  180SAPE  C31520620   3.201   1.870   3.847 -0.6233 -0.0479 -0.4409
  180SAPE  H15X20621   3.105   1.915   3.880 -0.8287 -0.5610 -0.3321
  180SAPE  H15Y20622   3.259   1.934   3.777  3.6260 -1.5721  1.3513
  180SAPE  C31620623   3.294   1.844   3.965  0.5988  0.7473 -0.0748
  180SAPE  H16X20624   3.378   1.785   3.924  1.0349  1.0216  0.4094
  180SAPE  H16Y20625   3.244   1.780   4.042  1.3653  1.7251  1.2919
  180SAPE  C31720626   3.354   1.978   4.010  0.1131 -0.2946  0.0329
  180SAPE  H17X20627   3.270   2.047   4.035  0.4386  0.4312 -0.7965
  180SAPE  H17Y20628   3.402   2.021   3.920  3.2848 -1.1094  1.2194
  180SAPE  C31820629   3.448   1.968   4.131  0.6032  0.1985  0.4417
  180SAPE  H18X20630   3.518   2.053   4.149  2.8428 -1.8711  2.1918
  180SAPE  H18Y20631   3.505   1.873   4.138  1.7346  0.9082  1.3283
  180SAPE  H18Z20632   3.391   1.973   4.226  1.8917 -1.0740  1.3371
  181SAPE     N20633   5.404   1.649   1.807  0.4746  0.1234  0.4172
  181SAPE   HN120634   5.463   1.575   1.761 -0.5084  0.1021 -0.8685
  181SAPE   HN220635   5.306   1.615   1.815  1.1915 -2.6386 -1.0195
  181SAPE   HN320636   5.404   1.731   1.743 -0.6622  0.6366  1.0467
  181SAPE   C1220637   5.449   1.677   1.939 -0.2999 -0.5112  0.0969
  181SAPE  H12A20638   5.458   1.573   1.979 -1.6205 -0.3786  0.7859
  181SAPE  H12B20639   5.372   1.729   2.000  2.5659  1.5747  2.2744
  181SAPE   C1120640   5.575   1.762   1.938 -0.0027 -0.1894 -0.9527
  181SAPE  H11A20641   5.665   1.706   1.902 -0.0415 -2.2547  1.8390
  181SAPE  H11B20642   5.590   1.780   2.046 -0.7047  1.4113 -1.0888
  181SAPE     P20643   5.547   2.036   1.914 -0.3112  0.1162  0.3517
  181SAPE   O1320644   5.650   2.116   1.850  0.0019 -0.1448  0.6223
  181SAPE   O1420645   5.405   2.083   1.895  0.2422 -0.4227  0.7158
  181SAPE   O1220646   5.565   1.888   1.873 -0.4386  0.4121 -0.0400
  181SAPE   O1120647   5.588   2.028   2.064 -0.0691  0.1219 -0.0581
  181SAPE    C120648   5.556   2.131   2.159  0.5618  1.2050  0.6224
  181SAPE    HA20649   5.628   2.134   2.243  0.2949 -0.2023  0.9248
  181SAPE    HB20650   5.560   2.233   2.114 -1.8532  1.5184  0.9616
  181SAPE    C220651   5.416   2.118   2.225 -0.7418  0.9371  0.2099
  181SAPE    HS20652   5.348   2.130   2.139 -1.5675 -0.4522  0.6454
  181SAPE   O2120653   5.404   2.223   2.324  0.1763 -0.5410  0.1436
  181SAPE   C2120654   5.284   2.259   2.343  0.2657 -0.4509  0.0466
  181SAPE   O2220655   5.186   2.218   2.286  0.5108 -0.1694  0.0970
  181SAPE   C2220656   5.298   2.369   2.451 -0.1077 -0.3162  0.2073
  181SAPE   H2R20657   5.237   2.340   2.539  0.4684  0.3891  0.8554
  181SAPE   H2S20658   5.406   2.379   2.476  0.1620 -0.1963 -0.9104
  181SAPE    C320659   5.386   1.972   2.276 -1.2436  0.1810  0.3831
  181SAPE    HX20660   5.409   1.908   2.189 -1.4648  0.4617  0.1186
  181SAPE    HY20661   5.279   1.969   2.305 -1.5777  0.9122 -0.7421
  181SAPE   O3120662   5.475   1.942   2.385 -0.4104 -0.3661 -0.3820
  181SAPE   C3120663   5.479   1.818   2.439 -0.6296  0.0943 -0.7806
  181SAPE   O3220664   5.422   1.722   2.393 -0.3981 -0.4522 -0.0952
  181SAPE   C3220665   5.570   1.823   2.559  0.4803  0.2592 -0.4401
  181SAPE   H2X20666   5.608   1.927   2.571  1.0777  0.1231 -1.0632
  181SAPE   H2Y20667   5.663   1.766   2.537  0.6536 -1.0691  3.0768
  181SAPE   C2320668   5.248   2.508   2.408  0.4344  0.3495 -0.0457
  181SAPE   H3R20669   5.143   2.498   2.374  0.2287 -0.1150  0.7020
  181SAPE   H3S20670   5.311   2.538   2.322  0.3318 -1.0450 -0.6346
  181SAPE   C2420671   5.235   2.601   2.524  0.8160  0.6246 -0.2927
  181SAPE   H4R20672   5.225   2.700   2.476 -1.6346  0.4490 -0.2697
  181SAPE   H4S20673   5.327   2.585   2.585 -1.0476 -0.2121  2.5147
  181SAPE   C2520674   5.117   2.592   2.614  0.3133  0.2846  0.7677
  181SAPE   H5R20675   5.028   2.634   2.566  0.6571  2.5921  2.0225
  181SAPE   C2620676   5.128   2.570   2.749  0.2824 -0.1689  0.5574
  181SAPE   H6R20677   5.038   2.592   2.808 -0.1505  1.7247 -0.7154
  181SAPE   C2720678   5.251   2.535   2.822 -0.2476 -0.2808 -0.2957
  181SAPE   H7R20679   5.316   2.479   2.751  2.9166  0.8584  1.5147
  181SAPE   H7S20680   5.231   2.461   2.902  0.2261  0.1131  0.1862
  181SAPE   C2820681   5.335   2.641   2.870  0.1037  0.0509  0.4213
  181SAPE   H8R20682   5.329   2.728   2.803  1.1112  0.3352  0.6812
  181SAPE   C2920683   5.402   2.652   2.986 -0.1314 -0.4684  0.2251
  181SAPE   H9R20684   5.461   2.743   3.004 -1.2644  0.4971 -0.8261
  181SAPE  C21020685   5.406   2.551   3.100  0.4268  0.0586 -0.4901
  181SAPE  H10R20686   5.342   2.460   3.102 -2.1597  1.7608 -1.3077
  181SAPE  H10S20687   5.374   2.608   3.190  1.5135 -1.0520  0.6482
  181SAPE  C21120688   5.547   2.504   3.138 -0.5205  0.0480  0.8853
  181SAPE  H11R20689   5.621   2.528   3.061  1.3228  1.4178  2.9857
  181SAPE  C21220690   5.592   2.456   3.258  0.7042 -0.6710  0.7394
  181SAPE  H12R20691   5.701   2.446   3.265  1.0988  0.1777 -2.4752
  181SAPE  C21320692   5.503   2.438   3.378  0.6589  0.5726  0.0074
  181SAPE  H13R20693   5.409   2.382   3.359  1.9865 -1.1377 -1.9602
  181SAPE  H13S20694   5.472   2.538   3.416 -0.6613  0.1842 -0.0185
  181SAPE  C21420695   5.573   2.367   3.484 -0.4051 -0.1040 -0.0361
  181SAPE  H14R20696   5.545   2.264   3.511  0.6971 -0.1418  1.0552
  181SAPE  C21520697   5.664   2.430   3.566  0.6070 -0.8898 -0.2699
  181SAPE  H15R20698   5.720   2.379   3.646  2.2489  2.3189  0.7674
  181SAPE  C21620699   5.713   2.572   3.568 -0.3311  0.2544  0.8447
  181SAPE  H16R20700   5.651   2.655   3.528 -1.4287  1.1675  4.1782
  181SAPE  H16S20701   5.799   2.574   3.497 -0.9695 -0.6825  0.0103
  181SAPE  C21720702   5.751   2.613   3.713 -0.5312 -0.5328 -0.0845
  181SAPE  H17R20703   5.847   2.571   3.748 -1.6332 -0.3326  3.5674
  181SAPE  H17S20704   5.667   2.577   3.776  0.8654 -1.2128  1.4659
  181SAPE  C21820705   5.764   2.766   3.732 -0.0590  0.8737 -0.4364
  181SAPE  H18R20706   5.664   2.815   3.730 -0.2911  0.3810 -1.9205
  181SAPE  H18S20707   5.827   2.817   3.657  1.0955  0.8078  0.4604
  181SAPE  C21920708   5.829   2.799   3.866  0.7194  0.1934  0.1520
  181SAPE  H19R20709   5.931   2.755   3.875  1.8069  2.5878  0.2488
  181SAPE  H19S20710   5.773   2.758   3.952 -2.7482  0.9799 -1.5669
  181SAPE  C22020711   5.846   2.948   3.895  0.5930 -0.3426  0.8035
  181SAPE  H20R20712   5.746   2.995   3.900  0.5254 -0.3540 -0.2069
  181SAPE  H20S20713   5.911   3.001   3.821 -0.5392  1.4455  1.0114
  181SAPE  H20T20714   5.904   2.960   3.989  1.3040  1.8769  0.1690
  181SAPE   C3320715   5.512   1.767   2.686 -0.5541  0.0120  0.1597
  181SAPE   H3X20716   5.458   1.670   2.678 -0.2152 -0.1947  0.3942
  181SAPE   H3Y20717   5.434   1.841   2.714 -0.5594  0.4950 -1.0533
  181SAPE   C3420718   5.612   1.777   2.799 -0.0918 -0.2619 -0.0752
  181SAPE   H4X20719   5.572   1.754   2.900  1.7407 -1.5259  0.4151
  181SAPE   H4Y20720   5.654   1.880   2.800  0.4689 -0.4841 -0.3590
  181SAPE   C3520721   5.723   1.676   2.790 -0.4522  0.4396 -0.2399
  181SAPE   H5X20722   5.767   1.679   2.688 -1.3475  0.5155 -0.6318
  181SAPE   H5Y20723   5.673   1.580   2.810  0.3843  0.7819  4.6094
  181SAPE   C3620724   5.841   1.704   2.884 -0.0890  0.4191  0.2900
  181SAPE   H6X20725   5.892   1.798   2.854 -0.3861 -0.0774 -1.9357
  181SAPE   H6Y20726   5.925   1.631   2.877  0.2260  0.4445  3.0332
  181SAPE   C3720727   5.801   1.704   3.034  0.3637  0.7157  0.3848
  181SAPE   H7X20728   5.738   1.613   3.041  0.8143  0.3863  0.2198
  181SAPE   H7Y20729   5.739   1.793   3.059 -1.4172 -0.3034 -0.1998
  181SAPE   C3820730   5.920   1.688   3.130 -0.2061  0.2825  0.0239
  181SAPE   H8X20731   5.997   1.764   3.107 -1.4312  1.7809  0.7044
  181SAPE   H8Y20732   5.968   1.589   3.121  0.2910 -0.1016  4.4283
  181SAPE   C3920733   5.895   1.702   3.279 -0.4465  0.0487 -0.5283
  181SAPE   H9X20734   5.791   1.671   3.298 -0.2013 -0.7805 -0.5108
  181SAPE   H9Y20735   5.906   1.810   3.304 -0.9206  0.0165 -0.1624
  181SAPE  C31020736   5.999   1.627   3.367 -0.0656 -0.1180  0.1260
  181SAPE  H10X20737   6.101   1.659   3.339 -0.6204  2.4200  0.7366
  181SAPE  H10Y20738   5.984   1.518   3.358 -0.6874 -0.0087 -0.2517
  181SAPE  C31120739   5.973   1.654   3.511 -0.4800 -0.9568 -0.5774
  181SAPE  H11X20740   5.877   1.605   3.539  0.1436 -1.6196  0.4564
  181SAPE  H11Y20741   5.955   1.763   3.523 -0.3963 -0.8072 -1.7186
  181SAPE  C31220742   6.082   1.606   3.605  0.8531 -0.3290 -0.7600
  181SAPE  H12X20743   6.180   1.640   3.565  1.7805 -2.3242 -0.3193
  181SAPE  H12Y20744   6.071   1.496   3.593  0.2216 -0.9235  3.5401
  181SAPE  C31320745   6.076   1.647   3.755 -0.2831 -0.5000  0.6550
  181SAPE  H13X20746   6.120   1.748   3.770 -0.1572 -0.7332  1.9871
  181SAPE  H13Y20747   6.133   1.574   3.816 -1.1470  1.3016  3.8463
  181SAPE  C31420748   5.932   1.649   3.814  0.9681  0.2031  0.3300
  181SAPE  H14X20749   5.901   1.542   3.807  1.3898  0.0465  0.8464
  181SAPE  H14Y20750   5.868   1.711   3.748  2.9837  1.7728 -0.2225
  181SAPE  C31520751   5.921   1.679   3.964  0.7076 -0.4788 -0.1624
  181SAPE  H15X20752   5.965   1.603   4.032  0.7687 -3.2514 -3.0443
  181SAPE  H15Y20753   5.818   1.692   4.003  0.3905  1.8677 -1.6048
  181SAPE  C31620754   5.984   1.809   3.995  0.0032 -0.6289  0.2730
  181SAPE  H16X20755   5.927   1.877   3.928  1.5410  0.2377 -0.2230
  181SAPE  H16Y20756   6.090   1.810   3.962  0.1713  0.0912  0.8062
  181SAPE  C31720757   5.953   1.868   4.139 -0.2262 -0.2365  0.4114
  181SAPE  H17X20758   5.871   1.942   4.130  0.3270  0.1646 -5.4871
  181SAPE  H17Y20759   6.043   1.928   4.166 -1.1890  1.9293 -0.9245
  181SAPE  C31820760   5.929   1.766   4.256  0.0255  0.2449  0.0906
  181SAPE  H18X20761   5.902   1.827   4.345 -0.2742  0.3837 -0.0935
  181SAPE  H18Y20762   6.023   1.710   4.278 -1.7250 -2.1588  2.0239
  181SAPE  H18Z20763   5.857   1.691   4.217  0.3714 -0.7512  1.3019
  182SAPE     N20764   0.322   2.767   2.351 -0.6510  0.1849 -0.7319
  182SAPE   HN120765   0.226   2.774   2.312 -2.2542  1.8335  2.9638
  182SAPE   HN220766   0.301   2.834   2.428 -3.8816  2.1326 -3.0490
  182SAPE   HN320767   0.401   2.805   2.295  0.5654 -0.3325  0.5637
  182SAPE   C1220768   0.334   2.626   2.395 -0.1389 -0.2453  0.2314
  182SAPE  H12A20769   0.258   2.558   2.351  1.5145 -1.9882 -0.0531
  182SAPE  H12B20770   0.316   2.632   2.505 -0.3109  0.6574  0.1609
  182SAPE   C1120771   0.467   2.569   2.366 -0.9145  0.2862  0.5305
  182SAPE  H11A20772   0.434   2.463   2.378 -2.6710  0.7188 -0.1212
  182SAPE  H11B20773   0.549   2.597   2.435  1.4758  0.3070 -2.1217
  182SAPE     P20774   0.611   2.507   2.162  0.1422 -0.2858 -0.2408
  182SAPE   O1320775   0.545   2.372   2.130  0.3314 -0.2015 -0.3728
  182SAPE   O1420776   0.661   2.578   2.042  0.0906 -0.1104  0.3266
  182SAPE   O1220777   0.505   2.603   2.230 -0.2768  0.6411  0.3622
  182SAPE   O1120778   0.725   2.506   2.274 -0.2808 -0.0080  0.2439
  182SAPE    C120779   0.790   2.637   2.301  0.2241  0.3021  0.4345
  182SAPE    HA20780   0.835   2.680   2.209 -0.1940  3.0959  1.4250
  182SAPE    HB20781   0.721   2.708   2.353  2.3025 -0.0974  4.1180
  182SAPE    C220782   0.904   2.616   2.402  0.1757  0.2411 -0.1911
  182SAPE    HS20783   0.967   2.547   2.342 -0.0564 -0.2151  0.0833
  182SAPE   O2120784   0.862   2.539   2.516 -0.1894 -0.0066 -0.4621
  182SAPE   C2120785   0.957   2.485   2.588  0.3330 -0.5523  0.2252
  182SAPE   O2220786   1.068   2.460   2.549 -0.3335 -0.1335 -0.3206
  182SAPE   C2220787   0.891   2.453   2.731 -0.2308 -0.1299 -0.3840
  182SAPE   H2R20788   0.897   2.551   2.784  1.1616 -0.7361  0.6308
  182SAPE   H2S20789   0.784   2.429   2.709 -0.2841 -0.4854  0.2570
  182SAPE    C320790   0.996   2.742   2.432  0.1884  0.1043 -0.3014
  182SAPE    HX20791   0.991   2.802   2.339 -0.7700 -0.2879 -0.5104
  182SAPE    HY20792   1.100   2.701   2.436 -0.2439 -0.9116  1.4597
  182SAPE   O3120793   0.949   2.804   2.552  0.5260 -0.0953 -0.1677
  182SAPE   C3120794   0.878   2.921   2.540 -0.1018  0.0174  0.1736
  182SAPE   O3220795   0.845   2.978   2.441 -0.0088  0.2421  0.5347
  182SAPE   C3220796   0.810   2.958   2.678  0.1864 -0.3596  1.2500
  182SAPE   H2X20797   0.819   3.069   2.682  1.6913 -0.3778 -0.3057
  182SAPE   H2Y20798   0.877   2.915   2.756 -0.2692 -2.5577  0.4873
  182SAPE   C2320799   0.956   2.351   2.824  0.1698  0.0264  0.2618
  182SAPE   H3R20800   1.063   2.378   2.830  0.9943 -3.0484  1.1536
  182SAPE   H3S20801   0.945   2.250   2.779  1.2284  1.0870 -2.5339
  182SAPE   C2420802   0.906   2.370   2.968  0.2964  0.5923  0.2162
  182SAPE   H4R20803   0.919   2.476   2.998 -2.5541  0.8981  0.6551
  182SAPE   H4S20804   0.969   2.320   3.046  0.1416  0.0487 -0.0031
  182SAPE   C2520805   0.763   2.331   2.981 -0.0507 -0.1729  0.3094
  182SAPE   H5R20806   0.724   2.264   2.903 -0.2287 -0.2331  0.4497
  182SAPE   C2620807   0.680   2.388   3.071 -0.0567  0.1483  0.7023
  182SAPE   H6R20808   0.573   2.378   3.049 -0.3407  2.0342  1.0421
  182SAPE   C2720809   0.700   2.486   3.182 -0.1111  0.5045 -0.0029
  182SAPE   H7R20810   0.678   2.592   3.154 -3.5317  0.4258  1.8849
  182SAPE   H7S20811   0.808   2.477   3.207 -0.0718  0.6207 -0.1278
  182SAPE   C2820812   0.631   2.445   3.305 -0.5748 -0.3595 -0.2040
  182SAPE   H8R20813   0.660   2.347   3.348  1.9434  0.8454  1.0473
  182SAPE   C2920814   0.540   2.516   3.370 -0.2854  0.9504 -0.0843
  182SAPE   H9R20815   0.528   2.489   3.475  1.9307  2.0373  0.5128
  182SAPE  C21020816   0.488   2.648   3.327 -0.2216 -0.1989 -0.2860
  182SAPE  H10R20817   0.382   2.661   3.356 -0.4282 -0.1187 -1.0509
  182SAPE  H10S20818   0.482   2.657   3.217  2.3928 -1.1720 -0.5897
  182SAPE  C21120819   0.555   2.769   3.393  0.2112  0.2369 -0.5834
  182SAPE  H11R20820   0.567   2.753   3.501  0.9288 -1.3506 -0.8554
  182SAPE  C21220821   0.615   2.867   3.332  0.0578 -0.4624 -0.1299
  182SAPE  H12R20822   0.676   2.934   3.394  0.8957  0.8705 -2.3188
  182SAPE  C21320823   0.632   2.886   3.180  0.9848 -0.3450 -0.3360
  182SAPE  H13R20824   0.533   2.881   3.128  1.7101 -1.1258 -1.7005
  182SAPE  H13S20825   0.685   2.803   3.129  0.8079 -0.8613  0.3086
  182SAPE  C21420826   0.696   3.021   3.143 -0.1739 -0.1338  1.3638
  182SAPE  H14R20827   0.629   3.108   3.147  2.2007  1.7902  3.3028
  182SAPE  C21520828   0.825   3.028   3.100  0.2281 -0.3247  0.2316
  182SAPE  H15R20829   0.866   3.124   3.064  1.3558 -1.4270 -1.6054
  182SAPE  C21620830   0.931   2.923   3.091  0.5241  0.3167  0.3776
  182SAPE  H16R20831   0.919   2.860   3.000  1.0493 -0.9391  1.1502
  182SAPE  H16S20832   0.930   2.863   3.185  0.7040 -1.5799 -0.7780
  182SAPE  C21720833   1.067   3.004   3.071  0.9776  0.1570  0.4397
  182SAPE  H17R20834   1.143   2.931   3.106  1.3028  0.0480 -0.4599
  182SAPE  H17S20835   1.061   3.094   3.136  0.5842 -1.5244  2.8410
  182SAPE  C21820836   1.093   3.054   2.926  0.0827  0.0083  0.2919
  182SAPE  H18R20837   1.006   3.110   2.885 -1.2359 -0.4211  2.2962
  182SAPE  H18S20838   1.098   2.966   2.859  0.9370  0.1997  0.1056
  182SAPE  C21920839   1.221   3.137   2.911  0.8143  0.5521  0.0633
  182SAPE  H19R20840   1.252   3.131   2.804 -0.6720  1.0165 -0.4223
  182SAPE  H19S20841   1.296   3.073   2.962 -0.1497 -0.5662  0.1243
  182SAPE  C22020842   1.215   3.280   2.968  0.5141 -0.0797 -0.4331
  182SAPE  H20R20843   1.295   3.350   2.936 -0.4006 -0.0063 -2.7757
  182SAPE  H20S20844   1.206   3.266   3.078 -2.2016 -0.2064 -0.5980
  182SAPE  H20T20845   1.115   3.320   2.941  0.4770 -1.0336 -1.8507
  182SAPE   C3320846   0.664   2.908   2.692  1.1205  0.1174 -0.6181
  182SAPE   H3X20847   0.602   2.907   2.600 -1.5392 -1.0416  1.0563
  182SAPE   H3Y20848   0.610   2.967   2.769 -1.1752  0.7388 -2.5862
  182SAPE   C3420849   0.671   2.764   2.744 -0.8940  0.6022 -0.1741
  182SAPE   H4X20850   0.711   2.749   2.846 -0.9861 -0.5488 -0.2937
  182SAPE   H4Y20851   0.725   2.699   2.672 -0.5150  0.4100  0.2768
  182SAPE   C3520852   0.531   2.717   2.751  0.7826  0.0896  0.4881
  182SAPE   H5X20853   0.493   2.719   2.647  0.2623  1.8998  0.6816
  182SAPE   H5Y20854   0.469   2.779   2.820 -3.0437 -1.6459 -1.1039
  182SAPE   C3620855   0.525   2.560   2.776  0.1250  1.2705 -0.4544
  182SAPE   H6X20856   0.599   2.541   2.856  2.4073  0.2670 -2.6436
  182SAPE   H6Y20857   0.559   2.500   2.688  1.0683  0.6558  0.3069
  182SAPE   C3720858   0.377   2.513   2.811  0.3792  0.2892  0.8937
  182SAPE   H7X20859   0.378   2.404   2.786  0.3818  0.4927 -0.0094
  182SAPE   H7Y20860   0.303   2.558   2.743  0.6177 -0.0647  0.3864
  182SAPE   C3820861   0.345   2.538   2.955  0.1000 -0.6469 -0.0643
  182SAPE   H8X20862   0.376   2.641   2.984  0.3383 -0.6931 -0.1511
  182SAPE   H8Y20863   0.397   2.470   3.026 -2.4795 -0.0400  2.6289
  182SAPE   C3920864   0.198   2.516   2.995  0.5082 -0.3045  0.2443
  182SAPE   H9X20865   0.170   2.417   2.955 -0.4891 -0.2571  0.8107
  182SAPE   H9Y20866   0.131   2.594   2.953  1.0313  0.9574  1.6396
  182SAPE  C31020867   0.163   2.518   3.144 -0.3477  0.2445 -0.1084
  182SAPE  H10X20868   0.208   2.610   3.187 -3.8878  2.1911 -0.2436
  182SAPE  H10Y20869   0.200   2.422   3.187  1.9890  0.3655 -1.6500
  182SAPE  C31120870   0.003   2.525   3.172 -0.3999 -0.3461 -0.3785
  182SAPE  H11X20871  -0.030   2.437   3.113 -1.6359 -0.9010  1.0897
  182SAPE  H11Y20872  -0.029   2.615   3.114  0.3856 -0.4819 -1.0481
  182SAPE  C31220873  -0.049   2.523   3.316 -0.0260  0.3150 -0.1125
  182SAPE  H12X20874  -0.149   2.476   3.308  0.0914  0.3794 -3.3139
  182SAPE  H12Y20875  -0.066   2.627   3.353 -0.9693  0.4899 -0.9909
  182SAPE  C31320876   0.033   2.446   3.409 -0.1090 -0.1350 -0.5195
  182SAPE  H13X20877   0.135   2.491   3.405 -0.4817  0.6386 -2.0606
  182SAPE  H13Y20878   0.034   2.336   3.390  3.4315 -0.0932 -1.3828
  182SAPE  C31420879  -0.028   2.477   3.545  0.5483 -0.3479 -0.5155
  182SAPE  H14X20880  -0.138   2.460   3.546 -0.0353  2.7720 -1.1652
  182SAPE  H14Y20881  -0.029   2.584   3.576 -2.7998 -0.7810  1.4377
  182SAPE  C31520882   0.036   2.394   3.659  0.2338  0.3202  0.7767
  182SAPE  H15X20883   0.147   2.398   3.652  0.0828  0.7584 -3.2355
  182SAPE  H15Y20884   0.016   2.286   3.645  0.1515  0.5457 -0.9610
  182SAPE  C31620885  -0.016   2.432   3.796 -0.2348  0.8874  0.1587
  182SAPE  H16X20886  -0.123   2.401   3.797  0.2736 -0.9890  0.9295
  182SAPE  H16Y20887  -0.003   2.542   3.801 -3.1511  1.3150  0.5962
  182SAPE  C31720888   0.073   2.365   3.905  0.0758 -0.8531 -0.6099
  182SAPE  H17X20889   0.183   2.384   3.901  0.2613 -0.9910  1.8053
  182SAPE  H17Y20890   0.055   2.257   3.891 -0.7154 -1.0811  1.7059
  182SAPE  C31820891   0.033   2.411   4.047 -0.0004  0.7430 -0.1727
  182SAPE  H18X20892   0.088   2.360   4.129  0.0762  2.5453  0.9793
  182SAPE  H18Y20893  -0.077   2.398   4.055  0.0741  0.2296  0.0428
  182SAPE  H18Z20894   0.051   2.520   4.063 -0.9406  0.9013 -0.1661
  183SAPE     N20895   5.879   1.924   1.829 -0.3462  0.2080  0.6853
  183SAPE   HN120896   5.825   1.986   1.893 -2.2007 -0.8385  0.2104
  183SAPE   HN220897   5.898   1.976   1.741  2.0169  1.5552  1.8777
  183SAPE   HN320898   5.820   1.845   1.796  4.1448 -2.1829 -2.7245
  183SAPE   C1220899   6.007   1.878   1.884 -0.6485  0.4361 -0.3209
  183SAPE  H12A20900   5.993   1.892   1.994  0.1715 -1.3946  0.0600
  183SAPE  H12B20901   6.087   1.943   1.843  0.8607 -2.2244 -1.8443
  183SAPE   C1120902   6.034   1.734   1.834  0.1387  0.3507  0.0677
  183SAPE  H11A20903   6.118   1.691   1.891  0.5534  1.3429  0.2387
  183SAPE  H11B20904   6.069   1.740   1.728  0.5590 -0.2894  0.1675
  183SAPE     P20905   5.951   1.488   1.867  0.3367 -0.2171  0.6580
  183SAPE   O1320906   5.832   1.407   1.837  0.3053 -0.2441  0.5627
  183SAPE   O1420907   6.076   1.452   1.798 -0.4492  0.3377  0.2003
  183SAPE   O1220908   5.919   1.645   1.829  0.2169 -0.2378  0.4507
  183SAPE   O1120909   5.974   1.506   2.017 -0.0330 -0.7672 -0.7457
  183SAPE    C120910   6.028   1.405   2.103  0.1963  0.0559  0.4024
  183SAPE    HA20911   5.960   1.318   2.099 -2.2206  1.8546 -0.8176
  183SAPE    HB20912   6.132   1.385   2.070  0.0814 -2.6691  1.4650
  183SAPE    C220913   6.026   1.450   2.257  0.0904 -0.1769  0.3532
  183SAPE    HS20914   5.924   1.433   2.297 -0.1699 -1.6070 -0.8370
  183SAPE   O2120915   6.061   1.589   2.270  0.5833 -0.4195 -0.2411
  183SAPE   C2120916   6.006   1.657   2.365  0.1364  0.4097 -0.0943
  183SAPE   O2220917   5.893   1.634   2.413  0.1862  0.4664 -0.0524
  183SAPE   C2220918   6.100   1.765   2.411 -0.0923 -0.1929 -0.4129
  183SAPE   H2R20919   6.204   1.728   2.426 -0.3633 -0.2432  1.6238
  183SAPE   H2S20920   6.095   1.844   2.333  0.2028  0.1104 -0.1295
  183SAPE    C320921   6.123   1.369   2.346 -0.1893 -0.4073 -0.6234
  183SAPE    HX20922   6.223   1.399   2.307 -0.8462  1.1585 -1.1838
  183SAPE    HY20923   6.122   1.259   2.329  2.6443 -0.8743  1.4164
  183SAPE   O3120924   6.104   1.398   2.489  0.5538  0.1633 -0.3380
  183SAPE   C3120925   6.038   1.313   2.560  0.1396  0.0429 -0.0752
  183SAPE   O3220926   6.002   1.200   2.524 -0.4093  0.4154 -0.4801
  183SAPE   C3220927   6.011   1.375   2.699 -0.5779  0.1355 -1.0489
  183SAPE   H2X20928   5.906   1.413   2.699 -0.5159  0.3931 -2.5722
  183SAPE   H2Y20929   6.076   1.461   2.724 -0.5891 -0.1717  0.0487
  183SAPE   C2320930   6.062   1.821   2.551  0.2673 -1.1490 -1.1776
  183SAPE   H3R20931   6.023   1.745   2.623 -1.6984  1.6324  0.9053
  183SAPE   H3S20932   5.980   1.893   2.530  3.2851  2.6955 -0.7297
  183SAPE   C2420933   6.169   1.918   2.611  0.4259  0.9046 -0.2916
  183SAPE   H4R20934   6.130   1.991   2.685 -2.1818 -1.0119  0.3845
  183SAPE   H4S20935   6.199   1.981   2.525  0.5905 -0.5805 -1.3524
  183SAPE   C2520936   6.293   1.840   2.663 -0.1855 -0.0100  0.2480
  183SAPE   H5R20937   6.381   1.837   2.597 -2.0653  0.8604 -2.4765
  183SAPE   C2620938   6.320   1.796   2.789 -0.5520 -0.0605  0.3602
  183SAPE   H6R20939   6.422   1.761   2.812  1.5450  3.9424 -1.7646
  183SAPE   C2720940   6.217   1.801   2.903 -0.5482 -0.2831 -0.2941
  183SAPE   H7R20941   6.228   1.720   2.978 -2.7865 -1.3264 -0.9899
  183SAPE   H7S20942   6.117   1.770   2.864 -2.3261  2.8911  1.3034
  183SAPE   C2820943   6.211   1.931   2.982  0.0002  0.3526  0.4390
  183SAPE   H8R20944   6.147   2.000   2.926 -1.0857 -0.0948  1.0990
  183SAPE   C2920945   6.271   1.968   3.093  0.0757 -0.0713 -0.1230
  183SAPE   H9R20946   6.237   2.062   3.138 -3.8862 -1.3626  0.0052
  183SAPE  C21020947   6.365   1.878   3.177  0.3718  0.2638  0.2112
  183SAPE  H10R20948   6.463   1.928   3.186  1.5864 -2.1245  1.0805
  183SAPE  H10S20949   6.394   1.783   3.127 -1.7025  0.1078 -0.8245
  183SAPE  C21120950   6.302   1.845   3.317  0.5372  0.4180  0.1260
  183SAPE  H11R20951   6.196   1.816   3.318  0.3688  1.0198  0.6285
  183SAPE  C21220952   6.359   1.851   3.438  0.1028 -0.0010 -0.2806
  183SAPE  H12R20953   6.310   1.816   3.531  1.2343  0.0305  0.3388
  183SAPE  C21320954   6.502   1.898   3.458 -0.0471  0.4505 -0.3766
  183SAPE  H13R20955   6.552   1.896   3.359 -3.6283 -0.5897 -2.3286
  183SAPE  H13S20956   6.561   1.836   3.529 -0.2538 -0.3483 -0.8964
  183SAPE  C21420957   6.501   2.042   3.496  0.4169 -0.0580 -0.2901
  183SAPE  H14R20958   6.410   2.090   3.536  0.9776  1.1000 -0.3636
  183SAPE  C21520959   6.602   2.126   3.475  0.0980  0.1870 -0.2665
  183SAPE  H15R20960   6.588   2.232   3.498  0.2407 -0.1915  1.7917
  183SAPE  C21620961   6.733   2.087   3.416  0.4126 -0.7089 -0.0447
  183SAPE  H16R20962   6.732   1.977   3.397 -1.8646 -0.7719  0.2542
  183SAPE  H16S20963   6.800   2.088   3.504 -2.2405 -0.5775  2.0725
  183SAPE  C21720964   6.772   2.147   3.282 -0.0702  0.7968  0.1808
  183SAPE  H17R20965   6.881   2.130   3.269  0.0128  1.3682  0.0794
  183SAPE  H17S20966   6.769   2.258   3.287  0.7183  0.7660  2.6077
  183SAPE  C21820967   6.686   2.093   3.169 -0.1135  0.4972  0.1898
  183SAPE  H18R20968   6.584   2.138   3.168 -0.8665 -1.1164  0.6440
  183SAPE  H18S20969   6.663   1.985   3.182 -0.0025  0.5079  0.4593
  183SAPE  C21920970   6.756   2.112   3.034 -0.5353 -0.9222  0.2240
  183SAPE  H19R20971   6.859   2.072   3.049  1.0238  2.3057 -0.8524
  183SAPE  H19S20972   6.774   2.221   3.028  2.8400 -1.3948 -0.3769
  183SAPE  C22020973   6.687   2.044   2.922  0.3344  0.4894 -0.2107
  183SAPE  H20R20974   6.752   2.045   2.832 -1.4339 -0.2265 -1.5527
  183SAPE  H20S20975   6.589   2.092   2.900 -0.2367 -0.0578  1.0334
  183SAPE  H20T20976   6.655   1.940   2.942 -0.2214  0.9284  1.3460
  183SAPE   C3320977   6.040   1.273   2.817 -0.0251  0.4756 -0.2905
  183SAPE   H3X20978   6.145   1.241   2.800  0.4005  0.4150  2.0429
  183SAPE   H3Y20979   5.983   1.181   2.796  0.5932  0.1572 -0.6003
  183SAPE   C3420980   6.011   1.323   2.961  0.1857 -0.8210  0.1830
  183SAPE   H4X20981   5.905   1.353   2.972  0.6150  0.8655 -0.1073
  183SAPE   H4Y20982   6.076   1.413   2.960 -1.0616  0.2326  3.4494
  183SAPE   C3520983   6.050   1.215   3.064  0.0815  0.3446 -0.4631
  183SAPE   H5X20984   6.158   1.194   3.048 -0.5907 -1.6191 -2.9868
  183SAPE   H5Y20985   5.985   1.127   3.049  0.6752  0.0741 -1.5402
  183SAPE   C3620986   6.026   1.276   3.202 -0.0153 -0.6871  0.7879
  183SAPE   H6X20987   5.928   1.328   3.207 -0.2718 -1.2856  2.4439
  183SAPE   H6Y20988   6.103   1.356   3.214 -1.3432  0.9932 -1.1653
  183SAPE   C3720989   6.042   1.182   3.319 -0.0840  0.0265  0.1903
  183SAPE   H7X20990   6.145   1.142   3.310 -0.5852 -1.1097 -0.7736
  183SAPE   H7Y20991   5.968   1.101   3.299 -2.1136  1.8344 -0.0924
  183SAPE   C3820992   6.021   1.242   3.458  0.4641  0.0253 -0.4602
  183SAPE   H8X20993   5.921   1.286   3.479  0.2192 -1.6998  2.7810
  183SAPE   H8Y20994   6.099   1.317   3.484 -0.5702  0.4201  1.7700
  183SAPE   C3920995   6.042   1.128   3.565  0.4164  0.7528 -0.4135
  183SAPE   H9X20996   6.143   1.083   3.570 -0.5479 -1.7645 -1.6273
  183SAPE   H9Y20997   5.989   1.041   3.520 -0.5307  0.6265  0.8845
  183SAPE  C31020998   5.985   1.153   3.711  0.0987 -0.5349  0.1113
  183SAPE  H10X20999   5.874   1.146   3.707 -0.0482 -1.9612  3.3832
  183SAPE  H10Y21000   6.014   1.255   3.746  0.1967 -0.4808 -0.1228
  183SAPE  C31121001   6.036   1.055   3.807  0.3643  0.3104 -1.2442
  183SAPE  H11X21002   6.144   1.072   3.828  0.5115 -0.9891 -0.8358
  183SAPE  H11Y21003   6.022   0.953   3.767 -1.3203  1.1873 -3.0271
  183SAPE  C31221004   5.971   1.069   3.945 -0.3775  0.2195 -0.4627
  183SAPE  H12X21005   5.862   1.056   3.933 -0.3084  0.6120 -1.6783
  183SAPE  H12Y21006   5.986   1.170   3.988  0.8505 -0.9267  1.9983
  183SAPE  C31321007   6.029   0.976   4.055  0.4181  0.1746 -0.0265
  183SAPE  H13X21008   6.135   0.969   4.023  0.9648 -0.3847  1.8140
  183SAPE  H13Y21009   5.993   0.873   4.036 -0.2925  0.5517 -0.8143
  183SAPE  C31421010   5.991   1.031   4.190 -0.0902 -0.9951 -0.2087
  183SAPE  H14X21011   5.881   1.039   4.205  0.2582  0.7892  1.8277
  183SAPE  H14Y21012   6.028   1.136   4.199 -1.7129 -0.3745 -0.3742
  183SAPE  C31521013   6.038   0.952   4.313  0.9401 -0.2532 -0.1015
  183SAPE  H15X21014   6.015   0.843   4.307 -0.9822  0.0725  0.5755
  183SAPE  H15Y21015   5.986   0.984   4.406 -1.0380 -0.8644 -0.9591
  183SAPE  C31621016   6.179   0.980   4.349 -0.3358 -0.7553 -0.4092
  183SAPE  H16X21017   6.197   1.088   4.365  0.5486 -0.5520 -2.4903
  183SAPE  H16Y21018   6.233   0.962   4.254 -0.8409  0.1967 -0.8866
  183SAPE  C31721019   6.233   0.892   4.457 -0.3321  0.4428  0.3934
  183SAPE  H17X21020   6.344   0.895   4.454 -0.2792  1.5592  1.9657
  183SAPE  H17Y21021   6.222   0.786   4.427  2.8418  0.1650 -0.1661
  183SAPE  C31821022   6.188   0.918   4.603  0.4188 -0.3476  0.2584
  183SAPE  H18X21023   6.234   0.844   4.672 -1.0746 -1.3186  0.2547
  183SAPE  H18Y21024   6.078   0.908   4.601  0.0243  3.0282 -0.3456
  183SAPE  H18Z21025   6.223   1.019   4.633  2.3538 -0.5022 -1.3001
  184SAPE     N21026   6.758   2.340   1.828 -0.2282 -0.0568 -0.3585
  184SAPE   HN121027   6.804   2.287   1.905 -0.7365 -0.4483 -0.3151
  184SAPE   HN221028   6.811   2.348   1.739  2.8535  1.5637  1.4806
  184SAPE   HN321029   6.744   2.438   1.860 -1.9687 -0.1126 -0.8327
  184SAPE   C1221030   6.618   2.280   1.819 -0.6349  0.6056  0.8361
  184SAPE  H12A21031   6.640   2.171   1.813  0.3408  0.7692  1.2200
  184SAPE  H12B21032   6.562   2.311   1.729  0.8668  0.6798 -0.1060
  184SAPE   C1121033   6.537   2.292   1.948  0.0001  0.2029 -0.5427
  184SAPE  H11A21034   6.436   2.255   1.923  0.0744 -1.0799  0.8710
  184SAPE  H11B21035   6.526   2.401   1.966 -0.2683  0.2228 -0.8272
  184SAPE     P21036   6.543   2.093   2.123 -0.0546 -0.1110  0.1244
  184SAPE   O1321037   6.511   2.014   2.004 -0.7472 -1.3011 -0.0293
  184SAPE   O1421038   6.632   2.034   2.224  0.4136 -0.0301  0.2802
  184SAPE   O1221039   6.595   2.229   2.064  0.2877 -0.0632 -0.1012
  184SAPE   O1121040   6.404   2.124   2.192 -0.1252 -0.1315  0.2015
  184SAPE    C121041   6.373   2.262   2.233 -0.5235  0.5277 -0.4193
  184SAPE    HA21042   6.461   2.328   2.249  0.0693 -0.2358 -0.4335
  184SAPE    HB21043   6.322   2.321   2.154  0.2199  2.7208  0.6444
  184SAPE    C221044   6.277   2.257   2.358 -0.3532  0.3616  0.4879
  184SAPE    HS21045   6.239   2.360   2.379 -0.7169  0.1196  1.0199
  184SAPE   O2121046   6.346   2.204   2.469 -0.2973 -0.4815 -0.1164
  184SAPE   C2121047   6.430   2.298   2.521 -0.0140  0.0168 -0.3530
  184SAPE   O2221048   6.450   2.407   2.472  0.1526  0.0150 -0.3575
  184SAPE   C2221049   6.496   2.244   2.648 -0.3614  0.4648 -0.0581
  184SAPE   H2R21050   6.452   2.144   2.664 -0.1496  0.4568  0.5106
  184SAPE   H2S21051   6.605   2.227   2.635 -0.3159  0.9975 -0.4076
  184SAPE    C321052   6.149   2.167   2.331  0.6994  0.1666 -0.5573
  184SAPE    HX21053   6.165   2.058   2.322 -2.8779 -0.4609 -1.0561
  184SAPE    HY21054   6.114   2.196   2.230  0.9986  1.1514 -0.3961
  184SAPE   O3121055   6.048   2.206   2.429 -0.2474  0.0276  0.0839
  184SAPE   C3121056   5.929   2.167   2.402  0.4134  0.1689 -0.0616
  184SAPE   O3221057   5.905   2.076   2.324  0.3451  0.2163  0.3476
  184SAPE   C3221058   5.821   2.237   2.482  0.0151 -0.0585 -0.0530
  184SAPE   H2X21059   5.721   2.214   2.438 -0.0308 -1.5268  0.7610
  184SAPE   H2Y21060   5.820   2.347   2.492 -0.7223 -0.2425  2.8216
  184SAPE   C2321061   6.467   2.332   2.769  0.8213 -0.2889  0.1018
  184SAPE   H3R21062   6.462   2.438   2.737 -1.4170  0.9239  3.9190
  184SAPE   H3S21063   6.551   2.319   2.841  2.0059 -0.1416 -1.1924
  184SAPE   C2421064   6.341   2.290   2.852 -0.4290 -0.0171  0.6669
  184SAPE   H4R21065   6.346   2.366   2.933  0.8256 -0.2224  0.8032
  184SAPE   H4S21066   6.366   2.197   2.907  0.8276 -0.0024  0.1547
  184SAPE   C2521067   6.213   2.302   2.770 -0.3703  0.4630 -0.5461
  184SAPE   H5R21068   6.216   2.247   2.675  0.2925  0.8228 -0.7426
  184SAPE   C2621069   6.111   2.385   2.796 -0.1670  0.2089 -0.1137
  184SAPE   H6R21070   6.039   2.390   2.712  0.0867  1.6502 -0.2730
  184SAPE   C2721071   6.088   2.481   2.912 -0.1672 -0.6319  0.4937
  184SAPE   H7R21072   6.168   2.485   2.989 -0.1708 -2.3519  0.6158
  184SAPE   H7S21073   6.002   2.445   2.972 -0.7450 -0.3400 -0.1500
  184SAPE   C2821074   6.052   2.620   2.871 -0.4053 -0.5957 -0.0141
  184SAPE   H8R21075   6.063   2.642   2.763 -1.6272  1.9522  0.2979
  184SAPE   C2921076   6.005   2.722   2.942 -0.6246  0.0560  0.5426
  184SAPE   H9R21077   6.008   2.823   2.898  1.3244 -0.2278 -0.0489
  184SAPE  C21021078   5.983   2.706   3.088 -0.1815 -0.2954  0.1646
  184SAPE  H10R21079   6.065   2.754   3.145  0.5645 -0.4980 -0.7037
  184SAPE  H10S21080   5.982   2.598   3.115  1.8098 -0.7023 -1.1485
  184SAPE  C21121081   5.851   2.760   3.132 -0.6560  0.0338 -0.7200
  184SAPE  H11R21082   5.775   2.739   3.055 -0.8257 -1.6093 -0.1439
  184SAPE  C21221083   5.818   2.848   3.231  0.0974 -0.2260 -0.1386
  184SAPE  H12R21084   5.716   2.885   3.250 -0.3269 -1.6909  0.6753
  184SAPE  C21321085   5.912   2.928   3.326 -0.3875  0.4059  0.7383
  184SAPE  H13R21086   5.948   2.852   3.399 -0.3653 -2.1470 -1.7939
  184SAPE  H13S21087   5.861   3.009   3.383  1.6827 -0.3210  3.9683
  184SAPE  C21421088   6.037   2.982   3.263  0.2780  0.1123 -0.0168
  184SAPE  H14R21089   6.035   3.007   3.156 -0.8927  2.3324  0.4582
  184SAPE  C21521090   6.159   2.980   3.318 -0.5483  0.6941  0.0091
  184SAPE  H15R21091   6.243   3.009   3.253  0.5081 -0.1509  0.9514
  184SAPE  C21621092   6.196   2.922   3.457  0.0052  0.4090  0.3398
  184SAPE  H16R21093   6.306   2.912   3.465 -0.1654  0.0088  2.8563
  184SAPE  H16S21094   6.174   2.813   3.469  1.4068  0.1861  1.0672
  184SAPE  C21721095   6.134   2.995   3.581 -0.3179  0.1766  0.0915
  184SAPE  H17R21096   6.148   2.938   3.675  1.0594  0.6361  0.1958
  184SAPE  H17S21097   6.025   2.997   3.560 -0.2336 -2.7237 -1.1352
  184SAPE  C21821098   6.203   3.130   3.622  0.3537 -0.1314 -0.2908
  184SAPE  H18R21099   6.183   3.201   3.539  0.7679 -0.2113 -0.4622
  184SAPE  H18S21100   6.313   3.117   3.630  0.3294  0.0676  0.4093
  184SAPE  C21921101   6.162   3.187   3.759  0.7858  0.2917  0.1304
  184SAPE  H19R21102   6.211   3.144   3.849  1.2596  0.7518  0.0982
  184SAPE  H19S21103   6.054   3.169   3.774  0.8621  0.5765  1.0817
  184SAPE  C22021104   6.179   3.337   3.764 -0.4771  0.2162 -0.1886
  184SAPE  H20R21105   6.279   3.358   3.721 -0.7550 -1.1596 -1.5654
  184SAPE  H20S21106   6.180   3.374   3.869 -0.5341  1.3817 -0.5747
  184SAPE  H20T21107   6.099   3.385   3.703  0.0868 -1.4740 -2.3911
  184SAPE   C3321108   5.819   2.184   2.635  0.0130 -0.0594  1.0863
  184SAPE   H3X21109   5.920   2.189   2.681 -0.0824 -0.4217  1.3379
  184SAPE   H3Y21110   5.776   2.082   2.644 -2.3482  0.3764 -2.9285
  184SAPE   C3421111   5.719   2.272   2.707  0.4235  0.0930 -0.3076
  184SAPE   H4X21112   5.629   2.280   2.643  0.0124 -0.1407  0.2325
  184SAPE   H4Y21113   5.764   2.374   2.714  0.1774  0.0909  2.6532
  184SAPE   C3521114   5.687   2.212   2.842 -0.0887  0.2625 -0.7966
  184SAPE   H5X21115   5.649   2.108   2.847  0.6312  0.0186 -0.2272
  184SAPE   H5Y21116   5.621   2.277   2.904 -0.7153 -1.1565  0.0663
  184SAPE   C3621117   5.817   2.192   2.936  0.4605  0.2973  0.0037
  184SAPE   H6X21118   5.907   2.248   2.902  0.0382  0.5570 -0.6887
  184SAPE   H6Y21119   5.858   2.089   2.927  3.6080  1.2155  2.1904
  184SAPE   C3721120   5.784   2.215   3.084  0.1807 -0.2092  0.2538
  184SAPE   H7X21121   5.680   2.181   3.103  0.4664 -0.9984  0.4633
  184SAPE   H7Y21122   5.785   2.325   3.093 -0.8352 -0.3161  2.2946
  184SAPE   C3821123   5.881   2.131   3.170 -0.2539 -0.6278 -0.3958
  184SAPE   H8X21124   5.986   2.165   3.161 -0.7411  0.9906 -0.2136
  184SAPE   H8Y21125   5.876   2.023   3.142  0.1285 -0.7395 -0.0502
  184SAPE   C3921126   5.866   2.141   3.322  0.2448 -0.4899  0.1537
  184SAPE   H9X21127   5.766   2.102   3.353  0.1502  1.1474  2.0723
  184SAPE   H9Y21128   5.852   2.247   3.350  0.2348 -0.2820 -0.5991
  184SAPE  C31021129   5.970   2.083   3.413 -0.6207 -0.1911  0.0877
  184SAPE  H10X21130   6.066   2.097   3.359  1.3008 -0.5002  3.1564
  184SAPE  H10Y21131   5.955   1.973   3.415 -0.9632 -0.1412  0.2621
  184SAPE  C31121132   5.976   2.135   3.554 -0.0188 -0.4361  0.0196
  184SAPE  H11X21133   5.890   2.101   3.616 -0.8681 -3.7169 -2.6699
  184SAPE  H11Y21134   5.973   2.246   3.568  0.6625 -0.7094  2.8827
  184SAPE  C31221135   6.097   2.072   3.632  0.5239 -0.0919  0.3601
  184SAPE  H12X21136   6.190   2.107   3.583  0.3260 -1.7531 -1.3243
  184SAPE  H12Y21137   6.096   1.961   3.620 -0.2829 -0.0258 -0.3660
  184SAPE  C31321138   6.123   2.116   3.774  0.0866  0.1655 -0.3263
  184SAPE  H13X21139   6.039   2.087   3.841  0.0292  2.5796  0.7320
  184SAPE  H13Y21140   6.119   2.226   3.762 -1.4852  0.4833  2.3335
  184SAPE  C31421141   6.249   2.057   3.830 -0.7082  0.3549  0.7098
  184SAPE  H14X21142   6.266   1.965   3.769  0.2319  1.0452 -0.0908
  184SAPE  H14Y21143   6.232   2.029   3.936  0.1046  1.8663  1.2586
  184SAPE  C31521144   6.365   2.161   3.822 -0.7412 -0.0121  0.3177
  184SAPE  H15X21145   6.354   2.210   3.722  4.3490  0.7295 -0.1599
  184SAPE  H15Y21146   6.460   2.109   3.798 -1.7539 -0.8062 -2.4315
  184SAPE  C31621147   6.370   2.267   3.929  0.2060 -0.4307 -0.0415
  184SAPE  H16X21148   6.363   2.239   4.036 -0.3817  1.7721  0.5601
  184SAPE  H16Y21149   6.277   2.328   3.925  0.5880  0.2517  1.0201
  184SAPE  C31721150   6.485   2.365   3.919 -1.1201 -0.7215 -0.2663
  184SAPE  H17X21151   6.457   2.455   3.976  1.0772  0.2060 -0.5553
  184SAPE  H17Y21152   6.489   2.392   3.811 -0.0876  0.8429  0.1409
  184SAPE  C31821153   6.625   2.325   3.967 -0.3065  0.1306 -0.0347
  184SAPE  H18X21154   6.625   2.300   4.075  3.9729  0.2102  0.1374
  184SAPE  H18Y21155   6.697   2.408   3.952  0.1042 -0.1928  0.1347
  184SAPE  H18Z21156   6.666   2.236   3.914 -0.3311  0.1224 -0.0403
  185SAPE     N21157   3.103   0.030   1.586  0.7859  0.5805  0.3880
  185SAPE   HN121158   3.043   0.108   1.553  1.4908 -0.4705 -3.9482
  185SAPE   HN221159   3.056  -0.048   1.536  1.2176  1.2206 -1.0615
  185SAPE   HN321160   3.093   0.017   1.689  0.2495  2.3245  0.5896
  185SAPE   C1221161   3.250   0.024   1.539  1.0196  0.2571 -0.3210
  185SAPE  H12A21162   3.294   0.121   1.570 -1.3019  1.1280  0.4035
  185SAPE  H12B21163   3.232   0.028   1.430  0.5221  1.7031 -0.2031
  185SAPE   C1121164   3.313  -0.108   1.586 -0.8056 -0.4036 -1.1349
  185SAPE  H11A21165   3.416  -0.113   1.546  0.4746 -0.0721  1.8099
  185SAPE  H11B21166   3.255  -0.194   1.547  0.3247 -1.9357  0.4181
  185SAPE     P21167   3.370  -0.268   1.770  0.0557  0.2800  0.0858
  185SAPE   O1321168   3.261  -0.359   1.734  0.8327  0.2984 -0.4366
  185SAPE   O1421169   3.499  -0.304   1.715 -0.0861 -0.0817 -0.2759
  185SAPE   O1221170   3.326  -0.115   1.733  0.0999 -0.0362  0.1123
  185SAPE   O1121171   3.393  -0.275   1.923  0.0370  0.0595  0.6196
  185SAPE    C121172   3.341  -0.187   2.021 -0.1582  0.0257  0.0193
  185SAPE    HA21173   3.426  -0.170   2.091 -1.6087 -0.6586  2.0296
  185SAPE    HB21174   3.305  -0.093   1.975  3.3161  0.4974 -2.1318
  185SAPE    C221175   3.226  -0.255   2.097  0.0565  0.2735 -0.6888
  185SAPE    HS21176   3.148  -0.288   2.024  0.1403  0.4003 -0.8367
  185SAPE   O2121177   3.166  -0.158   2.183 -0.2482 -0.1535 -0.2748
  185SAPE   C2121178   3.044  -0.174   2.222  0.8225 -0.4769  0.2049
  185SAPE   O2221179   2.973  -0.267   2.188 -0.7123  0.1198 -0.3021
  185SAPE   C2221180   2.994  -0.056   2.305 -0.2757 -0.6465  0.1551
  185SAPE   H2R21181   3.074   0.017   2.327 -0.3508 -0.5611  0.1452
  185SAPE   H2S21182   2.924  -0.003   2.237 -0.8047 -1.2663  0.1996
  185SAPE    C321183   3.263  -0.381   2.179  0.0675 -1.5263 -0.4580
  185SAPE    HX21184   3.330  -0.446   2.119  1.4869  0.2559 -0.8828
  185SAPE    HY21185   3.172  -0.440   2.204  0.6478 -1.8873  0.9130
  185SAPE   O3121186   3.324  -0.351   2.306 -0.3215  0.4029  0.3685
  185SAPE   C3121187   3.462  -0.353   2.310 -0.9928  0.3093  0.5895
  185SAPE   O3221188   3.538  -0.398   2.225 -0.1498 -0.9357  0.2287
  185SAPE   C3221189   3.504  -0.298   2.448  0.4598 -0.3273  1.2418
  185SAPE   H2X21190   3.458  -0.361   2.528 -2.9622 -1.7953 -1.6388
  185SAPE   H2Y21191   3.461  -0.196   2.449 -2.1114 -1.1629 -2.3728
  185SAPE   C2321192   2.920  -0.084   2.433 -0.6548  0.9540  0.0892
  185SAPE   H3R21193   2.839  -0.158   2.417 -1.2394  1.6445 -0.2291
  185SAPE   H3S21194   2.869   0.013   2.455  1.7193  2.2424  0.2317
  185SAPE   C2421195   3.022  -0.122   2.548  0.1278 -0.6138 -0.7487
  185SAPE   H4R21196   3.084  -0.031   2.568 -0.1513 -0.6999  0.5867
  185SAPE   H4S21197   3.090  -0.204   2.516  2.9471  1.6859 -1.1451
  185SAPE   C2521198   2.953  -0.159   2.677 -0.0830 -0.4836  0.5149
  185SAPE   H5R21199   2.903  -0.070   2.719 -0.3368 -0.6802  0.6273
  185SAPE   C2621200   2.961  -0.275   2.744 -0.1332  0.5242 -0.2970
  185SAPE   H6R21201   2.903  -0.288   2.837  1.3059  0.1037  0.5794
  185SAPE   C2721202   3.030  -0.399   2.702 -0.3037 -0.1414 -0.4193
  185SAPE   H7R21203   3.098  -0.434   2.783 -1.5815 -2.5582 -0.3233
  185SAPE   H7S21204   3.091  -0.378   2.612 -1.0409 -3.4592 -1.8247
  185SAPE   C2821205   2.933  -0.511   2.661 -0.9259 -0.1907  0.4835
  185SAPE   H8R21206   2.894  -0.496   2.560  1.1073  0.5874 -0.2498
  185SAPE   C2921207   2.888  -0.608   2.739 -0.7515  0.1298 -0.2111
  185SAPE   H9R21208   2.814  -0.682   2.705 -1.8791  0.1651  1.9722
  185SAPE  C21021209   2.925  -0.629   2.887  0.4426  0.0893  0.1174
  185SAPE  H10R21210   2.836  -0.664   2.943  1.3939 -1.8750  0.4576
  185SAPE  H10S21211   2.939  -0.525   2.925 -0.6989 -0.3149  1.7691
  185SAPE  C21121212   3.051  -0.715   2.894  0.0366 -0.2178 -0.1055
  185SAPE  H11R21213   3.105  -0.719   2.799  0.3769  3.4552 -0.1927
  185SAPE  C21221214   3.084  -0.800   2.988 -0.0153  0.1725 -0.0941
  185SAPE  H12R21215   3.185  -0.841   2.974  0.0819  0.1477  0.6815
  185SAPE  C21321216   3.014  -0.825   3.120 -0.1868  0.2435 -1.0555
  185SAPE  H13R21217   3.051  -0.921   3.160  2.0891  1.4221 -0.1462
  185SAPE  H13S21218   2.905  -0.839   3.103 -0.8280  3.1090  0.0434
  185SAPE  C21421219   3.031  -0.711   3.215 -0.0405 -0.2207 -0.2444
  185SAPE  H14R21220   3.032  -0.613   3.164  0.8614 -0.1446 -0.0829
  185SAPE  C21521221   3.049  -0.718   3.344 -0.1847  0.1867  0.1026
  185SAPE  H15R21222   3.072  -0.634   3.410 -1.9396  0.3689  0.5498
  185SAPE  C21621223   3.044  -0.857   3.416 -0.3955  0.0246  0.4148
  185SAPE  H16R21224   3.131  -0.918   3.385  0.5145  1.5231 -0.0771
  185SAPE  H16S21225   2.946  -0.908   3.402 -1.2554  1.4683  0.9746
  185SAPE  C21721226   3.069  -0.842   3.564  0.2245 -0.4659  0.3443
  185SAPE  H17R21227   2.998  -0.766   3.603  0.8896  0.4295 -0.1524
  185SAPE  H17S21228   3.167  -0.789   3.569 -0.8377  1.4966  1.4227
  185SAPE  C21821229   3.057  -0.974   3.637  0.1445 -0.5496  0.1855
  185SAPE  H18R21230   3.141  -1.040   3.604 -0.3424 -1.0389 -0.0887
  185SAPE  H18S21231   2.958  -1.013   3.605 -0.9478  2.4345 -0.3668
  185SAPE  C21921232   3.056  -0.962   3.797  0.2819  0.0122  0.5728
  185SAPE  H19R21233   2.961  -0.907   3.812 -1.0761 -0.9725 -3.2759
  185SAPE  H19S21234   3.146  -0.904   3.830 -0.5023  1.4312  0.2903
  185SAPE  C22021235   3.035  -1.103   3.860 -0.5825 -0.1772 -0.3998
  185SAPE  H20R21236   3.048  -1.108   3.970  0.2103 -2.6412 -0.5411
  185SAPE  H20S21237   3.107  -1.181   3.826  2.1154  1.9989 -0.0601
  185SAPE  H20T21238   2.933  -1.137   3.833 -1.2758  1.0679  0.5719
  185SAPE   C3321239   3.657  -0.292   2.461  0.3445  0.7757  0.5720
  185SAPE   H3X21240   3.698  -0.193   2.429  1.1466  0.8021  1.6388
  185SAPE   H3Y21241   3.705  -0.374   2.403 -0.8205  0.9081 -0.6323
  185SAPE   C3421242   3.705  -0.307   2.608  0.0547  0.0056 -0.2567
  185SAPE   H4X21243   3.814  -0.305   2.631 -0.3826 -2.4420  2.5249
  185SAPE   H4Y21244   3.672  -0.407   2.641 -2.8597  1.2226  0.7949
  185SAPE   C3521245   3.634  -0.201   2.698  0.1372  0.3352 -0.2818
  185SAPE   H5X21246   3.537  -0.250   2.724  0.1492 -0.4884 -1.6861
  185SAPE   H5Y21247   3.629  -0.103   2.645  1.7812  0.5826 -0.0128
  185SAPE   C3621248   3.712  -0.179   2.825  0.8725  0.0242 -0.2083
  185SAPE   H6X21249   3.806  -0.123   2.810 -0.0226  1.1979 -1.7811
  185SAPE   H6Y21250   3.745  -0.278   2.865 -1.5914 -0.6607  0.3507
  185SAPE   C3721251   3.632  -0.114   2.938  0.0931 -0.0253 -0.3012
  185SAPE   H7X21252   3.532  -0.160   2.953  0.1538  0.2422  1.0295
  185SAPE   H7Y21253   3.604  -0.008   2.921  1.0450  0.1596 -0.8023
  185SAPE   C3821254   3.706  -0.124   3.071  0.0451 -0.7162  0.0799
  185SAPE   H8X21255   3.813  -0.096   3.059 -0.6129  1.4894 -1.3714
  185SAPE   H8Y21256   3.707  -0.229   3.104  0.8413 -1.2933 -1.6369
  185SAPE   C3921257   3.638  -0.031   3.182  0.4353  0.4383 -0.6054
  185SAPE   H9X21258   3.529  -0.050   3.184  0.7096 -2.0918 -3.1235
  185SAPE   H9Y21259   3.659   0.073   3.149 -0.1595  0.1589 -1.9092
  185SAPE  C31021260   3.692  -0.067   3.320 -0.4111  0.1711  0.0254
  185SAPE  H10X21261   3.802  -0.054   3.322 -0.3839  0.0797  2.9992
  185SAPE  H10Y21262   3.660  -0.170   3.348 -0.2480  0.4004  1.1123
  185SAPE  C31121263   3.647   0.033   3.424 -0.1372 -0.5280  0.4072
  185SAPE  H11X21264   3.638   0.133   3.377 -0.8420  1.1322  3.7544
  185SAPE  H11Y21265   3.721   0.041   3.506  2.0187  1.0394 -1.5896
  185SAPE  C31221266   3.508  -0.001   3.494  0.3278 -0.2760  0.0577
  185SAPE  H12X21267   3.519  -0.103   3.537  1.3147  0.0482  0.6085
  185SAPE  H12Y21268   3.422  -0.003   3.423 -0.5703  3.4023  0.8404
  185SAPE  C31321269   3.478   0.097   3.602  0.3696  0.0786 -0.3604
  185SAPE  H13X21270   3.480   0.203   3.568 -0.9286 -0.2721 -1.6327
  185SAPE  H13Y21271   3.561   0.095   3.676  1.4637  1.9774 -1.4713
  185SAPE  C31421272   3.341   0.077   3.665  0.1026  0.4291  0.0999
  185SAPE  H14X21273   3.263   0.083   3.587 -0.0968  2.3176  0.4092
  185SAPE  H14Y21274   3.318   0.167   3.726 -1.8365 -0.2307  0.3981
  185SAPE  C31521275   3.325  -0.048   3.748  0.4353  0.3786 -0.1770
  185SAPE  H15X21276   3.409  -0.056   3.820 -0.7402 -1.1685  1.0968
  185SAPE  H15Y21277   3.337  -0.141   3.688  1.5319  0.4407 -0.0599
  185SAPE  C31621278   3.188  -0.076   3.811  0.0725 -0.8139  0.2268
  185SAPE  H16X21279   3.198  -0.173   3.866  2.0381 -0.7438  0.0534
  185SAPE  H16Y21280   3.110  -0.096   3.734 -0.6996  0.1980  0.7230
  185SAPE  C31721281   3.127   0.026   3.915  0.9117 -0.0602  0.3547
  185SAPE  H17X21282   3.031  -0.026   3.936  1.3713 -1.1407 -0.1510
  185SAPE  H17Y21283   3.105   0.128   3.876  0.9925 -0.5940 -1.1671
  185SAPE  C31821284   3.209   0.037   4.040  0.6261 -0.1003 -0.1919
  185SAPE  H18X21285   3.158   0.098   4.118  1.8449 -1.3896  1.6969
  185SAPE  H18Y21286   3.310   0.078   4.018  1.3524 -1.3920  0.6084
  185SAPE  H18Z21287   3.235  -0.060   4.087  0.3610  0.0571  0.2862
  186SAPE     N21288   6.658   2.536   2.363 -0.2801  0.4663 -0.9367
  186SAPE   HN121289   6.736   2.564   2.427 -0.9910 -1.1386  0.7194
  186SAPE   HN221290   6.603   2.616   2.324 -2.6286 -1.7018 -2.3721
  186SAPE   HN321291   6.591   2.483   2.422 -0.4305  1.9783  0.3480
  186SAPE   C1221292   6.716   2.459   2.252 -0.0148  0.3385  0.9035
  186SAPE  H12A21293   6.648   2.475   2.165 -1.4515 -0.1194  1.9039
  186SAPE  H12B21294   6.729   2.351   2.270 -0.0553  0.0383 -0.7042
  186SAPE   C1121295   6.849   2.529   2.209  0.1297  0.5074  0.2983
  186SAPE  H11A21296   6.832   2.627   2.160 -0.1735  0.3797  0.1473
  186SAPE  H11B21297   6.886   2.473   2.121 -1.0924  0.3211 -0.1152
  186SAPE     P21298   6.986   2.657   2.391 -0.0016 -0.3972  0.1343
  186SAPE   O1321299   7.068   2.760   2.320 -0.3318 -0.2126 -0.1029
  186SAPE   O1421300   6.853   2.706   2.440 -0.2287  0.0151  0.3584
  186SAPE   O1221301   6.962   2.537   2.292  0.3528 -0.6874 -0.3697
  186SAPE   O1121302   7.072   2.597   2.506 -0.0637 -0.3105 -0.4602
  186SAPE    C121303   7.075   2.455   2.527  0.1153  0.2842 -0.0871
  186SAPE    HA21304   7.074   2.396   2.432 -1.4180 -0.4086  0.3204
  186SAPE    HB21305   7.173   2.444   2.578  0.5198  1.9173 -0.4523
  186SAPE    C221306   6.955   2.402   2.604 -0.2918  0.4212 -0.3777
  186SAPE    HS21307   6.867   2.390   2.538 -0.8669  1.1074  0.2415
  186SAPE   O2121308   6.927   2.474   2.723 -0.1110 -0.2531 -0.1157
  186SAPE   C2121309   6.812   2.540   2.724 -0.5456  0.0743  0.1937
  186SAPE   O2221310   6.729   2.534   2.632 -0.5154  0.2039  0.3310
  186SAPE   C2221311   6.800   2.603   2.861  0.0935  0.7159  0.0413
  186SAPE   H2R21312   6.834   2.531   2.939 -1.0418  1.1355  0.9599
  186SAPE   H2S21313   6.854   2.700   2.872  0.2009  0.6807 -0.1746
  186SAPE    C321314   6.991   2.258   2.648 -0.2042 -0.3674 -0.1980
  186SAPE    HX21315   7.015   2.200   2.556  0.8715 -0.5178  0.1632
  186SAPE    HY21316   6.900   2.218   2.697 -0.1949  0.1955  0.2908
  186SAPE   O3121317   7.106   2.253   2.738  0.0860 -0.2246 -0.8894
  186SAPE   C3121318   7.110   2.136   2.804 -0.6748 -0.3708 -0.9111
  186SAPE   O3221319   7.043   2.039   2.770  0.3711 -0.7354  0.4506
  186SAPE   C3221320   7.219   2.149   2.917  0.1322 -0.3781 -0.0284
  186SAPE   H2X21321   7.184   2.223   2.993  0.6978  2.2884 -2.1997
  186SAPE   H2Y21322   7.308   2.200   2.874 -1.5299  4.2285  1.3295
  186SAPE   C2321323   6.645   2.631   2.893  0.0737  0.2985 -0.4256
  186SAPE   H3R21324   6.584   2.542   2.865 -0.4056 -0.6150  3.0819
  186SAPE   H3S21325   6.603   2.717   2.837 -1.2670 -0.5262 -0.7393
  186SAPE   C2421326   6.617   2.636   3.044 -0.0242 -0.4608  0.1982
  186SAPE   H4R21327   6.528   2.700   3.064 -0.9316 -1.5638 -0.2338
  186SAPE   H4S21328   6.696   2.709   3.073  0.4075 -0.8746  0.0696
  186SAPE   C2521329   6.627   2.520   3.138 -0.5339  0.1331  0.5431
  186SAPE   H5R21330   6.722   2.467   3.125 -0.3102  1.1657 -3.7871
  186SAPE   C2621331   6.534   2.467   3.220  0.0832 -0.5050  0.6305
  186SAPE   H6R21332   6.569   2.384   3.284  2.0568 -0.2721 -0.0543
  186SAPE   C2721333   6.393   2.521   3.239  0.7765 -0.1409  0.0049
  186SAPE   H7R21334   6.354   2.585   3.157  1.9025 -1.4326 -1.6083
  186SAPE   H7S21335   6.405   2.586   3.329  2.0586 -0.9623  0.4528
  186SAPE   C2821336   6.283   2.411   3.256 -0.0321 -0.3586 -0.2174
  186SAPE   H8R21337   6.249   2.354   3.167 -2.3462  3.0200 -1.6885
  186SAPE   C2921338   6.220   2.385   3.371 -0.0078 -0.2673  0.3573
  186SAPE   H9R21339   6.144   2.305   3.374 -1.9632  1.5008  3.0457
  186SAPE  C21021340   6.244   2.446   3.507  0.3036 -0.5802  0.5181
  186SAPE  H10R21341   6.346   2.489   3.510 -0.2257  0.8283 -0.6057
  186SAPE  H10S21342   6.229   2.369   3.586 -0.8197 -1.2413 -0.3027
  186SAPE  C21121343   6.137   2.548   3.531 -0.1613 -0.4259 -0.8618
  186SAPE  H11R21344   6.053   2.545   3.460 -0.3091 -0.9863 -0.6662
  186SAPE  C21221345   6.133   2.623   3.646 -0.0007  0.1581 -0.0654
  186SAPE  H12R21346   6.049   2.691   3.667 -2.9556 -2.9292 -0.9610
  186SAPE  C21321347   6.232   2.599   3.757  0.6523  0.0501  0.0210
  186SAPE  H13R21348   6.338   2.622   3.734  0.5392 -0.6742 -1.3318
  186SAPE  H13S21349   6.226   2.497   3.799  1.6089 -0.3777 -0.8530
  186SAPE  C21421350   6.231   2.700   3.874 -0.2270 -0.0232  0.5910
  186SAPE  H14R21351   6.286   2.794   3.859  2.0814 -1.4535 -0.4857
  186SAPE  C21521352   6.177   2.673   3.994 -0.7156  0.3645 -0.0417
  186SAPE  H15R21353   6.203   2.753   4.065  0.3473 -0.0572  0.0674
  186SAPE  C21621354   6.108   2.548   4.054 -0.0431  0.4863  0.2239
  186SAPE  H16R21355   6.087   2.571   4.161 -2.0450 -0.6933  0.1379
  186SAPE  H16S21356   6.180   2.466   4.078  0.0270  1.4022  3.8049
  186SAPE  C21721357   5.983   2.493   3.984 -0.1573 -0.5637 -0.2421
  186SAPE  H17R21358   5.999   2.472   3.876  2.3179  0.2585 -0.0800
  186SAPE  H17S21359   5.903   2.570   3.990 -2.3066 -2.7078  0.1327
  186SAPE  C21821360   5.928   2.367   4.051  0.7468 -0.3689 -0.1011
  186SAPE  H18R21361   5.926   2.379   4.161 -0.9682  0.0379 -0.1578
  186SAPE  H18S21362   5.989   2.276   4.032  0.8683 -0.2700 -0.1890
  186SAPE  C21921363   5.783   2.326   3.996 -0.5887  0.3524  0.3009
  186SAPE  H19R21364   5.755   2.228   4.040 -1.7518  0.9641  0.9968
  186SAPE  H19S21365   5.774   2.311   3.887 -2.2877 -0.7072  0.5488
  186SAPE  C22021366   5.666   2.421   4.049 -0.0378 -0.1976 -0.1676
  186SAPE  H20R21367   5.702   2.456   4.148  0.7646 -0.4800 -0.3438
  186SAPE  H20S21368   5.571   2.365   4.056  0.1722 -0.4801  0.5420
  186SAPE  H20T21369   5.643   2.515   3.995 -2.1660  0.0279  1.0588
  186SAPE   C3321370   7.254   2.013   2.969  0.1847  0.2808  0.2369
  186SAPE   H3X21371   7.299   1.947   2.892 -2.8173  0.0372 -1.5024
  186SAPE   H3Y21372   7.162   1.958   2.999 -0.2464 -0.3439 -1.9895
  186SAPE   C3421373   7.343   2.009   3.097  0.7005  0.3389  0.6098
  186SAPE   H4X21374   7.450   2.010   3.066  0.5092  0.4958 -0.0795
  186SAPE   H4Y21375   7.328   1.908   3.139 -1.8250  0.4060  0.0324
  186SAPE   C3521376   7.314   2.123   3.195  0.4261  0.1971 -0.8554
  186SAPE   H5X21377   7.208   2.139   3.225  1.5157  0.7044  3.2994
  186SAPE   H5Y21378   7.346   2.213   3.139 -2.1989  0.3998 -2.1810
  186SAPE   C3621379   7.387   2.104   3.321  0.7335 -0.2984  1.3027
  186SAPE   H6X21380   7.494   2.116   3.295  0.1715  1.0223 -0.5559
  186SAPE   H6Y21381   7.386   2.002   3.366 -2.0998 -1.5584 -1.3038
  186SAPE   C3721382   7.344   2.193   3.433  0.4950  0.3512 -0.2725
  186SAPE   H7X21383   7.247   2.155   3.473  0.0592  0.1199 -1.5213
  186SAPE   H7Y21384   7.308   2.294   3.405 -0.2076  0.5538  1.2206
  186SAPE   C3821385   7.444   2.219   3.550 -0.1568  0.0930  0.1428
  186SAPE   H8X21386   7.412   2.307   3.611 -0.7590  0.6643 -0.9557
  186SAPE   H8Y21387   7.544   2.237   3.506 -0.3919  0.2481 -0.3408
  186SAPE   C3921388   7.462   2.102   3.658 -0.6816 -0.3006  0.4421
  186SAPE   H9X21389   7.491   2.011   3.601 -1.5448  0.0633 -0.6277
  186SAPE   H9Y21390   7.364   2.077   3.704 -0.8664 -0.8805 -0.2519
  186SAPE  C31021391   7.567   2.123   3.765 -0.3477 -0.3134  0.1456
  186SAPE  H10X21392   7.540   2.205   3.835 -0.6158  1.3896 -1.8484
  186SAPE  H10Y21393   7.669   2.127   3.723  0.0216  4.3970  1.0063
  186SAPE  C31121394   7.570   1.997   3.855 -0.1371  0.2785 -0.8473
  186SAPE  H11X21395   7.621   2.019   3.951  0.4775 -2.1088 -0.5656
  186SAPE  H11Y21396   7.616   1.911   3.802 -2.5763 -2.1645  0.7582
  186SAPE  C31221397   7.426   1.960   3.909 -0.2841  0.2436  0.0737
  186SAPE  H12X21398   7.366   1.923   3.822  0.5782  1.3183 -1.0065
  186SAPE  H12Y21399   7.371   2.051   3.941  0.2606  0.5105  0.2565
  186SAPE  C31321400   7.422   1.871   4.029 -0.5878  0.3438  0.6659
  186SAPE  H13X21401   7.502   1.903   4.100 -0.0940 -1.9911  1.2468
  186SAPE  H13Y21402   7.451   1.770   3.994  4.8500  1.4987  0.9750
  186SAPE  C31421403   7.290   1.870   4.107 -0.0860  0.5954  0.6427
  186SAPE  H14X21404   7.210   1.807   4.061  1.0610  0.0609 -0.6747
  186SAPE  H14Y21405   7.260   1.976   4.120 -0.4944  0.3943  1.4309
  186SAPE  C31521406   7.317   1.817   4.248  0.4424 -0.4959 -1.7099
  186SAPE  H15X21407   7.397   1.882   4.289 -0.3952 -1.7265  2.2728
  186SAPE  H15Y21408   7.341   1.709   4.251  0.6638 -0.4691 -2.2996
  186SAPE  C31621409   7.189   1.839   4.331 -0.1985  0.4265 -0.4008
  186SAPE  H16X21410   7.097   1.802   4.281 -1.0333 -0.7377  1.8340
  186SAPE  H16Y21411   7.171   1.948   4.338 -2.6801  0.0512  0.2158
  186SAPE  C31721412   7.187   1.787   4.479  0.2010 -0.5760 -0.3337
  186SAPE  H17X21413   7.090   1.815   4.527  1.2746  1.0237  1.0314
  186SAPE  H17Y21414   7.266   1.830   4.544  0.2757 -0.7645 -0.2988
  186SAPE  C31821415   7.192   1.631   4.483 -0.2066  0.5055 -0.1768
  186SAPE  H18X21416   7.223   1.593   4.582  0.0511  0.8808 -0.1167
  186SAPE  H18Y21417   7.263   1.600   4.403  0.3076  0.4498  0.3018
  186SAPE  H18Z21418   7.089   1.593   4.463  0.5548 -0.4058 -2.7940
  187SAPE     N21419   6.828   6.570   1.781 -0.4454 -0.5461 -0.5762
  187SAPE   HN121420   6.811   6.622   1.870  0.1489 -0.1781 -0.6654
  187SAPE   HN221421   6.825   6.468   1.801  0.5625 -1.1331 -3.1070
  187SAPE   HN321422   6.921   6.594   1.741 -0.4385 -2.5594 -1.8525
  187SAPE   C1221423   6.724   6.631   1.684 -0.8881  0.4421  0.6713
  187SAPE  H12A21424   6.749   6.588   1.585 -1.3240  1.5039  0.0829
  187SAPE  H12B21425   6.735   6.741   1.668 -0.5216  0.1305 -1.4291
  187SAPE   C1121426   6.586   6.604   1.745 -0.4585 -0.5421  0.1097
  187SAPE  H11A21427   6.558   6.497   1.757 -1.0010 -0.5076 -0.8007
  187SAPE  H11B21428   6.511   6.644   1.674 -0.0165  0.7748  0.3604
  187SAPE     P21429   6.506   6.813   1.882  0.1285  0.0911  0.1231
  187SAPE   O1321430   6.493   6.831   2.028 -0.7872 -0.5830  0.1262
  187SAPE   O1421431   6.585   6.904   1.793 -0.7506  0.7372 -0.7314
  187SAPE   O1221432   6.569   6.667   1.871  0.1647 -0.8096 -0.4089
  187SAPE   O1121433   6.363   6.791   1.816  0.0394 -0.5801  1.0220
  187SAPE    C121434   6.256   6.720   1.874 -0.1819 -0.4892  0.9242
  187SAPE    HA21435   6.211   6.656   1.796  0.9147  0.7261 -0.7710
  187SAPE    HB21436   6.297   6.648   1.948 -0.7123 -1.6175  0.1481
  187SAPE    C221437   6.152   6.804   1.956  0.1279 -0.2407  0.3275
  187SAPE    HS21438   6.088   6.854   1.880 -1.0157  0.0911  1.4666
  187SAPE   O2121439   6.216   6.897   2.048 -0.2066  0.1263  0.4759
  187SAPE   C2121440   6.136   7.000   2.081 -0.5464  0.1112 -0.3874
  187SAPE   O2221441   6.025   7.030   2.038  0.3146 -0.1307  0.0597
  187SAPE   C2221442   6.190   7.063   2.208  0.1912  0.4156  0.0394
  187SAPE   H2R21443   6.289   7.018   2.227 -0.6801 -1.0244  1.4051
  187SAPE   H2S21444   6.207   7.172   2.194  0.7157  0.4096  0.6051
  187SAPE    C321445   6.059   6.699   2.034 -0.0506 -0.1141 -0.0802
  187SAPE    HX21446   6.026   6.619   1.964 -2.5425 -0.7264  1.6401
  187SAPE    HY21447   5.965   6.751   2.064 -0.3969 -1.0318  0.4868
  187SAPE   O3121448   6.125   6.651   2.155 -0.3059  0.0038 -0.1159
  187SAPE   C3121449   6.076   6.538   2.210  0.1669  0.1302 -0.1187
  187SAPE   O3221450   5.992   6.461   2.160 -0.9588  0.2665 -0.2661
  187SAPE   C3221451   6.151   6.514   2.348 -0.2456 -0.4087 -0.2215
  187SAPE   H2X21452   6.143   6.602   2.415  0.5400  0.7148 -1.5355
  187SAPE   H2Y21453   6.258   6.489   2.329  0.1846  0.4838  0.9594
  187SAPE   C2321454   6.098   7.032   2.331 -0.9652  0.5131 -0.1352
  187SAPE   H3R21455   6.072   6.924   2.329 -0.3909  0.3596  0.4068
  187SAPE   H3S21456   5.999   7.079   2.314 -1.2016  0.6110  1.3760
  187SAPE   C2421457   6.159   7.070   2.467  0.0877 -0.3042  0.5688
  187SAPE   H4R21458   6.083   7.026   2.536  0.6123 -1.1087  0.6426
  187SAPE   H4S21459   6.170   7.180   2.482  0.8120 -0.1114 -1.1568
  187SAPE   C2521460   6.295   7.007   2.476 -0.3490  0.0448  0.8279
  187SAPE   H5R21461   6.368   7.049   2.405  2.1934 -1.6595  2.2821
  187SAPE   C2621462   6.335   6.907   2.560 -0.5410 -0.8118 -0.4257
  187SAPE   H6R21463   6.436   6.865   2.553  1.3201  3.2595 -0.9672
  187SAPE   C2721464   6.254   6.844   2.670  0.3931  0.1217  0.0642
  187SAPE   H7R21465   6.147   6.873   2.662  0.1590 -1.0075 -1.2161
  187SAPE   H7S21466   6.289   6.895   2.763 -0.1204  0.4696  0.0715
  187SAPE   C2821467   6.263   6.691   2.686 -0.0140 -0.8186 -0.3336
  187SAPE   H8R21468   6.260   6.632   2.593  0.8091 -2.2635  0.5224
  187SAPE   C2921469   6.274   6.627   2.803 -0.0054 -0.5549  0.7004
  187SAPE   H9R21470   6.270   6.518   2.789  0.6538 -0.2439 -2.5385
  187SAPE  C21021471   6.288   6.686   2.941 -0.1385 -0.1187 -0.0069
  187SAPE  H10R21472   6.357   6.773   2.938 -0.6864  0.3234  0.0767
  187SAPE  H10S21473   6.337   6.616   3.012 -0.3032  1.4785  1.7635
  187SAPE  C21121474   6.149   6.734   2.987 -0.3384 -0.6279 -0.3350
  187SAPE  H11R21475   6.090   6.799   2.921  0.0992  0.8777  0.6989
  187SAPE  C21221476   6.098   6.712   3.113  0.3217  0.3154 -0.5555
  187SAPE  H12R21477   6.001   6.759   3.137  0.0777 -0.4879  0.0809
  187SAPE  C21321478   6.170   6.630   3.220 -0.1426  0.2800  0.5892
  187SAPE  H13R21479   6.275   6.664   3.228  0.2807 -0.9689  0.5830
  187SAPE  H13S21480   6.181   6.527   3.180 -0.2808  0.6747 -0.5199
  187SAPE  C21421481   6.101   6.622   3.352  0.5540 -0.1872 -0.4290
  187SAPE  H14R21482   5.998   6.583   3.351  0.0991  0.9180  0.6263
  187SAPE  C21521483   6.151   6.637   3.468 -1.0673  0.4589 -0.7291
  187SAPE  H15R21484   6.084   6.621   3.554 -0.0582  1.0108  0.1731
  187SAPE  C21621485   6.299   6.664   3.515 -0.2218  0.2964 -0.2646
  187SAPE  H16R21486   6.353   6.705   3.427  0.7633  1.3286  0.7823
  187SAPE  H16S21487   6.333   6.569   3.559  1.0193  0.0111 -1.7612
  187SAPE  C21721488   6.312   6.771   3.621 -0.2285 -0.6801  0.2529
  187SAPE  H17R21489   6.250   6.739   3.708  0.3314  1.1633  1.4087
  187SAPE  H17S21490   6.255   6.858   3.583  0.8942  0.7083  1.5945
  187SAPE  C21821491   6.456   6.820   3.641 -0.2875  0.2555 -0.7391
  187SAPE  H18R21492   6.440   6.925   3.675 -1.1469  0.1125 -0.6714
  187SAPE  H18S21493   6.517   6.803   3.550  0.6393 -0.4667  0.0040
  187SAPE  C21921494   6.523   6.736   3.757  0.1280  0.1817  0.2766
  187SAPE  H19R21495   6.632   6.754   3.762  0.2261  0.0668 -1.2054
  187SAPE  H19S21496   6.511   6.630   3.727  2.7338 -0.0431 -0.1829
  187SAPE  C22021497   6.458   6.758   3.895  0.5442 -0.0924 -0.3517
  187SAPE  H20R21498   6.506   6.685   3.963 -0.1554 -1.5681 -1.4021
  187SAPE  H20S21499   6.348   6.743   3.904  0.2840  1.7560 -0.0010
  187SAPE  H20T21500   6.482   6.863   3.925  1.7113 -0.7083  0.9531
  187SAPE   C3321501   6.090   6.401   2.421 -0.4890  0.6434 -0.5528
  187SAPE   H3X21502   6.095   6.308   2.361  2.9775  0.7857 -0.7108
  187SAPE   H3Y21503   5.980   6.413   2.432 -0.6683 -1.2646  0.0730
  187SAPE   C3421504   6.169   6.367   2.551  0.5368  0.0862  0.3916
  187SAPE   H4X21505   6.140   6.439   2.630 -1.0107 -2.2867  2.1430
  187SAPE   H4Y21506   6.276   6.386   2.528 -0.0727  0.3011 -2.7319
  187SAPE   C3521507   6.159   6.218   2.591  0.3702  0.2079 -0.4157
  187SAPE   H5X21508   6.205   6.148   2.518 -0.3073  0.0040 -0.6534
  187SAPE   H5Y21509   6.049   6.201   2.593  0.3486  0.2231  1.8958
  187SAPE   C3621510   6.208   6.182   2.736  0.5911 -0.6778 -0.8441
  187SAPE   H6X21511   6.306   6.226   2.760  0.3881 -0.9138  0.4834
  187SAPE   H6Y21512   6.220   6.072   2.748 -1.4487 -0.7538  1.1205
  187SAPE   C3721513   6.099   6.211   2.839  0.6074  0.0776 -0.7475
  187SAPE   H7X21514   6.013   6.148   2.807  1.5523 -1.2189 -0.7678
  187SAPE   H7Y21515   6.083   6.322   2.838 -0.1446  0.0320  1.6648
  187SAPE   C3821516   6.130   6.179   2.986 -0.2190  0.4297  0.3943
  187SAPE   H8X21517   6.149   6.069   2.991 -1.7445 -0.0867 -2.9551
  187SAPE   H8Y21518   6.040   6.204   3.045 -1.6627  0.5325 -1.7642
  187SAPE   C3921519   6.248   6.261   3.036  0.2285 -0.4342  0.2383
  187SAPE   H9X21520   6.229   6.370   3.018  0.7724  0.2600  3.3943
  187SAPE   H9Y21521   6.339   6.244   2.975 -0.1873  0.6021 -0.7236
  187SAPE  C31021522   6.286   6.241   3.182 -0.1504 -0.3488 -0.1153
  187SAPE  H10X21523   6.284   6.132   3.203 -1.6944 -0.0072  1.7598
  187SAPE  H10Y21524   6.203   6.273   3.247 -1.5181 -2.0628 -0.9212
  187SAPE  C31121525   6.420   6.302   3.214  0.1877  0.0369 -0.3020
  187SAPE  H11X21526   6.420   6.412   3.199  0.3772  0.2497  1.0591
  187SAPE  H11Y21527   6.497   6.261   3.146  1.6717  1.0551  0.6891
  187SAPE  C31221528   6.459   6.262   3.353 -0.3746  0.1652 -0.0941
  187SAPE  H12X21529   6.440   6.155   3.376 -1.3556  0.7071  1.7487
  187SAPE  H12Y21530   6.398   6.320   3.425 -1.5251 -1.0116 -0.0959
  187SAPE  C31321531   6.610   6.291   3.382  0.0287  0.7972 -0.8623
  187SAPE  H13X21532   6.626   6.397   3.354  1.0802  1.3661  1.6611
  187SAPE  H13Y21533   6.674   6.219   3.327  1.9188  2.0528 -0.4008
  187SAPE  C31421534   6.653   6.281   3.528  0.3439 -0.0369 -0.4682
  187SAPE  H14X21535   6.743   6.216   3.531  0.8149  0.6034 -0.4635
  187SAPE  H14Y21536   6.570   6.224   3.575 -0.7636 -0.2474 -2.5351
  187SAPE  C31521537   6.687   6.405   3.601 -0.6804  0.2400  0.0877
  187SAPE  H15X21538   6.599   6.473   3.593 -0.3793  0.8643  1.7650
  187SAPE  H15Y21539   6.766   6.469   3.556 -1.0475  0.3160 -0.4514
  187SAPE  C31621540   6.731   6.369   3.743  0.1495 -0.3542 -0.3196
  187SAPE  H16X21541   6.798   6.281   3.746 -1.3350 -1.5924  3.7982
  187SAPE  H16Y21542   6.648   6.323   3.801  0.9338  0.1334  1.2462
  187SAPE  C31721543   6.797   6.497   3.817 -0.2396  0.2801 -0.8457
  187SAPE  H17X21544   6.714   6.565   3.847  0.0547 -0.5242  2.0810
  187SAPE  H17Y21545   6.874   6.530   3.745  1.6922 -3.2349 -0.5934
  187SAPE  C31821546   6.872   6.457   3.946 -0.1765  0.4243  0.2871
  187SAPE  H18X21547   6.929   6.540   3.992  1.9718 -0.1813 -1.1137
  187SAPE  H18Y21548   6.937   6.369   3.927 -0.6998  0.5682 -2.6893
  187SAPE  H18Z21549   6.797   6.423   4.020  1.5229 -3.5476  0.4286
  188SAPE     N21550   0.566   0.740   1.477 -0.7741 -0.4947 -0.2630
  188SAPE   HN121551   0.516   0.829   1.500 -2.0388 -1.0590 -0.7268
  188SAPE   HN221552   0.583   0.740   1.375 -0.7885  0.1301 -0.2719
  188SAPE   HN321553   0.496   0.665   1.496 -2.2440  0.8230 -0.2778
  188SAPE   C1221554   0.689   0.707   1.553 -0.1673  0.8048 -0.8997
  188SAPE  H12A21555   0.749   0.801   1.556  0.7794  0.1928  0.8030
  188SAPE  H12B21556   0.751   0.636   1.495 -0.0144  2.5669 -3.0017
  188SAPE   C1121557   0.657   0.669   1.698  0.6885 -0.3506 -0.0460
  188SAPE  H11A21558   0.586   0.743   1.739  0.5049 -0.6991  0.2718
  188SAPE  H11B21559   0.745   0.692   1.761 -0.7319  0.8867  1.5798
  188SAPE     P21560   0.478   0.489   1.778 -0.2946  0.4555  0.1924
  188SAPE   O1321561   0.371   0.578   1.726  0.0794 -0.1464  0.1001
  188SAPE   O1421562   0.466   0.342   1.765 -0.1559  0.4960  0.0053
  188SAPE   O1221563   0.611   0.533   1.702  0.1521  0.4006 -0.2213
  188SAPE   O1121564   0.504   0.527   1.931  0.0028  0.6220 -0.4657
  188SAPE    C121565   0.616   0.488   1.999 -0.5932 -0.2674  0.2966
  188SAPE    HA21566   0.644   0.383   1.974  0.8592  0.0518  0.5267
  188SAPE    HB21567   0.693   0.563   1.972  0.3945 -1.2123  0.4220
  188SAPE    C221568   0.608   0.501   2.157  0.9958  0.2937  1.1770
  188SAPE    HS21569   0.704   0.466   2.199  1.3878 -0.5898 -0.3715
  188SAPE   O2121570   0.492   0.425   2.204  0.3023 -0.1370  0.5839
  188SAPE   C2121571   0.496   0.300   2.190 -0.0907  0.5843  0.3891
  188SAPE   O2221572   0.599   0.236   2.169  0.2150  0.3768  0.2868
  188SAPE   C2221573   0.351   0.238   2.198  0.0955  0.0562  0.5581
  188SAPE   H2R21574   0.263   0.306   2.201 -0.4306 -0.4052 -1.8654
  188SAPE   H2S21575   0.338   0.182   2.102 -1.4104  0.8133  0.2890
  188SAPE    C321576   0.583   0.651   2.198 -0.1610  0.2719  0.2828
  188SAPE    HX21577   0.505   0.688   2.129  0.2194 -1.6271 -1.2357
  188SAPE    HY21578   0.679   0.697   2.167  0.3313  0.9355  2.5742
  188SAPE   O3121579   0.564   0.665   2.334 -1.0949  0.0040 -0.2899
  188SAPE   C3121580   0.445   0.666   2.375 -0.5988 -0.7333 -0.0746
  188SAPE   O3221581   0.344   0.688   2.306  0.4786  0.4398  0.3442
  188SAPE   C3221582   0.445   0.645   2.528 -0.0685  0.6047  0.1866
  188SAPE   H2X21583   0.550   0.631   2.561 -0.7098 -2.5469  1.2545
  188SAPE   H2Y21584   0.398   0.544   2.527 -0.7698  0.8840 -2.4300
  188SAPE   C2321585   0.329   0.132   2.304 -0.3029  0.0150  0.0435
  188SAPE   H3R21586   0.412   0.058   2.306 -1.6891 -1.5802  0.1556
  188SAPE   H3S21587   0.230   0.085   2.289 -0.3514  0.4012 -0.9167
  188SAPE   C2421588   0.327   0.205   2.438 -0.0679  0.0778 -0.9473
  188SAPE   H4R21589   0.418   0.268   2.449 -1.3148  1.7041  0.5875
  188SAPE   H4S21590   0.330   0.125   2.515  0.6630  0.9867 -0.0028
  188SAPE   C2521591   0.212   0.300   2.465  0.5207  0.3059  0.2584
  188SAPE   H5R21592   0.169   0.346   2.375  0.6385  2.8241  1.4123
  188SAPE   C2621593   0.161   0.331   2.588  0.0943  0.9077 -0.0110
  188SAPE   H6R21594   0.082   0.408   2.587 -0.6468  0.1585 -0.7437
  188SAPE   C2721595   0.215   0.280   2.715  0.4602  0.0101 -0.1118
  188SAPE   H7R21596   0.192   0.349   2.799 -1.9663 -1.9462  0.9807
  188SAPE   H7S21597   0.325   0.286   2.709  0.5937 -1.3884  0.5252
  188SAPE   C2821598   0.156   0.145   2.763  0.1089  0.2799 -0.0177
  188SAPE   H8R21599   0.128   0.072   2.686 -1.9837  0.5466  0.4384
  188SAPE   C2921600   0.130   0.105   2.896  0.7951 -0.6853  0.4533
  188SAPE   H9R21601   0.081   0.009   2.915 -0.1406 -0.6283 -1.4208
  188SAPE  C21021602   0.133   0.192   3.023  0.2816 -0.4121 -0.3129
  188SAPE  H10R21603   0.109   0.298   3.001  0.5280 -0.3265 -0.1740
  188SAPE  H10S21604   0.240   0.202   3.049  0.4677  2.6756 -1.7550
  188SAPE  C21121605   0.052   0.140   3.141  0.2405 -0.1899  0.1376
  188SAPE  H11R21606   0.028   0.032   3.138  0.9030 -0.3232 -1.1077
  188SAPE  C21221607   0.029   0.202   3.255  0.3431 -0.6288  0.3746
  188SAPE  H12R21608  -0.046   0.147   3.314  0.3988 -1.5417 -0.3799
  188SAPE  C21321609   0.074   0.339   3.300  0.3815 -0.0477  0.2127
  188SAPE  H13R21610  -0.010   0.412   3.296  1.7442  1.5348 -1.5738
  188SAPE  H13S21611   0.149   0.378   3.228  0.0008 -0.2965 -0.3262
  188SAPE  C21421612   0.141   0.323   3.431  0.4658  0.3294  0.1153
  188SAPE  H14R21613   0.237   0.269   3.438  1.3770  1.7399 -0.7224
  188SAPE  C21521614   0.104   0.375   3.549 -0.3755 -0.6473  0.1789
  188SAPE  H15R21615   0.178   0.376   3.631  0.7285  2.9378 -0.6535
  188SAPE  C21621616  -0.019   0.460   3.570 -0.1043  0.4840  0.1537
  188SAPE  H16R21617  -0.105   0.390   3.562  0.9810 -0.8805  0.0098
  188SAPE  H16S21618  -0.025   0.549   3.504  1.4116  0.7922  0.4099
  188SAPE  C21721619  -0.010   0.504   3.722  0.4161  0.1602  0.8133
  188SAPE  H17R21620  -0.100   0.568   3.739 -1.1678 -1.6695 -0.1854
  188SAPE  H17S21621   0.082   0.562   3.741  1.7363 -1.2692 -0.8575
  188SAPE  C21821622  -0.014   0.406   3.834 -0.1117  0.6341 -0.6125
  188SAPE  H18R21623   0.087   0.360   3.844 -0.8843 -1.2427 -0.9626
  188SAPE  H18S21624  -0.084   0.325   3.805 -0.2723  0.0337  1.3298
  188SAPE  C21921625  -0.057   0.451   3.972  0.1186 -0.1079 -0.6398
  188SAPE  H19R21626  -0.070   0.371   4.048  2.1420  0.8458  0.8042
  188SAPE  H19S21627  -0.153   0.504   3.955  0.3797  0.4023 -0.5545
  188SAPE  C22021628   0.050   0.555   4.028 -0.3146 -0.4053  0.2717
  188SAPE  H20R21629   0.027   0.586   4.132 -0.1619 -0.5955  0.3620
  188SAPE  H20S21630   0.051   0.645   3.962  2.4350 -0.7777 -0.2887
  188SAPE  H20T21631   0.149   0.506   4.021 -1.3363 -2.7250  1.2954
  188SAPE   C3321632   0.350   0.718   2.624 -0.7089  0.4596  0.5704
  188SAPE   H3X21633   0.247   0.700   2.589 -0.0131  1.2780 -2.0847
  188SAPE   H3Y21634   0.378   0.825   2.618 -1.5700  0.6002 -2.1446
  188SAPE   C3421635   0.352   0.670   2.771 -0.3083  0.0532 -0.3332
  188SAPE   H4X21636   0.459   0.676   2.801 -0.3841 -1.7095  0.3671
  188SAPE   H4Y21637   0.318   0.565   2.771  0.5009 -0.2159 -0.8002
  188SAPE   C3521638   0.266   0.748   2.866  0.2341  0.4327  0.6426
  188SAPE   H5X21639   0.159   0.746   2.834  0.5570  3.0637 -0.8743
  188SAPE   H5Y21640   0.285   0.854   2.891  1.2068  0.2725  0.5966
  188SAPE   C3621641   0.279   0.691   3.004 -0.3375  0.3135  0.1943
  188SAPE   H6X21642   0.382   0.708   3.041  1.0647 -1.5235 -2.5985
  188SAPE   H6Y21643   0.276   0.580   3.011  1.5445  0.3005  1.7296
  188SAPE   C3721644   0.175   0.749   3.101 -0.6795  0.2231 -0.2646
  188SAPE   H7X21645   0.077   0.707   3.069 -0.4498  0.1497 -0.8846
  188SAPE   H7Y21646   0.186   0.859   3.094  0.9279  0.0604 -0.6124
  188SAPE   C3821647   0.215   0.707   3.247  0.4820 -0.0967 -0.1115
  188SAPE   H8X21648   0.322   0.733   3.260  0.9192 -0.5610 -2.4074
  188SAPE   H8Y21649   0.213   0.596   3.254 -0.4969 -0.1454 -0.9925
  188SAPE   C3921650   0.123   0.770   3.354  0.0379 -0.3401 -0.6405
  188SAPE   H9X21651   0.037   0.700   3.347  0.8237 -1.4626  0.3681
  188SAPE   H9Y21652   0.099   0.876   3.333  0.8646  0.2767  1.2887
  188SAPE  C31021653   0.187   0.760   3.496  0.0099  0.1906  0.0708
  188SAPE  H10X21654   0.296   0.780   3.497 -0.3494  2.4961  0.3312
  188SAPE  H10Y21655   0.161   0.662   3.540  0.2810 -0.0995 -0.4102
  188SAPE  C31121656   0.131   0.865   3.588 -0.2558 -0.4500 -0.2784
  188SAPE  H11X21657   0.021   0.878   3.579 -0.0763  0.7204 -1.0100
  188SAPE  H11Y21658   0.181   0.957   3.549 -2.2678 -0.1953 -2.4500
  188SAPE  C31221659   0.169   0.843   3.732  0.1282  0.3188 -0.1162
  188SAPE  H12X21660   0.252   0.769   3.737 -0.9034 -0.9392 -0.8893
  188SAPE  H12Y21661   0.088   0.790   3.787 -1.3469  0.9349 -1.5934
  188SAPE  C31321662   0.209   0.973   3.809  0.3089  0.6213  0.1769
  188SAPE  H13X21663   0.124   1.044   3.814  0.1258  0.3593  0.8850
  188SAPE  H13Y21664   0.287   1.026   3.751  2.9234 -0.0042  2.8840
  188SAPE  C31421665   0.257   0.947   3.953  0.1617 -0.4114  0.4297
  188SAPE  H14X21666   0.320   1.028   3.995 -0.7238 -0.1337  1.2548
  188SAPE  H14Y21667   0.315   0.853   3.951  1.2629  0.2654 -0.5053
  188SAPE  C31521668   0.139   0.920   4.051 -0.0436  0.0263 -0.5282
  188SAPE  H15X21669   0.072   0.842   4.009  1.0436 -1.4789  0.4071
  188SAPE  H15Y21670   0.084   1.017   4.054 -0.3410  0.0132 -3.1449
  188SAPE  C31621671   0.180   0.871   4.189  0.4562  0.0354  0.5582
  188SAPE  H16X21672   0.243   0.949   4.238 -1.0571  2.4478 -1.0867
  188SAPE  H16Y21673   0.233   0.774   4.177 -1.4441 -1.3233  2.6182
  188SAPE  C31721674   0.063   0.854   4.286 -0.0563 -0.6842 -0.3917
  188SAPE  H17X21675  -0.006   0.786   4.233  1.0862 -1.0014 -1.5113
  188SAPE  H17Y21676   0.014   0.953   4.290 -0.6838 -0.9897 -0.4330
  188SAPE  C31821677   0.097   0.810   4.431 -0.0275  0.0998  0.0543
  188SAPE  H18X21678   0.163   0.890   4.470  1.7780 -0.7431 -1.1584
  188SAPE  H18Y21679   0.150   0.712   4.435 -0.7192 -0.3479 -1.1631
  188SAPE  H18Z21680   0.005   0.804   4.493  0.2450  0.4247  0.4991
  189SAPI   C1221681   5.834   3.486   6.290  0.3042 -0.1366  0.0207
  189SAPI    H221682   5.783   3.538   6.207 -0.5466 -1.3143 -0.2204
  189SAPI    O221683   5.885   3.575   6.385  0.1532  0.2585 -0.3713
  189SAPI   HO221684   5.856   3.666   6.377  1.0987  0.5531 -0.5260
  189SAPI   C1321685   5.725   3.401   6.355 -0.2627  0.8002  0.0705
  189SAPI    H321686   5.671   3.349   6.273 -0.3050  2.0753 -0.7333
  189SAPI    O321687   5.618   3.473   6.409 -0.1536 -0.1101 -0.1863
  189SAPI   HO321688   5.645   3.498   6.497 -0.3039 -1.2001  0.1815
  189SAPI   C1421689   5.787   3.291   6.453  0.1827  0.2272 -0.3936
  189SAPI    H421690   5.841   3.351   6.528 -1.6208 -0.8843  1.9294
  189SAPI    O421691   5.687   3.226   6.537 -0.7924  0.2030 -0.1505
  189SAPI   HO421692   5.601   3.257   6.507 -1.2044 -0.8348 -0.0830
  189SAPI   C1521693   5.886   3.207   6.380  0.6142 -0.2113  0.2239
  189SAPI    H521694   5.823   3.161   6.301 -0.1061  0.1028  0.6049
  189SAPI    O521695   5.944   3.093   6.449 -0.4067 -0.3522  0.3739
  189SAPI   HO521696   5.906   3.017   6.406 -0.2674  0.0827 -0.5424
  189SAPI   C1621697   5.996   3.289   6.319 -0.4867 -0.3174 -0.2619
  189SAPI    H621698   6.056   3.330   6.403 -0.4528 -1.4962  0.3085
  189SAPI    O621699   6.082   3.207   6.244 -0.2505 -0.5408  0.5785
  189SAPI   HO621700   6.158   3.255   6.211 -0.5929 -0.9997 -0.9503
  189SAPI   C1121701   5.939   3.400   6.224  0.1605  0.9046 -0.9904
  189SAPI    H121702   5.897   3.342   6.140 -2.4401 -0.9064  1.3816
  189SAPI     P21703   6.034   3.565   6.030  0.1289 -0.1526  0.2182
  189SAPI   O1321704   6.082   3.700   6.061 -0.1476  0.5663 -0.1049
  189SAPI   O1421705   5.898   3.554   5.976 -0.8041 -0.2781  0.0831
  189SAPI   O1221706   6.053   3.474   6.171 -0.4909 -0.2959 -0.2728
  189SAPI   O1121707   6.131   3.483   5.926 -0.2010 -0.0171 -0.1796
  189SAPI    C121708   6.165   3.350   5.937 -0.3881  0.6360  0.1142
  189SAPI    HA21709   6.269   3.335   5.973 -0.4699 -0.9291 -0.2106
  189SAPI    HB21710   6.097   3.291   6.002 -1.1970 -1.2088 -2.2536
  189SAPI    C221711   6.157   3.272   5.803 -0.3638  0.3683  0.4153
  189SAPI    HS21712   6.163   3.164   5.827 -0.3714 -0.1651 -1.7589
  189SAPI   O2121713   6.262   3.319   5.711 -0.1669 -0.2586 -0.1984
  189SAPI   C2121714   6.288   3.233   5.606  0.2108 -0.1016  0.3232
  189SAPI   O2221715   6.244   3.118   5.598  0.5908  0.4509  0.4049
  189SAPI   C2221716   6.389   3.302   5.511  0.8209  0.0552 -0.4824
  189SAPI   H2R21717   6.418   3.398   5.559  1.1976 -0.5371  0.4932
  189SAPI   H2S21718   6.475   3.231   5.518 -0.3061 -1.2242  1.0192
  189SAPI    C321719   6.016   3.289   5.737  0.3341 -0.8403 -0.3957
  189SAPI    HX21720   5.985   3.392   5.763 -1.0408 -1.3203 -0.0109
  189SAPI    HY21721   5.952   3.225   5.802 -1.2002  2.8125  1.9943
  189SAPI   O3121722   6.000   3.271   5.596 -0.3418  0.4135  0.1503
  189SAPI   C3121723   5.948   3.157   5.563 -0.1607  0.8864 -0.0474
  189SAPI   O3221724   5.889   3.085   5.641  0.8747  0.4441 -0.6622
  189SAPI   C3221725   5.967   3.124   5.417  0.3879  0.1925  0.1209
  189SAPI   H2X21726   6.050   3.050   5.412 -0.7387 -1.0521 -0.9435
  189SAPI   H2Y21727   6.002   3.214   5.361  3.0900  0.5069  2.1073
  189SAPI   C2321728   6.342   3.317   5.368  0.6022  0.3669 -0.1035
  189SAPI   H3R21729   6.403   3.397   5.319 -1.1163  0.4024 -2.3436
  189SAPI   H3S21730   6.242   3.366   5.365 -0.3414 -1.4896  0.1357
  189SAPI   C2421731   6.325   3.193   5.272 -0.0804  0.2749  0.5255
  189SAPI   H4R21732   6.273   3.220   5.178 -0.6196  0.3930  0.8539
  189SAPI   H4S21733   6.259   3.119   5.323  0.3365  0.5621  1.4927
  189SAPI   C2521734   6.463   3.144   5.239 -0.2539  0.1971 -0.1923
  189SAPI   H5R21735   6.508   3.076   5.313  1.3519 -2.2877 -3.2476
  189SAPI   C2621736   6.543   3.186   5.136  0.4946 -0.4150  0.0488
  189SAPI   H6R21737   6.642   3.141   5.120  0.2777  0.2860 -4.8066
  189SAPI   C2721738   6.509   3.284   5.027 -0.1562  0.7025 -0.3581
  189SAPI   H7R21739   6.399   3.302   5.023 -0.2023  0.9537  1.2952
  189SAPI   H7S21740   6.545   3.231   4.937 -2.9229 -2.0797 -0.0039
  189SAPI   C2821741   6.581   3.421   5.042 -0.9319  0.3472 -0.4924
  189SAPI   H8R21742   6.576   3.449   5.149  0.2330 -3.1652  0.6154
  189SAPI   C2921743   6.621   3.504   4.943  0.7780 -0.5626 -0.6650
  189SAPI   H9R21744   6.663   3.601   4.972 -3.1431  1.6930 -1.7921
  189SAPI  C21021745   6.611   3.482   4.797  0.3657  0.1261 -0.4462
  189SAPI  H10R21746   6.508   3.447   4.774 -0.0188  0.2471  0.9689
  189SAPI  H10S21747   6.677   3.395   4.779 -0.0968 -0.0705 -1.2332
  189SAPI  C21121748   6.651   3.598   4.713  0.3043 -0.5031 -0.6414
  189SAPI  H11R21749   6.637   3.702   4.747 -0.7902  0.0770 -2.6869
  189SAPI  C21221750   6.693   3.583   4.585 -0.1583 -0.4012 -0.7805
  189SAPI  H12R21751   6.746   3.661   4.529  0.5782 -0.7069 -0.5280
  189SAPI  C21321752   6.709   3.453   4.511 -0.1100 -0.4260 -0.3554
  189SAPI  H13R21753   6.631   3.383   4.548  0.6854 -0.4295  1.4294
  189SAPI  H13S21754   6.803   3.398   4.532 -0.1887 -1.0851 -1.6244
  189SAPI  C21421755   6.692   3.474   4.363  0.4105 -0.3322  0.6536
  189SAPI  H14R21756   6.586   3.482   4.336 -0.2931 -2.3220  2.5340
  189SAPI  C21521757   6.784   3.483   4.268 -0.0904  0.3171 -0.1848
  189SAPI  H15R21758   6.758   3.484   4.161  1.8384  0.8795 -0.6826
  189SAPI  C21621759   6.934   3.486   4.291 -0.7605  0.4608  1.7320
  189SAPI  H16R21760   6.990   3.409   4.234  1.0575  2.3648  0.8248
  189SAPI  H16S21761   6.963   3.483   4.398 -2.2636 -1.4527  2.1547
  189SAPI  C21721762   6.991   3.615   4.215  0.0111  0.1263 -0.5634
  189SAPI  H17R21763   6.982   3.706   4.279  1.5229  0.6458 -1.0347
  189SAPI  H17S21764   6.928   3.637   4.126 -0.8119  1.6344  0.3470
  189SAPI  C21821765   7.137   3.617   4.175  0.2399  0.2722  0.1351
  189SAPI  H18R21766   7.147   3.707   4.111 -2.4903  0.3868 -0.2262
  189SAPI  H18S21767   7.154   3.523   4.118 -0.2277  1.2501 -1.7284
  189SAPI  C21921768   7.229   3.638   4.292  0.3316  0.1750  0.1457
  189SAPI  H19R21769   7.232   3.543   4.350 -0.0703  1.6950  2.7937
  189SAPI  H19S21770   7.201   3.711   4.370  1.9276  0.8566  0.1186
  189SAPI  C22021771   7.371   3.685   4.251 -0.0840 -0.1114 -0.7489
  189SAPI  H20R21772   7.442   3.661   4.333 -2.4745  0.4356  1.6249
  189SAPI  H20S21773   7.364   3.792   4.223  1.2034  0.7238  1.7571
  189SAPI  H20T21774   7.417   3.636   4.163 -0.0484 -1.5422  0.0241
  189SAPI   C3321775   5.840   3.054   5.359 -0.1779 -1.1808 -0.4929
  189SAPI   H3X21776   5.757   3.128   5.357 -0.4411 -1.4444  0.1999
  189SAPI   H3Y21777   5.817   2.970   5.428 -0.3579 -1.2466 -0.6318
  189SAPI   C3421778   5.867   3.009   5.216  0.3228  0.8948 -0.0906
  189SAPI   H4X21779   5.782   2.946   5.184  1.7943 -1.1270 -0.1985
  189SAPI   H4Y21780   5.961   2.951   5.206 -0.3523 -0.4774  1.0722
  189SAPI   C3521781   5.879   3.129   5.123 -0.6554  0.3242 -0.2735
  189SAPI   H5X21782   5.980   3.174   5.131 -0.2025 -0.7089 -0.0656
  189SAPI   H5Y21783   5.807   3.207   5.154  0.0393  0.6262  0.6335
  189SAPI   C3621784   5.853   3.094   4.976  0.4137 -0.9632 -0.1713
  189SAPI   H6X21785   5.746   3.066   4.968  0.3408 -0.6236 -0.3699
  189SAPI   H6Y21786   5.925   3.014   4.947 -0.0878 -0.5434 -2.7842
  189SAPI   C3721787   5.881   3.218   4.883  0.2370  0.2601  0.4160
  189SAPI   H7X21788   5.988   3.248   4.884  0.8870 -1.5829 -2.0365
  189SAPI   H7Y21789   5.828   3.310   4.918 -0.7279 -0.2036  0.2026
  189SAPI   C3821790   5.844   3.204   4.738  0.6394 -0.4681 -0.1646
  189SAPI   H8X21791   5.736   3.188   4.759  0.9945 -0.2031  2.0865
  189SAPI   H8Y21792   5.892   3.115   4.693  1.3408  0.6948 -1.8512
  189SAPI   C3921793   5.864   3.331   4.657  0.1974 -0.1172 -0.1029
  189SAPI   H9X21794   5.963   3.324   4.607 -0.4571  1.5737 -1.7397
  189SAPI   H9Y21795   5.866   3.416   4.729 -1.5194 -0.0285 -0.1203
  189SAPI  C31021796   5.765   3.365   4.552  0.0831 -0.0348  1.0419
  189SAPI  H10X21797   5.668   3.376   4.605 -0.2690 -0.2475  0.4515
  189SAPI  H10Y21798   5.747   3.273   4.493 -1.0515  0.1322  1.1046
  189SAPI  C31121799   5.789   3.490   4.467 -0.4619 -0.0005 -0.4933
  189SAPI  H11X21800   5.888   3.478   4.417 -0.2240 -3.2551  0.4881
  189SAPI  H11Y21801   5.794   3.573   4.539  3.3196 -2.3322  2.3404
  189SAPI  C31221802   5.682   3.511   4.364  0.3138 -0.7356 -0.5686
  189SAPI  H12X21803   5.577   3.515   4.398  0.4573 -0.2642 -0.1651
  189SAPI  H12Y21804   5.676   3.425   4.294 -1.1770 -0.0465 -1.3522
  189SAPI  C31321805   5.710   3.623   4.257 -0.1058 -0.4842 -0.4304
  189SAPI  H13X21806   5.620   3.631   4.193 -0.7991  2.2995  0.7140
  189SAPI  H13Y21807   5.792   3.586   4.193 -0.6935  1.2697 -2.3075
  189SAPI  C31421808   5.731   3.760   4.324 -0.1646  0.0846  0.1632
  189SAPI  H14X21809   5.825   3.735   4.379 -0.2423  1.8122  1.1520
  189SAPI  H14Y21810   5.647   3.771   4.395  0.4044 -1.1510  1.0688
  189SAPI  C31521811   5.757   3.877   4.222  0.1742 -0.1177  0.2538
  189SAPI  H15X21812   5.661   3.889   4.167 -0.1576  0.7994  1.0189
  189SAPI  H15Y21813   5.833   3.854   4.144  0.6834  1.8336  0.1131
  189SAPI  C31621814   5.807   4.005   4.288 -0.6131 -0.2038  0.1730
  189SAPI  H16X21815   5.910   3.993   4.330  0.0188  1.8405 -0.6609
  189SAPI  H16Y21816   5.733   4.033   4.366 -0.2364  0.6450  0.2311
  189SAPI  C31721817   5.809   4.130   4.202 -0.1861  0.0116 -0.0803
  189SAPI  H17X21818   5.711   4.155   4.154  0.1303  0.4725 -0.4909
  189SAPI  H17Y21819   5.875   4.116   4.114 -0.9865 -0.0795 -0.6835
  189SAPI  C31821820   5.850   4.256   4.282 -0.0701  0.5232  0.5778
  189SAPI  H18X21821   5.945   4.236   4.336  0.2827  0.7589  0.0615
  189SAPI  H18Y21822   5.769   4.279   4.353 -0.4604  1.2580 -0.0826
  189SAPI  H18Z21823   5.853   4.341   4.209 -0.8221  0.9027  0.9783
  190SAPI   C1221824   6.738   6.142   6.588 -1.4018  0.0443  0.2091
  190SAPI    H221825   6.756   6.049   6.530  0.0748  0.1810  0.4007
  190SAPI    O221826   6.640   6.105   6.682 -0.1180  0.0598  0.2823
  190SAPI   HO221827   6.691   6.064   6.752  1.6290 -1.2068 -1.5931
  190SAPI   C1321828   6.878   6.170   6.651 -0.4548  0.3118 -0.3133
  190SAPI    H321829   6.947   6.178   6.564  1.4931  1.5448  1.2600
  190SAPI    O321830   6.925   6.059   6.733 -0.1661 -0.4013  0.5070
  190SAPI   HO321831   7.018   6.071   6.753 -0.7460  1.4947  2.5658
  190SAPI   C1421832   6.878   6.307   6.715 -0.0206  0.9857  0.0590
  190SAPI    H421833   6.803   6.294   6.796  1.2667 -0.3798  1.0854
  190SAPI    O421834   7.010   6.320   6.772  0.8102 -0.3594  0.0664
  190SAPI   HO421835   7.060   6.365   6.704 -1.1550 -0.0113 -1.2327
  190SAPI   C1521836   6.830   6.416   6.617 -0.5626  0.3406 -0.0385
  190SAPI    H521837   6.902   6.418   6.531 -0.2878  0.8223  0.1978
  190SAPI    O521838   6.842   6.548   6.669 -0.3420  0.1614  0.0764
  190SAPI   HO521839   6.937   6.558   6.664 -0.4453  1.1510 -0.0884
  190SAPI   C1621840   6.691   6.380   6.563 -0.0467 -0.1555  0.4392
  190SAPI    H621841   6.615   6.380   6.644  1.5479  1.6773  2.0305
  190SAPI    O621842   6.655   6.482   6.462 -0.6810  0.1203 -0.3830
  190SAPI   HO621843   6.716   6.482   6.387 -0.0547  0.6637  0.1173
  190SAPI   C1121844   6.698   6.256   6.495  0.1411 -0.0428 -0.0824
  190SAPI    H121845   6.774   6.274   6.416  0.0404  0.1608 -0.1347
  190SAPI     P21846   6.566   6.109   6.308 -0.3400  0.2142 -0.0922
  190SAPI   O1321847   6.430   6.072   6.264 -0.2948  0.2695  0.3840
  190SAPI   O1421848   6.654   5.989   6.334  1.2311 -0.1607 -0.0121
  190SAPI   O1221849   6.576   6.224   6.428  0.3797  0.4642 -0.0318
  190SAPI   O1121850   6.642   6.187   6.189 -0.1200  0.0992 -0.6499
  190SAPI    C121851   6.572   6.291   6.127 -0.0945  0.9640 -0.0740
  190SAPI    HA21852   6.479   6.312   6.185 -1.5406  1.3021 -2.3736
  190SAPI    HB21853   6.640   6.378   6.124  1.6517 -0.2461  1.7346
  190SAPI    C221854   6.530   6.240   5.979  0.2540 -0.3570  0.2906
  190SAPI    HS21855   6.493   6.327   5.920 -1.8189 -0.2158  1.6979
  190SAPI   O2121856   6.431   6.138   5.977 -0.0385  1.2218  0.3817
  190SAPI   C2121857   6.310   6.180   6.013  0.2083  0.0370 -0.0351
  190SAPI   O2221858   6.283   6.293   6.051  0.2581 -0.3304 -0.4773
  190SAPI   C2221859   6.205   6.075   5.985  0.7498  0.6131 -0.3231
  190SAPI   H2R21860   6.263   5.982   5.967  0.9039  0.5462  0.4572
  190SAPI   H2S21861   6.149   6.071   6.081  0.9572 -0.9091 -0.2414
  190SAPI    C321862   6.659   6.196   5.901 -0.4798  0.0809  0.4867
  190SAPI    HX21863   6.733   6.154   5.972  1.5741  1.1919 -0.8919
  190SAPI    HY21864   6.715   6.280   5.854  1.3874  0.2167  2.7479
  190SAPI   O3121865   6.619   6.099   5.796 -0.3429 -1.0500  0.1817
  190SAPI   C3121866   6.567   6.158   5.686 -0.3088  0.2674 -0.5664
  190SAPI   O3221867   6.580   6.268   5.647  0.8201  0.2472  0.4956
  190SAPI   C3221868   6.534   6.047   5.594  0.0333  0.1370  0.0679
  190SAPI   H2X21869   6.450   5.985   5.633  0.4129 -0.8205 -0.6013
  190SAPI   H2Y21870   6.617   5.974   5.586  0.7825  1.1329 -1.8583
  190SAPI   C2321871   6.121   6.112   5.856 -0.0908  0.1085 -0.0688
  190SAPI   H3R21872   6.056   6.200   5.872  0.5943  1.2842 -3.0830
  190SAPI   H3S21873   6.066   6.022   5.821 -1.1677  1.1982 -1.2589
  190SAPI   C2421874   6.207   6.128   5.728  0.2619 -0.2635 -0.0353
  190SAPI   H4R21875   6.258   6.029   5.727 -0.1162 -0.4740  0.5205
  190SAPI   H4S21876   6.283   6.205   5.748  1.1549 -1.5669  1.9066
  190SAPI   C2521877   6.120   6.152   5.607  0.2864 -0.7027  0.7437
  190SAPI   H5R21878   6.050   6.071   5.585  0.1534 -0.5572  0.6258
  190SAPI   C2621879   6.126   6.258   5.522  0.0542  0.2723 -0.1973
  190SAPI   H6R21880   6.064   6.252   5.431 -0.0539 -1.2626 -0.0547
  190SAPI   C2721881   6.218   6.373   5.520 -0.3391 -0.3015  0.5496
  190SAPI   H7R21882   6.289   6.368   5.434  0.1047  1.5182  0.7712
  190SAPI   H7S21883   6.286   6.382   5.607  0.6992  3.2600 -0.4561
  190SAPI   C2821884   6.153   6.507   5.513  0.0094 -0.4753  0.4013
  190SAPI   H8R21885   6.169   6.575   5.597  1.8375  0.3402 -0.5466
  190SAPI   C2921886   6.081   6.553   5.407 -0.0162 -1.3401 -0.0113
  190SAPI   H9R21887   6.051   6.657   5.423  3.0214 -0.2610 -0.5634
  190SAPI  C21021888   6.047   6.481   5.275 -0.0715  0.5698  0.0742
  190SAPI  H10R21889   5.959   6.417   5.297  0.1369  0.3943  0.4138
  190SAPI  H10S21890   6.133   6.412   5.256 -1.5030 -1.4067  0.4003
  190SAPI  C21121891   6.009   6.574   5.160 -0.4144  0.1885  0.1255
  190SAPI  H11R21892   5.933   6.652   5.178 -1.1259 -1.1230  3.5946
  190SAPI  C21221893   6.048   6.555   5.034  0.1879 -0.4610  0.1750
  190SAPI  H12R21894   6.010   6.617   4.952  3.5046 -0.8727 -1.8703
  190SAPI  C21321895   6.124   6.437   4.996 -0.3019 -0.2875  0.2118
  190SAPI  H13R21896   6.197   6.406   5.073 -0.4683  1.4167  1.1076
  190SAPI  H13S21897   6.183   6.469   4.907  3.7468 -1.6104  2.1751
  190SAPI  C21421898   6.030   6.321   4.963  0.0945 -0.1967 -0.6053
  190SAPI  H14R21899   5.994   6.274   5.055  0.2884 -1.2708 -1.0591
  190SAPI  C21521900   6.010   6.264   4.843 -0.4197  0.4399  0.0519
  190SAPI  H15R21901   5.941   6.179   4.839  1.0444 -0.7630 -0.6335
  190SAPI  C21621902   6.070   6.305   4.711  0.6524 -0.4902 -0.0673
  190SAPI  H16R21903   6.069   6.215   4.647  0.9735 -1.6302  1.4637
  190SAPI  H16S21904   6.171   6.350   4.718 -0.1610  1.2153  1.7854
  190SAPI  C21721905   5.981   6.419   4.639  0.4608 -0.1477 -0.1402
  190SAPI  H17R21906   6.004   6.518   4.683  0.1170  0.4089 -1.1728
  190SAPI  H17S21907   5.873   6.393   4.641  0.6794 -1.1766 -0.6782
  190SAPI  C21821908   5.999   6.431   4.488 -0.8043 -0.3546  0.1928
  190SAPI  H18R21909   5.964   6.338   4.437  0.2014 -0.0247 -1.1408
  190SAPI  H18S21910   6.105   6.443   4.459 -0.5372  0.1564  1.3208
  190SAPI  C21921911   5.918   6.543   4.421  0.0850 -0.5081 -0.1131
  190SAPI  H19R21912   5.956   6.645   4.446 -2.0046  0.6929 -1.6061
  190SAPI  H19S21913   5.813   6.538   4.455  0.5623  0.2167  1.6423
  190SAPI  C22021914   5.926   6.535   4.269 -0.1155  0.5662 -0.4830
  190SAPI  H20R21915   6.034   6.536   4.241 -0.4075 -0.1735 -1.6974
  190SAPI  H20S21916   5.876   6.625   4.225 -0.8054  0.5273  0.2039
  190SAPI  H20T21917   5.874   6.442   4.237 -0.1897  0.6864 -0.7195
  190SAPI   C3321918   6.488   6.102   5.458  0.3376  0.1499 -0.7001
  190SAPI   H3X21919   6.560   6.173   5.413 -0.4734  1.9298  0.6446
  190SAPI   H3Y21920   6.406   6.170   5.493 -0.1916 -1.9568  2.6333
  190SAPI   C3421921   6.447   5.991   5.362  0.3776  0.2575  0.0563
  190SAPI   H4X21922   6.402   5.906   5.420 -1.0571  1.0074  0.0813
  190SAPI   H4Y21923   6.528   5.950   5.298 -1.8410 -2.3835 -1.2335
  190SAPI   C3521924   6.336   6.031   5.266  0.0590 -0.1380  0.4030
  190SAPI   H5X21925   6.368   6.121   5.210  2.3306 -1.2943 -0.2779
  190SAPI   H5Y21926   6.245   6.060   5.322 -0.8001 -0.7043 -0.6580
  190SAPI   C3621927   6.318   5.911   5.173 -0.0878 -0.0086 -0.4341
  190SAPI   H6X21928   6.293   5.823   5.236 -1.6069  1.3648  0.9561
  190SAPI   H6Y21929   6.413   5.909   5.116  0.2610  0.9065  0.1039
  190SAPI   C3721930   6.204   5.937   5.073  0.0609  0.4672 -0.2857
  190SAPI   H7X21931   6.216   6.034   5.020  0.3735  1.0750  0.8628
  190SAPI   H7Y21932   6.112   5.953   5.134 -1.1329  0.4631 -1.9966
  190SAPI   C3821933   6.190   5.819   4.983 -0.2913  0.6602 -0.2473
  190SAPI   H8X21934   6.151   5.733   5.042  0.6321 -0.9426 -1.8693
  190SAPI   H8Y21935   6.290   5.787   4.947  1.5751  1.4536  3.6570
  190SAPI   C3921936   6.091   5.837   4.871 -0.2026 -0.2048  0.0525
  190SAPI   H9X21937   5.991   5.883   4.887  0.2630  1.0425 -0.4956
  190SAPI   H9Y21938   6.069   5.732   4.845  0.0277 -0.3115  0.2789
  190SAPI  C31021939   6.157   5.898   4.746  0.8231 -0.8107  0.0008
  190SAPI  H10X21940   6.257   5.860   4.717  1.1373  1.7728 -2.7839
  190SAPI  H10Y21941   6.170   6.008   4.757 -0.0176 -0.5507 -1.4449
  190SAPI  C31121942   6.070   5.889   4.616 -0.2042 -0.3435  0.2010
  190SAPI  H11X21943   5.977   5.949   4.627  0.6080  0.8165  1.0720
  190SAPI  H11Y21944   6.035   5.790   4.582 -0.0485 -0.0173 -0.9395
  190SAPI  C31221945   6.160   5.953   4.506  0.0874 -0.3581  0.1046
  190SAPI  H12X21946   6.246   5.883   4.508 -1.7566 -2.8027 -0.9445
  190SAPI  H12Y21947   6.199   6.050   4.542 -1.5058  0.5060 -0.3834
  190SAPI  C31321948   6.106   5.948   4.357  0.2456  0.4484 -0.2728
  190SAPI  H13X21949   6.093   5.844   4.319 -1.8002  0.6843 -0.3394
  190SAPI  H13Y21950   6.187   5.991   4.294  0.4980  1.3229  0.6291
  190SAPI  C31421951   5.978   6.027   4.321 -0.3354  0.1472 -0.0234
  190SAPI  H14X21952   6.007   6.134   4.327  2.9120 -0.5787 -0.5559
  190SAPI  H14Y21953   5.904   6.007   4.401 -2.2318  2.5755 -1.0249
  190SAPI  C31521954   5.923   5.978   4.190  0.7483  0.4607  0.3659
  190SAPI  H15X21955   5.904   5.869   4.186 -0.2295  0.6337  0.1520
  190SAPI  H15Y21956   6.015   5.985   4.128  1.2452 -3.0557  0.4840
  190SAPI  C31621957   5.813   6.062   4.118  0.0935 -0.2615  0.0529
  190SAPI  H16X21958   5.733   6.083   4.192 -0.6774  0.8914 -1.0543
  190SAPI  H16Y21959   5.773   6.010   4.028 -0.9362 -0.0225  0.3565
  190SAPI  C31721960   5.869   6.197   4.059  0.4155 -0.0877  0.3705
  190SAPI  H17X21961   5.930   6.161   3.973  0.9016 -2.0485  1.4642
  190SAPI  H17Y21962   5.936   6.258   4.124 -0.5023  3.6235 -1.8665
  190SAPI  C31821963   5.756   6.286   4.003  0.3279  0.5041 -0.1463
  190SAPI  H18X21964   5.801   6.370   3.946 -2.3447  0.3519 -2.6983
  190SAPI  H18Y21965   5.690   6.306   4.090  1.0095  2.0688  0.0564
  190SAPI  H18Z21966   5.694   6.224   3.936 -0.0276 -0.5494  1.1151
  191SAPI   C1221967   1.791   2.363   2.030  0.2456 -0.4679 -0.4811
  191SAPI    H221968   1.721   2.402   2.107  1.4886  0.7146  0.0946
  191SAPI    O221969   1.920   2.348   2.093  0.5081  0.3215  0.0965
  191SAPI   HO221970   1.907   2.392   2.177  0.7457 -0.7824  0.7297
  191SAPI   C1321971   1.738   2.249   1.961  0.2034  0.3396 -0.5553
  191SAPI    H321972   1.646   2.280   1.907 -2.1096  0.8297  3.2845
  191SAPI    O321973   1.695   2.149   2.060  0.0810 -0.3892  0.1961
  191SAPI   HO321974   1.771   2.097   2.086  0.4454 -0.9564 -1.8044
  191SAPI   C1421975   1.841   2.193   1.867 -0.5019 -0.0192  0.1100
  191SAPI    H421976   1.938   2.172   1.916  0.4528  1.9342 -0.8145
  191SAPI    O421977   1.798   2.073   1.813 -0.3517 -0.7020  0.2956
  191SAPI   HO421978   1.858   2.057   1.741  0.6109  1.4524  0.5291
  191SAPI   C1521979   1.863   2.300   1.759  0.1286 -0.7720  0.1640
  191SAPI    H521980   1.766   2.306   1.704 -0.4136 -3.1704  0.7386
  191SAPI    O521981   1.966   2.263   1.671 -0.3820 -0.6505  0.0149
  191SAPI   HO521982   2.049   2.312   1.675 -0.7006  0.0400 -1.3291
  191SAPI   C1621983   1.892   2.437   1.813 -0.1504 -0.2311  0.0456
  191SAPI    H621984   1.995   2.444   1.853 -0.2848 -0.6711  0.4663
  191SAPI    O621985   1.893   2.533   1.705 -0.2192 -0.3850 -0.4136
  191SAPI   HO621986   1.950   2.609   1.715  0.2145 -0.4410 -2.1629
  191SAPI   C1121987   1.792   2.476   1.924  0.4412  0.1933  0.4673
  191SAPI    H121988   1.690   2.486   1.881  1.1756  1.8232 -1.0277
  191SAPI     P21989   1.696   2.687   2.065  0.2616  0.1411 -0.2049
  191SAPI   O1321990   1.568   2.618   2.050  0.2417 -0.2407  0.6344
  191SAPI   O1421991   1.701   2.826   2.008 -0.1635 -0.2460 -0.2520
  191SAPI   O1221992   1.814   2.604   1.988 -0.2304  1.2665  0.2300
  191SAPI   O1121993   1.724   2.704   2.215 -0.0072  0.1812 -0.5573
  191SAPI    C121994   1.851   2.679   2.271  0.3187 -0.0940  0.4444
  191SAPI    HA21995   1.899   2.592   2.222  1.4222 -0.4782  2.1192
  191SAPI    HB21996   1.914   2.769   2.255  1.2864 -0.7184  0.6369
  191SAPI    C221997   1.848   2.650   2.417  0.2421 -0.4425  0.1265
  191SAPI    HS21998   1.949   2.617   2.451  0.8323  0.3375 -0.8238
  191SAPI   O2121999   1.745   2.554   2.452 -0.2987 -0.6138  0.0725
  191SAPI   C2122000   1.773   2.429   2.410  0.0266  0.3323 -0.1411
  191SAPI   O2222001   1.876   2.396   2.357  0.0812  0.7449  0.2083
  191SAPI   C2222002   1.663   2.339   2.466 -0.1888 -0.2555  0.7599
  191SAPI   H2R22003   1.708   2.268   2.539  1.9285 -0.6968 -0.8704
  191SAPI   H2S22004   1.584   2.402   2.512 -0.3353 -0.5837  0.9576
  191SAPI    C322005   1.825   2.788   2.495  0.1634  0.3243  0.0463
  191SAPI    HX22006   1.723   2.815   2.460  0.2530 -1.5631 -1.8163
  191SAPI    HY22007   1.900   2.862   2.461  1.5579 -0.8186  0.5784
  191SAPI   O3122008   1.841   2.758   2.635 -0.0116 -0.6804  0.0470
  191SAPI   C3122009   1.780   2.847   2.702 -0.4547  0.5555 -1.2746
  191SAPI   O3222010   1.728   2.952   2.670  0.0253  0.3830 -0.0334
  191SAPI   C3222011   1.789   2.801   2.846  0.0972 -0.2335  0.4094
  191SAPI   H2X22012   1.892   2.766   2.869 -0.1509 -0.1609  1.7428
  191SAPI   H2Y22013   1.715   2.718   2.854 -1.9926  1.3286 -1.6876
  191SAPI   C2322014   1.608   2.250   2.357 -0.2870  0.6050 -0.1026
  191SAPI   H3R22015   1.701   2.199   2.324 -1.2158 -1.3335  0.1351
  191SAPI   H3S22016   1.562   2.311   2.277  0.1419  1.0014 -0.0475
  191SAPI   C2422017   1.509   2.136   2.405  0.6007 -0.4391  0.0251
  191SAPI   H4R22018   1.572   2.072   2.470  1.1495  0.3713  0.3050
  191SAPI   H4S22019   1.491   2.076   2.313 -0.6403  1.8534 -1.3001
  191SAPI   C2522020   1.383   2.192   2.475  0.0483 -1.2313 -0.1358
  191SAPI   H5R22021   1.310   2.220   2.397  0.8773 -0.6700 -0.7233
  191SAPI   C2622022   1.346   2.215   2.604 -0.1575  0.1239 -0.5059
  191SAPI   H6R22023   1.248   2.255   2.633 -0.0935  0.9222 -1.3545
  191SAPI   C2722024   1.427   2.188   2.726  0.0639  0.0166 -0.1358
  191SAPI   H7R22025   1.529   2.145   2.710  0.5352  0.0535  2.3409
  191SAPI   H7S22026   1.378   2.115   2.794 -0.7114  2.0433  1.5808
  191SAPI   C2822027   1.439   2.323   2.798  1.1771  0.2763  0.2715
  191SAPI   H8R22028   1.404   2.411   2.742  1.3107  0.9826  1.2714
  191SAPI   C2922029   1.470   2.346   2.927 -0.4788  0.2044 -0.6105
  191SAPI   H9R22030   1.461   2.449   2.962 -1.1138  0.4828 -1.5469
  191SAPI  C21022031   1.502   2.237   3.021  0.2447 -0.1533  0.0394
  191SAPI  H10R22032   1.594   2.258   3.080 -1.5263  0.9188  2.6229
  191SAPI  H10S22033   1.532   2.148   2.963  1.6463  2.0407 -2.8728
  191SAPI  C21122034   1.383   2.202   3.114  0.0786 -0.5593  0.2824
  191SAPI  H11R22035   1.294   2.169   3.058  0.0044 -0.2687  0.2243
  191SAPI  C21222036   1.376   2.210   3.247 -0.7346  0.2267  0.9262
  191SAPI  H12R22037   1.285   2.179   3.300 -2.1137  4.3898  1.3605
  191SAPI  C21322038   1.492   2.264   3.321  0.5035  0.5200  0.2775
  191SAPI  H13R22039   1.450   2.317   3.410  1.6261  0.3272  0.9334
  191SAPI  H13S22040   1.543   2.353   3.278 -1.4200  1.9270  0.7362
  191SAPI  C21422041   1.595   2.164   3.354 -1.0352 -0.3076 -0.1154
  191SAPI  H14R22042   1.637   2.114   3.265  1.3483  2.9308 -1.0098
  191SAPI  C21522043   1.642   2.128   3.475 -0.0809 -0.8221  0.0508
  191SAPI  H15R22044   1.719   2.051   3.486 -1.0171 -1.7792  0.1049
  191SAPI  C21622045   1.600   2.186   3.605 -0.0669  1.2264  1.0833
  191SAPI  H16R22046   1.600   2.106   3.682 -4.0964 -1.1352 -1.0438
  191SAPI  H16S22047   1.496   2.217   3.583  0.0094  1.1389  0.5863
  191SAPI  C21722048   1.668   2.319   3.634  0.4096 -0.1906  0.6811
  191SAPI  H17R22049   1.628   2.400   3.568  1.3613 -1.3589 -1.4362
  191SAPI  H17S22050   1.778   2.323   3.617  0.2454  1.4093 -0.2165
  191SAPI  C21822051   1.651   2.361   3.787  1.1210  0.0072  0.2607
  191SAPI  H18R22052   1.683   2.287   3.863 -1.2638 -1.5817 -0.1472
  191SAPI  H18S22053   1.540   2.367   3.797  1.1143 -1.0835  1.0537
  191SAPI  C21922054   1.715   2.497   3.823  0.0969 -0.0734 -0.1250
  191SAPI  H19R22055   1.683   2.581   3.759  0.3373  0.2695  0.2006
  191SAPI  H19S22056   1.821   2.471   3.803 -0.2121 -2.1129  0.6249
  191SAPI  C22022057   1.702   2.539   3.974 -0.2553 -0.1060 -0.8580
  191SAPI  H20R22058   1.670   2.645   3.989  0.8857  0.1987 -0.4965
  191SAPI  H20S22059   1.779   2.503   4.045 -3.0305  0.5285  2.7817
  191SAPI  H20T22060   1.619   2.482   4.022  0.5205  1.3055  2.4566
  191SAPI   C3322061   1.747   2.918   2.938  0.2286  0.4600  0.1963
  191SAPI   H3X22062   1.650   2.963   2.910  0.3783  0.0221 -1.0916
  191SAPI   H3Y22063   1.808   3.010   2.933 -0.8519  1.1496 -0.4554
  191SAPI   C3422064   1.739   2.887   3.090  0.3096  0.3547 -0.1660
  191SAPI   H4X22065   1.837   2.865   3.138  0.1302  2.3150  1.2103
  191SAPI   H4Y22066   1.675   2.796   3.096 -0.1970  0.6312 -1.1384
  191SAPI   C3522067   1.670   3.006   3.155 -0.9357  0.4900 -0.1437
  191SAPI   H5X22068   1.568   3.010   3.112 -1.4167 -0.4123  0.8436
  191SAPI   H5Y22069   1.725   3.098   3.127 -0.3852 -0.5407 -2.7211
  191SAPI   C3622070   1.678   2.981   3.305  0.4831  0.0427 -0.2193
  191SAPI   H6X22071   1.702   3.070   3.367  2.3611 -0.6992  0.2070
  191SAPI   H6Y22072   1.761   2.911   3.330  0.2150  0.3748  1.7871
  191SAPI   C3722073   1.561   2.905   3.358  0.6329  0.2730 -0.3132
  191SAPI   H7X22074   1.569   2.803   3.316  0.2223  0.5124 -0.9848
  191SAPI   H7Y22075   1.466   2.950   3.323 -0.2025 -0.4148  1.0272
  191SAPI   C3822076   1.569   2.888   3.513  0.1146 -0.0354  0.5449
  191SAPI   H8X22077   1.570   2.990   3.555 -0.3920 -0.9842  3.0098
  191SAPI   H8Y22078   1.658   2.833   3.551 -0.1186 -0.7719  0.0634
  191SAPI   C3922079   1.440   2.815   3.560  0.5519 -0.3470 -0.4805
  191SAPI   H9X22080   1.437   2.711   3.522 -0.3279 -0.1179 -1.0727
  191SAPI   H9Y22081   1.354   2.854   3.502  2.0503  1.3893 -1.6444
  191SAPI  C31022082   1.404   2.832   3.712 -0.4298  0.5262 -0.1293
  191SAPI  H10X22083   1.404   2.939   3.741 -0.1245  0.0870  1.5964
  191SAPI  H10Y22084   1.485   2.782   3.769  1.5652  0.6179 -2.6846
  191SAPI  C31122085   1.272   2.761   3.750  0.3925 -0.2920 -0.1206
  191SAPI  H11X22086   1.277   2.652   3.726  1.0838 -0.3622  0.2981
  191SAPI  H11Y22087   1.182   2.800   3.699  1.2569  0.8355 -0.8442
  191SAPI  C31222088   1.256   2.765   3.902  0.1844 -0.6216 -0.3427
  191SAPI  H12X22089   1.263   2.869   3.938  1.0520  0.4231 -3.2666
  191SAPI  H12Y22090   1.350   2.729   3.950  0.1275  0.0919  0.3196
  191SAPI  C31322091   1.131   2.700   3.965 -0.0589 -0.4854 -0.0866
  191SAPI  H13X22092   1.109   2.608   3.906  0.8321 -1.5556  1.1700
  191SAPI  H13Y22093   1.048   2.773   3.954 -0.3160 -1.0303 -2.4095
  191SAPI  C31422094   1.149   2.660   4.112 -0.2386 -0.3782  0.4431
  191SAPI  H14X22095   1.153   2.748   4.181  0.3758 -0.7270  0.8647
  191SAPI  H14Y22096   1.255   2.627   4.116 -0.0575  0.0858 -0.2643
  191SAPI  C31522097   1.049   2.558   4.158  0.2290 -0.1341  0.0632
  191SAPI  H15X22098   1.090   2.523   4.255  1.7311 -2.0279 -1.1897
  191SAPI  H15Y22099   1.049   2.477   4.083  1.1677 -0.3620  0.3037
  191SAPI  C31622100   0.910   2.626   4.185 -0.0597 -0.4029 -0.1315
  191SAPI  H16X22101   0.838   2.553   4.228 -0.4689  1.4168  2.4484
  191SAPI  H16Y22102   0.861   2.669   4.095 -2.7252 -0.9812  0.9384
  191SAPI  C31722103   0.926   2.727   4.294 -0.6845 -0.0212 -0.4392
  191SAPI  H17X22104   0.972   2.823   4.261 -1.6017  0.0495 -1.5448
  191SAPI  H17Y22105   0.980   2.678   4.378 -0.8292 -0.3807 -0.5551
  191SAPI  C31822106   0.786   2.767   4.356  0.0332  0.0165 -0.1204
  191SAPI  H18X22107   0.727   2.673   4.361  0.4134 -0.2002  0.4451
  191SAPI  H18Y22108   0.732   2.836   4.288  0.0169  1.3334  1.1743
  191SAPI  H18Z22109   0.796   2.811   4.458  2.3910 -1.1510  0.2383
  192SAPI   C1222110   6.481   1.507   2.096 -0.5454  0.3341  0.2355
  192SAPI    H222111   6.491   1.573   2.185 -0.7861  1.0965 -0.2892
  192SAPI    O222112   6.395   1.395   2.131 -0.9859 -0.1405 -0.6558
  192SAPI   HO222113   6.445   1.345   2.196 -0.4349  2.4214  1.0558
  192SAPI   C1322114   6.425   1.604   1.994 -0.4085  0.7615  0.2773
  192SAPI    H322115   6.496   1.686   1.973  2.1601 -1.1307  0.9617
  192SAPI    O322116   6.310   1.665   2.049 -0.5833 -0.3317 -1.2254
  192SAPI   HO322117   6.246   1.597   2.071  1.1766 -2.2379 -1.6762
  192SAPI   C1422118   6.396   1.529   1.871  0.1784  0.2854 -0.0306
  192SAPI    H422119   6.330   1.447   1.906 -1.2215  1.6176  0.6165
  192SAPI    O422120   6.315   1.592   1.771 -0.1316 -0.0618 -0.3561
  192SAPI   HO422121   6.229   1.557   1.794 -0.1704  1.2748  1.8223
  192SAPI   C1522122   6.519   1.467   1.811  0.0594 -0.1484 -0.9483
  192SAPI    H522123   6.593   1.548   1.793 -0.6681  0.9780  0.9063
  192SAPI    O522124   6.497   1.405   1.683  0.1334  0.6781 -0.8813
  192SAPI   HO522125   6.448   1.324   1.701 -3.3117  2.8777  0.7478
  192SAPI   C1622126   6.575   1.372   1.924 -0.2086  0.6758  0.7527
  192SAPI    H622127   6.508   1.284   1.936  2.0370 -1.1498  0.8479
  192SAPI    O622128   6.693   1.324   1.867  0.1684  0.8130  0.0184
  192SAPI   HO622129   6.760   1.392   1.873  1.8343 -0.8170  1.1160
  192SAPI   C1122130   6.612   1.453   2.047 -0.4907  0.0468  0.1830
  192SAPI    H122131   6.680   1.537   2.023 -0.1724 -0.5352 -1.0737
  192SAPI     P22132   6.823   1.335   2.162 -0.5456 -0.4151 -0.3301
  192SAPI   O1322133   6.897   1.435   2.085  0.3748 -0.3870 -0.1271
  192SAPI   O1422134   6.854   1.191   2.132  0.4328 -0.3041 -0.1263
  192SAPI   O1222135   6.659   1.357   2.148  0.3526  0.1945 -0.0407
  192SAPI   O1122136   6.861   1.372   2.307 -0.2991 -0.0830  0.1434
  192SAPI    C122137   6.831   1.504   2.359 -0.0846 -0.0574  0.0956
  192SAPI    HA22138   6.849   1.582   2.282  1.6959 -0.2685  0.2408
  192SAPI    HB22139   6.723   1.505   2.386  0.0410 -0.3435  0.6259
  192SAPI    C222140   6.899   1.543   2.491  0.3990  1.0041 -0.1460
  192SAPI    HS22141   6.895   1.653   2.500  0.7618  0.9858  0.2889
  192SAPI   O2122142   7.035   1.486   2.508 -0.6092  0.2137 -0.2581
  192SAPI   C2122143   7.114   1.548   2.427  0.1701  0.4128  0.0707
  192SAPI   O2222144   7.092   1.655   2.369 -0.1764 -0.2169 -0.4126
  192SAPI   C2222145   7.246   1.467   2.410 -1.2064  0.2608 -0.0738
  192SAPI   H2R22146   7.274   1.426   2.509 -2.7423  0.3236  0.4201
  192SAPI   H2S22147   7.215   1.386   2.341 -1.0830  1.5246 -1.6778
  192SAPI    C322148   6.811   1.478   2.605  0.4870  0.1935 -0.7413
  192SAPI    HX22149   6.811   1.367   2.597  4.5417  0.1584 -2.4573
  192SAPI    HY22150   6.709   1.519   2.592  2.1699  5.2434 -0.1584
  192SAPI   O3122151   6.870   1.509   2.736  0.1755  0.0397 -0.3016
  192SAPI   C3122152   6.830   1.618   2.806 -1.2411 -0.4701 -0.1002
  192SAPI   O3222153   6.754   1.705   2.764  0.0648  0.3733 -0.0116
  192SAPI   C3222154   6.912   1.624   2.934  0.7515 -1.0179 -0.0178
  192SAPI   H2X22155   7.001   1.684   2.905 -0.5784  0.5869 -0.9869
  192SAPI   H2Y22156   6.942   1.518   2.947  1.2700 -1.0355 -1.2111
  192SAPI   C2322157   7.353   1.558   2.352 -0.6027 -0.2429  0.5604
  192SAPI   H3R22158   7.312   1.624   2.273  1.5586  2.1384  1.2744
  192SAPI   H3S22159   7.421   1.493   2.293 -0.7504  0.0054  0.1121
  192SAPI   C2422160   7.442   1.630   2.454 -0.5330 -0.7116  0.2952
  192SAPI   H4R22161   7.393   1.691   2.533  0.1887 -1.2690  1.1973
  192SAPI   H4S22162   7.488   1.714   2.398 -0.7593  0.5599  1.9254
  192SAPI   C2522163   7.543   1.545   2.520 -0.0667  0.4487  0.9252
  192SAPI   H5R22164   7.600   1.480   2.452  0.2317  1.3317  0.3127
  192SAPI   C2622165   7.572   1.528   2.648  0.1210 -0.2160 -0.9417
  192SAPI   H6R22166   7.658   1.467   2.678  2.0378  3.3926  1.7597
  192SAPI   C2722167   7.488   1.589   2.760 -0.5624 -0.7871 -0.0738
  192SAPI   H7R22168   7.456   1.685   2.714  0.0778 -0.6834 -0.3076
  192SAPI   H7S22169   7.554   1.622   2.843 -0.0398  2.1233 -1.5269
  192SAPI   C2822170   7.371   1.494   2.806  0.2185 -0.0034 -0.6596
  192SAPI   H8R22171   7.322   1.432   2.729  0.0144 -1.2442  0.4401
  192SAPI   C2922172   7.321   1.488   2.932  0.0479 -0.0007 -0.8922
  192SAPI   H9R22173   7.224   1.440   2.951  0.2646  0.0285  0.3429
  192SAPI  C21022174   7.369   1.578   3.049 -0.2123 -1.2355  0.4468
  192SAPI  H10R22175   7.297   1.547   3.129  0.2249 -2.5501  0.3539
  192SAPI  H10S22176   7.359   1.683   3.014 -1.2680 -1.2089  0.7774
  192SAPI  C21122177   7.513   1.561   3.099  0.1753  0.9493  0.1921
  192SAPI  H11R22178   7.600   1.585   3.036  1.5398  0.5335  1.8465
  192SAPI  C21222179   7.542   1.502   3.218  0.5036 -0.4495 -0.5721
  192SAPI  H12R22180   7.649   1.490   3.239  0.7472  0.6912 -1.0534
  192SAPI  C21322181   7.444   1.473   3.328  0.1518 -0.4109 -0.7533
  192SAPI  H13R22182   7.498   1.410   3.401 -0.1677  1.5410  1.2899
  192SAPI  H13S22183   7.350   1.424   3.295 -1.3532  1.1422  1.0039
  192SAPI  C21422184   7.406   1.605   3.404  0.1113  0.2275  0.8360
  192SAPI  H14R22185   7.381   1.693   3.343  0.0974  0.3478  1.0145
  192SAPI  C21522186   7.386   1.626   3.534 -0.9299  0.1453 -0.0545
  192SAPI  H15R22187   7.352   1.728   3.557 -1.4988 -0.2092  0.7080
  192SAPI  C21622188   7.400   1.528   3.648 -0.0068 -0.1606 -0.1251
  192SAPI  H16R22189   7.469   1.569   3.725  1.4493 -0.9444 -0.9750
  192SAPI  H16S22190   7.443   1.433   3.612  0.4056 -0.0625  0.1070
  192SAPI  C21722191   7.269   1.515   3.716 -0.0510 -0.3215 -0.3487
  192SAPI  H17R22192   7.184   1.495   3.647 -1.2840  0.3201  0.9436
  192SAPI  H17S22193   7.234   1.596   3.784 -3.1505 -2.4488  0.7964
  192SAPI  C21822194   7.274   1.382   3.803  0.5144  0.3622 -0.1356
  192SAPI  H18R22195   7.317   1.305   3.737  2.1384  1.9536 -1.0076
  192SAPI  H18S22196   7.169   1.353   3.828  1.2068 -1.3232  0.9479
  192SAPI  C21922197   7.362   1.386   3.928 -0.4951  0.5281  0.1381
  192SAPI  H19R22198   7.352   1.495   3.950 -1.6627  0.4791 -0.0668
  192SAPI  H19S22199   7.464   1.354   3.900 -1.3038  0.3738 -3.0194
  192SAPI  C22022200   7.300   1.310   4.049 -0.5800  1.2838 -0.3248
  192SAPI  H20R22201   7.369   1.280   4.131 -2.1120  0.0287  0.5653
  192SAPI  H20S22202   7.256   1.218   4.006 -0.8730  0.2599  2.0330
  192SAPI  H20T22203   7.214   1.373   4.080 -2.9344 -0.5451 -2.7375
  192SAPI   C3322204   6.836   1.682   3.062 -0.9861 -0.5286 -0.4385
  192SAPI   H3X22205   6.736   1.634   3.072 -1.0584 -1.2438 -3.5617
  192SAPI   H3Y22206   6.810   1.784   3.027  0.2939 -0.1301 -0.2673
  192SAPI   C3422207   6.929   1.687   3.188  0.7010 -0.4915 -0.3697
  192SAPI   H4X22208   6.978   1.588   3.197  0.6596 -0.4042  1.0727
  192SAPI   H4Y22209   6.871   1.686   3.282  2.9347 -1.1545  1.0738
  192SAPI   C3522210   7.027   1.803   3.203  0.8268  0.0173  0.0665
  192SAPI   H5X22211   6.963   1.891   3.182  0.9975 -0.1597 -1.3149
  192SAPI   H5Y22212   7.104   1.802   3.122 -0.4533  1.2093 -1.2301
  192SAPI   C3622213   7.091   1.800   3.341 -0.4397  0.4331 -0.2610
  192SAPI   H6X22214   7.186   1.857   3.329  0.0369 -0.7050 -2.4118
  192SAPI   H6Y22215   7.115   1.695   3.367 -1.1402  0.2423 -0.3552
  192SAPI   C3722216   7.001   1.857   3.451  0.2735  0.7054 -1.1826
  192SAPI   H7X22217   6.908   1.800   3.470  0.7973  0.4627  0.8366
  192SAPI   H7Y22218   6.965   1.955   3.413 -1.1429 -0.4638 -2.9809
  192SAPI   C3822219   7.075   1.884   3.584  0.2640  0.3779  0.5199
  192SAPI   H8X22220   7.169   1.938   3.560  0.8764 -1.5499 -1.8085
  192SAPI   H8Y22221   7.111   1.791   3.631 -1.5634 -0.2923  0.6900
  192SAPI   C3922222   7.003   1.967   3.688 -0.3344  0.4273  0.2854
  192SAPI   H9X22223   6.970   2.059   3.636  0.6799  0.3634 -0.4991
  192SAPI   H9Y22224   7.067   2.007   3.770 -3.4099  2.2878  1.9885
  192SAPI  C31022225   6.882   1.894   3.753 -0.7437 -0.4015 -0.0565
  192SAPI  H10X22226   6.894   1.785   3.770 -0.9200 -0.0919  2.3960
  192SAPI  H10Y22227   6.799   1.900   3.680 -0.4278 -1.0364 -0.4743
  192SAPI  C31122228   6.839   1.949   3.892  0.0962  0.2198  0.0816
  192SAPI  H11X22229   6.813   2.056   3.879  2.7806  0.9541  0.0438
  192SAPI  H11Y22230   6.924   1.940   3.963 -0.2421 -1.0756  0.3487
  192SAPI  C31222231   6.708   1.886   3.955 -0.4358  0.0116  1.3259
  192SAPI  H12X22232   6.701   1.777   3.932  0.0866 -0.3664  2.8000
  192SAPI  H12Y22233   6.622   1.935   3.905  0.6890  0.5727 -0.1225
  192SAPI  C31322234   6.699   1.906   4.105  0.2081  0.1028  0.1130
  192SAPI  H13X22235   6.707   2.014   4.130 -2.8981  0.8252 -1.6379
  192SAPI  H13Y22236   6.784   1.849   4.150 -0.4089 -0.8871  0.0659
  192SAPI  C31422237   6.562   1.864   4.157 -0.1889 -0.2894 -0.6398
  192SAPI  H14X22238   6.587   1.843   4.264 -0.9077  0.7843 -0.2482
  192SAPI  H14Y22239   6.511   1.777   4.111 -1.2137 -0.6315  1.0649
  192SAPI  C31522240   6.474   1.991   4.176 -0.4310  0.2775 -0.0551
  192SAPI  H15X22241   6.466   2.038   4.076  1.4777 -0.8732 -0.8000
  192SAPI  H15Y22242   6.515   2.065   4.249  2.4349 -1.4152  0.2038
  192SAPI  C31622243   6.332   1.951   4.225 -0.0498 -0.7235 -0.7689
  192SAPI  H16X22244   6.289   1.878   4.153  0.0798  0.4163 -2.0627
  192SAPI  H16Y22245   6.268   2.040   4.240 -1.6241 -1.8902 -0.3459
  192SAPI  C31722246   6.325   1.874   4.353  0.1878 -0.1404  0.0719
  192SAPI  H17X22247   6.383   1.782   4.331 -0.4820 -0.1840 -1.6155
  192SAPI  H17Y22248   6.220   1.844   4.373  1.1159 -3.3737  0.5567
  192SAPI  C31822249   6.372   1.945   4.479  0.3346 -0.4239 -0.5138
  192SAPI  H18X22250   6.342   1.896   4.573  1.1042 -2.8310 -1.4556
  192SAPI  H18Y22251   6.332   2.049   4.485 -0.5916 -0.7119 -1.3002
  192SAPI  H18Z22252   6.482   1.947   4.463  0.2325 -0.2361 -1.2777
  193POT    POT22253   2.362   3.040   2.059 -0.4111 -0.2315 -0.1281
  194POT    POT22254   0.330   4.705   8.052  0.3841  0.4318 -0.4791
  195POT    POT22255   4.482   1.365   6.546  0.4416  0.2465 -0.3335
  196POT    POT22256   6.961   0.810   0.789 -0.1385  0.0878  0.2284
  197POT    POT22257   5.931   2.955   7.883  0.4052  0.4545  0.0661
  198POT    POT22258   6.417   0.150   6.471 -0.1225 -0.1417 -0.2445
  199POT    POT22259   4.993   5.065   7.440  0.0894 -0.1841 -0.4533
  200POT    POT22260   6.474   5.361   2.285 -0.4624  0.3630 -0.1325
  201POT    POT22261   0.466   1.983   1.964 -0.0699 -0.6949  0.3719
  202POT    POT22262   1.280   6.697   1.470  0.0516  0.0848 -0.0525
  203POT    POT22263   6.071   5.883   1.706  0.2789 -0.2199  0.2911
  204POT    POT22264   2.542   2.769   6.913 -0.0994  0.1356 -0.0490
  205POT    POT22265   6.536   6.882   6.805 -0.4260 -0.1834  0.2792
  206POT    POT22266   1.762   5.789   6.549 -0.1587  0.2399  0.1536
  207POT    POT22267   4.224   2.631   7.688  0.3195  0.0404  0.2013
  208POT    POT22268   1.236   1.099   2.216 -0.3855  0.1193  0.1573
  209POT    POT22269   0.024   6.021   7.529  0.1102  0.3430  0.0308
  210POT    POT22270   2.116   1.830   6.135  0.3382 -0.1244  0.0065
  211POT    POT22271   0.912   4.776   6.740 -0.3201 -0.5292  0.1862
  212POT    POT22272   0.013   3.108   0.825  0.1602 -0.2121 -0.3038
  213POT    POT22273   6.582   0.769   6.803  0.3389 -0.0964 -0.2494
  214POT    POT22274   3.041   5.267   8.185 -0.1052  0.4489  0.0136
  215POT    POT22275   6.917   1.980   7.759  0.1900 -0.2049 -0.3163
  216POT    POT22276   2.874   1.039   1.081  0.1991  0.2848  0.0772
  217POT    POT22277   0.003   0.793   7.889 -0.3743  0.0787 -0.1392
  218POT    POT22278   0.264   0.702   1.925 -0.1457 -0.3594 -0.1873
  219POT    POT22279   6.424   5.049   1.082 -0.1970 -0.4396 -0.0291
  220POT    POT22280   4.835   0.973   1.334  0.3031 -0.3039  0.1492
  221POT    POT22281   6.301   3.880   7.459  0.0006 -0.1328 -0.0346
  222POT    POT22282   2.076   1.950   0.296  0.2424 -0.0805 -0.1992
  223POT    POT22283   6.334   0.790   1.065 -0.5205  0.2760  0.2103
  224POT    POT22284   0.767   1.905   7.394 -0.4679  0.0761  0.0452
  225POT    POT22285   2.005   3.706   7.214 -0.1961 -0.3486 -0.0677
  226POT    POT22286   2.765   6.480   0.076 -0.2005 -0.2485  0.2097
  227POT    POT22287   3.355   5.835   6.474  0.1224 -0.4893  0.0119
  228POT    POT22288   0.424   4.880   6.750 -0.0971  0.3156 -0.2563
  229POT    POT22289   1.239   3.985   6.827  0.2378 -0.1635  0.1563
  230POT    POT22290   3.299   2.359   6.355 -0.3777  0.0072 -0.1648
  231POT    POT22291   2.754   3.165   1.572  0.2738  0.0383  0.1134
  232POT    POT22292   6.581   6.674   7.135  0.1923 -0.2865  0.0071
  233CLA    CLA22293   4.312   1.406   1.608 -0.2356  0.3910 -0.4258
  234CLA    CLA22294   6.509   1.744   7.771 -0.0753  0.0530 -0.5235
  235CLA    CLA22295   4.283   1.456   0.658 -0.1186  0.0946  0.0260
  236CLA    CLA22296   6.543   0.114   7.221  0.1384  0.0939  0.2032
  237CLA    CLA22297   6.770   5.956   7.718 -0.1154 -0.1960  0.0544
  238CLA    CLA22298   1.344   1.797   7.141 -0.2961  0.2821 -0.2175
  239CLA    CLA22299   2.931   3.845   7.778 -0.0065  0.0331  0.1391
  240CLA    CLA22300   6.346   1.572   0.765 -0.0435  0.1298  0.3127
  241CLA    CLA22301   6.458   2.937   0.632 -0.0274  0.0126 -0.5489
  242CLA    CLA22302   3.498   5.488   8.319  0.2591 -0.5027  0.1007
  243CLA    CLA22303   3.267   6.824   0.866 -0.0904 -0.0571  0.4098
  244CLA    CLA22304   3.181   2.526   0.954  0.4579 -0.5258  0.1161
  245CLA    CLA22305   0.994   0.919   0.037  0.1813 -0.2712 -0.1857
  246CLA    CLA22306   1.982   5.595   8.139  0.0061 -0.0908 -0.1762
  247CLA    CLA22307   6.131   5.180   8.222 -0.2156  0.1809  0.0351
  248CLA    CLA22308   5.407   0.855   8.368 -0.1424 -0.4039  0.0711
  249TIP3   OH222309   5.497   4.748   7.200 -0.2145 -0.0120  0.1353
  249TIP3    H122310   5.508   4.685   7.129  1.2462 -0.4026  0.6533
  249TIP3    H222311   5.427   4.805   7.171 -2.4988 -2.5773  0.1638
  250TIP3   OH222312   6.269   3.056   0.870 -0.4369 -0.1792  0.9864
  250TIP3    H122313   6.192   3.005   0.844  0.7395 -1.3916 -0.3250
  250TIP3    H222314   6.339   3.026   0.811  1.2689  0.2495  2.6667
  251TIP3   OH222315   0.874   6.006   8.365 -0.7124 -0.7617 -0.1474
  251TIP3    H122316   0.922   5.937   8.411 -0.4550  0.6007  1.7225
  251TIP3    H222317   0.844   6.065   8.434 -2.2152  0.2290 -1.5610
  252TIP3   OH222318   1.669   5.196   7.245 -0.4995  0.6791  0.8982
  252TIP3    H122319   1.616   5.116   7.243 -0.6068  0.7676  0.0809
  252TIP3    H222320   1.677   5.223   7.154  1.0181  0.6338  0.9837
  253TIP3   OH222321   0.694   3.664   6.076 -0.7117  0.4033  0.2712
  253TIP3    H122322   0.607   3.683   6.110 -1.0846 -0.9733  0.1293
  253TIP3    H222323   0.719   3.744   6.029 -3.0084 -0.0546 -1.9263
  254TIP3   OH222324   2.873   4.270   0.622 -0.3316 -0.2336 -0.1809
  254TIP3    H122325   2.848   4.361   0.638 -0.9242 -0.2500 -0.9352
  254TIP3    H222326   2.862   4.226   0.706  0.1289  0.4263  0.2303
  255TIP3   OH222327   1.702   1.590   7.060  1.0436  0.4037 -0.0845
  255TIP3    H122328   1.794   1.573   7.083  0.8758 -0.3254  0.0712
  255TIP3    H222329   1.704   1.673   7.013  1.9025  0.0055 -0.7883
  256TIP3   OH222330   6.971   5.378   7.725 -0.0725  0.2986 -0.2802
  256TIP3    H122331   6.893   5.339   7.764  0.4860  0.0394  0.6134
  256TIP3    H222332   6.961   5.472   7.738  0.4197  0.1765  1.1342
  257TIP3   OH222333   5.213   5.045   0.663 -0.4163  0.1910 -0.4101
  257TIP3    H122334   5.154   4.971   0.649 -0.0727 -0.0867 -0.3958
  257TIP3    H222335   5.159   5.122   0.646 -0.2602 -0.0935 -2.4295
  258TIP3   OH222336   2.380   6.710   1.616  0.2134  0.2275  0.4643
  258TIP3    H122337   2.440   6.736   1.685 -1.4813  0.7051  1.8357
  258TIP3    H222338   2.427   6.644   1.566  1.1658 -0.8610  2.6773
  259TIP3   OH222339   2.135   6.529   6.714 -0.0850 -0.0738  0.1652
  259TIP3    H122340   2.192   6.561   6.644  0.6799 -0.8256  0.4131
  259TIP3    H222341   2.195   6.485   6.774 -0.6265  1.1915  1.6829
  260TIP3   OH222342   0.417   2.082   0.019 -0.4573 -0.0131 -0.0672
  260TIP3    H122343   0.386   1.994   0.042 -0.5001  0.0337  0.0564
  260TIP3    H222344   0.508   2.083   0.049  0.0943 -0.6076 -1.6286
  261TIP3   OH222345   6.032   1.565   7.680  0.2739 -0.2203 -0.5844
  261TIP3    H122346   6.024   1.494   7.616 -1.1791 -0.2680 -0.3811
  261TIP3    H222347   5.952   1.617   7.668 -0.0056 -0.1907  1.1304
  262TIP3   OH222348   4.892   4.191   0.868  0.3900  0.3006  0.7165
  262TIP3    H122349   4.943   4.118   0.903 -0.6133 -1.0941 -0.6000
  262TIP3    H222350   4.915   4.194   0.775 -0.7702  0.6288  0.4260
  263TIP3   OH222351   0.593   3.412   7.691 -0.6389  0.0591  0.5907
  263TIP3    H122352   0.670   3.458   7.725 -0.5870  1.3601 -1.1737
  263TIP3    H222353   0.626   3.362   7.617 -1.3959  0.1724  0.1761
  264TIP3   OH222354   3.107   6.962   0.268  0.1856  0.6869  0.0912
  264TIP3    H122355   3.176   6.992   0.328  1.9111  0.9328 -1.9198
  264TIP3    H222356   3.151   6.951   0.184 -2.2720  0.9417 -1.3140
  265TIP3   OH222357   2.391   1.202   6.021 -0.1936  0.1010  0.3459
  265TIP3    H122358   2.401   1.153   5.939  0.6403  0.5186  0.1860
  265TIP3    H222359   2.481   1.213   6.053 -0.2715  2.1266  0.0035
  266TIP3   OH222360   5.629   2.366   5.984 -0.2630 -0.1519 -0.2186
  266TIP3    H122361   5.693   2.405   5.924  0.4681  0.6616  1.0368
  266TIP3    H222362   5.649   2.273   5.984 -1.7192 -0.5479 -2.9061
  267TIP3   OH222363   1.955   4.924   7.195 -0.2804  0.2034  0.4349
  267TIP3    H122364   2.012   4.910   7.120 -1.2505 -0.9017 -0.1341
  267TIP3    H222365   1.868   4.898   7.165 -0.6247 -0.6770  2.0574
  268TIP3   OH222366   3.956   5.537   6.763 -0.6042  0.5781 -0.0090
  268TIP3    H122367   3.862   5.536   6.750 -0.4647  0.2843 -1.0779
  268TIP3    H222368   3.993   5.513   6.678  0.4179  0.0849  0.5477
  269TIP3   OH222369   0.056   6.978   7.868  0.0591  0.6508 -0.0381
  269TIP3    H122370   0.141   6.954   7.831  0.8213  3.5765 -0.3973
  269TIP3    H222371  -0.007   6.932   7.812  1.3308 -1.0577 -0.1728
  270TIP3   OH222372   2.472   1.758   6.402  0.6410  0.4145  0.0973
  270TIP3    H122373   2.430   1.674   6.383  0.2432  0.9787 -1.7878
  270TIP3    H222374   2.543   1.765   6.337  1.0679  1.2541  0.6321
  271TIP3   OH222375   0.710   4.554   5.399  0.2080 -0.1936 -0.1151
  271TIP3    H122376   0.729   4.582   5.488  0.7739 -0.4272 -0.1582
  271TIP3    H222377   0.787   4.578   5.348  1.2938 -2.8416  0.0815
  272TIP3   OH222378   2.084   5.135   0.499 -0.3950 -0.0839 -0.3839
  272TIP3    H122379   2.161   5.130   0.442  0.1694  2.3321  0.0514
  272TIP3    H222380   2.120   5.132   0.588 -1.1102 -1.9402 -0.1097
  273TIP3   OH222381   1.773   5.567   6.732  0.3279 -0.7453  0.1837
  273TIP3    H122382   1.815   5.492   6.690  0.9537 -1.0355  1.3002
  273TIP3    H222383   1.795   5.559   6.824 -0.3214  0.3461  0.4550
  274TIP3   OH222384   4.439   6.971   0.498  0.0785  0.2761 -0.2419
  274TIP3    H122385   4.484   6.918   0.432 -0.2153  1.0141 -1.0509
  274TIP3    H222386   4.472   6.938   0.582 -0.6385 -1.6523 -0.6916
  275TIP3   OH222387   4.335   2.739   6.834 -0.1606 -0.4618  0.1746
  275TIP3    H122388   4.283   2.658   6.829 -0.7416 -0.0395 -1.0672
  275TIP3    H222389   4.351   2.752   6.927 -2.0438 -0.7656  0.5638
  276TIP3   OH222390   1.877   1.818   7.395 -0.0772 -0.6305 -0.1306
  276TIP3    H122391   1.885   1.894   7.338  0.6041  0.3561  1.1937
  276TIP3    H222392   1.851   1.854   7.480  0.8047 -1.7992  0.6795
  277TIP3   OH222393   0.939   0.556   0.268  0.3413  0.3732  0.0050
  277TIP3    H122394   0.902   0.644   0.272 -0.0727  0.1539  2.2013
  277TIP3    H222395   0.865   0.498   0.289  0.8822 -0.4214 -0.2230
  278TIP3   OH222396   2.015   6.869   6.901 -0.4149  0.5983  0.0267
  278TIP3    H122397   1.958   6.795   6.879 -0.4409 -0.5809  3.5476
  278TIP3    H222398   2.072   6.877   6.824  0.7982 -4.3541  0.0096
  279TIP3   OH222399   4.800   1.114   6.208 -0.1415 -0.1884  0.5411
  279TIP3    H122400   4.749   1.041   6.174  0.2593 -0.2810  0.1198
  279TIP3    H222401   4.891   1.085   6.200 -0.0396 -0.3556  2.0256
  280TIP3   OH222402   0.005   5.785   7.997  0.3446 -0.6796 -0.2162
  280TIP3    H122403  -0.036   5.733   7.928 -0.3255 -0.3647 -0.0648
  280TIP3    H222404   0.079   5.829   7.954 -0.2627 -0.2275 -0.8213
  281TIP3   OH222405   1.850   6.714   7.343 -0.0036  0.1218  0.2997
  281TIP3    H122406   1.836   6.809   7.346 -0.8121  0.0132  0.2673
  281TIP3    H222407   1.774   6.681   7.295  1.3390 -0.3457 -1.6450
  282TIP3   OH222408   2.486   2.126   1.511  0.3101 -0.1306 -0.5851
  282TIP3    H122409   2.408   2.107   1.563 -0.2448  0.7439 -1.0789
  282TIP3    H222410   2.542   2.176   1.570 -0.4863  1.1993 -0.9181
  283TIP3   OH222411   5.251   2.322   7.338 -0.4994 -0.5624 -0.9116
  283TIP3    H122412   5.172   2.312   7.391  0.5296  2.3803  1.4449
  283TIP3    H222413   5.314   2.261   7.377 -0.1765  0.6012  0.4752
  284TIP3   OH222414   3.277   0.550   7.366  0.4936 -0.9158  0.3868
  284TIP3    H122415   3.351   0.524   7.421  0.2161  0.5451  1.5218
  284TIP3    H222416   3.254   0.638   7.397 -0.4023 -0.4979 -1.3373
  285TIP3   OH222417   6.893   3.765   5.945  0.1876 -0.3095 -0.2508
  285TIP3    H122418   6.855   3.822   5.878  0.8663  0.2734 -0.1569
  285TIP3    H222419   6.986   3.763   5.925  0.3208 -0.5589  0.3626
  286TIP3   OH222420   2.097   3.804   6.605 -0.2390  0.1717 -0.2306
  286TIP3    H122421   2.166   3.743   6.579  0.4895  0.9963 -0.2519
  286TIP3    H222422   2.143   3.880   6.640 -1.1449 -0.5229  2.7871
  287TIP3   OH222423   0.849   3.405   6.746  0.3500  0.0689 -1.0714
  287TIP3    H122424   0.912   3.471   6.718  0.4157  0.0690 -0.9236
  287TIP3    H222425   0.887   3.321   6.720 -0.0548  0.1307 -1.8799
  288TIP3   OH222426   0.718   1.517   8.255  0.2645 -0.3033  0.0116
  288TIP3    H122427   0.785   1.494   8.320  1.0492 -0.2910 -0.7826
  288TIP3    H222428   0.670   1.589   8.295  0.8992 -0.1313  0.4774
  289TIP3   OH222429   4.823   6.054   1.366 -0.7068  0.5847 -0.4351
  289TIP3    H122430   4.759   6.023   1.431 -0.7605  1.7677  0.0971
  289TIP3    H222431   4.908   6.028   1.402 -0.7745  0.6891 -0.1952
  290TIP3   OH222432   2.211   2.852   2.217 -0.1465 -0.6372  0.4361
  290TIP3    H122433   2.183   2.909   2.289  2.7944  0.5680  0.7596
  290TIP3    H222434   2.276   2.795   2.256 -0.9851 -2.3443 -0.5704
  291TIP3   OH222435   6.175   1.350   1.286 -0.2964  0.3248  0.0145
  291TIP3    H122436   6.124   1.338   1.366 -0.8660  0.3816 -0.3351
  291TIP3    H222437   6.266   1.337   1.313 -0.2879  2.2265  1.0814
  292TIP3   OH222438   6.436   1.225   1.429 -0.3805  0.1668  0.2477
  292TIP3    H122439   6.398   1.138   1.411 -3.2384  0.8114  2.4310
  292TIP3    H222440   6.498   1.209   1.500 -0.0096 -0.2166 -0.1488
  293TIP3   OH222441   4.428   3.430   0.365  0.1175  0.3244  0.6347
  293TIP3    H122442   4.464   3.345   0.392  1.4210  0.0606 -1.6379
  293TIP3    H222443   4.500   3.492   0.376  0.5454  0.3005 -1.4707
  294TIP3   OH222444   1.080   5.690   6.113 -0.1939 -0.0903  0.2641
  294TIP3    H122445   1.134   5.737   6.049 -1.9209  0.2744 -1.0181
  294TIP3    H222446   1.067   5.604   6.074 -0.3245 -0.2520  0.6680
  295TIP3   OH222447   2.511   5.791   7.522 -0.1922 -0.6404 -0.3367
  295TIP3    H122448   2.452   5.724   7.489  0.9779 -2.2244  0.6306
  295TIP3    H222449   2.485   5.803   7.614  0.2068 -0.4676 -0.2417
  296TIP3   OH222450   5.781   1.222   6.115 -0.2757  0.6386  0.3138
  296TIP3    H122451   5.790   1.310   6.153 -2.3175  1.0611 -0.0139
  296TIP3    H222452   5.705   1.230   6.057  1.5643 -0.4802 -2.4108
  297TIP3   OH222453   4.577   5.179   2.235 -0.2777  0.2327 -0.2620
  297TIP3    H122454   4.664   5.171   2.196 -0.8485  0.7690 -1.6877
  297TIP3    H222455   4.549   5.088   2.248  0.6965  0.0485  0.7355
  298TIP3   OH222456   0.685   1.969   0.147  0.4811 -0.4106 -0.3148
  298TIP3    H122457   0.743   1.920   0.089  1.4365 -0.8875  0.9846
  298TIP3    H222458   0.630   1.903   0.188  0.8910 -0.2806  0.4758
  299TIP3   OH222459   3.113   2.301   7.456  0.2291 -0.5753 -0.0327
  299TIP3    H122460   3.153   2.237   7.514  0.8369 -0.1545  0.0233
  299TIP3    H222461   3.128   2.385   7.500 -0.4149 -0.3722 -0.1831
  300TIP3   OH222462   5.070   2.203   1.510  0.1687 -0.0009 -0.9597
  300TIP3    H122463   5.038   2.162   1.590 -2.0125  0.3289 -1.5938
  300TIP3    H222464   5.109   2.132   1.460  1.4920 -0.2246  0.3310
  301TIP3   OH222465   5.471   4.788   1.837  0.3154  0.3007 -0.3477
  301TIP3    H122466   5.535   4.719   1.855 -2.4567 -1.8749  2.2118
  301TIP3    H222467   5.500   4.862   1.890  0.4185 -0.8702  1.2864
  302TIP3   OH222468   6.516   3.667   8.347 -0.2073  0.5729 -0.0377
  302TIP3    H122469   6.469   3.659   8.263 -1.0543  0.3176  0.4458
  302TIP3    H222470   6.452   3.708   8.406 -0.3436 -1.1150  1.0442
  303TIP3   OH222471   5.483   5.698   6.269  0.0478 -0.0345  0.1122
  303TIP3    H122472   5.565   5.650   6.260 -0.5169 -1.2416  1.1399
  303TIP3    H222473   5.463   5.694   6.363 -0.0701  2.1561  0.2376
  304TIP3   OH222474   3.424   3.765   8.243  0.6367  0.1765  0.2050
  304TIP3    H122475   3.350   3.710   8.218  0.7902 -0.3124  0.7956
  304TIP3    H222476   3.387   3.833   8.298  0.5172  0.3791 -0.1257
  305TIP3   OH222477   5.077   6.359   1.879 -0.0111 -0.4537 -0.0320
  305TIP3    H122478   5.170   6.367   1.857  0.6602 -2.8327  1.5574
  305TIP3    H222479   5.059   6.437   1.932  1.8863 -1.2189  1.9165
  306TIP3   OH222480   0.424   2.960   0.574  0.0500 -0.3568  0.4068
  306TIP3    H122481   0.387   2.872   0.569  0.3744 -0.4240 -1.2348
  306TIP3    H222482   0.518   2.946   0.586  0.2648 -0.2780 -1.0223
  307TIP3   OH222483   4.952   6.353   0.942  0.3869  0.2598  0.0654
  307TIP3    H122484   4.959   6.297   1.019  0.0645 -0.3229 -0.3228
  307TIP3    H222485   4.889   6.421   0.966  0.5148  0.2518  0.4178
  308TIP3   OH222486   2.779   3.569   7.626  0.0507  0.5126  0.1932
  308TIP3    H122487   2.841   3.540   7.693  0.8516  0.1256 -0.7045
  308TIP3    H222488   2.757   3.658   7.653 -1.3952 -0.3684  2.2175
  309TIP3   OH222489   5.282   5.296   0.982  0.6053 -0.4549  0.2406
  309TIP3    H122490   5.257   5.381   1.019  0.6773 -0.1609 -0.3799
  309TIP3    H222491   5.297   5.314   0.890 -0.4846 -1.3675 -0.1303
  310TIP3   OH222492   2.686   6.482   7.942  0.2993  0.6346 -0.5359
  310TIP3    H122493   2.599   6.449   7.963  1.1840 -0.7771  1.2010
  310TIP3    H222494   2.677   6.521   7.855 -1.7709 -0.5372 -0.9053
  311TIP3   OH222495   0.027   2.366   1.727 -0.1243 -0.0266 -0.7826
  311TIP3    H122496  -0.032   2.389   1.656 -1.0170 -0.2452 -0.1357
  311TIP3    H222497   0.068   2.449   1.752 -0.1948  0.1369 -1.2046
  312TIP3   OH222498   1.429   5.841   6.979  0.1191 -0.1637 -0.3185
  312TIP3    H122499   1.475   5.777   7.033  1.3409  0.3690 -0.6681
  312TIP3    H222500   1.400   5.908   7.040 -0.8406 -0.8566  0.0005
  313TIP3   OH222501   3.788   3.437   2.081  0.6664  0.3947  0.5553
  313TIP3    H122502   3.769   3.449   1.988  0.5982  0.9611  0.6385
  313TIP3    H222503   3.881   3.416   2.084  0.8187  1.0256  0.4044
  314TIP3   OH222504   2.645   1.841   0.474 -0.3297  0.1218 -0.0932
  314TIP3    H122505   2.713   1.907   0.459 -0.4974 -0.1155 -2.1548
  314TIP3    H222506   2.615   1.816   0.387 -2.0888 -0.8237  0.7110
  315TIP3   OH222507   0.176   6.269   1.602 -0.0761  0.2780  0.5455
  315TIP3    H122508   0.174   6.200   1.668 -1.9658 -2.7085 -2.3381
  315TIP3    H222509   0.259   6.258   1.557 -0.4329 -0.2335  0.0024
  316TIP3   OH222510   0.890   3.458   8.262 -0.1571 -0.3998  0.1664
  316TIP3    H122511   0.979   3.435   8.287  0.1923 -2.0690 -2.2423
  316TIP3    H222512   0.859   3.383   8.211 -1.8432  1.3308 -1.5425
  317TIP3   OH222513   4.265   4.757   6.309  0.0936  0.1551 -0.0680
  317TIP3    H122514   4.345   4.707   6.290  0.6907  0.8757  0.4664
  317TIP3    H222515   4.219   4.761   6.225 -0.1490 -1.5647 -0.0466
  318TIP3   OH222516   4.206   6.250   1.081  0.2217 -0.1271 -0.1204
  318TIP3    H122517   4.199   6.270   1.175 -0.0089 -0.2631 -0.1062
  318TIP3    H222518   4.161   6.321   1.037 -1.5068 -1.0934 -0.0197
  319TIP3   OH222519   4.449   4.929   7.880 -0.1893 -0.1828 -0.0939
  319TIP3    H122520   4.395   4.872   7.935  1.9921  0.2280  2.7205
  319TIP3    H222521   4.426   5.018   7.907  0.0806  0.0809 -0.7141
  320TIP3   OH222522   6.911   1.094   6.453  0.1880  0.0034  0.2646
  320TIP3    H122523   6.971   1.105   6.379 -0.4733 -0.5931 -0.3706
  320TIP3    H222524   6.967   1.101   6.531  0.7472  1.6584 -0.2380
  321TIP3   OH222525   5.606   5.283   6.819 -0.2249  0.2729  0.4665
  321TIP3    H122526   5.600   5.299   6.913  1.2632 -1.9987  1.0255
  321TIP3    H222527   5.620   5.369   6.781 -0.5752  1.2110  2.3442
  322TIP3   OH222528   5.609   5.746   8.203 -0.1849 -0.4953 -0.4183
  322TIP3    H122529   5.543   5.677   8.198 -1.3364  0.5154  0.1497
  322TIP3    H222530   5.677   5.719   8.143 -0.6721 -2.0530 -0.3079
  323TIP3   OH222531   3.389   1.169   7.733 -0.3325  0.4080  0.1941
  323TIP3    H122532   3.381   1.186   7.639  2.2394  0.8746 -0.0289
  323TIP3    H222533   3.417   1.078   7.739 -0.6518  0.3292  0.5373
  324TIP3   OH222534   1.014   6.889   7.809 -0.1429 -0.2217  0.2905
  324TIP3    H122535   1.056   6.974   7.794 -0.3313  0.2084  2.0245
  324TIP3    H222536   1.083   6.825   7.796  0.9491  0.4294  2.4319
  325TIP3   OH222537   5.955   2.407   1.634 -0.4432  0.2361 -0.1562
  325TIP3    H122538   5.890   2.398   1.704 -1.3970  0.5621 -0.9801
  325TIP3    H222539   5.932   2.338   1.571  1.1719 -0.8847  0.4060
  326TIP3   OH222540   5.029   4.625   1.470 -0.4374  0.2847  0.0725
  326TIP3    H122541   5.063   4.574   1.544 -0.5849 -0.7092 -0.5232
  326TIP3    H222542   5.095   4.692   1.455  1.0755 -1.2985 -0.7478
  327TIP3   OH222543   1.180   0.525   6.453  0.4868  0.1158 -0.1028
  327TIP3    H122544   1.269   0.491   6.463  0.1358 -1.0187 -0.7186
  327TIP3    H222545   1.148   0.485   6.373 -0.0523  1.7195 -0.7276
  328TIP3   OH222546   0.336   6.717   1.064 -0.0788 -0.0653 -0.2347
  328TIP3    H122547   0.259   6.758   1.024 -0.4175 -1.1297 -0.7187
  328TIP3    H222548   0.399   6.711   0.992  0.6735  1.2720  0.2822
  329TIP3   OH222549   2.707   1.746   7.513 -0.5744 -0.0253 -0.4348
  329TIP3    H122550   2.766   1.733   7.439 -0.4657 -0.2005 -0.3192
  329TIP3    H222551   2.763   1.781   7.583 -0.3298 -1.3915  0.0920
  330TIP3   OH222552   1.830   6.847   0.756  0.2076 -0.2402 -0.4723
  330TIP3    H122553   1.806   6.765   0.712  1.0605 -0.2605 -0.9283
  330TIP3    H222554   1.767   6.911   0.723  0.1290 -0.5114 -0.8528
  331TIP3   OH222555   2.999   4.037   8.317  0.2746  0.0848  0.4272
  331TIP3    H122556   2.973   4.039   8.409  2.5205  0.3909  1.1127
  331TIP3    H222557   3.019   4.128   8.296  1.2508 -0.2009  0.0954
  332TIP3   OH222558   1.172   6.555   0.507 -0.0376  0.0560 -0.4126
  332TIP3    H122559   1.100   6.564   0.444  0.0013 -0.2513 -0.5055
  332TIP3    H222560   1.144   6.606   0.583  0.3888  1.3093 -1.0813
  333TIP3   OH222561   1.234   0.770   7.019  0.5887  0.1537 -0.1932
  333TIP3    H122562   1.303   0.774   6.953  0.0676 -1.5042 -0.8971
  333TIP3    H222563   1.186   0.853   7.008  1.3787  0.5404 -0.8969
  334TIP3   OH222564   0.834   1.997   7.017 -0.3631 -0.5070  0.0517
  334TIP3    H122565   0.757   1.969   7.068 -0.0227  0.1315  0.9336
  334TIP3    H222566   0.888   2.045   7.079 -0.9769  2.2727 -1.4126
  335TIP3   OH222567   0.392   5.022   0.807  0.5210 -0.4492 -0.2716
  335TIP3    H122568   0.318   4.983   0.852  0.8069 -1.2472 -0.4777
  335TIP3    H222569   0.458   4.953   0.804  1.3015  0.2578 -0.0435
  336TIP3   OH222570   2.746   4.147   6.255  0.2160  0.3813 -0.1764
  336TIP3    H122571   2.651   4.151   6.260  0.1751 -0.1266 -0.4492
  336TIP3    H222572   2.775   4.236   6.276 -0.3317  0.6285 -0.4367
  337TIP3   OH222573   0.420   5.671   7.825 -0.4470 -0.1899  0.3028
  337TIP3    H122574   0.418   5.581   7.791 -2.0144  0.5432 -1.7507
  337TIP3    H222575   0.496   5.711   7.782 -0.2025 -0.2945  0.6286
  338TIP3   OH222576   3.155   1.001   5.743  0.1887 -0.2461 -0.3935
  338TIP3    H122577   3.245   1.033   5.730 -0.1420  0.6549 -0.5384
  338TIP3    H222578   3.102   1.081   5.748 -0.7458 -0.7955 -1.3253
  339TIP3   OH222579   2.242   4.783   2.137  0.0660  0.1466  0.0457
  339TIP3    H122580   2.272   4.855   2.193 -0.7261 -0.6957  1.6304
  339TIP3    H222581   2.147   4.796   2.131  0.3270  1.6081 -3.1992
  340TIP3   OH222582   2.936   3.440   7.084  0.0292  0.2814  0.0944
  340TIP3    H122583   2.967   3.437   7.174  0.1958  2.6440  0.1808
  340TIP3    H222584   2.866   3.506   7.085  0.0010  0.3240 -1.4845
  341TIP3   OH222585   4.083   5.876   6.649 -0.2657 -0.3042 -0.1391
  341TIP3    H122586   4.131   5.817   6.707  3.0827  2.5948  0.3111
  341TIP3    H222587   4.117   5.856   6.562  0.2029  0.3334 -0.1046
  342TIP3   OH222588   4.334   4.106   1.727  0.1093  0.0231 -0.4659
  342TIP3    H122589   4.352   4.115   1.634 -0.1975 -0.2514 -0.5542
  342TIP3    H222590   4.254   4.156   1.742  0.9648  1.3215 -0.0564
  343TIP3   OH222591   0.733   3.570   0.557  0.0903 -0.5296 -0.3405
  343TIP3    H122592   0.822   3.567   0.523 -0.3827  0.2779 -1.7976
  343TIP3    H222593   0.693   3.488   0.528  0.5516 -1.2325  0.9609
  344TIP3   OH222594   4.947   0.231   8.217  0.4410  0.2966  0.5664
  344TIP3    H122595   4.883   0.266   8.279 -0.8391 -2.3651  0.8454
  344TIP3    H222596   5.003   0.174   8.270 -0.5606 -1.8792 -0.6426
  345TIP3   OH222597   5.913   3.007   1.020 -0.4333  0.3746  0.3487
  345TIP3    H122598   5.942   2.950   0.950 -0.4990  0.5196  0.2030
  345TIP3    H222599   5.903   2.949   1.096  0.5773  0.3802  0.5029
  346TIP3   OH222600   1.606   6.076   7.256 -0.0381  0.1342  0.2977
  346TIP3    H122601   1.599   6.009   7.325  0.9949 -0.9283 -0.5832
  346TIP3    H222602   1.532   6.134   7.272  0.3261  0.1056  2.4953
  347TIP3   OH222603   0.483   4.660   1.565 -0.0767  0.2113  0.3384
  347TIP3    H122604   0.524   4.729   1.513 -1.0705 -0.5796 -1.6102
  347TIP3    H222605   0.555   4.602   1.589  0.6007  1.3051  1.0296
  348TIP3   OH222606   3.145   1.707   7.401 -0.3772  0.2740 -0.1169
  348TIP3    H122607   3.199   1.781   7.372 -0.0810  0.2936  0.4617
  348TIP3    H222608   3.147   1.713   7.497  1.3932 -1.7153  0.0567
  349TIP3   OH222609   5.623   0.455   0.143 -0.0482 -0.3139  0.0139
  349TIP3    H122610   5.681   0.485   0.074 -0.5995 -0.3290 -0.4612
  349TIP3    H222611   5.625   0.525   0.208  0.9279 -0.5591  0.2645
  350TIP3   OH222612   0.740   5.535   1.134 -0.2219 -0.1457  0.2973
  350TIP3    H122613   0.720   5.474   1.063  2.7291 -1.5750  0.5360
  350TIP3    H222614   0.659   5.539   1.185 -1.0756 -2.5379 -0.6941
  351TIP3   OH222615   5.064   1.960   0.924 -0.6509 -0.0424  0.1408
  351TIP3    H122616   5.075   1.947   1.018  0.2597 -1.0109 -0.0846
  351TIP3    H222617   5.141   2.009   0.897  0.2682 -1.7341 -0.4584
  352TIP3   OH222618   2.783   0.199   1.309 -0.2009  0.1040  0.7495
  352TIP3    H122619   2.867   0.228   1.345 -0.5062  0.3552  1.2679
  352TIP3    H222620   2.788   0.221   1.216  0.5274 -0.3924  0.6626
  353TIP3   OH222621   5.572   6.239   7.477  0.0631 -0.0701  0.2309
  353TIP3    H122622   5.507   6.255   7.408  0.5513 -0.6485 -0.3654
  353TIP3    H222623   5.591   6.327   7.512  0.8511  0.4189 -1.3208
  354TIP3   OH222624   6.794   4.077   1.538  0.5527  0.3369 -0.4853
  354TIP3    H122625   6.786   3.982   1.532 -2.4859  0.3665  1.3149
  354TIP3    H222626   6.810   4.094   1.631  0.9402  1.5934 -0.7648
  355TIP3   OH222627   5.968   0.308   0.189 -0.6034  0.1161  0.6902
  355TIP3    H122628   5.943   0.248   0.259 -1.2295  1.3653  1.5911
  355TIP3    H222629   5.921   0.277   0.112 -0.5486 -0.8006  1.0164
  356TIP3   OH222630   4.492   6.265   1.793 -0.1683  0.0967 -0.0530
  356TIP3    H122631   4.512   6.189   1.848 -1.0237 -0.4232 -0.4525
  356TIP3    H222632   4.574   6.282   1.746  0.0564 -0.5116  0.1082
  357TIP3   OH222633   6.984   1.912   0.968 -0.3105  0.6080  0.0855
  357TIP3    H122634   6.932   1.840   0.933 -2.2854  1.8386  0.2990
  357TIP3    H222635   7.046   1.871   1.028 -0.1538 -1.0515 -1.1507
  358TIP3   OH222636   4.611   4.509   1.686  0.1700  0.5709 -0.1826
  358TIP3    H122637   4.620   4.437   1.749 -0.9814 -0.6101 -1.3063
  358TIP3    H222638   4.700   4.542   1.675  0.7622 -0.8051  0.2428
  359TIP3   OH222639   1.944   2.531   6.074  0.1779  0.0764 -0.0408
  359TIP3    H122640   1.978   2.450   6.036  0.2052 -0.0139  0.1803
  359TIP3    H222641   2.019   2.571   6.117  0.1881  0.2689 -0.2328
  360TIP3   OH222642   5.959   0.976   7.253  0.0110  0.4852 -0.0002
  360TIP3    H122643   5.948   0.960   7.346  0.3411  2.4183  0.4111
  360TIP3    H222644   5.875   1.014   7.225  0.7118  2.1217  0.0516
  361TIP3   OH222645   6.174   4.008   0.371  0.3418  0.3814  0.2803
  361TIP3    H122646   6.252   4.019   0.425 -0.1372  1.0507  0.8499
  361TIP3    H222647   6.101   4.014   0.433 -0.1466 -1.9534  0.0429
  362TIP3   OH222648   2.526   6.807   7.684  0.0021 -0.0377 -0.3144
  362TIP3    H122649   2.434   6.827   7.699  0.0488  0.3188 -0.4932
  362TIP3    H222650   2.568   6.815   7.770  0.1219  1.1842 -0.4743
  363TIP3   OH222651   5.635   2.331   7.750 -0.0210  0.3687  0.1059
  363TIP3    H122652   5.560   2.276   7.729 -2.1223  3.1804 -0.3887
  363TIP3    H222653   5.643   2.327   7.845  0.2890 -1.1909  0.0412
  364TIP3   OH222654   0.748   0.087   8.200 -0.4501  0.0842 -0.3099
  364TIP3    H122655   0.687   0.097   8.273 -1.2153 -2.4632 -0.4913
  364TIP3    H222656   0.693   0.057   8.127  0.5316  1.1298 -1.5177
  365TIP3   OH222657   1.279   1.304   6.630 -0.1322 -0.2734 -0.3841
  365TIP3    H122658   1.260   1.299   6.536 -0.2729  3.1239 -0.6453
  365TIP3    H222659   1.193   1.315   6.671  0.1382  2.5715 -0.3742
  366TIP3   OH222660   3.645   6.623   7.830  0.0074 -0.2172 -0.4457
  366TIP3    H122661   3.665   6.565   7.903  0.9352 -0.0551 -0.5559
  366TIP3    H222662   3.662   6.711   7.865  2.6255 -0.2290 -1.4584
  367TIP3   OH222663   3.334   0.340   7.866 -0.1770  0.2878  0.1443
  367TIP3    H122664   3.268   0.337   7.796  0.7257  0.8797 -0.7525
  367TIP3    H222665   3.408   0.291   7.831 -0.3528 -0.9468  1.4088
  368TIP3   OH222666   0.293   3.257   6.842 -0.1904 -0.0460 -0.3504
  368TIP3    H122667   0.388   3.251   6.836 -0.2402 -0.0706 -1.2298
  368TIP3    H222668   0.263   3.168   6.859 -0.0536 -0.0209  0.0305
  369TIP3   OH222669   3.129   2.375   7.742 -0.1737 -0.2324 -0.3103
  369TIP3    H122670   3.105   2.463   7.772 -3.0431 -1.5904  1.9041
  369TIP3    H222671   3.216   2.360   7.780  0.2625  1.5253 -0.5293
  370TIP3   OH222672   3.090   6.936   7.341  0.4890 -0.3156 -0.2573
  370TIP3    H122673   3.055   7.015   7.382  1.0355  0.2524 -0.8719
  370TIP3    H222674   3.042   6.864   7.383  0.6408  0.2768  0.9609
  371TIP3   OH222675   4.806   1.364   6.077  0.3176  0.4350 -0.5591
  371TIP3    H122676   4.815   1.341   5.985  0.6841  0.2749 -0.4853
  371TIP3    H222677   4.801   1.280   6.122 -1.2911  0.5019 -0.5566
  372TIP3   OH222678   1.469   0.395   7.099 -0.3532  0.2323  0.5642
  372TIP3    H122679   1.426   0.368   7.018 -2.4536 -0.0784  1.6932
  372TIP3    H222680   1.540   0.453   7.071 -0.2704 -0.7823 -1.5272
  373TIP3   OH222681   3.563   3.577   1.442 -0.2144  0.0695 -0.0689
  373TIP3    H122682   3.562   3.626   1.525 -2.3350 -0.6796  0.4218
  373TIP3    H222683   3.649   3.594   1.405  0.6182  0.8171  2.0642
  374TIP3   OH222684   5.698   0.861   0.138  0.3526  0.0902  0.1573
  374TIP3    H122685   5.617   0.836   0.092  0.1430  1.2372 -0.1303
  374TIP3    H222686   5.673   0.860   0.230 -0.5881  2.3319 -0.0150
  375TIP3   OH222687   4.814   1.577   7.440 -0.4384 -0.2113  0.3084
  375TIP3    H122688   4.737   1.541   7.483  0.5263 -1.3486  1.1610
  375TIP3    H222689   4.810   1.545   7.351 -1.3513  0.4011  0.1179
  376TIP3   OH222690   4.317   6.509   0.983  0.4830 -0.2663  0.1874
  376TIP3    H122691   4.313   6.588   0.930 -1.0817 -0.3549  0.1318
  376TIP3    H222692   4.307   6.437   0.920 -0.8009 -0.3907  0.4991
  377TIP3   OH222693   4.588   0.177   0.461  0.4259  0.4555  0.3984
  377TIP3    H122694   4.637   0.167   0.543  0.1818 -1.3215  0.3773
  377TIP3    H222695   4.524   0.105   0.463  0.7235  0.0850 -1.5463
  378TIP3   OH222696   1.806   3.927   6.817 -0.0033 -0.0160  0.2482
  378TIP3    H122697   1.856   3.961   6.743 -0.0874  0.8209  0.5602
  378TIP3    H222698   1.790   3.835   6.795 -2.8803  0.9358 -2.3468
  379TIP3   OH222699   3.669   6.552   0.488 -0.7378  0.2419  0.0617
  379TIP3    H122700   3.622   6.470   0.474 -1.0646  0.7123 -1.7775
  379TIP3    H222701   3.749   6.525   0.534 -1.1398 -1.0149  0.0800
  380TIP3   OH222702   4.156   5.125   6.882  0.1149 -0.4093  0.4781
  380TIP3    H122703   4.175   5.177   6.804  0.4576  0.4715  1.1285
  380TIP3    H222704   4.063   5.138   6.897  0.1429 -0.2083  0.4775
  381TIP3   OH222705   4.824   4.584   5.883  0.7225 -1.0790 -0.8391
  381TIP3    H122706   4.839   4.490   5.875  1.0254 -1.2467  1.3197
  381TIP3    H222707   4.865   4.608   5.966 -0.4334  0.7308 -0.7529
  382TIP3   OH222708   3.229   3.609   7.542  0.1414  0.3498 -0.4866
  382TIP3    H122709   3.141   3.613   7.505 -0.9527 -1.8882  1.5657
  382TIP3    H222710   3.255   3.518   7.533  1.0164  0.3431  1.5126
  383TIP3   OH222711   3.913   0.980   7.799  0.2561  0.2951 -0.4230
  383TIP3    H122712   3.975   0.986   7.726 -0.3660 -0.0840 -0.9927
  383TIP3    H222713   3.964   1.005   7.876  0.4808  2.4299 -1.1954
  384TIP3   OH222714   5.800   2.469   0.161  0.0492  0.4038 -0.4420
  384TIP3    H122715   5.751   2.393   0.191 -0.7826  1.6696  1.5670
  384TIP3    H222716   5.884   2.434   0.133 -0.3186 -1.2502  0.4413
  385TIP3   OH222717   4.410   4.192   1.474 -0.8255 -0.1957  0.1073
  385TIP3    H122718   4.431   4.254   1.404 -0.0056 -0.5717  0.0036
  385TIP3    H222719   4.388   4.248   1.549 -3.0542  0.2232 -0.7850
  386TIP3   OH222720   3.952   3.046   0.844  0.3987 -0.1619  0.2364
  386TIP3    H122721   3.929   3.101   0.769  3.8281  0.8729 -0.2247
  386TIP3    H222722   3.966   2.959   0.807  0.4179 -0.0382 -0.0473
  387TIP3   OH222723   6.090   0.742   6.718  0.3696 -0.1751 -0.9209
  387TIP3    H122724   6.129   0.794   6.789  0.5976  0.3859 -1.4474
  387TIP3    H222725   6.078   0.655   6.756  1.1474 -0.0692 -0.4194
  388TIP3   OH222726   2.002   3.011   7.695 -0.1226  0.5083  0.6340
  388TIP3    H122727   2.024   3.037   7.784 -0.3279  0.6749  0.6364
  388TIP3    H222728   1.907   3.025   7.689  0.0912  1.8106 -0.0530
  389TIP3   OH222729   1.990   2.896   6.595 -0.1235 -0.0564  0.1051
  389TIP3    H122730   1.965   2.808   6.568 -0.4153  0.4140 -1.2407
  389TIP3    H222731   2.064   2.918   6.539  0.6915  0.1309  1.2308
  390TIP3   OH222732   5.621   6.924   7.841 -0.0811 -0.2335  0.1729
  390TIP3    H122733   5.545   6.976   7.866  1.0428  1.8137 -0.4032
  390TIP3    H222734   5.691   6.955   7.898  0.8942 -0.2816 -0.9498
  391TIP3   OH222735   1.989   5.898   0.937  0.2030 -0.0848 -1.0299
  391TIP3    H122736   1.914   5.905   0.996  0.6025 -0.4655 -0.4631
  391TIP3    H222737   2.034   5.982   0.946 -0.2648  0.2236 -1.5300
  392TIP3   OH222738   0.832   5.847   6.086  0.0407 -0.3910  0.0167
  392TIP3    H122739   0.762   5.796   6.126 -1.2334  0.6492 -0.8142
  392TIP3    H222740   0.899   5.782   6.064 -0.4768 -1.3546  1.1679
  393TIP3   OH222741   1.297   4.238   1.383  0.0617  0.1939  0.3655
  393TIP3    H122742   1.385   4.200   1.374  0.9631  1.9038  1.2255
  393TIP3    H222743   1.250   4.211   1.304  1.1346 -1.3030  0.1928
  394TIP3   OH222744   1.773   2.749   0.576  0.2328 -0.4041 -0.0311
  394TIP3    H122745   1.867   2.734   0.566  0.8277  2.0066  1.1211
  394TIP3    H222746   1.750   2.699   0.655  1.1510  0.9639  1.1556
  395TIP3   OH222747   4.775   1.867   6.612  0.1564 -0.2737  0.5082
  395TIP3    H122748   4.713   1.880   6.541  0.8265  0.6487  0.0567
  395TIP3    H222749   4.860   1.857   6.568  0.3315 -1.5783  1.1053
  396TIP3   OH222750   5.295   4.083   7.953  0.9810 -0.1373 -0.1552
  396TIP3    H122751   5.225   4.053   8.012  1.9633 -0.6122  0.8069
  396TIP3    H222752   5.253   4.089   7.867 -0.8184  1.7980  0.7765
  397TIP3   OH222753   1.135   6.651   6.879 -0.0072 -0.4656  0.4010
  397TIP3    H122754   1.066   6.618   6.821 -0.1203  1.3541 -0.5738
  397TIP3    H222755   1.143   6.744   6.857  1.1041 -0.0864  2.1899
  398TIP3   OH222756   2.070   5.922   7.647  0.4234 -0.2921  0.2893
  398TIP3    H122757   2.148   5.973   7.625  0.0247  0.4204  0.5100
  398TIP3    H222758   2.078   5.904   7.740  0.3892 -0.3388  0.2833
  399TIP3   OH222759   6.035   3.631   7.069 -0.5184  0.1442  0.3831
  399TIP3    H122760   6.093   3.574   7.120  1.1150  0.1097 -1.4062
  399TIP3    H222761   6.024   3.709   7.123  0.2366 -0.3469  1.2731
  400TIP3   OH222762   6.460   3.834   1.830  0.1546  0.3181  0.7965
  400TIP3    H122763   6.467   3.883   1.912  0.0967  0.7689  0.5376
  400TIP3    H222764   6.541   3.856   1.782  0.9804 -1.2342  1.4126
  401TIP3   OH222765   6.236   5.908   7.768  0.7166 -0.7462 -0.3245
  401TIP3    H122766   6.330   5.927   7.773  1.1586 -2.9041  1.2013
  401TIP3    H222767   6.223   5.835   7.829 -2.1417  0.0859  0.2254
  402TIP3   OH222768   0.798   0.922   6.483  0.2034  0.3992  0.4027
  402TIP3    H122769   0.870   0.984   6.496  0.9996 -0.4119 -0.0117
  402TIP3    H222770   0.772   0.933   6.392  2.1343 -1.6496 -0.5091
  403TIP3   OH222771   4.724   1.737   1.272  0.0349  0.1055 -0.2969
  403TIP3    H122772   4.667   1.736   1.349 -1.6457  1.0263 -1.4480
  403TIP3    H222773   4.664   1.748   1.198  1.5231 -1.5313 -1.8324
  404TIP3   OH222774   6.595   2.978   8.129 -0.5210  0.2264 -0.0815
  404TIP3    H122775   6.527   2.911   8.128 -2.5270  2.1638 -1.0808
  404TIP3    H222776   6.570   3.038   8.198 -0.0218  1.1459 -0.6705
  405TIP3   OH222777   0.329   5.124   7.683 -0.6029  0.0787 -0.1854
  405TIP3    H122778   0.250   5.071   7.692 -0.4825  0.0963  1.1208
  405TIP3    H222779   0.360   5.138   7.772  0.8625  0.1099 -0.6606
  406TIP3   OH222780   2.769   2.042   6.622 -0.0400 -0.1155 -0.1423
  406TIP3    H122781   2.685   2.058   6.666  0.5185 -1.3845  1.5251
  406TIP3    H222782   2.761   1.953   6.588  0.2391  0.1711 -0.9866
  407TIP3   OH222783   6.709   3.053   0.546 -0.2218  0.6269  0.2901
  407TIP3    H122784   6.623   3.045   0.586  1.0004  2.4241  3.7449
  407TIP3    H222785   6.764   2.992   0.595  0.7303  0.4312 -0.9783
  408TIP3   OH222786   3.024   1.538   1.750 -0.3277  0.4580  0.0898
  408TIP3    H122787   3.102   1.486   1.769 -0.6378 -1.1472 -2.4652
  408TIP3    H222788   3.027   1.609   1.813  0.6687 -2.0747  3.1982
  409TIP3   OH222789   4.948   0.585   0.366  0.6200 -0.3910 -0.0885
  409TIP3    H122790   5.006   0.509   0.372 -1.9342 -2.7461 -2.2536
  409TIP3    H222791   4.862   0.552   0.390 -0.1682  2.6866  1.9483
  410TIP3   OH222792   5.127   0.158   6.671  0.4713 -0.1758 -0.2220
  410TIP3    H122793   5.175   0.096   6.726  1.4177 -0.5024 -1.3600
  410TIP3    H222794   5.038   0.158   6.707  1.5952  1.6226  2.9284
  411TIP3   OH222795   6.634   6.557   8.004 -0.7327 -0.5487 -0.8795
  411TIP3    H122796   6.557   6.579   8.056 -0.0635 -1.8767  0.7702
  411TIP3    H222797   6.694   6.516   8.066  1.6334  1.0678 -1.9276
  412TIP3   OH222798   6.800   6.365   0.982  0.0286  0.1355 -0.6352
  412TIP3    H122799   6.870   6.368   1.047 -0.0632  1.5689 -0.5721
  412TIP3    H222800   6.795   6.273   0.956  1.4011 -0.1168 -0.0776
  413TIP3   OH222801   4.524   2.244   8.063 -0.4110 -0.7233 -0.0892
  413TIP3    H122802   4.459   2.310   8.088  1.0491  0.5695  0.4386
  413TIP3    H222803   4.552   2.205   8.146 -0.9752 -1.7363 -0.3671
  414TIP3   OH222804   1.827   6.158   8.009 -0.6355 -0.2583 -0.5433
  414TIP3    H122805   1.825   6.189   8.100 -1.4933 -1.2725 -0.2024
  414TIP3    H222806   1.750   6.197   7.969 -1.9848 -2.2036  0.0094
  415TIP3   OH222807   1.032   3.561   6.570 -0.0793 -0.0851  0.5661
  415TIP3    H122808   1.101   3.498   6.549 -0.0307 -0.4658  1.7925
  415TIP3    H222809   0.983   3.571   6.489 -0.5310 -2.2797  0.5093
  416TIP3   OH222810   0.705   2.329   1.806 -0.0632 -0.2217  0.0106
  416TIP3    H122811   0.652   2.377   1.743 -0.2442 -1.6484 -0.9730
  416TIP3    H222812   0.706   2.384   1.884 -0.5745  1.1644 -0.9335
  417TIP3   OH222813   5.246   3.501   8.013  0.3484 -0.0111 -0.2123
  417TIP3    H122814   5.168   3.556   8.010  1.0936  1.4890  3.3640
  417TIP3    H222815   5.217   3.421   8.056 -0.0591 -1.3872 -2.8034
  418TIP3   OH222816   3.569   2.575   0.908  0.4731  0.2492 -0.2296
  418TIP3    H122817   3.576   2.481   0.925  1.9766  0.2702 -0.6265
  418TIP3    H222818   3.530   2.581   0.820  0.5065 -0.0120 -0.2621
  419TIP3   OH222819   6.363   6.837   0.355  0.4873  0.0117 -0.2174
  419TIP3    H122820   6.342   6.837   0.262  2.0423  2.8452 -0.6716
  419TIP3    H222821   6.454   6.865   0.359  0.5561 -0.3559  2.1698
  420TIP3   OH222822   3.259   4.135   7.770 -0.3563  0.2489  0.3262
  420TIP3    H122823   3.210   4.145   7.852 -0.9198  0.8244 -0.0707
  420TIP3    H222824   3.225   4.054   7.732 -0.7276  0.4510  0.2304
  421TIP3   OH222825   0.949   3.378   5.869  0.1130 -0.0323  0.2506
  421TIP3    H122826   0.975   3.414   5.784  0.4630 -0.9614 -0.0500
  421TIP3    H222827   0.914   3.292   5.849 -2.5928  0.8728  0.7333
  422TIP3   OH222828   6.888   1.321   7.146  0.3409  0.7587 -0.0590
  422TIP3    H122829   6.888   1.297   7.054  0.4675  0.4776  0.0148
  422TIP3    H222830   6.962   1.274   7.184 -0.2623  0.1320  0.3775
  423TIP3   OH222831   1.336   1.876   0.639  0.1115  0.1202  0.0812
  423TIP3    H122832   1.248   1.840   0.650 -0.2801  0.8925 -0.4058
  423TIP3    H222833   1.370   1.884   0.728 -0.1592 -0.5369  0.2485
  424TIP3   OH222834   5.082   2.564   7.407 -0.1725  0.1364 -0.3525
  424TIP3    H122835   5.096   2.654   7.436 -0.6947 -0.0784  0.5901
  424TIP3    H222836   5.062   2.516   7.487  0.6043 -0.9244 -0.7834
  425TIP3   OH222837   6.483   3.369   7.583  0.2933  0.7128  0.0893
  425TIP3    H122838   6.500   3.306   7.514  2.5927  1.2620  0.0568
  425TIP3    H222839   6.467   3.316   7.661  0.4208  0.1007 -0.2951
  426TIP3   OH222840   4.207   0.973   1.921 -0.3143 -0.4320 -0.3549
  426TIP3    H122841   4.128   0.919   1.922 -1.3746  1.0463 -0.4980
  426TIP3    H222842   4.212   1.005   1.830 -0.6358  0.9611  0.0891
  427TIP3   OH222843   5.759   1.555   8.338  0.6325 -0.3604  0.1977
  427TIP3    H122844   5.797   1.467   8.349 -0.2919 -0.8496 -0.3657
  427TIP3    H222845   5.680   1.553   8.391  0.6942  0.1943  0.3107
  428TIP3   OH222846   4.529   1.652   1.499  0.9577  0.2462 -0.6075
  428TIP3    H122847   4.493   1.576   1.544  1.9677 -0.3058 -0.6976
  428TIP3    H222848   4.457   1.685   1.445  0.5794 -0.7935 -0.7571
  429TIP3   OH222849   1.945   3.691   2.085  0.5592 -0.3336 -0.0221
  429TIP3    H122850   1.859   3.669   2.050  1.4814  1.3749 -3.8065
  429TIP3    H222851   1.933   3.778   2.124  0.3885 -0.5090  0.3217
  430TIP3   OH222852   1.607   5.227   0.161  0.0701 -0.0434  0.3466
  430TIP3    H122853   1.610   5.301   0.101 -1.3407 -1.6736 -1.9292
  430TIP3    H222854   1.520   5.232   0.201  0.0246 -0.3733  0.2949
  431TIP3   OH222855   0.578   1.529   1.975 -0.1623  0.7875 -0.4515
  431TIP3    H122856   0.660   1.524   2.024 -0.0453  3.3214 -0.2753
  431TIP3    H222857   0.521   1.465   2.018  0.8988  0.8153  1.0860
  432TIP3   OH222858   6.962   5.541   0.097  0.1848 -0.5901 -0.2443
  432TIP3    H122859   6.971   5.611   0.162 -0.4459  0.5801 -1.3600
  432TIP3    H222860   7.028   5.562   0.031  1.9034 -2.6519  0.7245
  433TIP3   OH222861   4.241   4.028   1.337  0.0851 -0.0697 -0.1531
  433TIP3    H122862   4.317   4.085   1.350 -0.7022  1.0063 -0.0780
  433TIP3    H222863   4.271   3.941   1.363  2.0186 -0.1770 -2.4582
  434TIP3   OH222864   0.064   5.548   6.250  0.2544 -0.5279  0.2028
  434TIP3    H122865   0.044   5.576   6.160  0.7552  1.6964  0.7303
  434TIP3    H222866   0.076   5.453   6.243  1.2701 -0.3068 -2.2871
  435TIP3   OH222867   4.376   4.762   6.570  0.1470  0.5961 -0.8177
  435TIP3    H122868   4.323   4.690   6.537  0.4114  0.1613 -0.3140
  435TIP3    H222869   4.327   4.797   6.645  1.4527 -1.0994  0.9313
  436TIP3   OH222870   5.959   4.149   8.251 -0.4848  0.2546 -0.3584
  436TIP3    H122871   5.899   4.222   8.268  0.3426  0.6795  0.8323
  436TIP3    H222872   6.021   4.151   8.323  0.5003 -0.6700 -1.1421
  437TIP3   OH222873   0.585   2.977   6.325 -0.0031 -0.4345 -0.4149
  437TIP3    H122874   0.591   2.978   6.229  1.2871 -0.1611 -0.3459
  437TIP3    H222875   0.671   2.947   6.354 -0.4312 -0.6684  0.6686
  438TIP3   OH222876   0.228   5.951   8.248 -0.0668  0.6549  0.2588
  438TIP3    H122877   0.136   5.947   8.275 -0.0102 -0.0660  0.3482
  438TIP3    H222878   0.226   5.929   8.155 -0.2154  2.7458 -0.2827
  439TIP3   OH222879   6.729   2.073   0.250 -0.6691 -0.5232  0.4676
  439TIP3    H122880   6.806   2.127   0.231 -0.6568 -0.8873 -0.5641
  439TIP3    H222881   6.727   2.068   0.345  0.2844 -0.0725  0.5283
  440TIP3   OH222882   6.368   6.720   2.228 -0.5467  0.8048  0.2109
  440TIP3    H122883   6.415   6.770   2.160 -0.4708 -1.7228 -1.7594
  440TIP3    H222884   6.278   6.717   2.197 -0.5640 -0.1708  0.3176
  441TIP3   OH222885   6.033   6.595   7.162 -0.8082 -0.0970 -0.1135
  441TIP3    H122886   6.055   6.577   7.253  0.7223  0.3207 -0.3693
  441TIP3    H222887   6.003   6.686   7.161 -2.1600 -0.5166  0.1601
  442TIP3   OH222888   6.319   0.404   6.007  0.3035  0.2866  0.0880
  442TIP3    H122889   6.385   0.421   5.940  0.0908  0.5865 -0.0487
  442TIP3    H222890   6.237   0.436   5.969 -0.3475 -2.0453 -0.6372
  443TIP3   OH222891   5.312   1.361   7.576 -0.4674  0.3438  0.3247
  443TIP3    H122892   5.276   1.285   7.622  2.4672  0.3460  2.9609
  443TIP3    H222893   5.254   1.433   7.600 -1.2190 -0.3920  0.7988
  444TIP3   OH222894   4.083   2.533   6.288  0.5264 -0.1845 -0.1787
  444TIP3    H122895   4.113   2.571   6.371 -3.3355 -0.6041  1.6333
  444TIP3    H222896   4.042   2.606   6.243 -1.3461 -0.8061  0.4299
  445TIP3   OH222897   0.939   3.716   2.102 -0.0819 -0.2049  0.3873
  445TIP3    H122898   0.954   3.808   2.126 -0.2428 -0.3230  0.9333
  445TIP3    H222899   0.867   3.721   2.039 -0.2138  0.0268  0.5532
  446TIP3   OH222900   1.621   5.904   7.466 -0.5067  0.6682 -0.0266
  446TIP3    H122901   1.549   5.854   7.504 -0.0513 -1.3457 -1.6184
  446TIP3    H222902   1.694   5.843   7.464  1.3674  2.7047  1.6959
  447TIP3   OH222903   2.452   4.234   0.119  0.4746  0.5795  0.7165
  447TIP3    H122904   2.359   4.253   0.108  0.5983  0.8684  0.1693
  447TIP3    H222905   2.496   4.286   0.052  0.9278 -0.5776  0.0767
  448TIP3   OH222906   1.611   0.633   7.312  0.0103 -0.3587 -0.1746
  448TIP3    H122907   1.673   0.697   7.345 -0.0950 -0.8310  1.0100
  448TIP3    H222908   1.606   0.649   7.218  3.2326 -1.4073 -0.6422
  449TIP3   OH222909   0.512   3.611   8.330 -0.4146 -0.2961  0.1130
  449TIP3    H122910   0.538   3.698   8.297 -0.6348  0.0935  0.9386
  449TIP3    H222911   0.584   3.585   8.387 -1.7593  0.7988  2.4392
  450TIP3   OH222912   2.238   4.105   1.113  0.4008 -0.2399 -0.3421
  450TIP3    H122913   2.333   4.107   1.114  0.4042  0.1386  1.1529
  450TIP3    H222914   2.215   4.016   1.139  0.3697  0.2727  1.4727
  451TIP3   OH222915   1.734   0.803   8.369 -0.3195 -0.2740 -0.1592
  451TIP3    H122916   1.658   0.830   8.317  0.7296 -0.1062 -1.6807
  451TIP3    H222917   1.785   0.883   8.380 -1.2324  0.0484  2.5239
  452TIP3   OH222918   0.194   2.650   7.429  0.2171  1.0739  0.4752
  452TIP3    H122919   0.264   2.641   7.364 -0.5924 -0.3382 -0.2547
  452TIP3    H222920   0.155   2.563   7.434 -0.3485  1.3931  2.1923
  453TIP3   OH222921   1.503   2.065   1.362 -0.3011 -0.3404  0.5861
  453TIP3    H122922   1.573   2.103   1.415 -0.0436  0.4039 -0.2617
  453TIP3    H222923   1.446   2.139   1.340 -1.6552 -1.0138  1.6792
  454TIP3   OH222924   2.774   2.014   7.815  0.2452 -0.4850 -0.1612
  454TIP3    H122925   2.855   2.051   7.850  1.4352 -1.7635 -1.4707
  454TIP3    H222926   2.791   1.921   7.806 -1.5555 -0.8722 -0.0178
  455TIP3   OH222927   5.485   6.591   6.550  0.0560 -0.5627  0.5293
  455TIP3    H122928   5.520   6.661   6.605  0.7430 -1.3277  1.0945
  455TIP3    H222929   5.410   6.631   6.506  0.9226  0.7805  0.1925
  456TIP3   OH222930   2.218   3.886   6.256  0.1968 -0.0952 -0.6228
  456TIP3    H122931   2.149   3.840   6.208  0.9201 -1.1721 -0.6592
  456TIP3    H222932   2.180   3.901   6.343 -0.8295  1.1831 -1.2404
  457TIP3   OH222933   5.327   6.053   7.540 -0.1155 -0.1555  0.1056
  457TIP3    H122934   5.260   6.001   7.496 -0.0272 -2.3636  2.3696
  457TIP3    H222935   5.408   6.031   7.493 -0.3932 -0.4418 -0.2490
  458TIP3   OH222936   2.176   4.976   7.665 -0.4115  0.5871 -0.1847
  458TIP3    H122937   2.173   4.949   7.573  0.5494 -1.5447  0.3638
  458TIP3    H222938   2.106   4.927   7.707 -0.8072  1.5058  0.2719
  459TIP3   OH222939   0.604   2.936   1.156  0.0686 -0.2857  0.1448
  459TIP3    H122940   0.650   2.856   1.132  0.7787  0.6136 -1.7159
  459TIP3    H222941   0.535   2.945   1.090  1.2645  1.6250 -0.9596
  460TIP3   OH222942   1.048   4.570   0.599 -0.1737 -0.0255  0.0471
  460TIP3    H122943   0.987   4.635   0.635 -0.5694  1.3304 -2.8413
  460TIP3    H222944   0.999   4.488   0.603 -1.0270  0.4805  0.5257
  461TIP3   OH222945   4.545   6.173   7.556  0.0713 -0.1023 -0.0839
  461TIP3    H122946   4.505   6.092   7.527  1.4782 -0.5751 -0.8159
  461TIP3    H222947   4.547   6.167   7.652 -1.9746  0.1690  0.0214
  462TIP3   OH222948   6.736   1.372   0.124  0.0687 -0.0211 -0.6650
  462TIP3    H122949   6.736   1.404   0.214 -0.3457 -0.2073 -0.5944
  462TIP3    H222950   6.659   1.316   0.119  0.4860 -0.5733 -0.9390
  463TIP3   OH222951   4.880   4.388   1.064 -0.9057 -0.0123 -0.2254
  463TIP3    H122952   4.876   4.476   1.026  0.8154 -0.5610 -1.8490
  463TIP3    H222953   4.887   4.330   0.989  0.8237 -1.2967  0.8477
  464TIP3   OH222954   0.526   1.161   8.228  0.4759 -0.1929 -0.3014
  464TIP3    H122955   0.606   1.182   8.181  1.4321 -1.5945  0.6478
  464TIP3    H222956   0.456   1.181   8.166  1.3843  2.9306 -0.4955
  465TIP3   OH222957   6.541   2.723   8.211  0.4552  0.4043  0.3432
  465TIP3    H122958   6.537   2.758   8.301  0.6571 -0.1578  0.5745
  465TIP3    H222959   6.458   2.677   8.200  0.3232  0.6824  0.1469
  466TIP3   OH222960   5.093   3.948   0.260  0.5849 -0.3366  0.6208
  466TIP3    H122961   5.062   4.033   0.229  0.6519 -0.3224  0.5923
  466TIP3    H222962   5.014   3.903   0.289  0.6874  0.2141  1.8206
  467TIP3   OH222963   5.704   4.651   7.361  0.1548  0.2587  0.0549
  467TIP3    H122964   5.669   4.635   7.449 -0.3406 -0.6193 -0.2857
  467TIP3    H222965   5.628   4.674   7.308  0.4874  1.0396 -0.0939
  468TIP3   OH222966   2.675   2.247   7.405 -0.3480  0.8355  0.1424
  468TIP3    H122967   2.697   2.340   7.403  3.1832  0.1152  0.0588
  468TIP3    H222968   2.739   2.208   7.465 -0.5121 -1.8116 -1.2306
  469TIP3   OH222969   3.333   2.707   2.000 -0.2522  0.5546 -0.0575
  469TIP3    H122970   3.269   2.758   1.950 -0.4543 -0.9745 -1.4445
  469TIP3    H222971   3.305   2.717   2.091 -2.4370  0.0386 -0.6058
  470TIP3   OH222972   2.385   1.558   6.656  0.0801  0.0358  0.3125
  470TIP3    H122973   2.327   1.601   6.594  0.0657  1.5864  1.3618
  470TIP3    H222974   2.340   1.477   6.679 -1.4026  0.9447  0.6852
  471TIP3   OH222975   0.140   0.820   1.448  0.2271  0.5369 -0.2006
  471TIP3    H122976   0.215   0.829   1.390 -0.6081  1.7797 -1.1560
  471TIP3    H222977   0.064   0.822   1.390 -0.6146  1.0626  0.8644
  472TIP3   OH222978   4.479   1.801   5.992 -0.1495  0.2434  0.6457
  472TIP3    H122979   4.391   1.781   5.962 -0.2591  0.6784  0.6654
  472TIP3    H222980   4.467   1.870   6.057  0.2122  0.3579  0.5944
  473TIP3   OH222981   2.255   0.141   0.359 -0.1481 -0.0068  0.4823
  473TIP3    H122982   2.205   0.130   0.440 -2.0100  0.1152 -0.6012
  473TIP3    H222983   2.207   0.207   0.310  1.0045 -0.0097 -0.6916
  474TIP3   OH222984   6.944   1.438   8.315  0.1165  0.0991 -0.0656
  474TIP3    H122985   7.010   1.383   8.358 -0.5044  1.4851  2.9103
  474TIP3    H222986   6.865   1.428   8.369 -2.1838 -1.3036 -3.3388
  475TIP3   OH222987   5.642   5.652   0.659 -0.2169 -0.0608 -0.2794
  475TIP3    H122988   5.653   5.737   0.616  0.6141  0.1398  0.2863
  475TIP3    H222989   5.551   5.651   0.688 -0.3760  0.4187 -0.7469
  476TIP3   OH222990   6.863   3.301   0.563  0.0630 -0.7608  0.1353
  476TIP3    H122991   6.827   3.222   0.523 -1.9427  0.0992  0.1155
  476TIP3    H222992   6.839   3.372   0.503  0.2014  0.0803  1.0343
  477TIP3   OH222993   4.742   6.240   1.664 -0.0478 -0.0840  0.3081
  477TIP3    H122994   4.693   6.168   1.623 -1.6754  1.7754 -1.2041
  477TIP3    H222995   4.828   6.238   1.622  0.1949 -1.5262  0.7971
  478TIP3   OH222996   4.357   5.229   0.064  0.6571 -0.4862  0.0113
  478TIP3    H122997   4.340   5.180  -0.016 -0.4727 -0.6043  0.2956
  478TIP3    H222998   4.410   5.170   0.118 -0.1938 -1.1791  0.1134
  479TIP3   OH222999   6.471   0.648   6.583 -0.1949  0.0123  0.0476
  479TIP3    H123000   6.383   0.637   6.547 -0.8630 -1.9131  2.0574
  479TIP3    H223001   6.529   0.631   6.508 -1.4922  0.1304 -1.0371
  480TIP3   OH223002   6.531   2.932   6.846  0.3793 -0.3038 -0.0219
  480TIP3    H123003   6.565   2.961   6.761  0.3080 -1.0825 -0.3199
  480TIP3    H223004   6.561   2.842   6.854  1.7273  0.2312  1.4976
  481TIP3   OH223005   0.588   2.755   7.679  0.0069 -0.4677  0.2316
  481TIP3    H123006   0.612   2.742   7.588 -1.2976 -1.4355 -0.0103
  481TIP3    H223007   0.503   2.710   7.688  0.6417 -1.3871  2.1837
  482TIP3   OH223008   1.512   6.490   8.252  0.1706  0.2356 -0.2565
  482TIP3    H123009   1.512   6.484   8.156 -0.7814 -0.6802 -0.2143
  482TIP3    H223010   1.482   6.579   8.270 -2.8283 -0.5691 -0.8235
  483TIP3   OH223011   0.847   1.417   7.009 -0.3325  0.2668  0.1385
  483TIP3    H123012   0.933   1.427   6.968 -0.1439 -1.1599  0.1537
  483TIP3    H223013   0.795   1.490   6.974  1.2824  2.0379  1.2688
  484TIP3   OH223014   0.524   3.941   1.147  0.0949 -0.5365  0.2945
  484TIP3    H123015   0.473   3.915   1.223 -0.5106  0.3037  0.1903
  484TIP3    H223016   0.553   3.859   1.107  1.6545 -1.0083  2.2275
  485TIP3   OH223017   4.095   5.587   0.600  0.2172 -0.0430 -0.1826
  485TIP3    H123018   4.055   5.561   0.517 -2.4418  2.2015  0.2235
  485TIP3    H223019   4.034   5.555   0.667  0.5037  1.0969  0.6590
  486TIP3   OH223020   6.215   2.319   1.748 -0.2968 -0.5405  0.3054
  486TIP3    H123021   6.123   2.319   1.722 -0.6305 -0.2196  1.4287
  486TIP3    H223022   6.223   2.243   1.806 -0.2742  0.3892  1.5540
  487TIP3   OH223023   5.440   3.586   1.040  0.1147  0.2355  0.0451
  487TIP3    H123024   5.536   3.577   1.039  0.0546 -0.4199 -1.0074
  487TIP3    H223025   5.422   3.639   1.118  1.3193  0.2097  0.3616
  488TIP3   OH223026   4.835   3.820   6.934  0.0445  0.1438 -0.4533
  488TIP3    H123027   4.823   3.881   7.007  0.0833 -0.7751  0.3384
  488TIP3    H223028   4.820   3.873   6.855 -0.0850  1.1277  0.2215
  489TIP3   OH223029   4.101   4.845   0.398 -0.0831  0.1413  0.2497
  489TIP3    H123030   4.008   4.859   0.381 -0.2906  2.0273  2.3910
  489TIP3    H223031   4.146   4.898   0.333 -0.6023  0.9744  0.5520
  490TIP3   OH223032   3.788   4.737   8.221 -0.1834  0.1832 -0.0782
  490TIP3    H123033   3.797   4.671   8.153  2.3222  0.9374 -0.5448
  490TIP3    H223034   3.826   4.696   8.299  1.1080  0.9448 -0.2958
  491TIP3   OH223035   6.173   2.671   6.022  0.6502  0.3767 -0.4267
  491TIP3    H123036   6.104   2.611   6.052  0.8195  1.2821  2.0260
  491TIP3    H223037   6.254   2.626   6.044  0.7885  1.6758  2.1606
  492TIP3   OH223038   3.980   0.673   0.893 -0.3838 -0.2391  0.2891
  492TIP3    H123039   3.901   0.654   0.843 -0.9086  1.9828  0.1984
  492TIP3    H223040   4.043   0.703   0.827 -0.2862  0.3744  0.6537
  493TIP3   OH223041   2.195   6.222   6.449  0.3880  0.3907  0.1072
  493TIP3    H123042   2.141   6.298   6.426 -0.3803 -0.5939 -1.5283
  493TIP3    H223043   2.272   6.230   6.391 -0.6615 -1.1032 -1.6012
  494TIP3   OH223044   2.798   6.285   1.867  0.1004 -0.1844  0.3155
  494TIP3    H123045   2.804   6.369   1.912  0.2769  0.0737 -0.1783
  494TIP3    H223046   2.756   6.227   1.930  0.6826  0.0694  0.9425
  495TIP3   OH223047   1.019   2.007   6.530  0.2782  0.1854 -0.0570
  495TIP3    H123048   0.975   2.058   6.462  0.8042  0.8522  0.0947
  495TIP3    H223049   1.079   2.068   6.572 -1.0011  0.1645  1.9429
  496TIP3   OH223050   5.482   5.893   0.488  0.4445  0.0781  0.2199
  496TIP3    H123051   5.480   5.982   0.524  0.3639  0.8245 -1.5358
  496TIP3    H223052   5.572   5.863   0.501  0.5762  0.5727  0.4573
  497TIP3   OH223053   1.738   6.338   7.309  0.3483 -0.4923  0.8015
  497TIP3    H123054   1.728   6.395   7.385  0.4290 -0.7496  1.0085
  497TIP3    H223055   1.683   6.262   7.328  0.4961 -0.6333  0.6784
  498TIP3   OH223056   2.145   2.746   7.162  0.4132 -0.2622  0.4696
  498TIP3    H123057   2.206   2.793   7.218  1.0764 -0.3858 -0.1318
  498TIP3    H223058   2.152   2.790   7.077 -2.0792  1.2467  0.9411
  499TIP3   OH223059   2.999   4.514   7.454 -0.2869  0.3340 -0.0745
  499TIP3    H123060   2.929   4.459   7.420 -1.0985  0.8323  0.7406
  499TIP3    H223061   3.062   4.453   7.491 -1.0098 -0.0851  0.4996
  500TIP3   OH223062   5.134   0.162   0.133  0.1864  0.0253  0.3172
  500TIP3    H123063   5.180   0.100   0.076 -0.6475 -1.5144  1.2262
  500TIP3    H223064   5.185   0.161   0.214 -0.0634  0.2307  0.4770
  501TIP3   OH223065   4.289   2.183   0.805 -1.0319 -0.1768  0.7939
  501TIP3    H123066   4.233   2.223   0.738 -0.0334 -0.5725 -0.3186
  501TIP3    H223067   4.254   2.094   0.814  0.3312 -0.9488 -1.0590
  502TIP3   OH223068   6.138   4.411   6.946 -0.0923  0.0999  0.2824
  502TIP3    H123069   6.103   4.417   7.035  0.4120 -0.0963  0.4959
  502TIP3    H223070   6.184   4.327   6.944  2.4251  1.3837  0.7510
  503TIP3   OH223071   5.052   1.131   8.348  0.4153 -0.1549  0.2855
  503TIP3    H123072   5.035   1.123   8.442  1.2775 -0.2682  0.4420
  503TIP3    H223073   5.085   1.045   8.322  0.4740 -0.0293 -0.0545
  504TIP3   OH223074   1.996   0.592   6.838  0.2117 -0.3651 -0.1789
  504TIP3    H123075   2.074   0.628   6.796  0.3953 -0.8950 -0.3040
  504TIP3    H223076   1.923   0.637   6.795  0.4570  0.4596  0.2537
  505TIP3   OH223077   4.337   6.833   1.841 -0.0559  0.3934 -0.3129
  505TIP3    H123078   4.344   6.739   1.856 -1.2926  0.6054  2.0209
  505TIP3    H223079   4.260   6.860   1.891  1.1787  2.9059  0.4108
  506TIP3   OH223080   5.193   3.539   0.371  0.0179 -0.2312 -0.1880
  506TIP3    H123081   5.133   3.495   0.311  1.1791 -0.2937 -1.3310
  506TIP3    H223082   5.225   3.615   0.322  1.4269 -0.6003  0.1168
  507TIP3   OH223083   1.823   5.133   6.486  0.4634 -0.0815 -0.2643
  507TIP3    H123084   1.817   5.037   6.487 -0.9904 -0.0783  2.4694
  507TIP3    H223085   1.761   5.160   6.419 -1.9727 -1.0793  1.4138
  508TIP3   OH223086   4.320   6.513   6.152  0.0384  0.5029 -0.4163
  508TIP3    H123087   4.297   6.565   6.229  1.4120 -2.2497  2.0678
  508TIP3    H223088   4.249   6.448   6.145 -0.5404  1.2614 -2.1124
  509TIP3   OH223089   0.544   2.066   1.729 -0.2936 -0.1747  0.0401
  509TIP3    H123090   0.543   2.158   1.705  1.1016 -0.4934 -1.4204
  509TIP3    H223091   0.630   2.035   1.702  0.4286 -1.2604  3.1667
  510TIP3   OH223092   6.458   6.072   7.650 -0.1145  0.7262 -0.0156
  510TIP3    H123093   6.482   6.143   7.709  2.1762  0.8378 -0.9831
  510TIP3    H223094   6.519   6.001   7.672 -0.4160  0.1352 -1.0238
  511TIP3   OH223095   4.290   2.144   0.020 -0.2057  0.0782  0.4782
  511TIP3    H123096   4.365   2.195  -0.010  0.4982 -0.5394  1.1278
  511TIP3    H223097   4.329   2.064   0.057 -1.1670 -0.1492  1.0384
  512TIP3   OH223098   1.720   4.172   6.110 -0.1034 -0.2519 -0.1072
  512TIP3    H123099   1.651   4.160   6.045  0.0832 -1.6813 -0.0897
  512TIP3    H223100   1.682   4.141   6.192 -0.3335  1.5350  0.4873
  513TIP3   OH223101   2.783   3.042   1.000  0.0244  0.0516 -0.1814
  513TIP3    H123102   2.792   3.118   0.943 -0.0105 -0.0051 -0.2634
  513TIP3    H223103   2.832   2.973   0.955  1.9324  0.5916  0.9612
  514TIP3   OH223104   4.451   5.399   7.826  0.6362  0.2319  0.1218
  514TIP3    H123105   4.408   5.324   7.867 -2.5186  1.7397 -0.1381
  514TIP3    H223106   4.496   5.363   7.750 -0.4086 -1.4600  0.2556
  515TIP3   OH223107   5.865   4.511   2.192 -0.1226 -0.0066 -0.1544
  515TIP3    H123108   5.773   4.521   2.215 -0.4034  0.0245 -1.2307
  515TIP3    H223109   5.894   4.434   2.241  0.0902  1.6157  2.4841
  516TIP3   OH223110   5.074   5.528   7.533 -0.0410  0.1859 -0.1340
  516TIP3    H123111   5.030   5.603   7.494  0.8765  1.3205  0.9714
  516TIP3    H223112   5.056   5.534   7.627 -0.6480 -1.4558 -0.0973
  517TIP3   OH223113   2.352   0.650   7.863  0.2395  0.0928  0.2377
  517TIP3    H123114   2.388   0.565   7.839 -0.5201  0.1414 -1.1873
  517TIP3    H223115   2.426   0.711   7.856  0.3386 -0.1214 -0.8137
  518TIP3   OH223116   3.065   6.537   8.258  0.1197  0.2096 -0.0634
  518TIP3    H123117   2.988   6.521   8.204 -0.0154  2.9699 -0.8730
  518TIP3    H223118   3.130   6.573   8.198  1.7384 -1.1506  0.7838
  519TIP3   OH223119   5.661   2.836   0.584 -0.1364 -0.5796 -0.0100
  519TIP3    H123120   5.643   2.831   0.490 -1.1176  0.4690  0.0954
  519TIP3    H223121   5.617   2.917   0.612  1.8039  0.1947  0.9789
  520TIP3   OH223122   1.087   2.951   1.473 -0.4147  0.4631  0.3417
  520TIP3    H123123   1.176   2.925   1.499 -0.3125 -0.3466 -0.7706
  520TIP3    H223124   1.030   2.901   1.532 -0.1529  0.6353  0.7512
  521TIP3   OH223125   2.192   6.963   1.246  0.0386 -0.2834 -0.1121
  521TIP3    H123126   2.255   6.933   1.311 -0.2561  2.2294  1.4500
  521TIP3    H223127   2.109   6.924   1.273  0.0469  0.1939  0.6182
  522TIP3   OH223128   6.189   3.156   7.179 -0.3443 -0.1617 -0.3267
  522TIP3    H123129   6.145   3.214   7.116 -0.0350 -0.1676 -0.5489
  522TIP3    H223130   6.120   3.133   7.241 -0.8771 -0.8338 -1.1356
  523TIP3   OH223131   0.061   5.125   0.396 -0.2842 -0.1346  0.1247
  523TIP3    H123132   0.067   5.172   0.313 -1.3115 -1.1140 -0.5346
  523TIP3    H223133  -0.022   5.078   0.391 -0.2553 -0.3882  1.6241
  524TIP3   OH223134   1.872   1.286   7.066 -0.5589  0.3044 -0.0508
  524TIP3    H123135   1.900   1.370   7.102  2.1245 -1.1230  1.4873
  524TIP3    H223136   1.919   1.279   6.983 -0.3501  0.0971  0.0850
  525TIP3   OH223137   4.288   6.121   6.269 -0.3257  0.2295 -0.2604
  525TIP3    H123138   4.278   6.171   6.188  0.1267 -0.7058 -0.9136
  525TIP3    H223139   4.222   6.052   6.263 -1.3129  1.0407  0.8823
  526TIP3   OH223140   2.455   5.779   6.879  0.1271 -0.5633 -0.5341
  526TIP3    H123141   2.411   5.830   6.947  1.2915 -0.1077 -0.1019
  526TIP3    H223142   2.396   5.784   6.803  0.0786  1.2078 -0.4114
  527TIP3   OH223143   4.394   3.507   1.479  0.1803 -0.2536 -0.2862
  527TIP3    H123144   4.350   3.471   1.556 -0.0275  0.1144 -0.2291
  527TIP3    H223145   4.461   3.566   1.515  0.9464 -1.0601 -0.3674
  528TIP3   OH223146   2.753   5.300   7.904 -0.1070 -0.1004  0.0627
  528TIP3    H123147   2.796   5.218   7.882  1.9033  0.9672 -0.1741
  528TIP3    H223148   2.693   5.277   7.975 -0.0161 -1.8567 -0.3791
  529TIP3   OH223149   3.452   1.312   6.758  0.2150  0.2737 -0.2293
  529TIP3    H123150   3.443   1.407   6.753 -0.4552  0.1346 -2.8076
  529TIP3    H223151   3.544   1.295   6.742  0.5524  0.4853  1.2878
  530TIP3   OH223152   6.836   6.168   7.914  0.1968  0.4057  0.1675
  530TIP3    H123153   6.757   6.213   7.886 -0.4429 -0.2507  0.8628
  530TIP3    H223154   6.829   6.080   7.877  1.6163  0.9257 -1.4953
  531TIP3   OH223155   6.213   0.912   1.522 -0.0865 -0.3202  0.1241
  531TIP3    H123156   6.182   0.947   1.606 -0.4368 -0.1923 -0.0565
  531TIP3    H223157   6.173   0.826   1.516 -1.1368  0.1921 -0.5127
  532TIP3   OH223158   0.254   4.105   1.795  0.0791  0.0957  0.0450
  532TIP3    H123159   0.184   4.170   1.802 -0.7067 -0.6723 -0.4384
  532TIP3    H223160   0.284   4.111   1.705  2.0717  1.8187  0.7443
  533TIP3   OH223161   0.835   1.345   2.344  0.1819 -0.1856 -0.3619
  533TIP3    H123162   0.904   1.305   2.396 -0.6767  0.8854  1.7649
  533TIP3    H223163   0.757   1.293   2.363 -0.4719  1.1174  0.7128
  534TIP3   OH223164   1.227   5.013   0.546 -0.0917  0.0127 -0.3396
  534TIP3    H123165   1.275   5.077   0.598  2.3333 -1.4501 -0.6191
  534TIP3    H223166   1.259   5.026   0.456  0.7256 -1.7477 -0.3482
  535TIP3   OH223167   3.452   2.458   6.762  0.2756  0.2062 -0.3051
  535TIP3    H123168   3.360   2.434   6.747  0.1725  0.1430  0.3994
  535TIP3    H223169   3.495   2.440   6.679 -0.7163  2.0147 -1.2720
  536TIP3   OH223170   3.718   5.418   6.056 -0.2524  0.7124 -0.1886
  536TIP3    H123171   3.787   5.352   6.065 -1.1443 -0.1762  0.4683
  536TIP3    H223172   3.638   5.367   6.039 -0.6912  1.7342 -1.3102
  537TIP3   OH223173   1.497   0.938   0.252 -0.4788  0.1089 -0.3782
  537TIP3    H123174   1.414   0.919   0.208 -0.2050  0.9207 -1.2846
  537TIP3    H223175   1.556   0.965   0.182 -0.1266  1.7593  0.4956
  538TIP3   OH223176   0.438   1.665   0.862 -0.0064  0.5500  0.2860
  538TIP3    H123177   0.411   1.608   0.790  1.0162  0.4238 -0.0225
  538TIP3    H223178   0.366   1.727   0.872 -0.5479  0.0257 -0.2586
  539TIP3   OH223179   5.279   1.213   6.585 -0.6381  0.8397  0.5981
  539TIP3    H123180   5.274   1.181   6.495  0.3175 -1.9839  1.4457
  539TIP3    H223181   5.229   1.295   6.584 -0.8314  0.7971 -2.4206
  540TIP3   OH223182   0.921   1.515   0.083 -0.1740  0.5239  0.3589
  540TIP3    H123183   1.007   1.479   0.104  0.4235  0.9871 -1.1409
  540TIP3    H223184   0.898   1.569   0.159  1.4383  1.4065  0.2435
  541TIP3   OH223185   3.853   2.705   1.993 -0.2588 -0.6664  0.1987
  541TIP3    H123186   3.802   2.757   2.055  0.4299  1.7870 -1.1582
  541TIP3    H223187   3.791   2.643   1.956 -1.5521  0.3032  0.6834
  542TIP3   OH223188   1.130   1.412   0.267 -0.6665 -0.1088 -0.3679
  542TIP3    H123189   1.165   1.325   0.284 -0.0692  0.0949 -0.5285
  542TIP3    H223190   1.195   1.453   0.210 -1.5988 -0.0314 -1.4146
  543TIP3   OH223191   2.965   3.120   6.737  0.1029 -0.0414 -0.9422
  543TIP3    H123192   2.988   3.198   6.685  0.1588 -0.4343 -1.5141
  543TIP3    H223193   3.034   3.115   6.804  0.9323 -0.4310 -1.8041
  544TIP3   OH223194   0.421   4.671   0.757  0.2423  0.6077 -0.6242
  544TIP3    H123195   0.464   4.744   0.802 -3.2402  2.7958 -0.4425
  544TIP3    H223196   0.457   4.674   0.668 -0.2617  3.0730 -0.8207
  545TIP3   OH223197   0.346   5.924   0.128 -0.3028 -0.3774 -0.3377
  545TIP3    H123198   0.311   5.928   0.039  1.6667 -0.6253 -1.1845
  545TIP3    H223199   0.412   5.994   0.131 -1.4723  0.7393  1.5084
  546TIP3   OH223200   1.198   5.781   6.536  0.0799 -0.3094  0.6880
  546TIP3    H123201   1.259   5.716   6.570 -0.7897 -0.7130  1.5392
  546TIP3    H223202   1.131   5.730   6.490  0.5549  0.1502 -0.5658
  547TIP3   OH223203   4.859   0.188   6.756  0.4321 -0.0170 -0.3532
  547TIP3    H123204   4.875   0.278   6.728 -0.1754 -0.8977 -4.2037
  547TIP3    H223205   4.770   0.169   6.726  0.4268 -1.8100  0.6630
  548TIP3   OH223206   6.023   3.697   8.190 -0.3377  0.8750  0.3612
  548TIP3    H123207   6.016   3.623   8.251  0.7673  0.2335 -0.2478
  548TIP3    H223208   5.992   3.772   8.240 -0.0435  0.2558  1.5226
  549TIP3   OH223209   5.851   1.553   0.909 -0.2752 -0.5355 -0.3557
  549TIP3    H123210   5.867   1.472   0.860  0.4526  0.3197 -1.6033
  549TIP3    H223211   5.929   1.607   0.893 -1.4638  1.0988 -1.0197
  550TIP3   OH223212   0.475   0.986   1.539 -0.0781 -0.2125  0.2127
  550TIP3    H123213   0.444   0.971   1.629 -0.4997  0.5020  0.2011
  550TIP3    H223214   0.407   1.041   1.500  1.3205  1.6675  0.2715
  551TIP3   OH223215   1.817   5.432   7.937 -0.2988  0.0978 -0.0982
  551TIP3    H123216   1.873   5.492   7.987  0.1906  0.4909 -1.1026
  551TIP3    H223217   1.836   5.451   7.845 -2.9585  1.1254 -0.5434
  552TIP3   OH223218   2.095   3.853   1.745 -0.0762  0.4276  0.0387
  552TIP3    H123219   2.015   3.803   1.729 -1.6231  2.2259  1.5643
  552TIP3    H223220   2.131   3.816   1.826  1.6409 -1.4442 -1.4694
  553TIP3   OH223221   4.594   5.165   6.980 -0.4160 -0.6855  0.2765
  553TIP3    H123222   4.530   5.231   6.953  0.0131  0.3572  1.7172
  553TIP3    H223223   4.589   5.164   7.076  2.1860 -0.0561  0.5028
  554TIP3   OH223224   1.516   0.900   8.244 -0.0475 -0.1620  0.0631
  554TIP3    H123225   1.508   0.911   8.149 -1.1946  0.4495  0.2133
  554TIP3    H223226   1.426   0.904   8.276  0.3861  0.3432  1.2523
  555TIP3   OH223227   0.939   2.489   7.815 -0.1159 -0.2401  0.3482
  555TIP3    H123228   0.909   2.579   7.808 -1.2933 -0.7229 -1.3039
  555TIP3    H223229   1.034   2.493   7.800 -0.2524  0.6536 -0.3316
  556TIP3   OH223230   4.651   1.276   6.371  0.1561 -0.4463 -0.1484
  556TIP3    H123231   4.709   1.232   6.309  3.2658  2.6124  0.3409
  556TIP3    H223232   4.584   1.317   6.316  0.3265 -1.3307 -1.0380
  557TIP3   OH223233   3.199   1.699   7.710  0.0107 -0.3140 -0.0343
  557TIP3    H123234   3.176   1.774   7.765 -0.9170 -0.0354 -0.7865
  557TIP3    H223235   3.275   1.660   7.754 -0.3451  0.2418  1.1227
  558TIP3   OH223236   6.093   6.167   6.834  0.5480 -0.3281  0.3863
  558TIP3    H123237   6.041   6.152   6.755 -1.4025 -1.9042  1.8607
  558TIP3    H223238   6.184   6.153   6.806  0.0356  0.2681 -1.7865
  559TIP3   OH223239   0.609   6.974   6.891  0.9767 -0.4858  0.2022
  559TIP3    H123240   0.623   7.066   6.913 -0.2123 -0.7429  2.3092
  559TIP3    H223241   0.534   6.975   6.832  2.2290 -0.0025 -1.4463
  560TIP3   OH223242   1.708   3.770   6.579  0.0880 -0.0945  0.4553
  560TIP3    H123243   1.621   3.744   6.549  0.0482  0.1987  0.3068
  560TIP3    H223244   1.724   3.854   6.535  1.4119 -1.2232 -1.3466
  561TIP3   OH223245   1.282   0.623   5.876  0.4486 -0.6627 -0.5267
  561TIP3    H123246   1.342   0.628   5.949  1.6015  0.4046 -1.5116
  561TIP3    H223247   1.275   0.529   5.857  3.0273 -0.7735 -1.3313
  562TIP3   OH223248   3.191   2.930   7.480 -0.8026 -0.2606  0.3072
  562TIP3    H123249   3.260   2.931   7.413 -1.2899 -0.3435 -0.1961
  562TIP3    H223250   3.219   2.996   7.544 -0.8421  0.5437 -0.4877
  563TIP3   OH223251   1.264   0.750   6.630  0.1295  0.1441  0.0008
  563TIP3    H123252   1.204   0.679   6.606  0.5028  0.1606 -1.0673
  563TIP3    H223253   1.211   0.830   6.624  0.7171  0.4285 -3.2063
  564TIP3   OH223254   4.817   2.959   8.000 -0.0965  0.7609  0.2472
  564TIP3    H123255   4.845   2.909   7.923 -0.6417 -0.1518  0.6133
  564TIP3    H223256   4.898   2.978   8.047  0.0902 -0.3819  0.4353
  565TIP3   OH223257   1.757   0.530   8.340 -0.1925  0.0318 -0.1080
  565TIP3    H123258   1.753   0.598   8.407 -0.7098 -0.4207  0.3391
  565TIP3    H223259   1.687   0.552   8.278 -1.3331 -0.8505  0.8063
  566TIP3   OH223260   6.528   4.378   6.752  0.6479  0.1033 -0.2733
  566TIP3    H123261   6.472   4.341   6.684  1.3732 -1.4212 -0.0815
  566TIP3    H223262   6.617   4.363   6.721  0.9839  1.6571 -0.1350
  567TIP3   OH223263   3.827   4.181   0.180  0.4067  0.7090  0.0560
  567TIP3    H123264   3.765   4.196   0.108  1.2492 -1.0640 -1.1003
  567TIP3    H223265   3.812   4.091   0.206  2.4341  0.2434 -0.2206
  568TIP3   OH223266   5.069   6.287   0.402  0.0829 -0.1411 -0.3465
  568TIP3    H123267   5.015   6.210   0.383 -0.2898  0.0628 -0.1333
  568TIP3    H223268   5.158   6.260   0.381  0.5369 -1.8463  3.0855
  569TIP3   OH223269   6.032   4.264   1.517  0.3720 -0.0303 -0.2506
  569TIP3    H123270   6.100   4.293   1.578 -0.5733  0.7927  0.4235
  569TIP3    H223271   5.952   4.305   1.548 -0.3022 -0.3345 -1.5177
  570TIP3   OH223272   1.731   2.946   0.107  0.0939  0.1391 -0.3090
  570TIP3    H123273   1.730   2.885   0.182  0.0719 -0.7723 -1.0352
  570TIP3    H223274   1.678   2.903   0.040 -0.0187  1.0235 -0.8018
  571TIP3   OH223275   1.463   0.322   8.102 -0.0045 -0.1228  0.2069
  571TIP3    H123276   1.369   0.305   8.093 -0.2692  0.3372  1.7954
  571TIP3    H223277   1.491   0.259   8.168  0.6992  0.1445  0.1607
  572TIP3   OH223278   2.217   3.836   1.195 -0.3680 -0.4482 -0.4091
  572TIP3    H123279   2.195   3.746   1.171  1.2025 -1.1913  0.7485
  572TIP3    H223280   2.238   3.831   1.288 -1.7598  1.4407  0.0512
  573TIP3   OH223281   5.039   6.007   7.260 -0.1114  0.6159  0.1529
  573TIP3    H123282   5.031   6.069   7.187  0.6213  0.2835 -0.2281
  573TIP3    H223283   4.976   6.038   7.325  1.2851  2.6768  0.6255
  574TIP3   OH223284   6.033   5.967   0.512  0.5521  0.1909  0.2707
  574TIP3    H123285   6.032   5.872   0.501 -1.4890  0.1998 -0.1243
  574TIP3    H223286   6.102   5.998   0.454 -0.1888 -0.9055 -1.2552
  575TIP3   OH223287   0.578   2.358   7.206 -0.5392  0.2029  0.0117
  575TIP3    H123288   0.586   2.363   7.111 -0.8805 -0.3504 -0.0491
  575TIP3    H223289   0.657   2.312   7.235 -1.6674 -2.0231 -0.2605
  576TIP3   OH223290   1.876   0.061   0.032  0.1169  0.1062 -0.1607
  576TIP3    H123291   1.910   0.134  -0.020 -1.2739  0.0505 -1.1921
  576TIP3    H223292   1.842   0.101   0.112 -0.0241  0.5035 -0.4189
  577TIP3   OH223293   1.381   6.813   0.209 -0.0390 -0.3440  0.4269
  577TIP3    H123294   1.288   6.830   0.226  0.1661  2.0153 -0.4918
  577TIP3    H223295   1.427   6.872   0.269  0.8720 -1.1841  0.5700
  578TIP3   OH223296   2.148   5.280   1.006 -0.2555  0.3986 -0.5805
  578TIP3    H123297   2.187   5.367   0.996  0.9623 -0.2593 -1.8686
  578TIP3    H223298   2.189   5.245   1.086  0.4321  0.4144 -0.9200
  579TIP3   OH223299   1.002   4.127   6.959 -0.7828 -0.4768  0.0875
  579TIP3    H123300   1.063   4.187   7.002 -1.1347 -1.2574  1.7882
  579TIP3    H223301   0.995   4.053   7.020 -1.7378 -1.4037 -1.1049
  580TIP3   OH223302   2.032   1.273   2.149 -0.2443 -0.5057  0.6266
  580TIP3    H123303   2.098   1.248   2.085 -0.5113 -0.2730  0.2543
  580TIP3    H223304   2.031   1.201   2.212 -1.5917 -1.8937 -0.8760
  581TIP3   OH223305   4.136   6.759   8.090  0.0850 -0.9362  0.2870
  581TIP3    H123306   4.083   6.687   8.123  1.3976 -1.1835  2.0371
  581TIP3    H223307   4.216   6.755   8.142 -0.5644  2.9960  1.9619
  582TIP3   OH223308   0.607   1.892   7.604 -0.2767  0.4626  0.3085
  582TIP3    H123309   0.628   1.908   7.696  0.0178 -2.0965  0.7406
  582TIP3    H223310   0.532   1.832   7.607 -0.2383  0.3211 -1.1322
  583TIP3   OH223311   0.224   4.157   0.012 -0.2194 -0.3931  0.3037
  583TIP3    H123312   0.255   4.242  -0.021 -1.2819  0.4916  1.4665
  583TIP3    H223313   0.281   4.093  -0.030  2.2807  1.0419  1.2864
  584TIP3   OH223314   6.740   3.527   7.591  0.1761 -0.3282 -0.1112
  584TIP3    H123315   6.792   3.564   7.662  0.7380  0.0570 -0.7197
  584TIP3    H223316   6.666   3.485   7.635  1.5553 -1.8734  0.8770
  585TIP3   OH223317   1.860   0.634   7.533  0.1375 -0.4445 -0.5432
  585TIP3    H123318   1.909   0.595   7.606 -1.0936 -0.5787  0.2368
  585TIP3    H223319   1.901   0.597   7.455  1.0281 -0.8475  0.0946
  586TIP3   OH223320   5.052   3.437   2.028  0.2649  0.2614  0.0625
  586TIP3    H123321   4.988   3.376   1.991  2.1413 -2.3567  0.8414
  586TIP3    H223322   5.025   3.448   2.119  1.5672 -1.9532  0.7870
  587TIP3   OH223323   1.427   5.413   1.194  0.0575  0.4570  0.4682
  587TIP3    H123324   1.440   5.336   1.139 -2.6805  1.2476 -1.4576
  587TIP3    H223325   1.454   5.385   1.282  2.2931 -1.5846 -0.7720
  588TIP3   OH223326   0.503   4.155   8.280  0.9554  0.3102  0.3708
  588TIP3    H123327   0.574   4.213   8.253 -0.2262  1.7270  0.1267
  588TIP3    H223328   0.444   4.154   8.205  1.7273 -2.6439 -0.3162
  589TIP3   OH223329   1.818   2.753   6.186 -0.2034  0.0853 -0.0829
  589TIP3    H123330   1.854   2.685   6.130  0.4265  0.7113 -0.4611
  589TIP3    H223331   1.790   2.707   6.266  0.0845 -0.6262 -0.3839
  590TIP3   OH223332   3.137   2.089   8.349 -0.2636 -0.4960  0.4868
  590TIP3    H123333   3.213   2.055   8.302 -1.0965 -1.8254  0.0194
  590TIP3    H223334   3.126   2.029   8.423  1.1232  1.6690  2.5526
  591TIP3   OH223335   0.868   3.750   8.249 -0.4486 -0.4350 -0.1228
  591TIP3    H123336   0.886   3.656   8.246 -0.1048 -0.3564 -2.5724
  591TIP3    H223337   0.773   3.756   8.237 -0.6652 -0.4711  1.3689
  592TIP3   OH223338   1.050   3.856   8.089 -0.0587 -0.2238  0.7749
  592TIP3    H123339   0.981   3.794   8.067 -0.0475  0.1031 -0.2590
  592TIP3    H223340   1.102   3.813   8.157  0.9801 -2.0858 -1.1093
  593TIP3   OH223341   3.537   4.919   1.593 -0.4315 -0.4176  0.1105
  593TIP3    H123342   3.623   4.955   1.616 -0.6086  1.2145 -1.5574
  593TIP3    H223343   3.475   4.989   1.616 -1.5651 -2.0855  2.6082
  594TIP3   OH223344   5.834   4.331   6.905  0.7796 -0.3868 -0.6545
  594TIP3    H123345   5.743   4.306   6.924  1.0809  0.5364  2.8354
  594TIP3    H223346   5.886   4.273   6.961  2.2002  0.3806 -1.1409
  595TIP3   OH223347   1.838   3.068   1.912 -0.1316  0.0131 -0.0879
  595TIP3    H123348   1.851   3.158   1.939  2.4373 -1.2095  3.5098
  595TIP3    H223349   1.743   3.053   1.922 -0.2121  1.5609  2.0486
  596TIP3   OH223350   6.458   4.698   0.564 -0.3909  0.0286 -0.0038
  596TIP3    H123351   6.460   4.725   0.656 -1.8719 -0.9440  0.3613
  596TIP3    H223352   6.458   4.779   0.515 -0.3873  0.5834  0.8870
  597TIP3   OH223353   0.097   1.934   2.364 -0.3709 -0.6077 -0.2154
  597TIP3    H123354   0.033   1.974   2.306 -0.3357 -2.4117 -1.5638
  597TIP3    H223355   0.069   1.843   2.373  1.5908 -1.2852 -0.3193
  598TIP3   OH223356   6.854   5.435   7.144  0.2587  0.1441 -0.1340
  598TIP3    H123357   6.881   5.386   7.067  0.5382  0.6733 -0.3767
  598TIP3    H223358   6.759   5.444   7.135 -0.0548 -1.8064  0.7729
  599TIP3   OH223359   2.511   6.583   7.333 -0.0105 -0.0833  0.5333
  599TIP3    H123360   2.417   6.565   7.325 -0.0639 -0.1179  1.1845
  599TIP3    H223361   2.517   6.679   7.328  0.0137 -0.1202 -0.3547
  600TIP3   OH223362   4.754   5.444   7.407  0.4738 -0.1848 -0.4469
  600TIP3    H123363   4.777   5.470   7.318 -0.0038 -0.4290 -0.6497
  600TIP3    H223364   4.739   5.526   7.454  1.5540 -0.0289 -0.3545
  601TIP3   OH223365   0.582   2.477   0.747  0.0213  0.4293 -0.3410
  601TIP3    H123366   0.592   2.395   0.698 -0.6987  0.5664 -0.7265
  601TIP3    H223367   0.671   2.498   0.776  0.3318 -0.0845 -0.8882
  602TIP3   OH223368   4.536   0.813   0.588  0.1352 -0.0241 -0.0193
  602TIP3    H123369   4.477   0.856   0.650  0.6981  1.2293 -0.3288
  602TIP3    H223370   4.533   0.868   0.510 -0.2277 -1.3466 -0.9636
  603TIP3   OH223371   6.036   3.809   7.274 -0.0878 -0.0024 -0.3680
  603TIP3    H123372   6.007   3.789   7.363 -1.6056 -3.4077 -1.4522
  603TIP3    H223373   5.961   3.851   7.233 -0.8110 -1.7874 -0.9863
  604TIP3   OH223374   0.047   2.154   1.276  0.0800 -1.1626 -0.2082
  604TIP3    H123375   0.130   2.131   1.236 -0.8461 -1.7125 -1.9060
  604TIP3    H223376   0.071   2.205   1.353  1.9565 -0.3196 -1.2882
  605TIP3   OH223377   5.514   1.562   1.250  0.5588 -0.0205 -0.1156
  605TIP3    H123378   5.452   1.515   1.195  0.0882 -1.9172  1.9016
  605TIP3    H223379   5.600   1.538   1.215  0.2895 -1.7662  0.3252
  606TIP3   OH223380   4.075   5.011   0.116 -0.3726  0.0495 -0.2911
  606TIP3    H123381   4.165   5.017   0.151 -0.4564  0.1739 -0.0918
  606TIP3    H223382   4.087   5.001   0.022 -0.1399 -0.3858 -0.2177
  607TIP3   OH223383   0.241   2.505   0.580  0.0122 -0.1563  0.1100
  607TIP3    H123384   0.265   2.515   0.488  1.1559  0.2382  0.4342
  607TIP3    H223385   0.299   2.564   0.627 -0.4751 -0.4398  1.1008
  608TIP3   OH223386   5.222   1.230   8.133  0.1554 -0.2049 -0.0881
  608TIP3    H123387   5.312   1.199   8.121  1.3085  2.3095  1.3012
  608TIP3    H223388   5.198   1.197   8.220  0.1760  0.1194  0.0384
  609TIP3   OH223389   6.131   2.473   2.007 -0.2361  0.1779 -0.4695
  609TIP3    H123390   6.114   2.414   1.933 -0.2237 -3.4893  2.1576
  609TIP3    H223391   6.222   2.501   1.995  0.2275 -1.4806 -1.1837
  610TIP3   OH223392   0.723   4.457   6.956  0.2585  0.7305  0.0127
  610TIP3    H123393   0.693   4.451   6.866  1.3077 -0.9373 -0.2758
  610TIP3    H223394   0.647   4.431   7.008  0.5030 -1.4734 -0.6051
  611TIP3   OH223395   5.977   1.301   1.092  0.0505 -0.6387  0.1573
  611TIP3    H123396   6.052   1.325   1.147 -0.2490  0.7453  0.0119
  611TIP3    H223397   6.014   1.296   1.004  0.1943 -1.1569  0.2417
  612TIP3   OH223398   4.781   2.969   6.690  0.1153  0.6078 -0.0591
  612TIP3    H123399   4.697   2.925   6.672 -1.1113  1.6979  2.4955
  612TIP3    H223400   4.843   2.897   6.703 -1.1138 -0.3465  0.8546
  613TIP3   OH223401   2.217   3.638   8.293 -0.2793 -0.4427  0.3336
  613TIP3    H123402   2.160   3.579   8.342  0.8113 -1.0782  0.8828
  613TIP3    H223403   2.183   3.725   8.311 -1.3143 -0.8332  0.3146
  614TIP3   OH223404   1.789   3.300   1.645  0.7736 -0.3769 -0.1670
  614TIP3    H123405   1.735   3.349   1.707 -1.1767 -2.1529 -0.3330
  614TIP3    H223406   1.799   3.214   1.685  0.8962 -1.0250 -1.5335
  615TIP3   OH223407   7.005   5.380   7.341 -0.5391  0.5166  0.6249
  615TIP3    H123408   6.964   5.410   7.260  0.8208  1.9972  0.4347
  615TIP3    H223409   6.980   5.289   7.348 -0.7007  0.3426 -1.4759
  616TIP3   OH223410   6.395   6.878   7.701 -0.2120  0.4733  0.5821
  616TIP3    H123411   6.373   6.954   7.755  1.3792  0.6147  1.0728
  616TIP3    H223412   6.491   6.876   7.700 -0.2178 -1.3051  0.2666
  617TIP3   OH223413   6.470   0.418   0.750  0.1427 -0.3906 -0.4569
  617TIP3    H123414   6.495   0.505   0.718  0.9438  0.4309  2.1861
  617TIP3    H223415   6.441   0.371   0.671  2.5893  1.2179 -2.4762
  618TIP3   OH223416   6.490   4.002   8.268  0.0567 -0.3023  0.0913
  618TIP3    H123417   6.452   3.988   8.354  1.9744  1.2536  1.2914
  618TIP3    H223418   6.577   3.963   8.273  1.0692  1.7468 -0.3029
  619TIP3   OH223419   1.926   5.295   1.636  0.0017  0.1536 -0.3939
  619TIP3    H123420   1.876   5.356   1.583 -0.2652  0.5443  0.2990
  619TIP3    H223421   2.017   5.326   1.630 -0.3603  1.7400  1.4055
  620TIP3   OH223422   2.565   1.292   1.946  0.3854 -0.8722 -0.1752
  620TIP3    H123423   2.607   1.370   1.983 -0.7961 -1.0620  1.6866
  620TIP3    H223424   2.478   1.322   1.920  0.0676 -1.4561  0.1876
  621TIP3   OH223425   3.338   0.447   1.552 -0.1524  0.3378  0.0945
  621TIP3    H123426   3.292   0.530   1.564  0.2992  0.5860  0.0916
  621TIP3    H223427   3.350   0.414   1.641 -0.3656  0.2532  0.0938
  622TIP3   OH223428   6.215   6.138   0.237 -0.0816  0.2451 -0.3899
  622TIP3    H123429   6.253   6.166   0.321 -0.6910  0.6184 -0.2322
  622TIP3    H223430   6.276   6.073   0.204  0.2559  0.2164  0.2684
  623TIP3   OH223431   4.089   3.956   7.171  0.6486  0.6063  0.2021
  623TIP3    H123432   4.155   3.888   7.161  0.7349  0.5918  0.8276
  623TIP3    H223433   4.045   3.959   7.086  0.8605  0.0038  0.0641
  624TIP3   OH223434   1.816   0.851   1.477  0.3041  0.3199  0.0355
  624TIP3    H123435   1.898   0.826   1.434  0.5173  0.0151  0.6001
  624TIP3    H223436   1.760   0.774   1.471 -0.5521  1.0308 -1.7306
  625TIP3   OH223437   2.477   4.042   0.949  1.0317  0.3558 -0.1599
  625TIP3    H123438   2.519   4.091   1.019 -1.3642 -0.3103  1.8715
  625TIP3    H223439   2.482   4.100   0.873  1.5797  2.1523  1.1703
  626TIP3   OH223440   4.754   3.206   7.501  0.8311 -0.0663  0.6145
  626TIP3    H123441   4.788   3.268   7.437  2.2652 -0.8227  0.5955
  626TIP3    H223442   4.712   3.261   7.567  1.0220  0.8411  0.0068
  627TIP3   OH223443   3.966   4.337   0.960 -0.2630  0.6347 -0.3305
  627TIP3    H123444   4.008   4.359   1.043 -1.5978  0.6188  0.3823
  627TIP3    H223445   3.996   4.405   0.899  1.8157 -0.1282 -0.2327
  628TIP3   OH223446   4.365   6.130   0.894 -0.4022 -0.1615 -0.1913
  628TIP3    H123447   4.403   6.078   0.965 -1.0311  0.9109  0.9779
  628TIP3    H223448   4.285   6.166   0.931 -0.1031  1.4525 -1.0138
  629TIP3   OH223449   2.948   1.888   7.578 -0.1384  0.2549 -0.1145
  629TIP3    H123450   2.922   1.826   7.645  0.8449  0.9699  0.9629
  629TIP3    H223451   3.043   1.896   7.588  0.4300 -1.2437 -3.0070
  630TIP3   OH223452   1.656   5.211   7.939  0.0572 -0.3357 -0.4663
  630TIP3    H123453   1.580   5.256   7.902  1.2164  1.2754 -0.9985
  630TIP3    H223454   1.727   5.274   7.931  1.0051 -0.9918  1.9648
  631TIP3   OH223455   3.688   6.442   6.418 -0.4286 -0.0545 -0.1114
  631TIP3    H123456   3.624   6.381   6.453  1.1463 -2.0808 -0.5619
  631TIP3    H223457   3.691   6.423   6.324 -0.3015  1.1205 -0.3618
  632TIP3   OH223458   2.553   1.247   5.658  0.0004 -0.3389  0.2042
  632TIP3    H123459   2.583   1.159   5.683 -1.1447 -0.5109  1.0312
  632TIP3    H223460   2.465   1.254   5.695 -1.8259 -0.5521 -3.5598
  633TIP3   OH223461   2.248   0.502   7.651  0.3860  0.0504  0.0234
  633TIP3    H123462   2.280   0.584   7.688 -0.8508  1.5336 -1.9484
  633TIP3    H223463   2.253   0.516   7.556  0.0276 -2.1386 -0.3665
  634TIP3   OH223464   0.927   1.631   1.204  0.2197  0.4497 -0.0510
  634TIP3    H123465   0.920   1.612   1.298  0.0547  0.6642 -0.0198
  634TIP3    H223466   0.857   1.693   1.187  0.3967  0.5898 -0.2714
  635TIP3   OH223467   5.591   0.605   8.281 -0.4459 -0.1658  0.4724
  635TIP3    H123468   5.524   0.551   8.238 -0.2498  1.9797 -2.9810
  635TIP3    H223469   5.541   0.672   8.328 -0.7252 -0.1200  0.1157
  636TIP3   OH223470   0.051   2.495   0.342 -0.2103  0.8918 -0.4904
  636TIP3    H123471   0.021   2.506   0.432  0.4086 -1.5449  0.0659
  636TIP3    H223472   0.019   2.409   0.316  0.2331  1.2539 -2.3681
  637TIP3   OH223473   2.036   0.751   6.565  0.4851  0.1169 -0.5766
  637TIP3    H123474   2.002   0.787   6.482  0.7220 -1.0341 -1.1916
  637TIP3    H223475   2.127   0.781   6.569  0.4660  0.1963 -0.7203
  638TIP3   OH223476   1.490   2.842   6.155 -0.1853 -0.0740  0.9872
  638TIP3    H123477   1.441   2.760   6.164  1.5768 -1.5131 -1.2601
  638TIP3    H223478   1.582   2.815   6.167  0.4289  1.5748  0.2120
  639TIP3   OH223479   1.415   4.810   7.648 -0.5933 -0.1430 -0.3745
  639TIP3    H123480   1.468   4.875   7.694 -1.0155 -0.0636  0.0087
  639TIP3    H223481   1.393   4.851   7.564 -0.1192 -0.1477 -0.5048
  640TIP3   OH223482   3.367   2.221   7.031  0.2743  1.1092  0.0652
  640TIP3    H123483   3.283   2.241   7.072  0.0778 -0.1071  0.2934
  640TIP3    H223484   3.345   2.167   6.955  0.9530 -2.2127  2.0205
  641TIP3   OH223485   0.294   6.256   0.030 -0.0698  0.4306 -0.3902
  641TIP3    H123486   0.348   6.192   0.076  0.4549  0.0040 -1.5548
  641TIP3    H223487   0.321   6.340   0.066  1.2074  0.2024 -0.7795
  642TIP3   OH223488   1.060   2.566   0.202  0.3213  0.0536  0.7950
  642TIP3    H123489   1.101   2.492   0.246  0.7531 -0.6476 -0.7320
  642TIP3    H223490   1.069   2.638   0.264  0.6588 -0.9613  1.9590
  643TIP3   OH223491   2.220   2.230   0.651 -0.6590 -0.4140  0.0881
  643TIP3    H123492   2.137   2.197   0.617 -1.3771  3.1820 -2.1630
  643TIP3    H223493   2.281   2.225   0.577 -0.4534  1.8203  0.0285
  644TIP3   OH223494   0.499   4.616   7.527 -0.3348  0.5791 -0.3305
  644TIP3    H123495   0.577   4.618   7.473  0.1341 -1.0778  0.2241
  644TIP3    H223496   0.504   4.696   7.580  0.7888  0.6724 -0.5573
  645TIP3   OH223497   5.314   4.139   6.766  0.3024  0.1400 -0.0073
  645TIP3    H123498   5.302   4.230   6.738  2.6917  0.0896 -1.4725
  645TIP3    H223499   5.317   4.089   6.685 -0.0944 -1.1617  0.7435
  646TIP3   OH223500   2.749   5.211   0.612 -0.0297 -0.1656  0.1920
  646TIP3    H123501   2.720   5.268   0.540  0.0509  0.8646  0.9417
  646TIP3    H223502   2.745   5.123   0.576 -1.0897  0.2213 -0.7171
  647TIP3   OH223503   4.511   1.261   0.645  0.1927  0.1765 -0.4241
  647TIP3    H123504   4.439   1.323   0.629  0.4177  0.3999 -0.5707
  647TIP3    H223505   4.528   1.268   0.739  1.4174  1.6662 -0.7169
  648TIP3   OH223506   4.525   5.271   7.422 -0.3737 -0.2357 -0.1352
  648TIP3    H123507   4.596   5.334   7.429  0.6363 -1.1953 -1.2437
  648TIP3    H223508   4.463   5.312   7.361 -0.8359  0.6381  0.8964
  649TIP3   OH223509   1.465   2.720   0.999 -0.1580 -0.0094 -0.1702
  649TIP3    H123510   1.449   2.793   0.939  0.6697  0.0460 -0.3463
  649TIP3    H223511   1.559   2.724   1.017 -0.5111  0.4814  1.8171
  650TIP3   OH223512   2.028   1.797   0.554  0.3321 -0.3471 -0.3006
  650TIP3    H123513   2.066   1.720   0.512 -1.5532 -1.8478  0.6090
  650TIP3    H223514   2.031   1.778   0.647 -0.7744  0.3851 -0.0938
  651TIP3   OH223515   6.302   2.109   0.714  0.3181  0.1518 -0.1651
  651TIP3    H123516   6.341   2.022   0.725 -1.1986 -0.5998 -0.4707
  651TIP3    H223517   6.220   2.106   0.763 -0.7496  0.7024 -1.7936
  652TIP3   OH223518   4.939   1.171   1.488 -0.5026 -0.9519  0.1113
  652TIP3    H123519   4.901   1.251   1.453 -1.6231 -0.6314  1.9334
  652TIP3    H223520   5.031   1.173   1.459 -0.1472  1.6536  1.1567
  653TIP3   OH223521   0.915   1.736   6.670 -0.2353 -0.9362 -0.2300
  653TIP3    H123522   0.971   1.780   6.734 -3.2833  3.1150  0.0308
  653TIP3    H223523   0.952   1.761   6.585 -2.5467  3.7735 -0.1524
  654TIP3   OH223524   4.400   6.996   7.518 -0.1997 -0.1192 -0.0746
  654TIP3    H123525   4.428   6.919   7.568  0.3267 -0.0381 -0.2369
  654TIP3    H223526   4.350   7.048   7.580 -0.9197 -0.7950 -0.0775
  655TIP3   OH223527   1.050   1.671   2.128  0.0789 -0.3516 -0.5680
  655TIP3    H123528   1.023   1.746   2.074  0.3471  0.1454 -0.0138
  655TIP3    H223529   1.116   1.706   2.187  1.8125 -1.5009 -1.7317
  656TIP3   OH223530   0.651   2.844   1.933 -0.0923 -0.3035 -0.4677
  656TIP3    H123531   0.660   2.753   1.960  0.3402  0.0640  0.6723
  656TIP3    H223532   0.740   2.879   1.936 -0.5159  0.7476  1.3569
  657TIP3   OH223533   6.475   0.924   7.012 -0.4115  0.2003 -0.0627
  657TIP3    H123534   6.514   0.873   7.083 -1.3586  0.0949  0.4044
  657TIP3    H223535   6.424   0.992   7.056 -0.9321  0.1963 -0.6341
  658TIP3   OH223536   6.068   3.586   1.345  0.1159 -0.0319 -0.3131
  658TIP3    H123537   6.150   3.559   1.302  1.5204  1.7699  1.0512
  658TIP3    H223538   6.093   3.663   1.397 -2.0084 -0.6192  1.7407
  659TIP3   OH223539   5.153   1.930   0.571  0.7330 -0.6103  0.1857
  659TIP3    H123540   5.248   1.943   0.569  1.0304 -0.5736  4.5420
  659TIP3    H223541   5.119   2.012   0.607 -1.0486 -0.5864 -1.4071
  660TIP3   OH223542   4.951   3.679   0.098  0.0299  0.5097  0.0510
  660TIP3    H123543   4.933   3.733   0.175 -0.1748  0.0257  0.3474
  660TIP3    H223544   4.881   3.614   0.098  0.5402 -0.0482 -0.0359
  661TIP3   OH223545   6.060   5.614   6.564 -0.2130 -0.5392 -0.0223
  661TIP3    H123546   6.155   5.628   6.555 -0.3666  0.7633  0.2295
  661TIP3    H223547   6.052   5.550   6.635  0.4417  0.3722  0.9033
  662TIP3   OH223548   0.221   2.995   6.937  0.1762 -0.7006  0.0183
  662TIP3    H123549   0.187   2.922   6.886 -0.7011  0.1295 -0.6130
  662TIP3    H223550   0.271   2.953   7.007 -0.1875 -1.9002 -0.4072
  663TIP3   OH223551   2.380   6.903   1.436  0.5227  0.4495  0.3776
  663TIP3    H123552   2.466   6.928   1.404  0.6200  0.0824  0.3503
  663TIP3    H223553   2.396   6.827   1.493  0.2356  0.4618  0.4787
  664TIP3   OH223554   3.175   5.719   1.026  0.1216  0.0231  0.0791
  664TIP3    H123555   3.262   5.745   0.995  0.8633 -1.6478  0.6426
  664TIP3    H223556   3.163   5.767   1.108  0.5498  0.1811  0.0499
  665TIP3   OH223557   0.477   5.995   5.853 -0.6244 -0.0719 -0.1881
  665TIP3    H123558   0.478   5.960   5.764 -0.2663 -0.3485 -0.0762
  665TIP3    H223559   0.508   5.923   5.908 -1.0073  0.0392  0.1848
  666TIP3   OH223560   1.392   4.366   7.994 -0.1160  0.0800  0.1696
  666TIP3    H123561   1.327   4.316   8.045 -0.3405  1.2746  1.0979
  666TIP3    H223562   1.453   4.400   8.060  0.0983  0.9362 -0.4521
  667TIP3   OH223563   2.058   2.490   7.190 -0.1348 -0.4664 -0.0729
  667TIP3    H123564   2.071   2.584   7.193  1.7991 -0.7108  0.1771
  667TIP3    H223565   1.963   2.479   7.202 -0.6860  1.4962 -1.9953
  668TIP3   OH223566   2.103   2.303   5.990 -0.6330  0.2213  0.4264
  668TIP3    H123567   2.143   2.266   6.069  0.3066 -0.7064 -0.4467
  668TIP3    H223568   2.175   2.307   5.926 -1.4931  0.4111 -0.5629
  669TIP3   OH223569   4.767   4.637   0.309 -0.6407  0.2849 -0.1124
  669TIP3    H123570   4.842   4.696   0.321 -0.8592  0.6800 -0.6221
  669TIP3    H223571   4.755   4.634   0.214 -2.2166  1.4295  0.0110
  670TIP3   OH223572   3.230   1.082   6.344 -0.1425  0.2089 -0.3993
  670TIP3    H123573   3.275   1.122   6.418 -0.5955  2.7676 -1.4086
  670TIP3    H223574   3.139   1.108   6.354 -0.0435  1.5200 -2.3413
  671TIP3   OH223575   1.016   0.432   8.242  0.7561  0.1874 -0.1728
  671TIP3    H123576   0.932   0.454   8.202  0.1735  1.3287  1.6017
  671TIP3    H223577   1.038   0.507   8.296  2.4170 -0.5384  0.2245
  672TIP3   OH223578   3.976   2.837   7.814 -0.2447 -0.5062  0.3511
  672TIP3    H123579   3.917   2.823   7.888 -1.9444 -0.1384 -0.8946
  672TIP3    H223580   3.920   2.835   7.737  1.2865  0.4349 -0.8471
  673TIP3   OH223581   6.848   0.166   0.081  0.1180  0.2472  0.1017
  673TIP3    H123582   6.850   0.158   0.177  2.2844  1.7706  0.2795
  673TIP3    H223583   6.894   0.088   0.050  0.6180  0.4115  0.4055
  674TIP3   OH223584   2.539   6.583   1.195  0.3939 -0.1960  0.5192
  674TIP3    H123585   2.467   6.600   1.134 -0.6553  0.2216  1.8238
  674TIP3    H223586   2.606   6.646   1.170  0.1334 -0.2819 -0.4339
  675TIP3   OH223587   4.139   6.161   6.550  0.3643 -0.0556  0.0433
  675TIP3    H123588   4.079   6.095   6.585  0.2969  0.0219  0.0753
  675TIP3    H223589   4.169   6.124   6.467  0.8528 -0.4281  0.3790
  676TIP3   OH223590   5.469   6.550   0.609 -0.3485 -0.3261  0.2635
  676TIP3    H123591   5.433   6.540   0.698 -0.1204  3.4374  0.9320
  676TIP3    H223592   5.536   6.481   0.603 -0.2645 -0.6300  3.0812
  677TIP3   OH223593   1.827   5.348   7.647  0.0921 -0.5401  0.4102
  677TIP3    H123594   1.828   5.271   7.590 -0.4249  1.7873 -3.0858
  677TIP3    H223595   1.910   5.392   7.630 -0.0859  0.2489  1.4736
  678TIP3   OH223596   0.640   1.607   6.829  0.0623  0.4546 -0.0936
  678TIP3    H123597   0.649   1.700   6.812  0.0864  0.5343  0.3299
  678TIP3    H223598   0.626   1.601   6.924 -0.8363  0.0894 -0.2370
  679TIP3   OH223599   4.917   5.962   0.585 -0.1393  0.6928 -0.4774
  679TIP3    H123600   4.881   5.875   0.566 -0.0577  1.0003 -2.1258
  679TIP3    H223601   4.998   5.944   0.634  0.9348 -0.2786 -2.4835
  680TIP3   OH223602   0.993   4.399   7.053  0.2455  0.1628 -0.1798
  680TIP3    H123603   0.908   4.390   7.009  0.2600  0.6328 -0.3065
  680TIP3    H223604   0.971   4.415   7.145  0.1757  1.3227 -0.3923
  681TIP3   OH223605   5.062   5.863   6.711 -0.1140 -0.3821  0.1622
  681TIP3    H123606   5.112   5.900   6.638 -0.1489 -1.7633 -0.5906
  681TIP3    H223607   4.978   5.909   6.707 -0.6135 -1.3533 -1.5355
  682TIP3   OH223608   2.264   6.592   6.482 -0.2206  0.3255 -0.0764
  682TIP3    H123609   2.195   6.535   6.447 -0.4950  0.6012  0.0081
  682TIP3    H223610   2.336   6.582   6.421 -0.1971 -0.2595  0.0440
  683TIP3   OH223611   4.977   0.012   5.945  0.1566  0.2714  0.4631
  683TIP3    H123612   4.941  -0.067   5.907  0.6335  0.3212 -0.1155
  683TIP3    H223613   5.045  -0.019   6.005 -0.5969  0.1930  1.2993
  684TIP3   OH223614   1.036   5.552   7.291 -0.4495  0.0331 -0.2685
  684TIP3    H123615   1.024   5.575   7.383  2.1624 -0.0431  0.1712
  684TIP3    H223616   1.088   5.624   7.254  2.2363 -1.8459 -0.5001
  685TIP3   OH223617   0.902   5.113   7.079 -0.4234 -0.0916 -0.0713
  685TIP3    H123618   0.968   5.059   7.123  0.5248  0.0620 -1.2569
  685TIP3    H223619   0.879   5.179   7.144  1.7665  0.8074 -0.1128
  686TIP3   OH223620   0.706   6.536   2.282 -0.6044  0.1067 -0.3892
  686TIP3    H123621   0.776   6.472   2.275 -0.0859  0.6030  0.0627
  686TIP3    H223622   0.628   6.485   2.303 -0.3229 -0.4257 -0.6249
  687TIP3   OH223623   6.214   5.137   7.925  0.3704 -0.5465  0.0705
  687TIP3    H123624   6.309   5.127   7.927  0.5312  0.0563 -2.0189
  687TIP3    H223625   6.191   5.162   8.014  2.2739  0.1555  0.4185
  688TIP3   OH223626   2.763   2.641   6.912 -0.2582  0.1167 -0.0469
  688TIP3    H123627   2.819   2.715   6.890 -0.2363  0.0381 -0.2564
  688TIP3    H223628   2.823   2.577   6.952 -0.1225 -0.1398 -0.6599
  689TIP3   OH223629   2.904   4.059   6.841  0.1628  0.2514 -0.1058
  689TIP3    H123630   2.928   3.970   6.815 -0.8016  0.2482 -1.0389
  689TIP3    H223631   2.979   4.089   6.892  0.8404 -0.8170 -0.4180
  690TIP3   OH223632   1.048   3.805   6.733  0.1399  0.3788 -0.4261
  690TIP3    H123633   0.960   3.818   6.767  0.5175  0.7594  0.4198
  690TIP3    H223634   1.047   3.716   6.697 -0.5188  0.3051 -0.2314
  691TIP3   OH223635   4.794   1.201   7.867 -0.3132  0.2544 -0.1122
  691TIP3    H123636   4.786   1.105   7.874 -2.2883  0.4682  5.1395
  691TIP3    H223637   4.888   1.218   7.872  0.0410 -1.3469 -0.6404
  692TIP3   OH223638   6.810   4.628   0.396 -0.0665 -0.0313 -0.1969
  692TIP3    H123639   6.714   4.640   0.395  0.2413  5.4265 -2.2525
  692TIP3    H223640   6.832   4.607   0.306  0.7601  1.4990 -0.3803
  693TIP3   OH223641   4.643   4.781   7.109  0.1025 -0.0443 -0.1692
  693TIP3    H123642   4.593   4.861   7.088 -2.4392 -1.5242 -0.1559
  693TIP3    H223643   4.641   4.777   7.205 -0.7016 -0.6505 -0.2049
  694TIP3   OH223644   2.518   4.216   7.427  0.5871  0.8048  0.1288
  694TIP3    H123645   2.582   4.195   7.359  0.8284  1.1363  0.2484
  694TIP3    H223646   2.563   4.195   7.509  0.2971  0.4057  0.1908
  695TIP3   OH223647   3.095   0.292   0.639  0.1660  0.0307  0.0299
  695TIP3    H123648   3.040   0.353   0.688 -0.1274  0.3816 -0.7312
  695TIP3    H223649   3.175   0.285   0.692  0.8302  2.2338 -0.5911
  696TIP3   OH223650   4.636   5.331   1.895 -0.7930  0.4146  0.1557
  696TIP3    H123651   4.593   5.388   1.958  0.6378  2.6347 -0.7484
  696TIP3    H223652   4.727   5.326   1.925 -0.4493  0.2499 -0.8582
  697TIP3   OH223653   5.029   4.729   8.007 -0.0700  0.2623 -0.1029
  697TIP3    H123654   5.081   4.674   7.949 -2.6389 -0.4013 -1.9871
  697TIP3    H223655   4.976   4.783   7.947 -2.9879 -0.5853  1.5416
  698TIP3   OH223656   3.583   2.107   6.209  0.0054  0.1832 -0.1407
  698TIP3    H123657   3.520   2.124   6.278  1.0830  1.5459  0.5355
  698TIP3    H223658   3.644   2.044   6.247 -0.3550 -0.3533 -0.4421
  699TIP3   OH223659   3.966   3.612   7.181  0.0252  0.4635 -0.5826
  699TIP3    H123660   4.001   3.543   7.238 -0.2623  0.2040 -0.7156
  699TIP3    H223661   3.884   3.576   7.147  0.8262  0.0741 -2.1996
  700TIP3   OH223662   3.522   4.528   7.170  0.0521 -0.4182 -0.2629
  700TIP3    H123663   3.587   4.479   7.220  0.5544 -1.2521 -1.6721
  700TIP3    H223664   3.549   4.619   7.178  0.1550 -0.5300  0.8899
  701TIP3   OH223665   5.155   4.853   8.267  0.2615  0.0083 -0.6368
  701TIP3    H123666   5.248   4.854   8.248  1.0491  0.7261  2.6249
  701TIP3    H223667   5.123   4.770   8.230  2.2494 -0.4677 -1.3905
  702TIP3   OH223668   3.329   4.736   0.336 -0.6757  0.0212 -0.0540
  702TIP3    H123669   3.368   4.822   0.348  0.6443 -0.6263  0.5009
  702TIP3    H223670   3.403   4.675   0.339 -1.5885 -1.1396 -0.3396
  703TIP3   OH223671   4.947   3.662   7.184  0.0769 -0.4364  0.4843
  703TIP3    H123672   4.934   3.732   7.119 -2.5829 -0.3510  1.0031
  703TIP3    H223673   4.970   3.585   7.132  1.3229  0.3827 -0.2378
  704TIP3   OH223674   6.146   1.983   1.148  0.8574  0.2959  0.2003
  704TIP3    H123675   6.202   2.028   1.085  2.1898  0.6599  1.5908
  704TIP3    H223676   6.203   1.965   1.222 -0.6593 -0.1479  1.3041
  705TIP3   OH223677   3.914   1.689   0.013  0.1652  0.3271  0.0136
  705TIP3    H123678   3.897   1.635  -0.065 -3.1089  0.0266  0.7943
  705TIP3    H223679   3.882   1.636   0.086 -1.0902  2.4226  1.0569
  706TIP3   OH223680   2.743   2.991   6.907 -0.1987 -0.3142 -0.0428
  706TIP3    H123681   2.819   3.017   6.855 -0.3334 -0.5447 -0.3586
  706TIP3    H223682   2.713   3.072   6.948  0.1422 -0.2005 -0.0123
  707TIP3   OH223683   1.292   1.189   0.265  0.0068 -0.2642  0.4252
  707TIP3    H123684   1.295   1.100   0.228 -1.4601 -0.3457  0.4475
  707TIP3    H223685   1.331   1.181   0.352  2.2826 -0.3385 -0.5221
  708TIP3   OH223686   0.480   5.398   0.037  0.0939  0.2624  0.0859
  708TIP3    H123687   0.492   5.489   0.064  0.3149 -0.0196  0.9968
  708TIP3    H223688   0.446   5.354   0.116  0.7476 -0.6004 -0.0980
  709TIP3   OH223689   1.216   1.845   1.019  0.0114 -0.3811 -0.1397
  709TIP3    H123690   1.202   1.771   0.961  1.3827 -0.4929 -0.3796
  709TIP3    H223691   1.307   1.836   1.048  0.3317  1.3690 -0.4344
  710TIP3   OH223692   6.535   5.097   7.345  0.1735 -0.6041  0.3749
  710TIP3    H123693   6.509   5.007   7.326  0.9461 -0.3421 -2.3694
  710TIP3    H223694   6.454   5.148   7.335  0.3552 -0.6200 -1.4017
  711TIP3   OH223695   4.537   0.722   2.424 -0.1367 -0.3905  0.1270
  711TIP3    H123696   4.567   0.741   2.336 -0.5191 -2.2408 -0.4618
  711TIP3    H223697   4.536   0.807   2.469 -1.5834  0.8881 -2.1448
  712TIP3   OH223698   2.494   3.204   6.732 -0.1950 -0.2019  0.6737
  712TIP3    H123699   2.419   3.244   6.688 -0.9099  0.6329  2.5565
  712TIP3    H223700   2.535   3.149   6.665 -0.8774  1.4326 -1.1728
  713TIP3   OH223701   6.654   2.020   7.739  0.0664  0.0918  0.0464
  713TIP3    H123702   6.599   1.944   7.720  0.4458  0.0079 -0.7601
  713TIP3    H223703   6.596   2.079   7.789 -0.7400 -0.0225 -0.7219
  714TIP3   OH223704   4.546   5.054   7.227 -0.2231 -0.0406  0.0986
  714TIP3    H123705   4.611   4.999   7.269  2.3249  0.9482 -2.2374
  714TIP3    H223706   4.502   5.099   7.299 -0.0059 -2.4691  1.8740
  715TIP3   OH223707   5.532   6.262   8.070 -0.1358 -0.2976 -0.1431
  715TIP3    H123708   5.487   6.186   8.107  0.5599 -1.6885 -1.9720
  715TIP3    H223709   5.623   6.235   8.062  0.1774  0.8300 -0.5909
  716TIP3   OH223710   0.475   0.817   0.993  0.0071 -0.0878 -0.1778
  716TIP3    H123711   0.395   0.850   0.950 -0.8244  0.5933  1.7689
  716TIP3    H223712   0.544   0.875   0.962 -0.8775  1.4872  0.6710
  717TIP3   OH223713   6.368   4.343   7.231  0.2345  0.2136  0.2165
  717TIP3    H123714   6.432   4.370   7.297 -0.5807  1.4867  0.5105
  717TIP3    H223715   6.297   4.405   7.239 -0.4901 -0.4192 -0.9735
  718TIP3   OH223716   1.079   6.300   1.087  0.2288  0.2392  0.3336
  718TIP3    H123717   1.069   6.211   1.119 -1.1961  0.3709  0.3159
  718TIP3    H223718   1.173   6.316   1.089  0.4721 -1.1424  0.6472
  719TIP3   OH223719   3.084   0.491   5.972  0.2585 -0.3900 -0.2578
  719TIP3    H123720   3.108   0.402   5.947 -0.8259 -0.6277 -0.5200
  719TIP3    H223721   3.010   0.480   6.032 -0.3692  0.3365 -0.8739
  720TIP3   OH223722   6.493   3.271   1.879  0.0867 -0.0227 -0.2003
  720TIP3    H123723   6.534   3.357   1.892  3.9425 -1.1537 -3.0110
  720TIP3    H223724   6.448   3.278   1.795  0.5423 -0.7602 -0.5147
  721TIP3   OH223725   5.647   4.654   7.624 -0.2068 -0.1297 -0.0843
  721TIP3    H123726   5.565   4.700   7.642  0.3941  0.8968  0.1044
  721TIP3    H223727   5.674   4.618   7.709  0.7585  1.6157  0.4081
  722TIP3   OH223728   3.757   6.884   7.229 -0.3721  0.6009 -0.2913
  722TIP3    H123729   3.851   6.901   7.242 -0.6747  1.0809  1.7607
  722TIP3    H223730   3.745   6.884   7.135  1.5804  1.2341 -0.5876
  723TIP3   OH223731   3.208   5.248   6.266  0.0960  0.2622  0.0969
  723TIP3    H123732   3.280   5.189   6.245  0.1713  1.0474 -2.1453
  723TIP3    H223733   3.249   5.334   6.277 -0.2200  0.2515  1.4746
  724TIP3   OH223734   5.574   4.655   0.202 -0.5777  0.1381 -0.2615
  724TIP3    H123735   5.613   4.705   0.131  0.5292  1.0399  0.9312
  724TIP3    H223736   5.496   4.704   0.227 -1.1090 -0.3168 -1.0011
  725TIP3   OH223737   0.703   1.638   0.880  0.1764 -0.4541 -0.2722
  725TIP3    H123738   0.619   1.677   0.857 -0.5669 -2.2314 -0.7663
  725TIP3    H223739   0.755   1.644   0.800  0.9044  1.4876  0.2995
  726TIP3   OH223740   2.919   0.740   7.637  0.4294 -0.2689 -0.4677
  726TIP3    H123741   2.888   0.679   7.570 -1.1724  0.1158 -0.1284
  726TIP3    H223742   2.921   0.689   7.718 -0.0037 -0.1094 -0.3566
  727TIP3   OH223743   4.033   4.282   2.225 -0.2723  0.2608  0.6346
  727TIP3    H123744   3.963   4.316   2.281 -0.7225  1.0112 -0.3572
  727TIP3    H223745   4.000   4.292   2.136  0.7408 -0.2103  0.1880
  728TIP3   OH223746   3.294   1.577   8.028 -0.2822 -0.1341  0.2330
  728TIP3    H123747   3.342   1.578   7.945  0.9515 -0.3211  0.9163
  728TIP3    H223748   3.212   1.532   8.008  0.7485 -1.7751 -0.5006
  729TIP3   OH223749   0.269   3.293   0.092  0.2459 -0.1773 -0.2416
  729TIP3    H123750   0.221   3.222   0.050  0.4020  0.2833 -1.2297
  729TIP3    H223751   0.307   3.253   0.171 -0.2691 -0.9931 -0.3953
  730TIP3   OH223752   3.767   4.150   1.220 -0.0827 -0.5059  0.1592
  730TIP3    H123753   3.773   4.091   1.146 -0.0319 -0.6815  0.3024
  730TIP3    H223754   3.857   4.159   1.252  0.2396  1.2144 -1.0750
  731TIP3   OH223755   0.013   1.562   8.088 -0.5974 -0.3839 -1.1006
  731TIP3    H123756   0.019   1.498   8.017  1.1759 -0.8558 -0.5821
  731TIP3    H223757  -0.026   1.512   8.161  2.9306 -1.7254  0.0760
  732TIP3   OH223758   5.273   2.857   7.284 -0.6025  0.6372 -0.1960
  732TIP3    H123759   5.315   2.916   7.347  1.7068  1.2980 -2.2221
  732TIP3    H223760   5.340   2.791   7.264 -2.4961 -1.6630  0.6019
  733TIP3   OH223761   4.999   1.317   6.362  0.5371 -0.5924  0.0772
  733TIP3    H123762   4.947   1.359   6.294  1.1662  1.1497  0.6188
  733TIP3    H223763   5.013   1.228   6.330 -2.0655 -0.8763 -0.4527
  734TIP3   OH223764   5.383   5.738   7.544 -0.1756 -0.2179 -0.1990
  734TIP3    H123765   5.468   5.697   7.560 -0.5947 -0.8987  0.3309
  734TIP3    H223766   5.351   5.695   7.465  0.0633  0.1995 -0.5290
  735TIP3   OH223767   2.998   1.540   0.422  0.3019 -0.0503  0.1893
  735TIP3    H123768   3.094   1.548   0.426  0.3279 -0.1798 -0.1110
  735TIP3    H223769   2.983   1.457   0.376  0.0454  0.0184  0.1471
  736TIP3   OH223770   6.259   0.157   7.344 -0.0701  0.4521 -0.5315
  736TIP3    H123771   6.240   0.063   7.336  0.1349  0.1406  1.8482
  736TIP3    H223772   6.344   0.168   7.301 -0.5317 -0.2385 -1.6718
  737TIP3   OH223773   1.030   2.954   0.622 -0.7355 -0.1816 -0.8755
  737TIP3    H123774   0.981   3.036   0.621 -0.6347 -0.1137 -0.3429
  737TIP3    H223775   1.117   2.977   0.653 -1.2706 -0.7824  1.2165
  738TIP3   OH223776   1.422   4.033   0.499  0.1516 -0.0976  0.2177
  738TIP3    H123777   1.423   3.965   0.432 -0.6247  0.9313 -0.8852
  738TIP3    H223778   1.331   4.036   0.528  0.0789  0.7658 -0.0759
  739TIP3   OH223779   1.862   5.046   7.760  0.8614  0.1792  0.1993
  739TIP3    H123780   1.856   5.024   7.667  1.0543  0.5104  0.1049
  739TIP3    H223781   1.799   5.117   7.772  2.2788  1.5762 -0.1441
  740TIP3   OH223782   6.573   2.982   6.561 -0.0816 -0.3169  0.0728
  740TIP3    H123783   6.559   3.023   6.475  0.5636 -0.2570 -0.0092
  740TIP3    H223784   6.667   2.986   6.574 -0.2355  0.4427  1.1651
  741TIP3   OH223785   5.390   0.611   7.770  0.4683 -0.0390  0.0366
  741TIP3    H123786   5.303   0.607   7.731  0.2791 -0.2110  0.4666
  741TIP3    H223787   5.388   0.690   7.825  0.1957 -0.6467  0.9354
  742TIP3   OH223788   2.229   5.959   0.052 -0.8769  0.1747  0.0217
  742TIP3    H123789   2.155   5.919   0.007  0.7869 -1.7377 -1.2021
  742TIP3    H223790   2.227   5.921   0.140 -1.8192  0.8155  0.2879
  743TIP3   OH223791   0.935   1.586   7.654 -0.2247  0.2616 -0.2441
  743TIP3    H123792   1.017   1.549   7.622 -0.2257 -1.4897  1.5651
  743TIP3    H223793   0.924   1.667   7.604  1.7222 -0.3073 -1.7222
  744TIP3   OH223794   0.589   0.615   1.198  0.3839  0.2298 -0.7135
  744TIP3    H123795   0.535   0.538   1.180  0.1712  0.3642 -0.6466
  744TIP3    H223796   0.568   0.677   1.129 -2.2576  1.7218  1.2444
  745TIP3   OH223797   4.391   6.392   0.264 -0.3788  0.0674 -0.1363
  745TIP3    H123798   4.464   6.339   0.295 -1.4309 -0.9172  0.7508
  745TIP3    H223799   4.374   6.453   0.336  0.6852  1.5005 -1.0613
  746TIP3   OH223800   6.937   6.696   1.385 -0.0144 -0.2864 -0.2195
  746TIP3    H123801   6.898   6.771   1.429  0.9407 -0.2396  0.5857
  746TIP3    H223802   6.907   6.702   1.294 -1.4685  0.0037  0.2529
  747TIP3   OH223803   1.140   2.838   1.865 -0.2758  0.3158  0.1717
  747TIP3    H123804   1.087   2.760   1.880  0.3343 -0.0174  0.6496
  747TIP3    H223805   1.196   2.844   1.943  1.1110  0.0646 -0.7589
  748TIP3   OH223806   2.463   1.023   6.829  0.1479  0.5454 -0.5085
  748TIP3    H123807   2.482   0.930   6.824  0.3994  0.6490 -1.7565
  748TIP3    H223808   2.548   1.065   6.842  0.5816  0.8227 -3.5497
  749TIP3   OH223809   5.763   3.056   8.312 -0.7357  0.2597 -0.4377
  749TIP3    H123810   5.793   2.999   8.383  0.8319  0.4382 -0.9105
  749TIP3    H223811   5.700   3.115   8.352  0.7211  0.9004  1.0214
  750TIP3   OH223812   6.902   6.906   8.361  0.1500 -0.0931  0.6530
  750TIP3    H123813   6.993   6.880   8.348  1.3406  3.1800  1.5712
  750TIP3    H223814   6.859   6.885   8.279  2.2114  0.0399 -0.5260
  751TIP3   OH223815   6.548   1.096   7.624 -0.3746  0.3660 -0.5042
  751TIP3    H123816   6.464   1.126   7.658  0.3002  2.6984 -0.7287
  751TIP3    H223817   6.567   1.155   7.551  0.1387 -1.9347 -2.3708
  752TIP3   OH223818   3.938   1.227   6.558  0.0234 -0.7315 -0.3096
  752TIP3    H123819   3.987   1.179   6.492  1.9016 -1.6563  1.6290
  752TIP3    H223820   4.003   1.284   6.600 -0.7873 -1.1172  1.5634
  753TIP3   OH223821   3.420   2.808   8.130 -0.0222 -0.0122  0.2342
  753TIP3    H123822   3.382   2.742   8.071 -1.2331 -0.5676  1.5796
  753TIP3    H223823   3.365   2.885   8.118 -2.0723 -0.9592  2.5267
  754TIP3   OH223824   1.171   6.104   7.475  0.3859  1.0597  1.1931
  754TIP3    H123825   1.168   6.197   7.453 -0.3001  1.1505  1.6222
  754TIP3    H223826   1.239   6.097   7.542  0.0918  1.3405  1.5280
  755TIP3   OH223827   6.051   0.289   0.556  0.3466  0.6862 -0.0221
  755TIP3    H123828   5.981   0.229   0.580  0.6784 -0.4370 -1.6797
  755TIP3    H223829   6.016   0.338   0.481  0.1611  2.4757  1.1649
  756TIP3   OH223830   4.606   7.002   1.830  0.5633  0.2253  0.0410
  756TIP3    H123831   4.560   6.925   1.796  0.8900 -0.3929  0.9434
  756TIP3    H223832   4.538   7.069   1.839  0.2677  0.0406 -0.7251
  757TIP3   OH223833   5.065   3.298   6.445 -0.3072 -0.3598 -0.2266
  757TIP3    H123834   5.034   3.337   6.364 -0.1685  0.3443  0.0520
  757TIP3    H223835   5.128   3.231   6.417 -0.1018  0.0245 -0.6830
  758TIP3   OH223836   6.508   3.777   0.777  0.2788 -0.6268  0.0834
  758TIP3    H123837   6.494   3.839   0.848 -0.3246 -0.6440 -0.0179
  758TIP3    H223838   6.597   3.795   0.747 -0.4990  1.5077 -1.1825
  759TIP3   OH223839   4.010   6.998   7.583  0.1809 -0.3381  0.5298
  759TIP3    H123840   4.064   6.919   7.582  0.5988 -0.0498  0.2379
  759TIP3    H223841   4.060   7.060   7.636  0.9921  0.5228 -1.1743
  760TIP3   OH223842   2.948   6.029   6.802 -0.3574  0.5634  0.2395
  760TIP3    H123843   2.951   5.996   6.891 -0.7223  0.8411  0.3607
  760TIP3    H223844   2.962   5.953   6.746 -0.8109  0.2702  0.5204
  761TIP3   OH223845   3.792   2.508   7.027  0.0117  0.4871 -0.1949
  761TIP3    H123846   3.722   2.499   6.962  2.0905 -0.5499 -2.4489
  761TIP3    H223847   3.805   2.420   7.061  0.7383  0.5238 -0.3694
  762TIP3   OH223848   1.339   5.570   7.836 -0.2774 -0.2231 -0.1321
  762TIP3    H123849   1.269   5.623   7.874  0.5554  0.1020  1.0341
  762TIP3    H223850   1.416   5.593   7.888  0.2351 -2.1676  0.0381
  763TIP3   OH223851   6.642   5.477   7.567  0.2967 -0.3950  0.6748
  763TIP3    H123852   6.550   5.457   7.548 -0.0817  0.1233  1.8426
  763TIP3    H223853   6.637   5.547   7.633  1.5367  0.2806  0.0826
  764TIP3   OH223854   4.416   2.777   2.378  0.2890 -0.3646  0.1233
  764TIP3    H123855   4.462   2.774   2.295 -3.0239  0.7276 -1.9256
  764TIP3    H223856   4.365   2.696   2.381  0.8825 -0.7204  1.4530
  765TIP3   OH223857   0.878   4.567   6.586  0.4612  0.0052 -0.5362
  765TIP3    H123858   0.892   4.546   6.494 -0.1414  1.1866 -0.9223
  765TIP3    H223859   0.802   4.516   6.612 -0.5622  1.1275 -1.2572
  766TIP3   OH223860   2.595   5.022   1.722  0.8033  0.2671 -0.5673
  766TIP3    H123861   2.501   5.034   1.713  0.6245 -1.3271 -1.0819
  766TIP3    H223862   2.633   5.076   1.653  0.0836 -1.3311 -2.3136
  767TIP3   OH223863   5.114   3.804   8.288  0.1563  0.1175  0.1795
  767TIP3    H123864   5.057   3.775   8.217 -0.6290  0.4979  0.6354
  767TIP3    H223865   5.060   3.793   8.367  0.1918  1.8168  0.4754
  768TIP3   OH223866   0.320   4.859   7.432  0.1292 -0.3744  0.1576
  768TIP3    H123867   0.306   4.936   7.377  0.4127 -0.5871 -0.2213
  768TIP3    H223868   0.383   4.806   7.382 -3.2514 -2.9906 -1.7266
  769TIP3   OH223869   1.069   0.526   7.119 -0.0882  0.3790  0.1353
  769TIP3    H123870   0.984   0.570   7.114 -0.4538 -0.3496 -0.2079
  769TIP3    H223871   1.130   0.588   7.078 -0.2464  1.3819  1.3611
  770TIP3   OH223872   1.945   4.353   7.540 -0.6321  0.0259  1.0753
  770TIP3    H123873   1.917   4.444   7.534 -0.2284  0.0397 -1.9304
  770TIP3    H223874   2.037   4.355   7.515 -1.4119 -1.4996 -2.4494
  771TIP3   OH223875   5.072   3.094   0.311 -0.2679 -0.3155 -0.2311
  771TIP3    H123876   5.142   3.153   0.338 -0.6493  0.6574 -1.2339
  771TIP3    H223877   4.997   3.120   0.364 -0.4832  0.2565 -0.7927
  772TIP3   OH223878   3.994   4.674   2.135  0.2252 -0.2742 -0.5890
  772TIP3    H123879   3.925   4.623   2.177  0.0457  1.1994  1.0431
  772TIP3    H223880   3.948   4.725   2.068 -0.0731 -0.2424 -0.3630
  773TIP3   OH223881   6.876   5.003   1.251 -0.3724  0.3723 -0.5047
  773TIP3    H123882   6.836   5.089   1.237  0.4118  0.8164 -0.0477
  773TIP3    H223883   6.842   4.975   1.337 -1.5188 -0.2983 -1.1400
  774TIP3   OH223884   6.406   4.772   1.023 -0.4578 -0.3736 -0.5350
  774TIP3    H123885   6.415   4.720   1.103 -0.2735 -1.0423 -0.9802
  774TIP3    H223886   6.319   4.750   0.990  0.2609 -1.7426 -1.6296
  775TIP3   OH223887   3.324   1.766   2.217 -0.2997  0.6991  0.1610
  775TIP3    H123888   3.238   1.795   2.248 -0.0629 -0.3252  1.9124
  775TIP3    H223889   3.383   1.838   2.240 -0.3961  0.6192  0.6749
  776TIP3   OH223890   1.270   2.663   7.109 -0.0440  0.1324 -0.5515
  776TIP3    H123891   1.282   2.756   7.087  0.3673  0.7742  2.0878
  776TIP3    H223892   1.317   2.616   7.040  1.5660  1.9761 -0.7960
  777TIP3   OH223893   3.958   2.293   6.893  0.8033 -0.3723 -0.0251
  777TIP3    H123894   4.017   2.364   6.918  1.5905 -0.6289 -1.0858
  777TIP3    H223895   3.984   2.220   6.948  1.0380 -0.2956 -0.0340
  778TIP3   OH223896   2.930   4.129   0.876  0.1304  0.6129  0.3625
  778TIP3    H123897   3.007   4.124   0.933  1.2397 -1.4313 -1.1622
  778TIP3    H223898   2.875   4.055   0.904 -0.1814  0.6938 -0.0268
  779TIP3   OH223899   3.173   1.363   1.290  0.1880  0.2408 -0.0902
  779TIP3    H123900   3.251   1.375   1.236  0.8303 -0.8539  0.5541
  779TIP3    H223901   3.198   1.398   1.376  0.1365 -0.5152  0.2397
  780TIP3   OH223902   0.517   1.990   0.440 -0.1402 -0.1329 -0.1701
  780TIP3    H123903   0.549   2.057   0.379  0.9526  0.1761  0.7201
  780TIP3    H223904   0.422   1.994   0.431 -0.0751  1.1266 -0.5621
  781TIP3   OH223905   0.625   0.345   6.673  0.3472  0.0197  0.3314
  781TIP3    H123906   0.710   0.388   6.685 -0.0660  0.6232  1.1861
  781TIP3    H223907   0.620   0.329   6.579  0.8368  1.1977  0.0810
  782TIP3   OH223908   6.027   2.479   0.648 -0.7971  0.0925 -0.0011
  782TIP3    H123909   5.953   2.524   0.609 -0.3211  0.3204 -0.6599
  782TIP3    H223910   6.050   2.411   0.585  0.6552  1.1451 -0.6741
  783TIP3   OH223911   1.112   2.175   7.836 -0.9212 -0.1968 -0.0567
  783TIP3    H123912   1.149   2.264   7.835  1.0953 -0.9928 -0.7613
  783TIP3    H223913   1.060   2.171   7.756  1.8409 -0.7002 -1.9652
  784TIP3   OH223914   6.225   5.957   2.037 -0.1703 -0.0586  0.1809
  784TIP3    H123915   6.240   6.051   2.043 -2.2239  0.2741  0.5445
  784TIP3    H223916   6.130   5.946   2.038 -0.0577 -2.0362 -1.4486
  785TIP3   OH223917   2.633   1.094   6.128  0.2360  0.6179 -0.4964
  785TIP3    H123918   2.664   1.004   6.137  3.0216  1.3734 -1.5272
  785TIP3    H223919   2.613   1.120   6.218 -2.0224 -1.3852 -0.3076
  786TIP3   OH223920   5.762   6.554   8.215 -0.1714  0.4404 -0.5050
  786TIP3    H123921   5.789   6.494   8.146  1.6701  0.2048  0.3778
  786TIP3    H223922   5.667   6.561   8.204 -0.4314 -2.4315 -0.8212
  787TIP3   OH223923   5.579   3.296   7.754  0.2112  0.0144  0.2012
  787TIP3    H123924   5.592   3.361   7.685  0.0289 -0.0131  0.1384
  787TIP3    H223925   5.602   3.213   7.714  0.4660  0.0417  0.2889
  788TIP3   OH223926   5.384   0.327   1.317 -0.1563  0.2867 -0.7019
  788TIP3    H123927   5.451   0.260   1.328  0.1666  0.5584 -1.0177
  788TIP3    H223928   5.362   0.325   1.224 -1.3695 -0.5425 -0.4343
  789TIP3   OH223929   4.794   1.756   7.130 -0.1588  0.4421  0.5168
  789TIP3    H123930   4.833   1.775   7.045  0.1722  2.1946  1.0079
  789TIP3    H223931   4.711   1.712   7.110  1.5533 -2.5492 -0.5729
  790TIP3   OH223932   4.175   0.785   0.041  0.1257  0.0405  0.5579
  790TIP3    H123933   4.219   0.870   0.035 -1.8879  1.1308  0.6047
  790TIP3    H223934   4.179   0.762   0.134 -0.9780  1.0278  0.8666
  791TIP3   OH223935   5.340   1.976   5.924  0.1501 -0.2650 -0.7090
  791TIP3    H123936   5.355   2.049   5.864 -2.2363  1.2444  0.3622
  791TIP3    H223937   5.403   1.988   5.994  1.2262 -0.5597 -1.5885
  792TIP3   OH223938   1.096   2.068   8.091 -0.1192  0.2237 -0.1890
  792TIP3    H123939   1.032   2.115   8.145 -0.4313 -0.0236 -0.3395
  792TIP3    H223940   1.076   2.095   8.001 -0.1544 -0.0178 -0.2548
  793TIP3   OH223941   2.897   2.116   6.939  0.4552  0.3824  0.8529
  793TIP3    H123942   2.849   2.046   6.982  0.4568 -0.2102 -0.1026
  793TIP3    H223943   2.987   2.083   6.933 -0.1925 -1.1128 -2.7962
  794TIP3   OH223944   4.569   5.702   6.382 -0.4288  0.1867 -0.4751
  794TIP3    H123945   4.653   5.705   6.428  0.4462 -1.6181 -1.8655
  794TIP3    H223946   4.524   5.782   6.410  1.2925  0.6641  1.1229
  795TIP3   OH223947   6.870   6.780   1.133  0.1448  0.1712  0.5056
  795TIP3    H123948   6.838   6.744   1.051  0.2937 -0.3290  0.6662
  795TIP3    H223949   6.902   6.867   1.110 -0.1748  0.1877  0.1112
  796TIP3   OH223950   5.785   3.831   6.347 -0.0275 -0.0569  0.0137
  796TIP3    H123951   5.803   3.923   6.363 -0.5933 -0.0290  0.5272
  796TIP3    H223952   5.698   3.816   6.385 -0.4172 -0.5441 -1.0224
  797TIP3   OH223953   1.506   0.671   6.556 -0.9358  0.2249 -0.0667
  797TIP3    H123954   1.416   0.698   6.574 -0.8173 -0.3247  1.5122
  797TIP3    H223955   1.510   0.663   6.461 -2.6887 -0.2056 -0.1356
  798TIP3   OH223956   5.765   2.198   7.097  0.0636 -0.0525  0.7050
  798TIP3    H123957   5.842   2.146   7.072  0.1456  0.3755  0.0138
  798TIP3    H223958   5.693   2.157   7.050 -0.2197 -0.7431  1.7302
  799TIP3   OH223959   6.122   2.076   5.963  0.1688  0.0477  0.1468
  799TIP3    H123960   6.075   2.158   5.977  0.1075  0.4204 -2.0389
  799TIP3    H223961   6.104   2.051   5.873  2.3343 -0.9842 -0.0866
  800TIP3   OH223962   1.712   1.145   6.832  0.2470 -0.0863  0.1137
  800TIP3    H123963   1.690   1.184   6.917 -1.1230 -0.9763  0.1912
  800TIP3    H223964   1.799   1.182   6.811  0.4894  0.3683  1.7485
  801TIP3   OH223965   4.808   6.560   7.949  0.0708 -0.1612  0.2492
  801TIP3    H123966   4.814   6.626   7.879  2.3392  0.1676  0.6694
  801TIP3    H223967   4.849   6.482   7.911  1.8114  0.1830  1.3341
  802TIP3   OH223968   2.372   0.177   6.317 -0.5626 -0.1801 -0.0519
  802TIP3    H123969   2.364   0.114   6.244 -2.7147  0.6141 -0.5970
  802TIP3    H223970   2.464   0.201   6.318 -0.0227 -2.0066 -0.9832
  803TIP3   OH223971   4.327   2.379   7.800 -0.1411 -0.2490  0.1619
  803TIP3    H123972   4.389   2.362   7.730 -0.3198 -0.5786  0.0817
  803TIP3    H223973   4.261   2.311   7.791  0.1488 -0.6600  1.0150
  804TIP3   OH223974   0.307   2.963   1.854  0.1043 -0.0963  0.5688
  804TIP3    H123975   0.384   3.016   1.837 -0.1110  0.0707  0.0994
  804TIP3    H223976   0.275   2.993   1.939 -0.6874  1.3537 -0.2054
  805TIP3   OH223977   3.266   0.357   1.315  0.4713 -0.1497  0.2650
  805TIP3    H123978   3.282   0.380   1.407  0.7379 -2.9533  1.0403
  805TIP3    H223979   3.351   0.324   1.284  0.6570  1.6562 -1.3762
  806TIP3   OH223980   4.238   4.445   6.661  0.2056  0.4612  0.3093
  806TIP3    H123981   4.326   4.410   6.647 -0.0624 -0.2453  0.3573
  806TIP3    H223982   4.213   4.480   6.575 -0.5179 -1.7757 -0.4704
  807TIP3   OH223983   2.345   5.909   7.359 -0.0169  0.5878  0.5299
  807TIP3    H123984   2.404   5.875   7.427 -1.7814  0.7376  2.2213
  807TIP3    H223985   2.397   5.904   7.279  1.1080 -2.6905  1.2686
  808TIP3   OH223986   6.582   5.506   6.553 -0.3262 -0.5474 -0.0960
  808TIP3    H123987   6.633   5.586   6.571  0.0148 -0.6162 -0.7194
  808TIP3    H223988   6.608   5.481   6.464 -1.4590 -0.5801 -0.4350
  809TIP3   OH223989   3.395   0.763   7.155 -0.7186 -0.1060 -0.9731
  809TIP3    H123990   3.432   0.842   7.195  1.3394 -1.0628 -0.9000
  809TIP3    H223991   3.399   0.697   7.224 -1.5212 -0.5420 -1.3348
  810TIP3   OH223992   5.912   2.753   1.326 -0.0687 -0.4929  0.0740
  810TIP3    H123993   5.962   2.737   1.246 -0.4041  0.4718 -0.3506
  810TIP3    H223994   5.974   2.796   1.385 -0.3509  0.6345 -0.4247
  811TIP3   OH223995   6.542   5.032   6.253  0.0304  0.0812  0.0934
  811TIP3    H123996   6.561   5.069   6.166  1.7224 -0.9990 -0.0405
  811TIP3    H223997   6.508   4.945   6.235  1.2026 -0.4765  0.5199
  812TIP3   OH223998   2.372   2.337   0.963 -0.4154  0.2901 -0.2767
  812TIP3    H123999   2.293   2.341   0.908 -0.2771  0.8006 -0.4481
  812TIP3    H224000   2.340   2.312   1.050 -0.9602  1.8335 -0.0030
  813TIP3   OH224001   4.729   1.548   0.384  0.0882 -0.7754 -0.7543
  813TIP3    H124002   4.743   1.580   0.473 -1.1360  0.8734 -1.1138
  813TIP3    H224003   4.790   1.600   0.331  0.7825 -1.7228 -0.9109
  814TIP3   OH224004   6.392   4.257   5.954  0.2131 -0.1725 -0.8460
  814TIP3    H124005   6.458   4.326   5.943 -0.7545  0.7537 -0.9703
  814TIP3    H224006   6.427   4.183   5.905  1.3555  0.1606 -0.5742
  815TIP3   OH224007   4.541   2.012   7.932  0.2988 -0.0036 -0.1007
  815TIP3    H124008   4.615   1.979   7.984 -0.6556 -2.1174  0.0234
  815TIP3    H224009   4.525   2.100   7.966  1.6586 -0.1670  1.0544
  816TIP3   OH224010   0.964   1.025   1.437  0.5841 -0.4108 -0.2846
  816TIP3    H124011   1.026   1.088   1.472  1.6089 -2.5682  2.0986
  816TIP3    H224012   0.879   1.055   1.469  0.7824  0.7743 -0.8158
  817TIP3   OH224013   3.424   1.390   1.187 -0.7305  0.5306 -0.3779
  817TIP3    H124014   3.494   1.368   1.249 -1.4804 -0.0828  0.2790
  817TIP3    H224015   3.418   1.485   1.190 -0.8642  0.5074  0.6409
  818TIP3   OH224016   0.362   0.192   6.026 -0.0765 -0.5134 -0.5406
  818TIP3    H124017   0.383   0.110   6.070  2.8668  0.8429  0.8588
  818TIP3    H224018   0.348   0.255   6.097 -0.9443  0.5149 -1.5765
  819TIP3   OH224019   4.400   3.856   1.115 -0.0677  0.2070 -0.0058
  819TIP3    H124020   4.349   3.935   1.101  1.9398  1.5383 -0.2070
  819TIP3    H224021   4.368   3.821   1.199 -1.9303  0.4159 -0.5975
  820TIP3   OH224022   6.847   1.352   6.787 -0.5296 -0.4126  0.6490
  820TIP3    H124023   6.811   1.388   6.705  1.9505  0.2774 -0.2075
  820TIP3    H224024   6.789   1.387   6.855 -0.8033  1.6609 -0.5554
  821TIP3   OH224025   3.967   2.973   7.503 -0.0521 -0.3672  0.5171
  821TIP3    H124026   3.908   3.039   7.539  0.1967 -0.5753  1.3270
  821TIP3    H224027   3.925   2.889   7.524 -0.7378 -0.4781 -1.1469
  822TIP3   OH224028   3.031   5.546   1.279  0.1176  0.1572 -0.6814
  822TIP3    H124029   3.077   5.629   1.287  2.0342 -0.9920  1.0366
  822TIP3    H224030   2.944   5.563   1.316  0.4760  1.3847 -0.3702
  823TIP3   OH224031   0.620   5.031   7.461 -0.1617  0.1774 -0.1055
  823TIP3    H124032   0.552   4.979   7.503 -0.3439  1.1925  0.9102
  823TIP3    H224033   0.667   5.072   7.534  0.6158  0.6335 -0.8463
  824TIP3   OH224034   2.841   1.101   7.524 -0.1675 -0.2050 -0.2329
  824TIP3    H124035   2.911   1.037   7.510 -0.4500 -0.4189 -0.6868
  824TIP3    H224036   2.780   1.057   7.584  0.6384  0.4079  1.0951
  825TIP3   OH224037   1.226   1.202   1.005  0.1834  0.1987  0.1049
  825TIP3    H124038   1.265   1.224   1.091 -0.6057  0.4417  0.4070
  825TIP3    H224039   1.185   1.117   1.018  1.8152 -0.7379 -0.6135
  826TIP3   OH224040   5.225   0.806   1.903 -0.1545  0.6252 -0.5027
  826TIP3    H124041   5.181   0.860   1.838 -0.1746 -1.1193 -2.0106
  826TIP3    H224042   5.266   0.736   1.853 -1.4625 -1.7065  1.4226
  827TIP3   OH224043   0.711   3.908   7.605 -0.4213  0.1233  1.1328
  827TIP3    H124044   0.624   3.876   7.578  0.0074 -0.2364  0.1181
  827TIP3    H224045   0.765   3.829   7.604 -0.2486  0.2182  2.4985
  828TIP3   OH224046   0.015   2.837   7.163  0.3536 -0.5069 -0.0810
  828TIP3    H124047   0.016   2.745   7.190  2.0392 -0.6561 -0.5229
  828TIP3    H224048  -0.013   2.834   7.071  1.6394 -0.7236 -0.4794
  829TIP3   OH224049   3.655   4.729   7.302 -0.1654 -0.3052  0.4446
  829TIP3    H124050   3.702   4.672   7.362 -0.1573  0.5065  1.2401
  829TIP3    H224051   3.723   4.781   7.259 -0.2715  0.2477  0.9380
  830TIP3   OH224052   4.011   1.806   7.618  0.3655  0.4139  0.0766
  830TIP3    H124053   4.080   1.866   7.590  1.2073 -0.8420 -0.6637
  830TIP3    H224054   4.052   1.751   7.685  0.4558 -1.0184 -1.0912
  831TIP3   OH224055   5.460   2.162   7.412 -0.5082  0.4276 -0.1093
  831TIP3    H124056   5.450   2.115   7.329  2.2381 -0.4384 -0.0306
  831TIP3    H224057   5.549   2.197   7.410  0.2455 -0.9344  3.0933
  832TIP3   OH224058   4.360   6.676   8.219 -0.3858 -0.1755 -0.1981
  832TIP3    H124059   4.448   6.701   8.247 -0.8803  1.2013  0.2544
  832TIP3    H224060   4.340   6.597   8.269  0.5948 -0.5034 -0.3160
  833TIP3   OH224061   0.153   4.900   6.828 -0.3105  0.6962  0.2399
  833TIP3    H124062   0.141   4.815   6.785 -2.0355  0.4803  1.0799
  833TIP3    H224063   0.075   4.911   6.882 -0.0040  2.7387  0.3207
  834TIP3   OH224064   2.524   1.273   7.482 -0.4249  0.1347 -0.5601
  834TIP3    H124065   2.538   1.178   7.485  1.1771  0.3525 -0.1974
  834TIP3    H224066   2.500   1.291   7.391 -0.5453 -0.5804 -0.6778
  835TIP3   OH224067   3.206   5.350   5.997 -0.1520  0.1359  0.4429
  835TIP3    H124068   3.142   5.281   6.013 -0.4462  0.5791  1.2043
  835TIP3    H224069   3.218   5.392   6.082 -1.3207  2.1791 -0.3555
  836TIP3   OH224070   0.408   0.208   0.836  0.0213 -0.8021  0.6908
  836TIP3    H124071   0.394   0.272   0.766  0.7253 -0.5872  0.7371
  836TIP3    H224072   0.385   0.124   0.797 -0.0606 -0.6253  0.3510
  837TIP3   OH224073   5.483   5.513   7.809 -0.7293  0.4439  0.4266
  837TIP3    H124074   5.404   5.472   7.773 -0.2328  0.2725 -0.5068
  837TIP3    H224075   5.520   5.561   7.735  1.0078 -0.9246  0.3341
  838TIP3   OH224076   2.592   2.230   6.781  0.1241  0.1008  0.6837
  838TIP3    H124077   2.514   2.265   6.739  0.6805 -0.3063 -0.7483
  838TIP3    H224078   2.559   2.159   6.836 -0.4047 -1.0242 -1.0068
  839TIP3   OH224079   4.145   2.652   6.583  0.3803  0.5935 -0.1852
  839TIP3    H124080   4.209   2.717   6.556  1.5281 -0.7286 -0.8241
  839TIP3    H224081   4.194   2.593   6.641 -0.1959 -0.5256 -0.8006
  840TIP3   OH224082   1.056   5.043   6.246 -0.2788 -0.1135  0.0566
  840TIP3    H124083   1.010   5.061   6.164  0.8353  3.3863  0.0408
  840TIP3    H224084   1.148   5.037   6.220  0.1387  1.5294  1.0451
  841TIP3   OH224085   4.982   4.823   7.557  0.2872  0.4417 -0.3532
  841TIP3    H124086   5.009   4.733   7.574  0.3523  0.6591  0.7320
  841TIP3    H224087   4.930   4.847   7.633 -2.5436  0.2412 -2.0465
  842TIP3   OH224088   6.108   0.323   7.499  0.1167 -0.0964  0.1446
  842TIP3    H124089   6.153   0.265   7.437 -2.0109 -0.4463 -1.1759
  842TIP3    H224090   6.115   0.410   7.460 -1.1340 -0.3008 -0.5713
  843TIP3   OH224091   5.759   3.363   1.557  0.1689  1.1180  0.3659
  843TIP3    H124092   5.773   3.286   1.613  0.6419  0.6725 -0.3518
  843TIP3    H224093   5.842   3.373   1.509  0.4843  2.6941  1.1892
  844TIP3   OH224094   4.833   5.270   2.074 -0.1876  0.3033  0.2176
  844TIP3    H124095   4.870   5.209   2.011 -0.2664 -0.4674  0.9062
  844TIP3    H224096   4.908   5.319   2.107  0.0318 -0.2103  0.4938
  845TIP3   OH224097   1.736   2.578   0.777  0.3045  0.0836  0.4668
  845TIP3    H124098   1.736   2.631   0.857 -0.8290 -0.9317  1.1728
  845TIP3    H224099   1.644   2.575   0.750  0.6165  0.0404 -0.6293
  846TIP3   OH224100   4.010   2.498   7.812  0.1735 -0.2268  0.4028
  846TIP3    H124101   3.992   2.404   7.817 -1.8955  0.1995  3.6656
  846TIP3    H224102   3.940   2.533   7.758  0.8594 -0.5006 -0.6908
  847TIP3   OH224103   4.729   3.922   1.030 -0.0935  0.0889 -0.2761
  847TIP3    H124104   4.758   3.873   0.953 -0.3311 -2.6332  1.2519
  847TIP3    H224105   4.640   3.950   1.009  0.3630  0.7014 -1.5198
  848TIP3   OH224106   1.894   0.564   0.892  0.3490  0.0020 -0.2022
  848TIP3    H124107   1.955   0.533   0.960 -1.7478 -2.9531  0.5696
  848TIP3    H224108   1.897   0.495   0.825 -0.5058  0.9126 -1.2037
  849TIP3   OH224109   4.823   2.283   7.245 -0.2541  0.0516 -0.1308
  849TIP3    H124110   4.835   2.312   7.335  2.8846 -0.3282 -0.3169
  849TIP3    H224111   4.771   2.203   7.252  0.5567 -0.3794  1.4400
  850TIP3   OH224112   3.659   3.256   7.492 -0.9380  0.0805 -0.2538
  850TIP3    H124113   3.683   3.332   7.545 -0.7550 -0.7935  0.9602
  850TIP3    H224114   3.708   3.266   7.411  1.9838 -0.5412  1.2893
  851TIP3   OH224115   3.069   6.436   7.490 -0.8192  0.4932  0.3858
  851TIP3    H124116   3.053   6.356   7.439  0.0495 -1.1917  2.5713
  851TIP3    H224117   2.990   6.447   7.543 -0.4208  0.3059  1.0297
  852TIP3   OH224118   0.044   5.824   6.642 -0.1955 -0.1191 -0.2885
  852TIP3    H124119   0.028   5.730   6.654 -1.1251  0.2916  2.4163
  852TIP3    H224120  -0.041   5.865   6.660  0.5627  1.3191  0.1433
  853TIP3   OH224121   3.215   3.672   6.901 -0.5861 -0.0481  0.2429
  853TIP3    H124122   3.249   3.720   6.825  0.4189 -0.1250  0.6221
  853TIP3    H224123   3.147   3.729   6.937  1.4709  1.8162  1.4890
  854TIP3   OH224124   5.765   4.569   1.073 -0.3435  0.5595 -0.0354
  854TIP3    H124125   5.787   4.660   1.090 -4.0388  1.7016 -0.3528
  854TIP3    H224126   5.730   4.537   1.157 -0.2994 -0.1643 -0.2809
  855TIP3   OH224127   3.820   6.927   1.299  0.2194 -0.2418  0.0405
  855TIP3    H124128   3.839   6.913   1.392  0.6759  0.1640  0.0147
  855TIP3    H224129   3.733   6.967   1.298  0.1939 -0.2900  0.2928
  856TIP3   OH224130   5.162   0.921   8.196  0.4895 -0.1757  0.3884
  856TIP3    H124131   5.203   0.933   8.111  0.4244 -2.1737  0.0210
  856TIP3    H224132   5.231   0.885   8.252 -0.2300 -1.9137  0.2417
  857TIP3   OH224133   6.018   0.738   6.426  0.2925  0.5514  0.0672
  857TIP3    H124134   6.019   0.727   6.521 -1.8823  1.2628  0.2296
  857TIP3    H224135   5.933   0.705   6.399 -0.2392  2.8033 -1.2741
  858TIP3   OH224136   4.135   6.718   2.521  0.2903 -0.2105  0.1278
  858TIP3    H124137   4.072   6.790   2.513 -1.3241 -1.7241 -2.6622
  858TIP3    H224138   4.201   6.736   2.454  1.3909  0.0254  1.2596
  859TIP3   OH224139   5.514   0.470   1.869  0.1572 -0.0212 -0.7103
  859TIP3    H124140   5.508   0.437   1.779 -0.6548 -0.5494 -0.4756
  859TIP3    H224141   5.586   0.421   1.908 -0.8627 -1.3794 -0.4442
  860TIP3   OH224142   2.073   5.688   0.043 -0.0463 -0.6856  0.5191
  860TIP3    H124143   2.088   5.639  -0.038 -2.7484 -2.8456  1.1654
  860TIP3    H224144   2.132   5.646   0.106 -0.7717 -1.6918  0.5520
  861TIP3   OH224145   5.007   2.491   7.770  0.2701 -1.0327 -0.2212
  861TIP3    H124146   5.047   2.470   7.855  2.8734  2.1626 -0.4611
  861TIP3    H224147   4.924   2.532   7.793  1.8143  1.6590  1.0740
  862TIP3   OH224148   5.688   2.885   7.762  0.8048 -0.0740 -0.3567
  862TIP3    H124149   5.605   2.869   7.807 -0.7007  1.5528 -2.4000
  862TIP3    H224150   5.695   2.815   7.698  0.8506  0.0001 -0.4323
  863TIP3   OH224151   5.264   1.397   0.269 -0.2191  0.2297 -0.1708
  863TIP3    H124152   5.295   1.325   0.325 -2.8604 -0.2747  0.7780
  863TIP3    H224153   5.313   1.386   0.187 -0.1043 -2.3226  0.1417
  864TIP3   OH224154   1.712   1.636   0.857  0.2084  0.6658  0.2324
  864TIP3    H124155   1.661   1.653   0.777  1.2872 -0.9420 -0.8645
  864TIP3    H224156   1.657   1.577   0.908  0.4632 -0.1630 -0.4248
  865TIP3   OH224157   2.293   7.006   6.110  0.5933 -0.6629 -0.8061
  865TIP3    H124158   2.281   6.974   6.021  0.8899  0.3163 -1.2142
  865TIP3    H224159   2.312   6.928   6.162 -0.4062 -1.3416 -1.4449
  866TIP3   OH224160   6.886   3.547   7.369  0.3505 -0.6924 -0.1066
  866TIP3    H124161   6.830   3.552   7.446  1.6990 -1.9999  1.0276
  866TIP3    H224162   6.850   3.475   7.317 -1.7229  1.4051 -1.7666
  867TIP3   OH224163   0.310   5.910   6.556  0.2140  0.1870  0.4098
  867TIP3    H124164   0.278   5.968   6.487  1.0367 -1.2775 -1.2725
  867TIP3    H224165   0.231   5.885   6.604 -0.6897 -0.3965 -1.3161
  868TIP3   OH224166   3.659   2.886   0.392  0.3790  0.1963  0.0905
  868TIP3    H124167   3.569   2.868   0.419  0.2572  0.9065  0.1766
  868TIP3    H224168   3.712   2.855   0.464  0.1599  0.3752  0.3331
  869TIP3   OH224169   5.934   4.040   0.486  0.1640 -0.3078 -0.2838
  869TIP3    H124170   5.871   4.110   0.501  0.7598  0.0307  0.7498
  869TIP3    H224171   5.885   3.959   0.506 -0.5015 -0.1948 -1.4164
  870TIP3   OH224172   5.786   4.864   0.687  0.0336 -0.6752  0.0404
  870TIP3    H124173   5.733   4.785   0.693 -0.7632 -0.0878  1.0404
  870TIP3    H224174   5.781   4.889   0.594 -0.9963 -0.9419  0.0110
  871TIP3   OH224175   5.272   0.770   0.783  0.2215  0.6924  0.1066
  871TIP3    H124176   5.196   0.716   0.764 -0.4378  1.2967  0.9578
  871TIP3    H224177   5.257   0.852   0.736 -0.0022  1.0734  0.8225
  872TIP3   OH224178   1.904   3.484   0.448  0.3866 -0.1437 -0.0691
  872TIP3    H124179   1.995   3.455   0.450  0.5311  0.3031  1.3669
  872TIP3    H224180   1.854   3.407   0.475  0.2630 -0.5698 -1.4580
  873TIP3   OH224181   1.424   0.473   1.258  0.4422 -0.1051  0.0882
  873TIP3    H124182   1.441   0.541   1.192  0.7691  2.2081  2.3806
  873TIP3    H224183   1.511   0.445   1.285  0.3185 -0.5659  0.0103
  874TIP3   OH224184   4.982   6.977   8.059  0.0990 -0.3279  0.6073
  874TIP3    H124185   5.024   6.894   8.034  1.2527  0.0367  1.2518
  874TIP3    H224186   4.918   6.952   8.126 -0.1918 -0.7994  0.1645
  875TIP3   OH224187   6.038   4.413   0.547 -0.1316 -0.0910 -0.0495
  875TIP3    H124188   6.024   4.486   0.608  1.5368  0.2301 -0.0043
  875TIP3    H224189   5.964   4.354   0.562 -1.0397  1.1583  0.5450
  876TIP3   OH224190   1.639   6.240   0.203  0.1585  0.0944 -0.4149
  876TIP3    H124191   1.608   6.150   0.191 -0.1419  0.2160 -0.5601
  876TIP3    H224192   1.560   6.290   0.222  0.5316 -0.0094  1.7199
  877TIP3   OH224193   4.681   0.663   5.925  0.0942 -0.1906  0.2949
  877TIP3    H124194   4.647   0.587   5.972  0.2721 -0.3649  0.1423
  877TIP3    H224195   4.606   0.721   5.916 -0.6870 -1.4001 -1.7534
  878TIP3   OH224196   5.114   1.281   0.695 -0.4609 -0.5463  0.0278
  878TIP3    H124197   5.159   1.365   0.686  0.6094 -1.0559  0.4542
  878TIP3    H224198   5.168   1.219   0.647 -0.5036 -1.2397  0.8457
  879TIP3   OH224199   0.326   2.946   1.522  0.2624  0.0111 -0.0368
  879TIP3    H124200   0.416   2.976   1.521  0.8675 -1.6685  0.0702
  879TIP3    H224201   0.294   2.966   1.610  0.3723  1.0123 -0.2208
  880TIP3   OH224202   6.512   2.272   8.149 -0.6060 -0.5018  0.6691
  880TIP3    H124203   6.442   2.288   8.212 -0.8393  0.4474  0.1871
  880TIP3    H224204   6.588   2.317   8.185 -0.5558 -0.5325  0.6024
  881TIP3   OH224205   3.683   4.115   7.881 -0.1071 -0.1675 -0.5789
  881TIP3    H124206   3.738   4.038   7.867  2.3341  1.2874  0.4193
  881TIP3    H224207   3.651   4.106   7.971 -0.7258 -0.5414 -0.8338
  882TIP3   OH224208   4.300   6.438   1.706 -0.5860 -0.7546 -0.1811
  882TIP3    H124209   4.214   6.405   1.680 -1.1939 -1.4258  2.3869
  882TIP3    H224210   4.351   6.359   1.723 -0.9588 -0.4833  2.6687
  883TIP3   OH224211   6.756   3.186   6.766  0.2674  0.3745 -0.0330
  883TIP3    H124212   6.768   3.144   6.681 -1.3895 -0.5746  0.1719
  883TIP3    H224213   6.832   3.158   6.818  0.6443 -0.0436 -0.7963
  884TIP3   OH224214   1.098   5.311   6.973  0.0575 -0.4440 -0.7059
  884TIP3    H124215   1.023   5.260   7.006  0.7252 -0.9928  0.0013
  884TIP3    H224216   1.130   5.359   7.049  0.8401 -0.7344 -0.8453
  885TIP3   OH224217   1.611   1.986   7.140  0.1959  0.3917 -0.9975
  885TIP3    H124218   1.572   2.043   7.074 -0.4531  0.6394 -0.4044
  885TIP3    H224219   1.551   1.911   7.146  0.0055  0.5867 -0.3668
  886TIP3   OH224220   4.226   0.561   6.371 -0.1925 -0.0899  0.2324
  886TIP3    H124221   4.262   0.581   6.285 -0.2973 -2.2174 -0.3672
  886TIP3    H224222   4.156   0.498   6.354 -1.3314  0.6884  1.7606
  887TIP3   OH224223   6.638   2.774   1.135 -0.0966  0.1186 -0.3527
  887TIP3    H124224   6.597   2.691   1.111  0.9273 -1.4037  2.6061
  887TIP3    H224225   6.603   2.793   1.222  0.8418  2.0144 -0.3445
  888TIP3   OH224226   0.680   0.404   7.158  0.2483 -0.5142 -0.7453
  888TIP3    H124227   0.643   0.491   7.145  0.6554 -0.3496 -0.8397
  888TIP3    H224228   0.668   0.386   7.252 -0.0138 -0.4387 -0.7657
  889TIP3   OH224229   0.394   4.959   7.982 -0.5547 -0.2506 -0.1803
  889TIP3    H124230   0.421   5.044   7.947 -0.2807 -0.1608  0.2458
  889TIP3    H224231   0.301   4.971   8.003 -0.4534  0.0232  0.1166
  890TIP3   OH224232   5.950   6.609   6.038  0.1827  0.6215  0.2335
  890TIP3    H124233   5.990   6.663   5.970  0.6267 -0.4672 -0.3861
  890TIP3    H224234   6.022   6.559   6.074 -0.4872 -0.8963 -0.4591
  891TIP3   OH224235   4.776   3.746   0.595  0.1505  0.0422 -0.0518
  891TIP3    H124236   4.817   3.730   0.680  0.4620 -0.9259 -0.3760
  891TIP3    H224237   4.842   3.797   0.546  1.1594 -1.7844 -0.6855
  892TIP3   OH224238   5.327   4.560   1.548  0.4943  0.2328  0.3799
  892TIP3    H124239   5.382   4.486   1.521  0.6770  0.7518 -0.7339
  892TIP3    H224240   5.256   4.520   1.599  0.9933 -0.6228  0.4219
  893TIP3   OH224241   1.200   4.142   6.595  0.0938  0.2060 -0.5960
  893TIP3    H124242   1.156   4.210   6.544 -1.1688 -0.4956 -0.4983
  893TIP3    H224243   1.275   4.116   6.541 -1.1123 -0.3925 -2.0617
  894TIP3   OH224244   1.543   1.275   6.131  0.1617  0.5173  0.7168
  894TIP3    H124245   1.620   1.219   6.145  0.3957  0.5551 -0.3498
  894TIP3    H224246   1.468   1.217   6.143  0.4139 -0.2900 -1.3122
  895TIP3   OH224247   2.720   7.014   7.033 -0.3901 -0.0305 -0.6232
  895TIP3    H124248   2.709   7.055   6.947 -1.8999 -0.3219 -0.6007
  895TIP3    H224249   2.765   6.932   7.014  1.4820  1.0042 -0.8227
  896TIP3   OH224250   6.384   3.979   0.566 -0.3244 -0.3798 -0.0772
  896TIP3    H124251   6.452   4.044   0.547  1.2795 -1.8977  0.1731
  896TIP3    H224252   6.333   4.018   0.637  0.6537  0.5812  0.1357
  897TIP3   OH224253   5.371   1.993   6.351 -0.2923 -0.1645 -0.0305
  897TIP3    H124254   5.285   1.951   6.342 -0.6454  0.8399 -1.6931
  897TIP3    H224255   5.416   1.974   6.268  1.5645 -1.5950  1.2125
  898TIP3   OH224256   6.449   4.227   2.248 -0.6018 -0.9689 -0.1150
  898TIP3    H124257   6.539   4.224   2.217 -0.8886 -1.3552 -0.9374
  898TIP3    H224258   6.433   4.319   2.269 -0.2754 -0.7698 -0.7422
  899TIP3   OH224259   6.064   2.918   6.899  0.1806 -0.3408  0.0173
  899TIP3    H124260   6.015   2.865   6.962  0.1953 -0.9495 -0.4667
  899TIP3    H224261   6.155   2.889   6.910  0.0760 -1.0411 -0.8305
  900TIP3   OH224262   2.652   1.803   6.936  0.1163 -0.3776  0.3698
  900TIP3    H124263   2.649   1.714   6.968 -1.0255 -0.0516  1.2289
  900TIP3    H224264   2.712   1.848   6.995  1.6674 -0.8230 -0.7992
  901TIP3   OH224265   5.356   5.594   7.291 -0.2715  0.1304 -0.0396
  901TIP3    H124266   5.267   5.560   7.282 -0.3907  0.6759 -1.0071
  901TIP3    H224267   5.378   5.628   7.205  0.4072  1.1477  0.5043
  902TIP3   OH224268   2.542   5.401   2.043 -0.5373  0.1377 -0.2140
  902TIP3    H124269   2.557   5.495   2.029  1.2766 -0.0690  0.0661
  902TIP3    H224270   2.526   5.393   2.137  0.8902  0.0155  0.0375
  903TIP3   OH224271   3.840   1.044   1.378  0.9599 -0.0405  0.4343
  903TIP3    H124272   3.818   0.960   1.417  0.2118 -0.1865 -0.2855
  903TIP3    H224273   3.878   1.095   1.450 -1.9618  0.3326  1.8165
  904TIP3   OH224274   3.651   5.919   0.968 -0.3110  0.0756 -0.3623
  904TIP3    H124275   3.735   5.956   0.996 -1.1535  0.8499  1.3155
  904TIP3    H224276   3.605   5.991   0.926 -0.9675  0.2822  0.6697
  905TIP3   OH224277   5.298   1.384   7.024  0.1421  0.2486 -0.4390
  905TIP3    H124278   5.333   1.378   7.113 -0.1876  0.5647 -0.2871
  905TIP3    H224279   5.293   1.293   6.994 -2.8435 -0.2102  1.0626
  906TIP3   OH224280   2.113   3.099   1.839 -0.4642 -0.3254  0.2779
  906TIP3    H124281   2.083   3.082   1.750 -0.9272 -0.9651  0.5533
  906TIP3    H224282   2.033   3.101   1.892 -0.1230 -0.8800  0.8323
  907TIP3   OH224283   2.781   5.842   1.091  0.2313  0.4022  0.0726
  907TIP3    H124284   2.828   5.794   1.023  0.2362  1.8691 -0.9900
  907TIP3    H224285   2.829   5.820   1.172  0.8430 -0.5609 -0.5223
  908TIP3   OH224286   0.567   2.395   6.630 -0.3406 -0.0749 -0.5335
  908TIP3    H124287   0.616   2.315   6.614 -0.5027  0.0934 -1.9646
  908TIP3    H224288   0.478   2.375   6.602 -0.6964  0.2043  0.3362
  909TIP3   OH224289   5.561   2.154   6.933 -0.2562 -0.5121  0.8223
  909TIP3    H124290   5.509   2.222   6.976  0.0355  0.8103 -0.8427
  909TIP3    H224291   5.503   2.115   6.868  0.3228 -0.1689  0.0889
  910TIP3   OH224292   3.331   3.240   8.309 -0.4655  0.2932 -0.0249
  910TIP3    H124293   3.412   3.192   8.327  0.0386  0.6366 -1.2753
  910TIP3    H224294   3.272   3.214   8.380  0.3591 -0.8439  0.2813
  911TIP3   OH224295   5.366   4.797   2.135 -0.1006  0.6892  0.5826
  911TIP3    H124296   5.443   4.839   2.096  0.0444 -1.3037 -1.4491
  911TIP3    H224297   5.294   4.821   2.078 -0.5596  0.5485  1.0937
  912TIP3   OH224298   2.664   1.058   7.312  0.7366 -0.9537 -0.4589
  912TIP3    H124299   2.733   1.080   7.375  1.2687 -2.3969 -0.4779
  912TIP3    H224300   2.712   1.030   7.233  0.1014  1.9066 -2.0135
  913TIP3   OH224301   4.473   0.903   0.307  0.1818 -0.1968 -0.4844
  913TIP3    H124302   4.553   0.921   0.257  0.1197 -0.1978 -0.5838
  913TIP3    H224303   4.448   0.815   0.280  1.5247 -1.2186  1.3843
  914TIP3   OH224304   6.433   1.506   7.463  0.0843 -0.0537 -0.6976
  914TIP3    H124305   6.370   1.555   7.517 -1.4887  0.3711 -2.8155
  914TIP3    H224306   6.497   1.572   7.435 -0.7111  0.3361 -1.6371
  915TIP3   OH224307   1.839   5.916   1.642  0.1481  0.3013 -0.1473
  915TIP3    H124308   1.926   5.906   1.603  1.0339  2.3959  1.1330
  915TIP3    H224309   1.853   5.908   1.736 -0.9585  1.1842  0.1184
  916TIP3   OH224310   6.454   3.857   7.750  0.0905  0.0793  0.0107
  916TIP3    H124311   6.444   3.933   7.807 -0.0133  0.0210  0.0709
  916TIP3    H224312   6.497   3.792   7.804 -0.2506 -0.0692  0.1073
  917TIP3   OH224313   6.106   4.711   0.997  0.6825  0.5148  0.3040
  917TIP3    H124314   6.102   4.692   1.091 -2.4320  0.9599  0.3454
  917TIP3    H224315   6.053   4.790   0.986  1.7977  1.0457 -1.7409
  918TIP3   OH224316   3.155   4.692   1.386 -0.6315 -0.1751  0.2671
  918TIP3    H124317   3.247   4.710   1.402 -0.1731 -1.3030 -0.9253
  918TIP3    H224318   3.125   4.766   1.334  0.0911 -0.6522 -0.8680
  919TIP3   OH224319   5.591   0.742   0.682 -0.0874  0.0206  0.2601
  919TIP3    H124320   5.672   0.765   0.729 -1.8362  1.5251  2.7918
  919TIP3    H224321   5.563   0.660   0.723  0.3892 -0.7922 -0.9975
  920TIP3   OH224322   4.797   3.384   0.570 -0.0228  0.2377  0.3365
  920TIP3    H124323   4.823   3.309   0.518  0.3846  0.5557  0.0782
  920TIP3    H224324   4.792   3.457   0.508  2.2020  1.0145  0.9991
  921TIP3   OH224325   4.187   5.715   6.834  0.5335 -0.3407  0.2382
  921TIP3    H124326   4.115   5.664   6.870  0.4914 -0.5317 -0.1106
  921TIP3    H224327   4.194   5.791   6.891  2.6458 -2.2246  2.7442
  922TIP3   OH224328   4.587   0.123   1.295  0.1606 -0.0971  0.5141
  922TIP3    H124329   4.662   0.175   1.266  0.3357 -0.8463 -0.4283
  922TIP3    H224330   4.511   0.177   1.275  0.2939 -0.4554 -1.1125
  923TIP3   OH224331   6.853   1.241   1.437 -0.3330  0.3368 -0.0473
  923TIP3    H124332   6.910   1.318   1.431  0.6550 -0.3453  0.3778
  923TIP3    H224333   6.913   1.167   1.436 -1.3762 -0.5891 -2.8500
  924TIP3   OH224334   2.301   0.848   1.197  0.1863 -0.0555 -0.2502
  924TIP3    H124335   2.306   0.932   1.244  2.0797  0.9348 -2.0717
  924TIP3    H224336   2.296   0.782   1.267 -1.1350  1.5184  1.2443
  925TIP3   OH224337   1.684   2.657   7.528 -0.2784  0.2104  0.2495
  925TIP3    H124338   1.734   2.709   7.464 -1.2122 -0.4695 -1.0683
  925TIP3    H224339   1.749   2.630   7.592  0.9604 -0.1395 -1.0913
  926TIP3   OH224340   0.644   6.586   0.247 -0.2977  0.5296 -0.1230
  926TIP3    H124341   0.696   6.634   0.311  0.2597 -0.9960  0.6064
  926TIP3    H224342   0.641   6.644   0.171  1.0872  1.3406  0.3974
  927TIP3   OH224343   2.818   5.374   7.160  0.7175 -0.4393 -0.0106
  927TIP3    H124344   2.735   5.369   7.207  0.9393  1.1383  0.6189
  927TIP3    H224345   2.884   5.348   7.224  0.8359 -0.3441 -0.0929
  928TIP3   OH224346   2.759   3.315   1.335  0.2101  0.1665 -0.5982
  928TIP3    H124347   2.842   3.354   1.305  0.6152 -1.3509 -1.5589
  928TIP3    H224348   2.696   3.387   1.329  1.2326  1.0743 -0.8605
  929TIP3   OH224349   6.524   0.965   8.211 -0.3186 -0.5338 -0.3847
  929TIP3    H124350   6.588   0.896   8.194 -0.5690 -0.9454  0.3139
  929TIP3    H224351   6.534   0.985   8.304 -0.4091  0.2138 -0.5313
  930TIP3   OH224352   3.560   0.447   0.877 -0.1996  0.3031 -0.0979
  930TIP3    H124353   3.642   0.422   0.834  1.2259  1.7451  1.6122
  930TIP3    H224354   3.575   0.537   0.907 -2.3170  0.5078  0.5137
  931TIP3   OH224355   5.912   5.773   7.135 -0.0062  0.3605 -0.2953
  931TIP3    H124356   5.887   5.842   7.196 -1.0586  0.2579 -0.5828
  931TIP3    H224357   5.855   5.699   7.158  1.1631 -0.4562  0.0713
  932TIP3   OH224358   4.805   4.554   6.748 -0.4172  0.7420  0.3953
  932TIP3    H124359   4.793   4.463   6.775 -0.9290  0.6551 -0.0931
  932TIP3    H224360   4.896   4.574   6.770 -0.3288  0.1430  0.5971
  933TIP3   OH224361   4.865   1.170   0.790  0.6443 -0.4721  0.1669
  933TIP3    H124362   4.947   1.183   0.742  0.7842  0.4591  0.6404
  933TIP3    H224363   4.834   1.084   0.762  1.4404 -0.5413 -0.5238
  934TIP3   OH224364   3.028   0.357   1.877 -0.2651  0.4260  0.1614
  934TIP3    H124365   3.033   0.364   1.972  1.7236 -2.0348  0.3546
  934TIP3    H224366   3.083   0.429   1.845 -0.0492  0.6156  0.9370
  935TIP3   OH224367   5.828   6.910   1.409 -0.0202  0.0777  0.1815
  935TIP3    H124368   5.847   6.820   1.434  1.3152  0.8324  2.0958
  935TIP3    H224369   5.743   6.905   1.365  0.2355 -2.1484 -0.1741
  936TIP3   OH224370   1.475   6.664   1.025  1.1148 -0.2841 -0.0452
  936TIP3    H124371   1.488   6.758   1.015  1.5936 -0.5303 -2.2722
  936TIP3    H224372   1.556   6.633   1.067 -0.3952  0.6398  3.9808
  937TIP3   OH224373   4.100   0.826   8.085  0.1237 -0.2371  0.1332
  937TIP3    H124374   4.191   0.854   8.071  0.3312  0.1098  1.9922
  937TIP3    H224375   4.106   0.732   8.098  0.2061 -0.2170  0.2366
  938TIP3   OH224376   0.116   1.142   6.934 -0.0990 -0.1352  0.2650
  938TIP3    H124377   0.136   1.211   6.872  1.3926 -1.2628 -0.5819
  938TIP3    H224378   0.171   1.160   7.010 -0.8654  0.4492  0.6938
  939TIP3   OH224379   4.270   1.330   1.894 -0.4106  0.0161 -0.3436
  939TIP3    H124380   4.314   1.318   1.810  0.4154 -2.1213  0.3255
  939TIP3    H224381   4.191   1.278   1.888 -0.0062 -0.7160  0.4117
  940TIP3   OH224382   4.809   3.908   7.378  0.0445 -0.0572 -0.1373
  940TIP3    H124383   4.876   3.842   7.396  0.4342  0.1429 -0.8233
  940TIP3    H224384   4.833   3.944   7.293 -0.2113  0.9061  0.1827
  941TIP3   OH224385   4.323   6.914   0.085 -0.2461  0.2672 -0.2559
  941TIP3    H124386   4.348   6.940  -0.004 -1.9916  0.0291 -0.8618
  941TIP3    H224387   4.259   6.844   0.071 -0.6234  0.3035  1.1967
  942TIP3   OH224388   7.005   2.977   0.074  0.1356  0.0524  0.5992
  942TIP3    H124389   6.921   2.971   0.029  1.5043 -0.4448 -2.1151
  942TIP3    H224390   7.011   3.068   0.102 -1.2107  0.1240  0.7050
  943TIP3   OH224391   6.763   1.473   6.542  0.4768 -0.1501  0.0589
  943TIP3    H124392   6.817   1.474   6.463  2.0127  2.4061  1.0159
  943TIP3    H224393   6.719   1.557   6.541  2.1025  0.8605  2.8448
  944TIP3   OH224394   6.808   0.028   1.855 -0.1001  0.5159  0.0187
  944TIP3    H124395   6.743  -0.027   1.811 -0.4636  2.2974 -1.8422
  944TIP3    H224396   6.891   0.005   1.812 -0.2115  1.2317 -0.5838
  945TIP3   OH224397   1.706   1.394   6.658 -0.1954 -0.1627  0.8190
  945TIP3    H124398   1.652   1.327   6.699  1.9961 -2.4747  0.1650
  945TIP3    H224399   1.693   1.472   6.712 -1.3410 -1.6505  2.8086
  946TIP3   OH224400   4.716   1.428   8.217  0.1644 -0.0042  0.2152
  946TIP3    H124401   4.778   1.470   8.277 -0.3601  0.2230  0.5956
  946TIP3    H224402   4.762   1.349   8.188  0.9546  0.5605 -0.1202
  947TIP3   OH224403   0.173   4.124   7.367 -1.4145  0.1191  0.4350
  947TIP3    H124404   0.169   4.033   7.340  1.7283 -0.3181  1.0787
  947TIP3    H224405   0.220   4.123   7.450  1.2520  2.4519 -0.8594
  948TIP3   OH224406   4.538   0.483   7.675  0.2944 -0.1366  0.1910
  948TIP3    H124407   4.468   0.460   7.735 -2.2154  0.1414 -2.3958
  948TIP3    H224408   4.559   0.401   7.630  1.0896 -0.0560  0.4018
  949TIP3   OH224409   0.394   3.747   7.925  0.2697 -0.0880 -0.0620
  949TIP3    H124410   0.398   3.673   7.864 -1.1637  2.1226 -3.0764
  949TIP3    H224411   0.335   3.718   7.995  0.4633 -2.0691 -0.6598
  950TIP3   OH224412   3.834   1.174   6.997 -0.2487 -0.2850 -0.2290
  950TIP3    H124413   3.902   1.242   6.993 -1.1212  0.8248  1.9141
  950TIP3    H224414   3.841   1.139   7.086 -0.6201 -2.2156 -0.9136
  951TIP3   OH224415   1.900   5.964   7.250 -0.1853 -0.1793  0.4042
  951TIP3    H124416   1.821   6.001   7.289 -1.3919  0.3061 -2.3197
  951TIP3    H224417   1.895   5.871   7.270 -1.7364 -0.2366 -0.1439
  952TIP3   OH224418   5.915   2.566   8.196  0.3784 -0.1770 -0.6734
  952TIP3    H124419   5.873   2.604   8.273  2.6253  0.8110  0.1292
  952TIP3    H224420   5.930   2.475   8.220  1.4951  0.2371  0.2861
  953TIP3   OH224421   2.259   2.780   0.043 -0.0955 -0.6275  0.4173
  953TIP3    H124422   2.339   2.784   0.096  0.6284  0.5972 -0.6933
  953TIP3    H224423   2.188   2.795   0.106  0.6061 -0.9681  1.3072
  954TIP3   OH224424   2.538   0.421   7.591  0.1253  0.6293 -0.1980
  954TIP3    H124425   2.627   0.406   7.624  0.9526  1.9976 -1.6279
  954TIP3    H224426   2.543   0.398   7.498 -1.6597 -1.4467  0.1611
  955TIP3   OH224427   1.898   1.687   7.789 -0.3883  0.2255  0.0995
  955TIP3    H124428   1.901   1.703   7.884 -0.2728 -1.2383  0.3536
  955TIP3    H224429   1.984   1.652   7.768 -0.3441  0.7354 -0.6035
  956TIP3   OH224430   5.790   6.441   1.877 -0.0445  0.5149 -1.1434
  956TIP3    H124431   5.750   6.509   1.930  1.3492 -0.2008  0.9595
  956TIP3    H224432   5.717   6.393   1.839 -1.2376 -0.0632  1.6298
  957TIP3   OH224433   0.612   3.339   0.400  0.1405  0.4126  0.0151
  957TIP3    H124434   0.656   3.289   0.469  1.1599  1.1731 -0.0663
  957TIP3    H224435   0.606   3.279   0.326  2.4023  0.7136 -0.4812
  958TIP3   OH224436   4.129   3.022   1.104 -0.1017 -0.2003 -0.2893
  958TIP3    H124437   4.170   3.108   1.117 -0.5995  0.2451 -1.5555
  958TIP3    H224438   4.126   3.010   1.009  0.6271 -1.9679 -0.1290
  959TIP3   OH224439   3.572   5.700   0.179  0.1036  0.6954  0.1352
  959TIP3    H124440   3.495   5.757   0.182 -1.5144 -1.3973  1.3876
  959TIP3    H224441   3.559   5.645   0.102 -0.3615 -0.5130  1.0408
  960TIP3   OH224442   3.652   1.787   7.218  0.3848 -0.3741  0.4163
  960TIP3    H124443   3.704   1.742   7.152  1.5946 -0.3225  1.2988
  960TIP3    H224444   3.714   1.806   7.289 -1.2685 -2.2846  2.5280
  961TIP3   OH224445   3.189   6.516   0.486  0.1016 -0.1267  1.1157
  961TIP3    H124446   3.203   6.526   0.580  0.5251 -1.4005  1.2037
  961TIP3    H224447   3.261   6.461   0.456  1.0904  1.8350 -0.3378
  962TIP3   OH224448   1.516   2.892   6.490 -0.2259  0.0539  0.2276
  962TIP3    H124449   1.601   2.936   6.502  0.1682 -0.6686  0.1589
  962TIP3    H224450   1.498   2.902   6.396  0.7013 -1.3811 -0.1381
  963TIP3   OH224451   3.417   1.569   7.778  0.2863  0.3708  0.5047
  963TIP3    H124452   3.456   1.495   7.824  2.0727  1.5177  0.9521
  963TIP3    H224453   3.448   1.560   7.688  0.7290  0.7209  0.6218
  964TIP3   OH224454   2.001   4.863   0.120  0.4323  0.0387 -0.0350
  964TIP3    H124455   1.930   4.920   0.091 -1.0756 -2.3473 -1.3393
  964TIP3    H224456   1.968   4.825   0.202  0.8872  0.0791  0.1684
  965TIP3   OH224457   6.660   1.188   1.622 -0.4705 -0.1007 -0.3054
  965TIP3    H124458   6.678   1.252   1.691  0.0286 -0.2211 -0.3211
  965TIP3    H224459   6.732   1.198   1.561  0.8004 -2.1252  0.7325
  966TIP3   OH224460   1.734   5.416   7.058  0.1042  0.0778 -0.2541
  966TIP3    H124461   1.823   5.429   7.026 -0.3931 -0.9295 -2.1905
  966TIP3    H224462   1.703   5.337   7.013 -2.1122  0.9716 -0.4494
  967TIP3   OH224463   6.380   3.125   7.427 -0.1119 -0.1163  0.0573
  967TIP3    H124464   6.306   3.137   7.367  0.9569 -0.3046 -1.3541
  967TIP3    H224465   6.349   3.062   7.492 -1.0160 -0.6156 -0.8369
  968TIP3   OH224466   2.178   0.710   0.846  0.1018  0.3609  0.4382
  968TIP3    H124467   2.112   0.677   0.906 -0.7673  1.0036 -0.1272
  968TIP3    H224468   2.211   0.633   0.800  0.2658 -0.0467  1.2234
  969TIP3   OH224469   1.870   4.908   8.166 -0.2507  0.3964  0.3612
  969TIP3    H124470   1.843   4.868   8.083 -0.4930 -0.6804  0.9379
  969TIP3    H224471   1.866   4.836   8.230  1.8857  0.6844  0.9232
  970TIP3   OH224472   6.694   5.276   1.617  0.2297  0.1197 -0.0345
  970TIP3    H124473   6.717   5.188   1.588 -1.2558 -0.4092  0.3092
  970TIP3    H224474   6.634   5.263   1.691  0.1859  1.4210  0.1993
  971TIP3   OH224475   0.308   4.078   1.484 -0.1823  0.3318  0.3240
  971TIP3    H124476   0.335   4.145   1.422  1.2244 -1.4122 -1.0635
  971TIP3    H224477   0.220   4.104   1.511  0.3060  2.6980 -0.1168
  972TIP3   OH224478   1.817   3.298   1.152 -0.1468 -0.3967  0.1345
  972TIP3    H124479   1.788   3.259   1.234 -0.3076  2.3814  1.5208
  972TIP3    H224480   1.910   3.275   1.146 -0.2011 -0.8650  0.9360
  973TIP3   OH224481   3.279   6.037   0.450 -0.3379 -0.4385 -0.0990
  973TIP3    H124482   3.273   5.947   0.482  1.3357 -0.7880 -0.6434
  973TIP3    H224483   3.370   6.047   0.423 -0.1183  1.8859  1.2351
  974TIP3   OH224484   1.364   4.150   7.040 -0.0908  0.6275 -0.0712
  974TIP3    H124485   1.424   4.219   7.070 -1.4296  1.7491  0.0864
  974TIP3    H224486   1.361   4.088   7.113 -0.6353  1.5675  0.7149
  975TIP3   OH224487   5.037   1.822   2.003 -0.1458  0.1759 -0.0457
  975TIP3    H124488   5.080   1.907   1.993 -0.5314  0.4024  0.1795
  975TIP3    H224489   5.066   1.790   2.089  1.0297 -0.5244 -0.6902
  976TIP3   OH224490   2.023   4.265   1.146 -0.2911 -0.1774  0.1973
  976TIP3    H124491   2.003   4.218   1.227 -0.2622  1.4345  1.1657
  976TIP3    H224492   2.098   4.218   1.109 -0.6283 -1.2383  0.8192
  977TIP3   OH224493   5.531   1.080   2.115  0.2962  0.1344 -0.4678
  977TIP3    H124494   5.597   1.126   2.063 -1.7479  1.9673 -1.6293
  977TIP3    H224495   5.556   1.097   2.206  2.2895 -0.6213 -0.8138
  978TIP3   OH224496   1.437   6.531   7.905 -0.6058 -0.6564  0.2685
  978TIP3    H124497   1.367   6.595   7.917  0.0440 -0.1009  1.1905
  978TIP3    H224498   1.511   6.582   7.873 -0.0773 -0.9345  1.0242
  979TIP3   OH224499   0.270   5.075   7.254  0.2748 -0.4142 -0.7392
  979TIP3    H124500   0.176   5.066   7.268  0.1862  0.1891 -0.9127
  979TIP3    H224501   0.278   5.125   7.172  0.7472 -0.6857 -0.8666
  980TIP3   OH224502   2.979   6.484   1.564 -0.0775  0.1387 -0.2300
  980TIP3    H124503   2.937   6.399   1.550  0.3974 -0.1855  0.2781
  980TIP3    H224504   2.922   6.547   1.519  0.0243 -0.5521 -1.3794
  981TIP3   OH224505   2.172   3.197   0.145  0.0839 -1.0060  0.2817
  981TIP3    H124506   2.126   3.168   0.066 -1.5542 -0.8301  1.1170
  981TIP3    H224507   2.264   3.185   0.126 -0.3383 -2.0085 -1.2500
  982TIP3   OH224508   2.111   1.643   6.590  0.7073 -0.5406 -0.1371
  982TIP3    H124509   2.106   1.654   6.685 -1.2581  0.0360 -0.2556
  982TIP3    H224510   2.070   1.558   6.574 -1.8990  0.7138 -0.6375
  983TIP3   OH224511   0.366   5.227   2.192  0.3048  0.0861  0.3126
  983TIP3    H124512   0.441   5.168   2.194  0.1714 -0.1313 -0.5462
  983TIP3    H224513   0.400   5.310   2.225  1.1676  0.2412 -0.8873
  984TIP3   OH224514   0.242   1.917   7.925  0.0390  0.3820  0.0701
  984TIP3    H124515   0.156   1.875   7.917  0.4893 -0.5395 -0.0620
  984TIP3    H224516   0.229   1.985   7.992 -1.1590  1.2660 -1.0111
  985TIP3   OH224517   0.895   4.390   8.152 -0.3517  0.1549  0.1401
  985TIP3    H124518   0.916   4.483   8.164  1.8762 -0.3904  1.0385
  985TIP3    H224519   0.917   4.372   8.061 -0.4153  0.4274  0.0709
  986TIP3   OH224520   6.176   4.012   8.059  0.2688  0.3344  0.2302
  986TIP3    H124521   6.151   4.071   7.988 -1.6522 -0.7703 -0.0912
  986TIP3    H224522   6.116   4.035   8.130  1.6791  0.9272  1.2749
  987TIP3   OH224523   3.930   6.300   0.783 -0.2468  0.3813 -0.1182
  987TIP3    H124524   3.895   6.247   0.855  0.4690 -0.2588 -0.2318
  987TIP3    H224525   3.938   6.239   0.710 -0.3020  0.8710 -0.5377
  988TIP3   OH224526   2.413   2.807   2.491  0.1051 -0.0741 -0.2549
  988TIP3    H124527   2.408   2.743   2.420 -1.4987 -0.8138  0.4797
  988TIP3    H224528   2.451   2.759   2.564 -0.4451  0.0183  0.0923
  989TIP3   OH224529   2.328   4.388   7.280  0.5824 -0.3472 -0.1514
  989TIP3    H124530   2.281   4.421   7.357  2.2651  0.1731  0.6838
  989TIP3    H224531   2.376   4.312   7.312 -0.7107 -1.7328 -1.3288
  990TIP3   OH224532   1.752   3.674   7.793  0.0150 -0.2768 -0.1896
  990TIP3    H124533   1.744   3.762   7.756  0.9466 -0.5129 -0.9886
  990TIP3    H224534   1.686   3.672   7.863 -0.7769  0.6776 -0.8682
  991TIP3   OH224535   6.939   1.633   1.888  0.5601  0.2063 -0.0891
  991TIP3    H124536   6.881   1.613   1.815 -0.0912 -0.1996  0.5255
  991TIP3    H224537   6.915   1.570   1.956  0.8298  0.8771  0.6432
  992TIP3   OH224538   5.324   6.741   7.954  0.2488  0.0288 -0.1361
  992TIP3    H124539   5.231   6.737   7.931  0.0770 -0.3986  0.5859
  992TIP3    H224540   5.363   6.665   7.911  0.7668  1.5172 -2.4653
  993TIP3   OH224541   2.937   3.898   1.974 -0.0175  0.2204 -0.0597
  993TIP3    H124542   2.902   3.873   2.060 -1.0980  2.2687  0.1499
  993TIP3    H224543   2.860   3.917   1.921  0.6212 -1.5089 -1.6970
  994TIP3   OH224544   1.900   4.181   1.403 -0.1453 -0.4134  0.6878
  994TIP3    H124545   1.995   4.192   1.404 -0.2008  0.3383 -0.2632
  994TIP3    H224546   1.882   4.118   1.473  1.1248 -1.1767  0.3703
  995TIP3   OH224547   1.562   3.243   1.038 -0.2687  0.0371  0.8388
  995TIP3    H124548   1.645   3.282   1.064 -0.2653  0.6882 -0.1218
  995TIP3    H224549   1.565   3.154   1.075  2.0812 -0.9812 -1.4577
  996TIP3   OH224550   4.371   0.449   1.494 -0.6275 -0.7823  0.0374
  996TIP3    H124551   4.300   0.384   1.496 -1.1892 -0.2186 -0.7093
  996TIP3    H224552   4.348   0.512   1.562 -1.5424  0.0818 -1.0350
  997TIP3   OH224553   4.717   2.383   7.502  0.1121 -0.1496 -0.3670
  997TIP3    H124554   4.776   2.308   7.508  1.3784  0.8079 -0.4095
  997TIP3    H224555   4.630   2.346   7.515  0.7115 -1.6094 -0.3082
  998TIP3   OH224556   0.582   5.054   2.115  0.0200 -0.2057 -0.0728
  998TIP3    H124557   0.631   4.980   2.151 -0.4887 -0.6070 -0.1935
  998TIP3    H224558   0.621   5.069   2.029  2.1535  1.6172  1.0902
  999TIP3   OH224559   1.054   3.549   7.088  0.1341  0.6340 -0.2972
  999TIP3    H124560   1.020   3.462   7.108 -1.3368  0.9872 -1.1380
  999TIP3    H224561   1.139   3.532   7.046  0.7125 -0.2886  1.1544
 1000TIP3   OH224562   5.310   4.031   2.289  0.5336  0.4760  0.5157
 1000TIP3    H124563   5.267   4.040   2.374  3.3830 -2.3904  2.4988
 1000TIP3    H224564   5.394   4.076   2.299  0.5726  0.8484 -1.1231
 1001TIP3   OH224565   5.759   0.104   6.900  0.2008 -0.2243  0.1137
 1001TIP3    H124566   5.797   0.017   6.896 -0.8754 -0.7805  1.2217
 1001TIP3    H224567   5.829   0.163   6.874  1.1225 -1.3708 -0.0553
 1002TIP3   OH224568   1.153   6.404   7.434  0.1529  0.2473  0.1442
 1002TIP3    H124569   1.242   6.417   7.465 -0.0184  1.8801  0.0352
 1002TIP3    H224570   1.099   6.455   7.495 -0.3918  1.7812 -1.5391
 1003TIP3   OH224571   3.278   1.315   0.969  0.2751  0.3913 -0.5875
 1003TIP3    H124572   3.259   1.228   1.004  0.7505  0.4837 -0.0775
 1003TIP3    H224573   3.345   1.351   1.028  1.6666  0.2701 -2.0235
 1004TIP3   OH224574   0.771   3.206   7.938 -0.1604 -0.0744  0.3714
 1004TIP3    H124575   0.744   3.181   8.027 -0.2241 -0.6435  0.2000
 1004TIP3    H224576   0.752   3.299   7.932  0.4881  0.1159  1.1856
 1005TIP3   OH224577   3.445   2.818   7.277 -0.3931 -0.1547  0.4064
 1005TIP3    H124578   3.497   2.887   7.235  0.3359  0.2410  1.8665
 1005TIP3    H224579   3.508   2.749   7.296 -0.5546 -0.0492  1.3966
 1006TIP3   OH224580   1.993   1.418   0.116 -0.1843  0.0524  0.2797
 1006TIP3    H124581   2.007   1.323   0.116 -1.4374 -0.1670  1.3605
 1006TIP3    H224582   2.081   1.455   0.113  0.3761 -1.1522  0.8987
 1007TIP3   OH224583   6.769   0.688   7.596  0.1577 -0.4638 -0.0443
 1007TIP3    H124584   6.819   0.642   7.528  1.1125  0.3460  0.0842
 1007TIP3    H224585   6.682   0.700   7.558  1.0332  1.1450 -1.7149
 1008TIP3   OH224586   5.037   2.996   8.168 -0.1112  0.0850  0.0941
 1008TIP3    H124587   5.044   3.045   8.250  0.0742  1.5373 -0.7507
 1008TIP3    H224588   5.066   3.058   8.101 -4.0455  0.3925 -1.5799
 1009TIP3   OH224589   3.086   1.607   8.249 -0.2391 -0.0225  0.1385
 1009TIP3    H124590   3.143   1.532   8.266 -0.1921  0.2707  1.3818
 1009TIP3    H224591   3.010   1.570   8.203  1.0156 -0.3744 -1.7690
 1010TIP3   OH224592   2.881   5.613   0.145 -0.0310 -0.6956 -0.2437
 1010TIP3    H124593   2.898   5.696   0.100 -0.7887 -0.4054 -0.0058
 1010TIP3    H224594   2.822   5.636   0.216  1.2059 -1.1462  0.9616
 1011TIP3   OH224595   5.442   5.319   6.597 -0.2178 -0.3240  0.7266
 1011TIP3    H124596   5.496   5.364   6.662  0.1345  0.9855 -0.4170
 1011TIP3    H224597   5.463   5.226   6.607  1.0657  0.0230  1.3603
 1012TIP3   OH224598   2.710   5.826   1.398  0.0679 -0.1027 -0.0740
 1012TIP3    H124599   2.631   5.774   1.408  0.6149 -1.0141 -0.4249
 1012TIP3    H224600   2.729   5.859   1.486 -0.8399  0.3467 -0.0398
 1013TIP3   OH224601   0.329   0.393   6.229  0.0995  0.1307  0.1669
 1013TIP3    H124602   0.332   0.365   6.320  2.2603 -0.0688  0.0753
 1013TIP3    H224603   0.304   0.485   6.232 -0.2655  0.0119  0.9097
 1014TIP3   OH224604   3.105   4.891   7.912 -0.0018  0.1081 -0.3609
 1014TIP3    H124605   3.145   4.862   7.830  1.7782 -1.2994  0.9129
 1014TIP3    H224606   3.034   4.829   7.928  0.4267 -0.3561 -0.2485
 1015TIP3   OH224607   0.813   4.760   7.009 -0.1673 -0.1142 -0.4779
 1015TIP3    H124608   0.856   4.755   7.095 -1.7056  0.6775  0.3952
 1015TIP3    H224609   0.792   4.670   6.987 -0.3325 -0.2682  0.2945
 1016TIP3   OH224610   6.233   5.001   1.814 -0.2401  0.0475 -0.0783
 1016TIP3    H124611   6.145   4.963   1.816  0.1561 -0.8815  2.0203
 1016TIP3    H224612   6.242   5.047   1.897  2.0256 -1.8608  0.8709
 1017TIP3   OH224613   6.057   1.050   1.325 -0.4526  0.0145  0.3531
 1017TIP3    H124614   5.984   1.092   1.371  1.0126  1.7329  1.2427
 1017TIP3    H224615   6.111   1.013   1.394  1.5066  2.1672  0.0955
 1018TIP3   OH224616   5.152   6.514   7.137 -0.2959 -0.1814 -0.3649
 1018TIP3    H124617   5.157   6.476   7.049 -0.8396 -1.6460  0.2099
 1018TIP3    H224618   5.088   6.585   7.129  1.0576  0.9886 -1.5529
 1019TIP3   OH224619   0.957   3.312   7.180 -0.2818  0.1896  0.0755
 1019TIP3    H124620   1.033   3.296   7.237  1.3241  0.8744 -1.7598
 1019TIP3    H224621   0.917   3.226   7.169  1.1681 -0.4966 -0.1470
 1020TIP3   OH224622   2.670   1.422   6.767  0.3118 -0.2584 -0.4486
 1020TIP3    H124623   2.642   1.336   6.798  0.0042  0.1098  0.3398
 1020TIP3    H224624   2.607   1.445   6.699 -0.4087 -0.1070  0.2485
 1021TIP3   OH224625   2.291   3.161   0.402  0.1810 -0.1380 -1.0836
 1021TIP3    H124626   2.385   3.178   0.405  0.1938 -0.3227  0.0433
 1021TIP3    H224627   2.271   3.150   0.309  1.0054  1.3207 -1.4645
 1022TIP3   OH224628   5.461   1.117   8.191  0.6045  0.2470  0.4449
 1022TIP3    H124629   5.554   1.101   8.175  0.8092  0.2598  1.5611
 1022TIP3    H224630   5.430   1.040   8.238 -0.7173 -1.1866 -2.4930
 1023TIP3   OH224631   5.674   0.993   1.304  0.2487 -0.3091  0.4492
 1023TIP3    H124632   5.738   1.033   1.245  0.5451  2.5770  2.5511
 1023TIP3    H224633   5.589   1.026   1.274  0.1181 -0.8995  0.1382
 1024TIP3   OH224634   6.232   4.568   7.383  0.4187 -0.1932 -0.0173
 1024TIP3    H124635   6.193   4.550   7.468  1.0194  0.4022  0.3863
 1024TIP3    H224636   6.197   4.653   7.357  1.2205  0.2252  0.2282
 1025TIP3   OH224637   2.270   2.254   1.223 -0.1994 -0.7043 -0.1206
 1025TIP3    H124638   2.219   2.190   1.273 -0.6229 -0.4484 -0.2202
 1025TIP3    H224639   2.259   2.336   1.271  1.3812 -0.9508  0.7286
 1026TIP3   OH224640   3.807   5.013   7.806  0.8199 -0.3351 -0.1664
 1026TIP3    H124641   3.846   4.929   7.783  1.2638  0.1578 -1.2793
 1026TIP3    H224642   3.757   4.995   7.885 -0.5263 -2.0701 -1.3170
 1027TIP3   OH224643   6.424   5.680   7.026 -0.0636  0.0553  0.6667
 1027TIP3    H124644   6.453   5.702   6.937  1.7542 -2.0559  0.6490
 1027TIP3    H224645   6.331   5.661   7.017 -0.2531  1.3406 -0.4611
 1028TIP3   OH224646   6.639   4.599   7.060  0.2501 -0.2556  0.3821
 1028TIP3    H124647   6.569   4.594   6.995  0.8374  2.3507 -0.5935
 1028TIP3    H224648   6.602   4.652   7.131  0.4339 -0.9802  1.0301
 1029TIP3   OH224649   2.700   3.927   7.026 -0.0227  0.7998  0.3171
 1029TIP3    H124650   2.748   3.978   6.960  0.3805 -2.2665 -2.0033
 1029TIP3    H224651   2.652   3.862   6.975  1.3131 -2.6107  3.0019
 1030TIP3   OH224652   5.794   6.607   6.990  0.6726  0.0575 -0.4845
 1030TIP3    H124653   5.800   6.559   7.073  1.3247  1.9080  0.5911
 1030TIP3    H224654   5.835   6.549   6.926 -0.7392 -1.8549  0.2398
 1031TIP3   OH224655   4.816   5.905   7.732 -0.3571 -0.7704  0.0055
 1031TIP3    H124656   4.743   5.848   7.756 -1.3975  0.6042  0.2240
 1031TIP3    H224657   4.857   5.927   7.815  0.8264 -2.1463 -0.1714
 1032TIP3   OH224658   6.125   1.966   7.276 -0.5454 -0.1136 -0.0045
 1032TIP3    H124659   6.206   1.916   7.283  1.0800  2.4607  1.2989
 1032TIP3    H224660   6.091   1.969   7.366 -0.7816  0.7550 -0.1063
 1033TIP3   OH224661   1.636   6.157   7.559 -0.3048  0.2581  0.3771
 1033TIP3    H124662   1.711   6.168   7.617  0.0409  2.7131 -0.4451
 1033TIP3    H224663   1.643   6.067   7.528  3.0163  0.7573 -0.6252
 1034TIP3   OH224664   0.737   5.188   7.645 -0.1633  0.1946 -0.0768
 1034TIP3    H124665   0.732   5.144   7.730  0.6559 -0.0021 -0.1162
 1034TIP3    H224666   0.673   5.259   7.650  0.8017  1.0219  1.2129
 1035TIP3   OH224667   3.272   2.752   2.252  0.0954 -0.4725  0.2863
 1035TIP3    H124668   3.313   2.807   2.318  0.5839 -0.9402  0.3799
 1035TIP3    H224669   3.182   2.783   2.248  0.5824  0.9727 -0.3381
 1036TIP3   OH224670   5.217   2.638   6.488  0.8549  0.0207 -0.2426
 1036TIP3    H124671   5.262   2.664   6.407  1.0473  1.7628  0.3843
 1036TIP3    H224672   5.124   2.648   6.468  0.8892  0.1150 -0.3566
 1037TIP3   OH224673   2.600   2.213   7.986 -0.4608 -0.2359 -0.2298
 1037TIP3    H124674   2.537   2.235   7.918  0.0125 -0.4905 -0.7597
 1037TIP3    H224675   2.665   2.158   7.942  1.5546  2.0851 -0.3677
 1038TIP3   OH224676   2.760   4.792   2.299 -0.1110 -0.2868  0.1326
 1038TIP3    H124677   2.698   4.861   2.326 -0.4863 -0.7967  0.6010
 1038TIP3    H224678   2.731   4.714   2.347  0.9756 -0.5097  0.4616
 1039TIP3   OH224679   6.700   0.759   8.173 -0.0522  0.2729 -0.1416
 1039TIP3    H124680   6.701   0.668   8.146 -1.6339  0.0637  0.4247
 1039TIP3    H224681   6.759   0.803   8.112 -0.0110 -0.9528 -1.0183
 1040TIP3   OH224682   5.560   4.191   7.880  0.7336 -0.4284  0.8172
 1040TIP3    H124683   5.468   4.186   7.855  0.0935  2.4650  2.1677
 1040TIP3    H224684   5.576   4.109   7.927 -1.5490 -0.4296  1.7360
 1041TIP3   OH224685   1.363   3.181   1.440  0.0650  0.3682  0.1627
 1041TIP3    H124686   1.305   3.165   1.366  0.8333  0.0641 -0.3780
 1041TIP3    H224687   1.313   3.151   1.516  0.0802 -1.2751 -0.4425
 1042TIP3   OH224688   0.259   0.857   0.467  0.2992 -0.2541  0.2589
 1042TIP3    H124689   0.219   0.927   0.415  1.7417  0.7468  0.4412
 1042TIP3    H224690   0.196   0.785   0.462  0.0812 -0.0014 -2.3657
 1043TIP3   OH224691   1.029   5.168   7.854 -0.2675  0.0102 -0.4644
 1043TIP3    H124692   1.037   5.105   7.925 -1.2976 -1.4340 -1.5623
 1043TIP3    H224693   0.960   5.228   7.883  1.5840  1.4697  1.1324
 1044TIP3   OH224694   4.922   5.507   7.942  0.1614 -0.1771  0.0599
 1044TIP3    H124695   4.891   5.423   7.907  0.8770 -0.7836  0.8401
 1044TIP3    H224696   4.865   5.572   7.902 -0.5178 -1.0535 -0.4331
 1045TIP3   OH224697   2.838   0.149   7.831  0.3390 -0.0394  0.3411
 1045TIP3    H124698   2.785   0.184   7.902  0.7371 -1.5533  1.4378
 1045TIP3    H224699   2.850   0.223   7.772 -0.3798  1.1530  1.6147
 1046TIP3   OH224700   4.747   6.498   7.340 -0.1806  0.2044  0.0779
 1046TIP3    H124701   4.842   6.493   7.326  0.0129  0.4787  1.2272
 1046TIP3    H224702   4.735   6.479   7.433 -1.4281 -1.6881 -0.4066
 1047TIP3   OH224703   3.740   5.936   0.042 -0.3212  0.2617 -0.2968
 1047TIP3    H124704   3.690   5.880   0.102 -0.3626 -0.5943 -1.1142
 1047TIP3    H224705   3.744   5.887  -0.040  1.1512  0.6843 -0.5120
 1048TIP3   OH224706   6.367   6.170   2.274 -0.5203 -0.3518 -0.4767
 1048TIP3    H124707   6.433   6.236   2.255 -1.4714  0.7434 -0.1085
 1048TIP3    H224708   6.294   6.219   2.311 -1.3903 -1.5752 -0.5017
 1049TIP3   OH224709   2.546   0.963   7.969  0.0359 -0.3948 -0.0987
 1049TIP3    H124710   2.510   0.923   8.049  3.1703 -0.4795  1.4380
 1049TIP3    H224711   2.557   1.055   7.992 -1.0432  0.0427 -1.2658
 1050TIP3   OH224712   0.834   5.812   1.823  0.1643  0.2064  0.6256
 1050TIP3    H124713   0.887   5.885   1.855 -0.2592  1.8699 -2.1174
 1050TIP3    H224714   0.899   5.744   1.802  0.5017 -0.6664  3.9232
 1051TIP3   OH224715   5.645   6.285   6.564 -0.2725 -0.0044 -0.1653
 1051TIP3    H124716   5.739   6.300   6.566 -0.1815 -0.2085 -1.7562
 1051TIP3    H224717   5.608   6.367   6.532 -0.7645  0.4704  1.5339
 1052TIP3   OH224718   4.132   3.972   2.368 -0.4358  0.7536  0.1117
 1052TIP3    H124719   4.118   3.948   2.277 -1.3536 -0.2525  0.4987
 1052TIP3    H224720   4.050   3.950   2.412  0.1491  0.7802  1.2630
 1053TIP3   OH224721   4.588   1.358   2.026 -0.7305 -0.0375  0.2354
 1053TIP3    H124722   4.548   1.406   1.953  1.6192  0.9301 -0.5231
 1053TIP3    H224723   4.629   1.282   1.986  0.2641  0.3046  0.5610
 1054TIP3   OH224724   6.963   0.389   2.116  0.9044 -0.3749 -0.3422
 1054TIP3    H124725   6.993   0.321   2.177 -3.5828 -0.6640  1.9776
 1054TIP3    H224726   6.935   0.461   2.173 -0.3296  0.7734 -2.3030
 1055TIP3   OH224727   4.847   1.853   7.522  0.1209 -0.3867 -0.3759
 1055TIP3    H124728   4.907   1.857   7.597 -0.6664 -0.1078  0.2579
 1055TIP3    H224729   4.824   1.761   7.515 -2.1471 -0.0690  1.6773
 1056TIP3   OH224730   0.798   2.979   8.193 -0.2983  0.0273 -0.2559
 1056TIP3    H124731   0.882   3.024   8.187  1.3211 -2.3420  2.3094
 1056TIP3    H224732   0.758   3.014   8.272 -1.2438  0.3247 -0.8524
 1057TIP3   OH224733   3.273   0.358   7.122  0.1951 -0.4532  0.0626
 1057TIP3    H124734   3.293   0.267   7.143  0.7538 -0.3531 -0.0077
 1057TIP3    H224735   3.322   0.409   7.187  0.7079 -0.1789 -0.5338
 1058TIP3   OH224736   1.714   4.197   0.562  0.9924 -0.2175 -0.0485
 1058TIP3    H124737   1.623   4.214   0.535  0.6865 -0.3683  0.8487
 1058TIP3    H224738   1.767   4.223   0.487  0.3671  1.9683  0.2235
 1059TIP3   OH224739   2.909   1.520   8.034  0.6825  0.0072  0.1814
 1059TIP3    H124740   2.828   1.469   8.034  1.5639 -1.4660  0.4255
 1059TIP3    H224741   2.944   1.510   7.945  1.3783 -0.7409  0.5161
 1060TIP3   OH224742   3.371   1.749   8.226 -0.4529  0.0759 -0.1965
 1060TIP3    H124743   3.317   1.702   8.162 -0.4178  0.8348 -0.7999
 1060TIP3    H224744   3.308   1.780   8.292 -0.7762  0.9477 -0.8909
 1061TIP3   OH224745   6.208   3.480   7.204 -0.3378  0.4163  0.4071
 1061TIP3    H124746   6.178   3.482   7.295 -1.7232  2.2503 -0.0179
 1061TIP3    H224747   6.295   3.521   7.207 -0.1645  0.0227  0.9510
 1062TIP3   OH224748   5.457   5.061   6.639  0.3201 -0.1722  0.1129
 1062TIP3    H124749   5.380   5.039   6.692 -0.3403 -1.4447 -1.2908
 1062TIP3    H224750   5.499   4.977   6.622  0.0596  0.0651 -1.9783
 1063TIP3   OH224751   3.763   4.557   2.226  0.2634 -0.6302  0.2238
 1063TIP3    H124752   3.718   4.478   2.195 -1.7514  0.9134 -1.0213
 1063TIP3    H224753   3.728   4.572   2.314 -0.8985 -0.0561 -0.3124
 1064TIP3   OH224754   6.243   4.633   1.565 -0.5295 -0.2407  0.2396
 1064TIP3    H124755   6.148   4.632   1.576 -0.3941 -2.1902  1.7208
 1064TIP3    H224756   6.265   4.726   1.557 -2.5996  0.2095 -0.7724
 1065TIP3   OH224757   3.934   3.257   0.175  0.6393  0.0718  0.4191
 1065TIP3    H124758   3.881   3.225   0.102  1.6900  0.0662 -0.3589
 1065TIP3    H224759   3.873   3.309   0.227  0.0595  0.8351 -0.9549
 1066TIP3   OH224760   2.540   2.523   7.769 -0.0510  0.2061  0.2453
 1066TIP3    H124761   2.568   2.557   7.854 -0.0779 -1.8991  1.1479
 1066TIP3    H224762   2.445   2.527   7.771 -0.1112 -1.1870  0.9315
 1067TIP3   OH224763   6.740   3.842   6.638 -0.2800 -0.4880 -0.3038
 1067TIP3    H124764   6.657   3.798   6.620 -0.9102  0.5306  0.0246
 1067TIP3    H224765   6.774   3.865   6.552 -0.9232  0.1353 -0.3969
 1068TIP3   OH224766   3.053   5.602   1.581 -0.0040  0.0405  0.1572
 1068TIP3    H124767   2.960   5.616   1.596  0.0857 -0.6382  1.5670
 1068TIP3    H224768   3.089   5.586   1.669  1.3621 -0.1173 -0.4057
 1069TIP3   OH224769   2.313   0.225   6.597  0.2722  0.7512  0.2760
 1069TIP3    H124770   2.324   0.183   6.512  0.6863 -0.4359  0.9018
 1069TIP3    H224771   2.287   0.154   6.656 -0.1188  1.5752  1.1282
 1070TIP3   OH224772   1.669   2.740   0.311  0.4221 -0.3582 -0.0906
 1070TIP3    H124773   1.605   2.673   0.338 -1.1820  1.4038  0.6681
 1070TIP3    H224774   1.699   2.779   0.393  1.1629  0.0270 -0.5329
 1071TIP3   OH224775   0.767   1.356   1.673  0.0504 -0.1667 -0.2145
 1071TIP3    H124776   0.725   1.353   1.759  1.0245 -0.9565  0.2487
 1071TIP3    H224777   0.835   1.423   1.682  0.2383 -0.3416 -0.3260
 1072TIP3   OH224778   0.311   1.507   6.799  0.3523 -0.0070  0.3552
 1072TIP3    H124779   0.380   1.531   6.738 -0.9855  0.5433 -1.0158
 1072TIP3    H224780   0.283   1.419   6.771 -0.5223  0.4017 -0.1141
 1073TIP3   OH224781   3.480   1.598   6.929 -0.0957 -0.1708  0.3255
 1073TIP3    H124782   3.554   1.580   6.988  1.5515 -0.3743 -1.6736
 1073TIP3    H224783   3.514   1.665   6.869 -0.9799 -1.3759 -1.6018
 1074TIP3   OH224784   2.768   5.701   7.523  0.1419  0.3563  0.3358
 1074TIP3    H124785   2.675   5.727   7.523 -0.1810 -0.6642 -1.2163
 1074TIP3    H224786   2.771   5.624   7.579 -0.1941 -0.3221 -0.5557
 1075TIP3   OH224787   1.854   3.767   1.660 -0.0362  0.6567  0.0028
 1075TIP3    H124788   1.767   3.769   1.620  0.1185 -1.6076 -0.6141
 1075TIP3    H224789   1.848   3.698   1.726  1.7598 -0.9064 -1.3435
 1076TIP3   OH224790   3.260   4.857   7.165  0.1017 -0.0348 -0.3270
 1076TIP3    H124791   3.195   4.817   7.222  0.5368  1.7818  1.5609
 1076TIP3    H224792   3.210   4.887   7.089 -0.7499 -1.1773 -0.2502
 1077TIP3   OH224793   2.665   5.094   0.163 -0.0053 -0.5959  0.1830
 1077TIP3    H124794   2.645   5.188   0.170 -0.3270 -0.6028 -0.5230
 1077TIP3    H224795   2.583   5.055   0.133  0.4831 -0.9233 -0.7737
 1078TIP3   OH224796   5.409   5.730   0.781  0.1449  0.5349  0.4822
 1078TIP3    H124797   5.354   5.803   0.754 -0.4120  0.0254  0.2141
 1078TIP3    H224798   5.430   5.749   0.873  0.2037  1.1452  0.3458
 1079TIP3   OH224799   4.705   3.223   6.917  0.3569 -0.7475 -0.1525
 1079TIP3    H124800   4.728   3.215   7.010 -2.9076 -2.9061  0.6704
 1079TIP3    H224801   4.744   3.146   6.876  1.4243 -0.0271 -0.5266
 1080TIP3   OH224802   1.478   2.326   1.714  0.1185 -0.0606 -0.1254
 1080TIP3    H124803   1.501   2.260   1.779 -2.2310  0.0065  0.8422
 1080TIP3    H224804   1.395   2.362   1.744  0.4515  2.0932 -1.5912
 1081TIP3   OH224805   2.693   1.136   6.406 -0.3254 -0.4815  0.0142
 1081TIP3    H124806   2.686   1.071   6.476  0.0600  1.3253  1.7977
 1081TIP3    H224807   2.659   1.217   6.443  1.3467  0.9420 -1.3320
 1082TIP3   OH224808   5.684   1.659   0.695  0.1553 -0.3062  0.3361
 1082TIP3    H124809   5.764   1.678   0.646  0.1447  1.0681  0.8064
 1082TIP3    H224810   5.712   1.658   0.787  0.0396 -2.1079  0.3814
 1083TIP3   OH224811   5.209   4.801   1.762  0.1003 -0.7037  0.1311
 1083TIP3    H124812   5.302   4.778   1.764  0.6919  1.3197 -1.0841
 1083TIP3    H224813   5.185   4.794   1.670 -1.0561 -1.4910  0.4762
 1084TIP3   OH224814   0.871   5.057   0.568 -0.1404 -0.2226 -0.3347
 1084TIP3    H124815   0.790   5.107   0.558  0.6956  0.9124 -1.7171
 1084TIP3    H224816   0.937   5.122   0.593  0.7656 -0.7962 -1.1771
 1085TIP3   OH224817   0.559   6.246   0.652 -0.0530  0.2991  0.2281
 1085TIP3    H124818   0.596   6.332   0.632 -0.3296  0.1718 -0.9015
 1085TIP3    H224819   0.471   6.264   0.683  0.2055  0.4703  0.8845
 1086TIP3   OH224820   6.795   4.365   7.040 -0.0093 -0.5259  0.0994
 1086TIP3    H124821   6.800   4.330   7.129  1.0193 -0.3165  0.1401
 1086TIP3    H224822   6.740   4.443   7.048 -0.7353 -1.0529  0.3555
 1087TIP3   OH224823   4.272   5.840   7.280 -0.7070 -0.5285 -0.3911
 1087TIP3    H124824   4.218   5.769   7.245 -1.1264 -0.3368 -0.1439
 1087TIP3    H224825   4.334   5.860   7.210 -1.4306 -0.2565 -0.9699
 1088TIP3   OH224826   0.627   6.261   7.366 -0.2079 -0.0350  0.0102
 1088TIP3    H124827   0.570   6.185   7.381  0.5330 -1.3048 -2.8542
 1088TIP3    H224828   0.595   6.299   7.284  1.5555  0.6193 -0.4290
 1089TIP3   OH224829   5.527   5.019   6.925 -0.2097 -0.0939 -0.4316
 1089TIP3    H124830   5.524   5.086   6.857  0.2744  2.4054  1.8482
 1089TIP3    H224831   5.600   4.963   6.900  0.6416  1.3873 -1.4392
 1090TIP3   OH224832   4.059   5.433   7.899  0.1196  0.4268  0.2735
 1090TIP3    H124833   4.073   5.339   7.908  0.2381  0.5076  1.0384
 1090TIP3    H224834   3.964   5.443   7.888  0.2355  0.1342 -1.1979
 1091TIP3   OH224835   4.091   1.884   7.250  0.4846 -0.1217 -0.1598
 1091TIP3    H124836   4.156   1.815   7.263 -0.7070 -1.3265 -0.3522
 1091TIP3    H224837   4.008   1.842   7.271 -0.3122  1.1635 -0.6472
 1092TIP3   OH224838   1.728   1.844   1.078 -0.3127  0.6946 -0.0895
 1092TIP3    H124839   1.793   1.914   1.068  0.6058 -0.2977 -1.2810
 1092TIP3    H224840   1.754   1.798   1.158 -0.8556  1.6027  0.6389
 1093TIP3   OH224841   2.527   3.275   0.433 -0.2106  0.4482 -0.4416
 1093TIP3    H124842   2.619   3.261   0.413  0.3239  0.6702  1.6483
 1093TIP3    H224843   2.526   3.345   0.498 -1.7419 -0.4547  0.5901
 1094TIP3   OH224844   3.070   4.399   7.130  0.5970 -0.0281  0.0864
 1094TIP3    H124845   3.153   4.398   7.179  1.5026  1.9745 -1.2515
 1094TIP3    H224846   3.004   4.419   7.196  1.3992 -0.1431  0.9537
 1095TIP3   OH224847   5.232   2.088   7.975  0.9131 -0.6438  0.2526
 1095TIP3    H124848   5.152   2.042   8.001  0.5264 -0.5585 -0.7011
 1095TIP3    H224849   5.231   2.083   7.879  1.1282  0.9044  0.1542
 1096TIP3   OH224850   4.354   2.446   0.320 -0.3457  0.8676 -0.0862
 1096TIP3    H124851   4.275   2.428   0.269  0.5349  1.0766 -1.5861
 1096TIP3    H224852   4.378   2.361   0.356 -1.4386  0.8674  0.6939
 1097TIP3   OH224853   3.491   4.965   7.065  0.3317 -0.4845 -0.1844
 1097TIP3    H124854   3.457   4.910   6.995 -0.2556 -2.6150  1.6730
 1097TIP3    H224855   3.428   4.957   7.136  2.9310 -1.9374  2.1920
 1098TIP3   OH224856   6.201   0.184   6.649 -0.1751  0.3793 -0.3120
 1098TIP3    H124857   6.232   0.274   6.647 -0.1939  0.3677 -1.9291
 1098TIP3    H224858   6.116   0.186   6.607 -0.8589 -0.1675  0.9901
 1099TIP3   OH224859   1.332   3.544   7.030 -0.0950  0.6331 -0.5812
 1099TIP3    H124860   1.414   3.593   7.040 -0.7784  1.6102  0.5563
 1099TIP3    H224861   1.356   3.466   6.981  1.4855  0.9914 -0.4292
 1100TIP3   OH224862   4.229   0.729   0.764 -0.2507 -0.3422 -0.1681
 1100TIP3    H124863   4.290   0.697   0.831  0.0919 -0.0134 -0.3160
 1100TIP3    H224864   4.257   0.819   0.748  0.7138 -0.8982 -1.9062
 1101TIP3   OH224865   4.157   6.780   7.480  0.4570  0.0687 -0.0868
 1101TIP3    H124866   4.192   6.704   7.526 -0.1715 -1.0903 -1.4111
 1101TIP3    H224867   4.215   6.791   7.405  0.2512  0.5662 -0.1757
 1102TIP3   OH224868   2.721   0.715   6.347  0.0686  0.3043 -0.5532
 1102TIP3    H124869   2.734   0.620   6.341 -1.3088 -0.0565  1.2976
 1102TIP3    H224870   2.676   0.738   6.266  0.2023 -0.6614 -0.9186
 1103TIP3   OH224871   4.189   5.776   0.765 -0.2783  0.0963 -0.9559
 1103TIP3    H124872   4.169   5.852   0.711  0.2564  0.1258 -1.1229
 1103TIP3    H224873   4.133   5.706   0.732 -2.5146  0.9908  0.6969
 1104TIP3   OH224874   6.153   0.849   0.538  0.3782  0.0144  0.4042
 1104TIP3    H124875   6.066   0.863   0.575  1.3448  0.7619  2.5935
 1104TIP3    H224876   6.176   0.760   0.563  0.5180  0.0740  0.4922
 1105TIP3   OH224877   5.727   5.090   6.428 -0.0711  0.1333 -0.3049
 1105TIP3    H124878   5.783   5.093   6.350  0.2355  1.7086 -0.0597
 1105TIP3    H224879   5.665   5.019   6.411 -0.7174  1.1394 -2.4821
 1106TIP3   OH224880   4.101   2.451   1.271 -0.1221  0.9307 -0.2191
 1106TIP3    H124881   4.134   2.492   1.192  1.0241 -1.6263 -1.1767
 1106TIP3    H224882   4.170   2.466   1.337  0.5857  0.0639 -0.7400
 1107TIP3   OH224883   0.256   3.545   0.026 -0.2280  0.2536 -0.0225
 1107TIP3    H124884   0.346   3.577   0.018 -0.5912  0.8963 -2.9314
 1107TIP3    H224885   0.265   3.452   0.043  0.9875  0.3355 -0.0800
 1108TIP3   OH224886   0.340   0.621   6.865 -0.0117 -0.1834  1.2744
 1108TIP3    H124887   0.289   0.665   6.797  1.1982  0.1272  0.5210
 1108TIP3    H224888   0.310   0.530   6.862  1.5766 -0.7388 -1.3501
 1109TIP3   OH224889   5.287   0.261   8.093  0.0776  0.7272 -0.5692
 1109TIP3    H124890   5.240   0.322   8.036  1.0566  1.4134 -0.6660
 1109TIP3    H224891   5.344   0.316   8.146 -0.0285  0.0050  0.3357
 1110TIP3   OH224892   4.697   4.632   0.046 -0.7220  0.2563 -0.0249
 1110TIP3    H124893   4.690   4.537   0.041 -0.5091  0.1683  1.0526
 1110TIP3    H224894   4.753   4.656  -0.027  1.9699 -0.8069  1.5448
 1111TIP3   OH224895   5.165   1.925   1.417  0.5455  0.1389 -0.9097
 1111TIP3    H124896   5.192   1.836   1.394  0.0387 -0.6991  1.4175
 1111TIP3    H224897   5.091   1.943   1.359  1.0078 -0.7187 -1.8031
 1112TIP3   OH224898   6.333   0.936   0.342 -0.1879  0.1272  0.3543
 1112TIP3    H124899   6.285   0.929   0.424  0.1135  0.4946  0.5659
 1112TIP3    H224900   6.293   1.011   0.297  1.1278  1.3720  1.1827
 1113TIP3   OH224901   1.812   1.023   7.569  0.5874 -0.5626 -0.6390
 1113TIP3    H124902   1.884   0.981   7.617  0.1869 -0.7027 -0.1527
 1113TIP3    H224903   1.793   1.102   7.619 -0.6903 -1.3536  0.1997
 1114TIP3   OH224904   2.013   3.136   7.965 -0.0642 -0.1415  0.3109
 1114TIP3    H124905   2.103   3.114   7.991  0.1708 -1.6365 -1.5061
 1114TIP3    H224906   2.016   3.229   7.945  1.4282 -0.3924 -0.8633
 1115TIP3   OH224907   0.829   5.992   8.063  0.0948 -0.2001 -0.1108
 1115TIP3    H124908   0.851   5.902   8.039  2.3798  0.0440  0.8155
 1115TIP3    H224909   0.812   5.989   8.157 -2.9742 -0.1388 -0.5689
 1116TIP3   OH224910   1.089   0.812   1.069  0.0607  0.4601  0.4395
 1116TIP3    H124911   1.137   0.731   1.079  0.8854  0.9307  0.3685
 1116TIP3    H224912   1.115   0.846   0.983 -0.8928  0.4018  0.1152
 1117TIP3   OH224913   5.432   2.069   8.187 -0.8703  0.9261 -0.1425
 1117TIP3    H124914   5.390   2.122   8.253 -0.1583  1.9658 -0.4953
 1117TIP3    H224915   5.383   2.085   8.107 -0.9006  0.7321 -0.1646
 1118TIP3   OH224916   5.435   0.208   2.025 -0.5214 -0.2491  0.1333
 1118TIP3    H124917   5.480   0.213   2.109  0.3684  2.5034 -0.4123
 1118TIP3    H224918   5.344   0.188   2.048 -0.6441  2.0023  1.9480
 1119TIP3   OH224919   5.488   3.059   0.632  0.0378  0.4956  0.4365
 1119TIP3    H124920   5.533   3.108   0.701 -0.5108 -0.1024  1.2533
 1119TIP3    H224921   5.397   3.056   0.661 -0.1951  0.2050 -0.3103
 1120TIP3   OH224922   5.990   0.229   8.280  0.3952 -0.6440 -0.3514
 1120TIP3    H124923   6.033   0.285   8.214  2.0616 -0.9799  0.3930
 1120TIP3    H224924   6.011   0.140   8.252 -4.0412 -1.2443 -2.7811
 1121TIP3   OH224925   5.236   4.262   0.529 -0.1000  0.4068 -1.0575
 1121TIP3    H124926   5.301   4.217   0.583 -1.1293 -0.4110 -0.4590
 1121TIP3    H224927   5.279   4.274   0.445  1.1815  0.7898 -0.3820
 1122TIP3   OH224928   2.897   0.499   6.153  0.7063 -0.1211 -0.1690
 1122TIP3    H124929   2.840   0.497   6.077  2.5124 -1.6758 -1.5541
 1122TIP3    H224930   2.837   0.494   6.228 -0.9897 -1.0859 -1.5247
 1123TIP3   OH224931   3.916   0.206   7.837 -0.4365 -0.2359 -0.1919
 1123TIP3    H124932   3.958   0.258   7.906  1.6957 -0.0621 -1.5344
 1123TIP3    H224933   3.928   0.115   7.866 -3.0422 -0.1411  1.5237
 1124TIP3   OH224934   4.514   5.657   0.999  0.7123  0.2064  0.1508
 1124TIP3    H124935   4.523   5.630   1.090  0.7481  0.9716  0.3850
 1124TIP3    H224936   4.474   5.583   0.955 -0.1835  0.1889  0.9824
 1125TIP3   OH224937   0.922   3.762   7.847  0.2626 -0.2159 -0.5984
 1125TIP3    H124938   0.889   3.734   7.762 -3.1212  0.0589  0.4676
 1125TIP3    H224939   0.978   3.690   7.876  0.4942 -0.8644 -2.5182
 1126TIP3   OH224940   0.496   0.109   7.862  0.0769 -0.2675  0.7933
 1126TIP3    H124941   0.505   0.054   7.785 -2.0365 -0.5004  0.6516
 1126TIP3    H224942   0.535   0.057   7.933  1.9200 -0.0991 -0.0438
 1127TIP3   OH224943   4.156   4.792   5.764  0.4784 -0.5456  0.3516
 1127TIP3    H124944   4.068   4.801   5.727  1.1385 -0.8583 -1.4159
 1127TIP3    H224945   4.172   4.698   5.765  1.3515 -0.4455 -0.8674
 1128TIP3   OH224946   0.184   5.839   0.510  0.2251 -0.5602 -0.8530
 1128TIP3    H124947   0.275   5.850   0.539  0.3733  0.2835 -1.5846
 1128TIP3    H224948   0.147   5.927   0.514 -0.6213 -0.9221 -0.4007
 1129TIP3   OH224949   2.257   4.090   8.144  0.2753 -0.4729  0.4887
 1129TIP3    H124950   2.275   4.184   8.145  1.5699 -0.7000  0.6008
 1129TIP3    H224951   2.340   4.050   8.169  0.2285 -1.7169 -1.1904
 1130TIP3   OH224952   6.452   6.002   0.128 -0.0638  0.0975 -0.0090
 1130TIP3    H124953   6.424   5.947   0.055 -1.8731 -0.2049  0.8400
 1130TIP3    H224954   6.459   6.090   0.090 -0.2632 -0.1785 -0.7054
 1131TIP3   OH224955   0.287   3.523   0.645  0.0363 -0.1902 -0.2141
 1131TIP3    H124956   0.306   3.596   0.587 -2.2582  0.2968 -0.4548
 1131TIP3    H224957   0.249   3.456   0.588 -1.6396  0.0443  0.5453
 1132TIP3   OH224958   5.534   2.646   0.748  0.0709  0.1334 -0.3125
 1132TIP3    H124959   5.467   2.613   0.689  0.3073  0.5201 -0.8056
 1132TIP3    H224960   5.579   2.715   0.698 -0.7437  1.5682  0.8617
 1133TIP3   OH224961   3.313   6.613   7.247 -0.3418 -0.1116 -1.2603
 1133TIP3    H124962   3.384   6.551   7.265  1.1759  1.6554 -0.8090
 1133TIP3    H224963   3.326   6.638   7.155 -1.8530 -1.4954 -1.9006
 1134TIP3   OH224964   4.451   1.760   6.641  0.8090  0.1918 -0.1236
 1134TIP3    H124965   4.434   1.832   6.580  0.7028 -0.9082 -1.4395
 1134TIP3    H224966   4.455   1.682   6.586 -0.3491 -1.0101  1.3951
 1135TIP3   OH224967   2.571   4.899   1.995  0.3272  0.0057  0.3707
 1135TIP3    H124968   2.603   4.971   2.049 -1.0302 -0.1433  1.4413
 1135TIP3    H224969   2.558   4.937   1.908  2.1929  0.3442  0.2005
 1136TIP3   OH224970   3.335   3.177   2.240 -0.5961 -0.3228 -0.4757
 1136TIP3    H124971   3.400   3.201   2.174 -0.1748  1.3307  0.4913
 1136TIP3    H224972   3.296   3.260   2.267  0.2800 -0.7576  2.3965
 1137TIP3   OH224973   0.488   5.346   6.723  0.0468 -0.0473  0.2604
 1137TIP3    H124974   0.539   5.278   6.679  0.8015 -0.1458  1.2565
 1137TIP3    H224975   0.552   5.400   6.769 -0.6617  0.3786  0.7828
 1138TIP3   OH224976   1.831   5.096   0.084 -0.9692 -0.0226  0.2659
 1138TIP3    H124977   1.751   5.131   0.123 -1.4995 -0.0605 -0.7546
 1138TIP3    H224978   1.815   5.100  -0.011 -0.2810 -1.2260  0.0779
 1139TIP3   OH224979   2.246   5.742   8.054 -0.2165  0.3422 -0.6996
 1139TIP3    H124980   2.169   5.691   8.081 -0.1077  0.1503 -0.7476
 1139TIP3    H224981   2.298   5.681   8.002  1.1786 -0.3090  1.3143
 1140TIP3   OH224982   5.853   4.403   0.875 -0.3538  0.1653  0.2145
 1140TIP3    H124983   5.943   4.430   0.857 -0.8007  0.1861 -2.2954
 1140TIP3    H224984   5.815   4.476   0.924  0.3007  1.2591 -0.8757
 1141TIP3   OH224985   6.578   6.521   2.085 -0.1423 -0.1096  0.0172
 1141TIP3    H124986   6.520   6.566   2.147 -0.0477  0.1513 -0.0804
 1141TIP3    H224987   6.565   6.568   2.003 -0.4226 -0.5886 -0.2097
 1142TIP3   OH224988   5.079   6.441   2.399 -0.8644 -0.0120  0.1012
 1142TIP3    H124989   5.007   6.381   2.379 -0.9454 -0.0390  0.4624
 1142TIP3    H224990   5.057   6.521   2.353 -1.6052  0.2906  0.9526
 1143TIP3   OH224991   4.330   2.402   8.257  0.0197  0.1266 -0.2438
 1143TIP3    H124992   4.378   2.445   8.328  0.9480 -0.3831 -0.5438
 1143TIP3    H224993   4.264   2.466   8.231 -0.1009  0.4619  0.8356
 1144TIP3   OH224994   1.971   4.571   2.197  0.6907 -0.0740 -0.9122
 1144TIP3    H124995   2.023   4.505   2.152  0.5459 -0.5623 -0.3731
 1144TIP3    H224996   1.949   4.635   2.129 -0.9617 -1.6550 -1.9592
 1145TIP3   OH224997   5.210   1.621   0.395  0.3960 -0.6067  0.7157
 1145TIP3    H124998   5.270   1.691   0.370  2.0903 -1.3820  2.3710
 1145TIP3    H224999   5.225   1.552   0.330 -1.9101  0.7628 -1.4540
 1146TIP3   OH225000   0.142   4.972   6.510 -0.3818 -0.6952 -0.2699
 1146TIP3    H125001   0.127   4.976   6.416 -1.1914  1.4298 -0.0938
 1146TIP3    H225002   0.102   4.889   6.537  0.8832 -1.9257 -1.9042
 1147TIP3   OH225003   3.648   5.873   7.468  0.2214 -0.5469 -0.5726
 1147TIP3    H125004   3.627   5.964   7.492  0.8998 -0.0846 -1.6526
 1147TIP3    H225005   3.698   5.840   7.542 -0.5130 -0.2250  0.0782
 1148TIP3   OH225006   0.718   6.263   8.020  0.2526 -0.3240 -0.2475
 1148TIP3    H125007   0.803   6.236   8.053  1.1199  2.2503 -0.1514
 1148TIP3    H225008   0.654   6.219   8.077  1.5564 -0.8364  0.8557
 1149TIP3   OH225009   0.700   2.832   7.417 -0.2224  0.1619 -0.1990
 1149TIP3    H125010   0.707   2.921   7.383 -1.5038  1.2424  2.1087
 1149TIP3    H225011   0.623   2.796   7.373 -0.2874  0.5696 -0.4234
 1150TIP3   OH225012   1.458   3.321   0.124  0.2351 -0.2863  0.0564
 1150TIP3    H125013   1.395   3.301   0.193  0.3607 -0.6482  0.0700
 1150TIP3    H225014   1.540   3.283   0.154  0.3753 -0.1257 -0.1232
 1151TIP3   OH225015   1.252   1.592   5.926  0.5393  0.2873 -0.5908
 1151TIP3    H125016   1.330   1.613   5.875  1.3718  0.8325  0.8412
 1151TIP3    H225017   1.258   1.648   6.003 -0.3263 -0.9764  0.4392
 1152TIP3   OH225018   1.084   0.482   0.468 -0.0531  0.2627 -0.0146
 1152TIP3    H125019   1.035   0.524   0.396  0.9424 -0.8174 -1.3802
 1152TIP3    H225020   1.086   0.389   0.444  0.9770 -0.0001  1.0305
 1153TIP3   OH225021   2.774   0.766   0.964  0.4190  0.3414 -0.0332
 1153TIP3    H125022   2.700   0.717   0.928 -0.0537  0.2372  1.0161
 1153TIP3    H225023   2.788   0.725   1.050 -0.4649  2.5027  1.2060
 1154TIP3   OH225024   3.438   1.022   7.242  1.1280  0.2140 -0.1596
 1154TIP3    H125025   3.388   1.054   7.167 -0.6933 -1.0920  0.4116
 1154TIP3    H225026   3.419   1.084   7.312  0.6766  0.0030 -0.0868
 1155TIP3   OH225027   2.631   6.305   7.369  0.1671  0.1603 -0.1107
 1155TIP3    H125028   2.538   6.284   7.381  0.3348  0.3135  1.7667
 1155TIP3    H225029   2.631   6.375   7.305 -0.9729 -0.1692 -0.5136
 1156TIP3   OH225030   0.720   2.701   6.838 -0.4009  0.1274  0.6471
 1156TIP3    H125031   0.721   2.716   6.743 -0.4997  2.0238  0.9014
 1156TIP3    H225032   0.627   2.699   6.861 -0.4683  3.1495  1.1015
 1157TIP3   OH225033   5.689   0.955   7.079 -0.0905 -0.1181  0.2465
 1157TIP3    H125034   5.600   0.921   7.090  0.0577  0.0668  2.5856
 1157TIP3    H225035   5.744   0.877   7.074 -0.2918 -0.2264 -0.4213
 1158TIP3   OH225036   2.471   3.288   0.827 -0.3937  0.0338 -0.3174
 1158TIP3    H125037   2.455   3.324   0.914  1.1938  1.5438 -0.5902
 1158TIP3    H225038   2.520   3.356   0.782 -1.3404 -0.6397 -2.4818
 1159TIP3   OH225039   3.483   3.832   7.154 -0.6166  0.0245 -0.4227
 1159TIP3    H125040   3.487   3.908   7.212  1.0840 -0.4841  0.2120
 1159TIP3    H225041   3.465   3.759   7.213  0.9225 -0.4716 -0.5260
 1160TIP3   OH225042   4.978   6.078   1.926  0.3431  0.1231  0.5782
 1160TIP3    H125043   5.014   6.163   1.902  1.2255 -0.4645 -0.2507
 1160TIP3    H225044   4.886   6.096   1.948  0.3587  1.1931 -0.1732
 1161TIP3   OH225045   4.949   0.574   0.043 -0.4431  0.4154 -0.2093
 1161TIP3    H125046   5.019   0.508   0.045 -1.7231 -1.1082 -1.7623
 1161TIP3    H225047   4.929   0.591   0.135  2.8204  1.9643  0.3568
 1162TIP3   OH225048   6.665   0.200   1.208 -0.0411 -0.7934  0.1249
 1162TIP3    H125049   6.644   0.110   1.231 -0.4974 -0.7756 -0.2030
 1162TIP3    H225050   6.596   0.226   1.147 -1.4885  0.6290  2.2014
 1163TIP3   OH225051   4.164   3.539   6.051  0.3852 -0.5453  0.3717
 1163TIP3    H125052   4.095   3.594   6.012  1.4554 -0.5374 -1.6182
 1163TIP3    H225053   4.221   3.601   6.097 -1.1789 -0.6098  2.5546
 1164TIP3   OH225054   5.225   4.084   7.387 -0.4322 -0.3338 -1.1002
 1164TIP3    H125055   5.144   4.083   7.438 -0.5337 -0.4267 -1.2623
 1164TIP3    H225056   5.218   4.008   7.329  1.4509 -2.6972  1.4965
 1165TIP3   OH225057   4.873   2.167   8.273  0.6068  0.0968 -0.2455
 1165TIP3    H125058   4.891   2.090   8.327 -0.0806  0.5637  0.6854
 1165TIP3    H225059   4.781   2.186   8.288  0.5427  0.5708 -1.1756
 1166TIP3   OH225060   0.388   6.480   1.204 -0.3282 -0.1835 -0.4460
 1166TIP3    H125061   0.388   6.557   1.147  0.8214 -0.3892 -0.7573
 1166TIP3    H225062   0.471   6.485   1.251 -0.5431 -0.8877  0.0240
 1167TIP3   OH225063   1.133   2.559   0.709  0.3710 -0.0527 -0.1718
 1167TIP3    H125064   1.113   2.480   0.760  0.3866  1.4208  2.2817
 1167TIP3    H225065   1.220   2.543   0.672  0.7192 -0.9051  0.9538
 1168TIP3   OH225066   3.134   3.292   6.945 -0.4272  0.3206 -0.2017
 1168TIP3    H125067   3.222   3.329   6.936  0.0407 -0.4811  0.8180
 1168TIP3    H225068   3.086   3.355   6.997 -0.5708  0.9223 -1.0429
 1169TIP3   OH225069   4.982   3.863   7.865  0.1178 -0.6429 -0.1751
 1169TIP3    H125070   5.076   3.875   7.877  0.3211 -2.1856 -0.1017
 1169TIP3    H225071   4.950   3.950   7.841  1.7685 -0.3925 -1.6481
 1170TIP3   OH225072   0.407   5.009   6.534 -0.0898 -0.1350 -1.0274
 1170TIP3    H125073   0.455   5.034   6.455 -0.2554 -0.5251 -1.2531
 1170TIP3    H225074   0.316   5.030   6.514 -0.1225 -0.1661 -0.9122
 1171TIP3   OH225075   2.790   3.533   0.571 -0.1551  0.4256 -0.7194
 1171TIP3    H125076   2.846   3.466   0.610  1.3172  0.1837 -3.0370
 1171TIP3    H225077   2.706   3.524   0.617  1.2203 -0.1597  1.8912
 1172TIP3   OH225078   6.291   0.673   1.632  0.2340  0.0019  0.4005
 1172TIP3    H125079   6.335   0.588   1.628  0.1119 -0.0576  0.3152
 1172TIP3    H225080   6.198   0.652   1.624  0.2768  0.2542 -1.1928
 1173TIP3   OH225081   2.178   6.175   7.047  0.3205 -0.5866  0.1872
 1173TIP3    H125082   2.188   6.083   7.021 -0.8487 -1.1102  1.5211
 1173TIP3    H225083   2.139   6.172   7.134  0.2035  1.1920  0.2329
 1174TIP3   OH225084   6.525   2.259   7.873 -0.4686 -0.5111 -0.0464
 1174TIP3    H125085   6.453   2.313   7.840 -0.3753 -1.3896 -1.8094
 1174TIP3    H225086   6.527   2.276   7.967 -1.6434  1.0996 -0.2743
 1175TIP3   OH225087   4.235   3.004   0.091 -0.1839 -0.2934  0.0867
 1175TIP3    H125088   4.180   3.031   0.165  0.6966  0.5870  0.4378
 1175TIP3    H225089   4.313   2.966   0.132  0.5712  0.7302 -0.3695
 1176TIP3   OH225090   3.904   6.289   6.411  0.5623 -0.0560 -0.2844
 1176TIP3    H125091   3.967   6.271   6.481  0.6031 -0.6472 -0.4685
 1176TIP3    H225092   3.835   6.340   6.454 -0.7493 -2.6410  0.8691
 1177TIP3   OH225093   2.552   4.394   1.369 -0.6773 -0.1798 -0.0164
 1177TIP3    H125094   2.508   4.381   1.454 -0.3150  2.7693  0.7501
 1177TIP3    H225095   2.508   4.471   1.332 -1.8642 -2.2422 -3.3365
 1178TIP3   OH225096   0.080   3.077   1.419 -0.1187  0.1426  0.0855
 1178TIP3    H125097   0.122   3.162   1.428 -0.3374  0.2838 -0.2479
 1178TIP3    H225098   0.152   3.014   1.427 -0.0711  0.3181  1.2183
 1179TIP3   OH225099   6.088   4.315   6.440  0.1247 -0.0907  0.3185
 1179TIP3    H125100   6.145   4.239   6.448 -0.0131 -0.1903  0.3456
 1179TIP3    H225101   6.071   4.342   6.531 -3.5355 -2.7612  0.6508
 1180TIP3   OH225102   4.209   5.262   6.642 -0.1953 -0.2445 -0.3438
 1180TIP3    H125103   4.271   5.200   6.603  0.5479  0.9643 -1.1324
 1180TIP3    H225104   4.198   5.330   6.576  0.1900  1.2489  1.0743
 1181TIP3   OH225105   6.868   0.387   1.084  0.0943 -0.4763  0.3713
 1181TIP3    H125106   6.897   0.296   1.087 -0.1164 -0.5350  0.6002
 1181TIP3    H225107   6.832   0.404   1.171  0.1702 -0.1617  0.3415
 1182TIP3   OH225108   1.121   1.591   7.208  0.4655 -0.4535  0.7082
 1182TIP3    H125109   1.158   1.516   7.254  1.1179 -1.1133 -0.7962
 1182TIP3    H225110   1.192   1.655   7.206  0.4075 -0.3891  0.7360
 1183TIP3   OH225111   0.234   5.445   1.128  0.6681 -0.1772  0.5070
 1183TIP3    H125112   0.201   5.389   1.198 -1.5335  0.5501  0.1380
 1183TIP3    H225113   0.193   5.410   1.049  2.8595 -0.7948 -0.4190
 1184TIP3   OH225114   5.705   1.329   0.486  0.1284  0.5212  0.5072
 1184TIP3    H125115   5.765   1.360   0.554  0.9678 -0.6577  0.3272
 1184TIP3    H225116   5.675   1.409   0.443  1.6063  1.1492  0.5843
 1185TIP3   OH225117   0.022   5.661   1.016 -0.2580 -0.5163  0.7534
 1185TIP3    H125118  -0.034   5.674   0.939  0.9164 -0.6491 -0.1526
 1185TIP3    H225119   0.107   5.697   0.990  0.1844 -0.6354  1.9760
 1186TIP3   OH225120   2.065   0.736   0.307  0.2764  0.2214  0.5610
 1186TIP3    H125121   2.002   0.729   0.378 -0.3684  0.8725  0.0743
 1186TIP3    H225122   2.013   0.721   0.228  1.0087 -0.6311  0.2278
 1187TIP3   OH225123   3.904   3.375   1.776  0.1795 -0.3893  0.0177
 1187TIP3    H125124   3.951   3.366   1.859  1.8128 -1.2467 -0.9476
 1187TIP3    H225125   3.814   3.349   1.797  0.4008  0.0113  1.6318
 1188TIP3   OH225126   0.707   6.578   0.905  0.0006 -0.0976  0.2297
 1188TIP3    H125127   0.705   6.636   0.981 -1.5984  0.9700 -0.5620
 1188TIP3    H225128   0.724   6.491   0.941  0.2808  0.5331  1.6797
 1189TIP3   OH225129   2.259   1.275   0.490 -0.0278 -0.2402  0.1302
 1189TIP3    H125130   2.264   1.281   0.585  0.9185  1.0940  0.0285
 1189TIP3    H225131   2.170   1.244   0.472 -0.7548  1.0165  1.4030
 1190TIP3   OH225132   0.006   5.981   1.043 -0.0014 -0.7293 -0.2947
 1190TIP3    H125133  -0.050   6.040   1.094  1.3067 -0.3577  0.7644
 1190TIP3    H225134  -0.007   5.895   1.083  1.1802 -0.4056  0.8964
 1191TIP3   OH225135   3.661   1.835   0.242 -0.7921  0.2139 -0.3319
 1191TIP3    H125136   3.690   1.791   0.162  0.2767  0.8858 -0.3314
 1191TIP3    H225137   3.695   1.780   0.313  0.7926  1.1381 -0.3273
 1192TIP3   OH225138   1.478   3.761   1.394 -0.5367  0.1725  0.5723
 1192TIP3    H125139   1.486   3.735   1.485  0.3379 -0.8734  0.2201
 1192TIP3    H225140   1.515   3.688   1.345 -1.6202  0.4083 -0.6572
 1193TIP3   OH225141   5.515   0.987   7.618 -0.6507 -0.4770  0.3599
 1193TIP3    H125142   5.579   1.033   7.564 -2.2572  0.1897 -1.0703
 1193TIP3    H225143   5.432   0.998   7.572 -1.7814 -1.4919  2.0264
 1194TIP3   OH225144   0.553   5.066   6.935 -0.3475  0.9543  0.2873
 1194TIP3    H125145   0.600   5.043   7.015 -1.7382  1.0447  1.1756
 1194TIP3    H225146   0.471   5.106   6.967 -1.7686 -0.6732 -1.1447
 1195TIP3   OH225147   3.997   1.809   8.060 -0.3310  0.2408  0.3279
 1195TIP3    H125148   3.953   1.842   8.139 -0.5059  0.5228  0.1158
 1195TIP3    H225149   3.939   1.740   8.028 -1.6661  1.9154 -1.0495
 1196TIP3   OH225150   2.133   6.092   7.316  0.2494  0.1805  0.1765
 1196TIP3    H125151   2.194   6.025   7.347 -0.7422 -0.6588  0.3854
 1196TIP3    H225152   2.051   6.044   7.302 -0.5903  1.4361  0.6931
 1197TIP3   OH225153   2.469   5.681   1.692  0.0025  0.1248  0.8642
 1197TIP3    H125154   2.465   5.691   1.596 -0.4962 -2.3668  0.5569
 1197TIP3    H225155   2.555   5.641   1.708  0.5355  1.5270  1.5952
 1198TIP3   OH225156   1.982   3.743   0.089  0.1751 -0.2983  0.3219
 1198TIP3    H125157   2.015   3.657   0.065  1.1835  0.1917 -0.0758
 1198TIP3    H225158   2.052   3.782   0.140  0.1532  0.6972 -0.3867
 1199TIP3   OH225159   4.512   1.807   2.170  0.2722  0.3119  0.1415
 1199TIP3    H125160   4.546   1.722   2.141 -0.6210  0.1300 -0.4062
 1199TIP3    H225161   4.487   1.793   2.261 -0.9345 -0.3592 -0.2696
 1200TIP3   OH225162   5.058   6.567   0.212  0.0450 -0.9184  0.0656
 1200TIP3    H125163   5.110   6.637   0.249  0.6586 -2.2040  1.7411
 1200TIP3    H225164   5.117   6.521   0.152 -0.9109  1.0824 -2.6351
 1201TIP3   OH225165   2.965   6.674   1.760  0.2814  0.3385  0.8312
 1201TIP3    H125166   3.060   6.669   1.747  0.1731 -1.1158  0.4891
 1201TIP3    H225167   2.928   6.627   1.686 -0.7744  1.8758  0.3347
 1202TIP3   OH225168   3.553   5.969   2.184  0.2624  0.1794 -0.5422
 1202TIP3    H125169   3.474   6.008   2.222  0.4489 -0.7495  0.8679
 1202TIP3    H225170   3.612   6.043   2.169  0.0001  0.6252  0.5669
 1203TIP3   OH225171   2.454   5.445   2.283  0.3642 -0.2187  0.1441
 1203TIP3    H125172   2.394   5.517   2.304  1.4223  0.4542  1.0073
 1203TIP3    H225173   2.409   5.367   2.315 -1.2211 -0.1075 -1.6441
 1204TIP3   OH225174   4.374   5.519   7.401  0.1706 -0.2321 -0.1097
 1204TIP3    H125175   4.337   5.485   7.319  1.8734 -1.6411 -0.3454
 1204TIP3    H225176   4.303   5.510   7.464 -0.4603 -1.2921 -0.9218
 1205TIP3   OH225177   6.144   2.512   1.392 -0.0358 -0.5154  0.3770
 1205TIP3    H125178   6.179   2.536   1.307  0.1939  0.8766  0.8246
 1205TIP3    H225179   6.049   2.509   1.379  0.0232 -0.7372 -0.0181
 1206TIP3   OH225180   2.634   1.033   0.057 -0.7057 -0.1129  0.0004
 1206TIP3    H125181   2.720   1.010   0.022 -0.6073  0.8560 -0.4246
 1206TIP3    H225182   2.636   1.003   0.147 -0.0432 -0.3946 -0.1023
 1207TIP3   OH225183   5.846   1.087   0.747  0.5431 -0.2917 -0.1656
 1207TIP3    H125184   5.935   1.084   0.782  0.6111 -0.0607 -0.3160
 1207TIP3    H225185   5.844   1.021   0.678  0.9845  0.5932 -1.0526
 1208TIP3   OH225186   2.794   2.884   6.297 -0.0524  0.3543  0.1482
 1208TIP3    H125187   2.740   2.809   6.324 -1.1316  1.5060  1.2865
 1208TIP3    H225188   2.734   2.939   6.246  0.2983  1.1709  0.6025
 1209TIP3   OH225189   2.914   6.862   6.896 -0.3587  0.4721 -0.3317
 1209TIP3    H125190   2.979   6.855   6.826  0.3328  0.2557  0.3325
 1209TIP3    H225191   2.963   6.850   6.977 -1.5072 -1.6166  0.1152
 1210TIP3   OH225192   6.725   1.071   0.764  0.8862 -0.1803 -0.6004
 1210TIP3    H125193   6.756   1.096   0.852  0.9037 -0.0629 -0.6393
 1210TIP3    H225194   6.686   1.152   0.729  2.2811  0.2173 -1.3163
 1211TIP3   OH225195   5.104   4.196   7.748 -0.2658  0.2049 -0.3626
 1211TIP3    H125196   5.046   4.188   7.824 -1.6793 -0.1770 -1.4381
 1211TIP3    H225197   5.065   4.140   7.682  0.8125  0.6958 -1.4638
 1212TIP3   OH225198   1.477   1.875   8.055  0.1592 -0.1476 -0.2855
 1212TIP3    H125199   1.475   1.818   7.978  0.9557  0.2750 -0.6381
 1212TIP3    H225200   1.397   1.854   8.103  1.0222 -2.4790  0.2652
 1213TIP3   OH225201   3.061   2.792   1.315  0.2497 -0.6325  0.4401
 1213TIP3    H125202   3.152   2.819   1.308 -0.2638  0.9217 -0.8214
 1213TIP3    H225203   3.011   2.873   1.308 -1.2261 -1.3619  1.9006
 1214TIP3   OH225204   0.322   3.939   7.051 -0.3541 -0.6860  0.3570
 1214TIP3    H125205   0.409   3.914   7.082  0.1591 -0.2153 -0.6868
 1214TIP3    H225206   0.302   3.876   6.982  0.8718  1.5220 -2.1767
 1215TIP3   OH225207   6.739   1.153   1.024  0.5640  0.3440  0.2257
 1215TIP3    H125208   6.809   1.211   0.994  0.0534 -0.2832 -2.3801
 1215TIP3    H225209   6.671   1.212   1.056  0.4935  1.1913 -1.3818
 1216TIP3   OH225210   3.756   6.591   0.916 -0.6495 -0.0695  0.0231
 1216TIP3    H125211   3.794   6.579   0.829 -1.1712 -1.3287 -0.0608
 1216TIP3    H225212   3.665   6.563   0.907 -1.0418  0.9470  0.6990
 1217TIP3   OH225213   5.833   2.092   7.779  0.1526 -0.0578  0.1866
 1217TIP3    H125214   5.866   2.039   7.706 -1.2522 -2.2631  1.0557
 1217TIP3    H225215   5.775   2.156   7.738  0.0431 -0.7176 -0.7201
 1218TIP3   OH225216   6.133   5.714   7.296 -0.2201 -0.1094  0.2235
 1218TIP3    H125217   6.225   5.718   7.322  0.3522  0.2134 -1.6859
 1218TIP3    H225218   6.124   5.782   7.229 -1.5628 -0.8791 -0.4127
 1219TIP3   OH225219   0.543   5.993   7.920 -0.1627  0.7750 -0.1739
 1219TIP3    H125220   0.597   6.007   7.997 -0.6172 -1.2472  0.5630
 1219TIP3    H225221   0.605   5.992   7.847  0.5707  0.3245  0.4429
 1220TIP3   OH225222   6.701   6.945   5.866  0.3608  0.6568 -0.7541
 1220TIP3    H125223   6.737   6.893   5.794  1.0434  0.0894 -0.0129
 1220TIP3    H225224   6.631   6.890   5.902 -0.4024  1.2048 -1.3647
 1221TIP3   OH225225   0.696   1.373   1.341 -0.4543 -0.0295 -0.1652
 1221TIP3    H125226   0.704   1.434   1.414  0.5614 -1.5657  1.0747
 1221TIP3    H225227   0.708   1.287   1.380 -0.0595 -0.9226 -2.1197
 1222TIP3   OH225228   1.914   5.049   2.121 -0.0460  0.0939  0.1695
 1222TIP3    H125229   2.003   5.076   2.144  0.3613  0.2795 -1.4878
 1222TIP3    H225230   1.876   5.020   2.203  1.8388 -0.8384  0.7704
 1223TIP3   OH225231   6.907   6.125   8.202 -0.2137  0.4128  0.2638
 1223TIP3    H125232   6.915   6.138   8.108 -0.2734  0.7439  0.3051
 1223TIP3    H225233   6.912   6.030   8.213  1.1766  0.4422  0.0569
 1224TIP3   OH225234   3.103   3.684   2.209 -0.0233  0.6861  0.2393
 1224TIP3    H125235   3.150   3.764   2.233 -0.3312  0.9653 -0.0828
 1224TIP3    H225236   3.011   3.706   2.221 -0.0723 -0.8222  4.0169
 1225TIP3   OH225237   4.939   0.754   5.871  0.0473  0.4940  0.3551
 1225TIP3    H125238   4.855   0.708   5.865 -0.3804  1.2728  0.1585
 1225TIP3    H225239   4.919   0.844   5.844  0.9560  0.6827  0.2752
 1226TIP3   OH225240   4.669   0.428   7.047  0.3317 -0.3086 -0.6306
 1226TIP3    H125241   4.592   0.386   7.008 -0.4243  1.4332 -1.1284
 1226TIP3    H225242   4.649   0.522   7.044  0.7521  0.0314  2.8496
 1227TIP3   OH225243   2.264   1.130   6.980 -0.5848 -0.1118  0.5154
 1227TIP3    H125244   2.339   1.089   6.938 -1.5613 -0.6376 -0.7681
 1227TIP3    H225245   2.191   1.070   6.965 -2.1426  2.1284 -1.6558
 1228TIP3   OH225246   3.538   0.991   0.688 -0.3597 -0.2389 -0.1351
 1228TIP3    H125247   3.521   0.899   0.668  1.0664 -0.5237 -0.1793
 1228TIP3    H225248   3.512   1.038   0.608 -0.9210 -0.6203 -0.1803
 1229TIP3   OH225249   4.572   0.762   7.697 -0.4255 -0.4178  0.1020
 1229TIP3    H125250   4.554   0.673   7.667 -0.1274 -0.3179 -0.3855
 1229TIP3    H225251   4.591   0.811   7.617 -0.6530  0.1022  0.3571
 1230TIP3   OH225252   0.349   0.359   7.402  0.2090  0.4421 -0.2040
 1230TIP3    H125253   0.396   0.418   7.461 -0.6890 -0.7972  1.8577
 1230TIP3    H225254   0.302   0.300   7.460 -1.0984 -0.5805 -2.1964
 1231TIP3   OH225255   6.703   0.107   7.898 -0.6389 -0.8388  1.6271
 1231TIP3    H125256   6.648   0.119   7.975  2.1224 -0.2164  3.6772
 1231TIP3    H225257   6.778   0.164   7.913  1.0536 -2.3327 -0.4909
 1232TIP3   OH225258   2.740   3.851   6.222  0.0464  0.0558 -0.0613
 1232TIP3    H125259   2.763   3.836   6.314  3.2187 -0.2073 -0.7687
 1232TIP3    H225260   2.727   3.945   6.216 -0.8889 -0.0082  0.7772
 1233TIP3   OH225261   1.971   4.108   0.325  0.3383 -0.0642  0.7215
 1233TIP3    H125262   1.981   4.202   0.310  2.0086 -0.2190  0.7221
 1233TIP3    H225263   2.045   4.084   0.381  0.3079 -1.5019  0.1879
 1234TIP3   OH225264   3.020   4.749   0.237 -0.4597 -0.6353 -0.2047
 1234TIP3    H125265   3.104   4.722   0.202 -0.5963 -0.6111 -0.5501
 1234TIP3    H225266   3.035   4.838   0.270 -0.7955  0.1050 -1.9175
 1235TIP3   OH225267   5.255   5.870   0.331 -0.2560  0.7823  0.1660
 1235TIP3    H125268   5.320   5.881   0.261  0.7074  1.8663  1.1774
 1235TIP3    H225269   5.302   5.895   0.410 -1.0477 -1.2880  1.3551
 1236TIP3   OH225270   2.254   6.135   7.685  0.0947  0.5724 -0.1324
 1236TIP3    H125271   2.196   6.189   7.631  0.8149  2.4012  0.8346
 1236TIP3    H225272   2.340   6.177   7.678  0.9549 -1.1119 -0.2104
 1237TIP3   OH225273   4.756   1.639   0.659  0.6858 -0.2520 -0.5965
 1237TIP3    H125274   4.779   1.611   0.747 -0.7771  0.0924 -0.0808
 1237TIP3    H225275   4.835   1.683   0.627  1.5661 -1.2313  0.1578
 1238TIP3   OH225276   6.553   0.636   0.598 -0.3371  0.1132 -0.7239
 1238TIP3    H125277   6.514   0.723   0.608 -1.0843 -0.1370 -1.4052
 1238TIP3    H225278   6.547   0.617   0.505  0.2040 -0.5038 -0.6439
 1239TIP3   OH225279   1.146   4.820   1.254 -0.1839  0.1225 -0.0622
 1239TIP3    H125280   1.118   4.752   1.192  1.9656 -0.5842 -0.3557
 1239TIP3    H225281   1.109   4.901   1.219  1.3951 -0.1548 -2.6897
 1240TIP3   OH225282   2.059   3.324   6.667  0.7392  0.2250  0.0369
 1240TIP3    H125283   2.015   3.259   6.722 -0.5595  0.5401 -0.6011
 1240TIP3    H225284   2.029   3.408   6.701  1.9110  0.5106  0.4422
 1241TIP3   OH225285   5.756   1.959   8.240 -1.1138 -0.4748  0.4897
 1241TIP3    H125286   5.769   1.899   8.167  0.0884  0.7298 -0.3128
 1241TIP3    H225287   5.698   2.027   8.206 -3.2273 -1.5708  1.6649
 1242TIP3   OH225288   2.754   5.545   1.284 -0.1702 -0.0006 -0.0020
 1242TIP3    H125289   2.708   5.628   1.275 -0.6467 -0.2150  0.4161
 1242TIP3    H225290   2.686   5.481   1.305  0.4454 -0.0692  2.0283
 1243TIP3   OH225291   4.517   1.673   6.879  0.9669 -0.1514  0.2273
 1243TIP3    H125292   4.486   1.714   6.798  0.7110 -0.0486  0.3757
 1243TIP3    H225293   4.603   1.637   6.856  0.7930 -0.3314 -0.1528
 1244TIP3   OH225294   6.007   0.450   7.842  0.2255 -0.2096 -0.4247
 1244TIP3    H125295   5.952   0.524   7.868 -0.4043 -0.9705  0.4840
 1244TIP3    H225296   6.028   0.467   7.750 -1.3074  0.2535 -0.7204
 1245TIP3   OH225297   1.730   3.086   6.431  0.2183  0.7137 -0.3990
 1245TIP3    H125298   1.661   3.103   6.366 -1.4652 -1.7768  0.5955
 1245TIP3    H225299   1.801   3.045   6.380 -0.4280  0.2313 -0.9266
 1246TIP3   OH225300   3.740   1.298   1.651  0.4784 -0.1782 -1.2071
 1246TIP3    H125301   3.832   1.278   1.666  0.3775  0.9503  1.3141
 1246TIP3    H225302   3.723   1.376   1.704 -1.7623  0.1083 -2.2185
 1247TIP3   OH225303   2.495   4.890   6.868 -0.7033 -0.0581 -0.3204
 1247TIP3    H125304   2.450   4.887   6.953  0.8446  1.1371  0.6006
 1247TIP3    H225305   2.565   4.826   6.876 -0.6381 -0.0424 -0.7520
 1248TIP3   OH225306   6.517   6.934   0.146 -0.4012 -0.7465 -0.0930
 1248TIP3    H125307   6.577   6.919   0.218 -1.0996 -2.9400  0.1313
 1248TIP3    H225308   6.574   6.957   0.072  0.5375 -0.8907  0.5628
 1249TIP3   OH225309   1.214   1.188   0.712  0.0352  0.2881 -0.4380
 1249TIP3    H125310   1.238   1.281   0.708  4.6947 -0.7084 -0.6135
 1249TIP3    H225311   1.219   1.167   0.806  2.2650 -0.4097 -0.6730
 1250TIP3   OH225312   3.272   0.753   7.554 -0.1108 -0.0093  0.0566
 1250TIP3    H125313   3.193   0.727   7.601 -0.6696  0.1933 -0.7482
 1250TIP3    H225314   3.322   0.804   7.618 -0.5150 -0.3413  0.6469
 1251TIP3   OH225315   5.423   6.672   6.875  0.1613 -0.2540 -0.1463
 1251TIP3    H125316   5.359   6.717   6.929  0.5850  0.2347 -0.0449
 1251TIP3    H225317   5.420   6.718   6.791  1.4651  0.7742  0.3417
 1252TIP3   OH225318   2.670   5.785   7.990 -0.3309  0.4872 -0.1616
 1252TIP3    H125319   2.667   5.874   7.956  2.5129  0.5438 -0.4824
 1252TIP3    H225320   2.631   5.731   7.921  1.1006  1.1219 -1.5153
 1253TIP3   OH225321   5.870   0.901   0.565 -0.4320 -0.3825 -0.1150
 1253TIP3    H125322   5.867   0.829   0.628  0.9158 -1.4907 -1.2620
 1253TIP3    H225323   5.879   0.859   0.480 -0.0167  1.1314 -0.8613
 1254TIP3   OH225324   6.853   1.813   7.204 -0.3114 -0.0131 -0.0758
 1254TIP3    H125325   6.763   1.843   7.196 -0.2791  0.0263 -0.2840
 1254TIP3    H225326   6.847   1.717   7.204 -0.4953 -0.0267  1.4325
 1255TIP3   OH225327   0.008   6.589   7.596  0.4393  0.1842  0.7705
 1255TIP3    H125328  -0.075   6.564   7.556 -0.1280  0.0041  2.0162
 1255TIP3    H225329   0.074   6.545   7.543 -0.4449 -2.8940  2.0470
 1256TIP3   OH225330   2.174   4.845   8.245 -0.0004 -0.0876 -0.0389
 1256TIP3    H125331   2.117   4.899   8.191  0.7542  0.0063 -0.7775
 1256TIP3    H225332   2.131   4.841   8.330 -1.4460 -0.5926 -0.7607
 1257TIP3   OH225333   4.340   2.753   0.212 -0.0476  0.1148 -0.2695
 1257TIP3    H125334   4.432   2.729   0.203  0.3601  1.5169 -0.0808
 1257TIP3    H225335   4.326   2.761   0.306  0.2203  1.8974 -0.3386
 1258TIP3   OH225336   4.509   6.713   1.479  0.3909 -0.8247 -0.2400
 1258TIP3    H125337   4.532   6.706   1.572 -0.6377  1.0559  0.2090
 1258TIP3    H225338   4.582   6.671   1.433  2.7459  1.2707  1.2802
 1259TIP3   OH225339   2.546   0.451   7.982  0.5295  0.1967 -0.1314
 1259TIP3    H125340   2.604   0.524   8.006  0.7530  0.4722 -1.4532
 1259TIP3    H225341   2.605   0.377   7.971  0.2784 -0.2853  1.4410
 1260TIP3   OH225342   0.648   4.277   6.205  0.3170 -0.0705 -0.4442
 1260TIP3    H125343   0.739   4.248   6.215 -0.2539 -2.1607 -0.7015
 1260TIP3    H225344   0.597   4.196   6.211 -1.5937  1.1229  0.3820
 1261TIP3   OH225345   4.971   2.412   8.354  0.5742 -0.1264 -0.2337
 1261TIP3    H125346   4.978   2.391   8.447  2.2142 -0.3379 -0.3677
 1261TIP3    H225347   4.947   2.329   8.312  1.3683 -0.4228 -0.1365
 1262TIP3   OH225348   1.132   0.635   0.048  0.1464 -0.2881 -0.4684
 1262TIP3    H125349   1.078   0.614   0.124 -1.3696 -1.9579 -1.9146
 1262TIP3    H225350   1.110   0.725   0.026  1.1482  0.4681  1.4367
 1263TIP3   OH225351   4.934   5.670   1.052 -0.0029  0.0361 -0.4507
 1263TIP3    H125352   4.880   5.616   0.995 -0.1770  1.0682 -1.2901
 1263TIP3    H225353   4.872   5.726   1.099  0.2818  1.4442 -1.6476
 1264TIP3   OH225354   3.534   7.010   0.299  0.1673  0.4219  0.0318
 1264TIP3    H125355   3.615   7.048   0.333 -0.0020  1.5928 -0.8028
 1264TIP3    H225356   3.475   7.085   0.288 -0.1748 -0.0495 -1.6631
 1265TIP3   OH225357   3.191   3.624   7.218 -0.2526  0.3861  0.5136
 1265TIP3    H125358   3.277   3.593   7.247  0.1578 -1.6658 -2.4455
 1265TIP3    H225359   3.131   3.553   7.242 -1.0482  1.4577  1.8367
 1266TIP3   OH225360   6.160   2.311   8.276 -0.0586 -0.6639 -0.6483
 1266TIP3    H125361   6.065   2.312   8.265  0.0496  0.5955 -1.6458
 1266TIP3    H225362   6.191   2.253   8.207  0.0716  1.2203 -2.2449
 1267TIP3   OH225363   3.375   3.085   8.078 -0.6895 -0.2486 -0.2258
 1267TIP3    H125364   3.360   3.150   8.146  0.0469 -0.0020 -0.2903
 1267TIP3    H225365   3.311   3.106   8.010 -0.1445  0.7048 -0.4508
 1268TIP3   OH225366   1.419   2.352   1.245 -0.1699 -0.8924  0.3798
 1268TIP3    H125367   1.490   2.333   1.183 -0.6239 -0.3168 -0.3401
 1268TIP3    H225368   1.412   2.448   1.244 -0.3070 -0.8888  1.1913
 1269TIP3   OH225369   5.109   5.289   0.528 -0.1703 -0.0188  0.1566
 1269TIP3    H125370   5.167   5.365   0.517  0.8694 -0.8361 -0.2064
 1269TIP3    H225371   5.030   5.312   0.478  0.6589  0.2939 -1.0594
 1270TIP3   OH225372   5.175   0.057   8.262  0.0356 -0.1229  0.1735
 1270TIP3    H125373   5.112   0.019   8.201 -0.9698  1.1572  0.3523
 1270TIP3    H225374   5.211   0.133   8.214 -0.3605  0.5701  0.9543
 1271TIP3   OH225375   0.696   5.091   7.907  0.1458  0.5740 -0.0365
 1271TIP3    H125376   0.766   5.149   7.939  0.4920  0.4765 -0.6014
 1271TIP3    H225377   0.742   5.015   7.873  0.0271  1.7293 -3.1026
 1272TIP3   OH225378   4.051   1.189   7.944 -0.1951 -0.4515 -0.0982
 1272TIP3    H125379   4.033   1.259   7.882 -0.6434 -0.5149 -0.0418
 1272TIP3    H225380   4.092   1.232   8.018 -1.6416 -0.0372  0.5018
 1273TIP3   OH225381   0.836   1.095   2.001 -0.4506  0.0243  0.2864
 1273TIP3    H125382   0.905   1.159   1.986 -0.4562 -0.2137 -0.8269
 1273TIP3    H225383   0.756   1.140   1.975 -0.8380  0.5269  2.1813
 1274TIP3   OH225384   0.309   0.537   8.200  0.1063 -0.0301  0.1601
 1274TIP3    H125385   0.376   0.601   8.222 -0.7074  0.8388  0.1567
 1274TIP3    H225386   0.351   0.479   8.137  1.2711 -0.3117  1.1640
 1275TIP3   OH225387   6.328   3.062   8.005  0.0995 -0.4222  0.3918
 1275TIP3    H125388   6.340   3.037   8.096  1.0172 -0.1658  0.3542
 1275TIP3    H225389   6.378   2.996   7.956 -1.6950 -1.5090 -0.0453
 1276TIP3   OH225390   5.250   0.187   7.729  0.4699 -0.1754  0.0845
 1276TIP3    H125391   5.171   0.182   7.783 -0.0401  0.2412 -0.6165
 1276TIP3    H225392   5.313   0.233   7.784  0.1077 -0.1741  0.5082
 1277TIP3   OH225393   4.980   3.176   6.689  0.0016 -0.4636  1.1519
 1277TIP3    H125394   4.887   3.190   6.706 -0.3714 -2.1499  0.6408
 1277TIP3    H225395   4.998   3.233   6.614 -0.6938 -0.3718  1.0410
 1278TIP3   OH225396   3.287   4.426   5.995 -0.1209 -0.0617 -0.6315
 1278TIP3    H125397   3.204   4.431   5.947  0.8696 -1.3299 -2.6071
 1278TIP3    H225398   3.351   4.400   5.929  1.5766 -0.6342  1.1560
 1279TIP3   OH225399   2.712   4.041   1.485  0.0312 -0.5366  0.0728
 1279TIP3    H125400   2.744   4.090   1.409 -1.3012  2.6569  1.4088
 1279TIP3    H225401   2.620   4.023   1.465  0.1947 -1.4956  0.1242
 1280TIP3   OH225402   4.961   0.426   6.733 -0.6244  0.3308 -0.7208
 1280TIP3    H125403   4.935   0.498   6.675  0.9131 -0.6041 -2.7180
 1280TIP3    H225404   4.998   0.469   6.810 -2.7140  1.6227 -0.3790
 1281TIP3   OH225405   4.153   1.075   7.620  0.3773  0.1641  0.4439
 1281TIP3    H125406   4.235   1.086   7.573  1.5119  0.0432  2.3086
 1281TIP3    H225407   4.177   1.075   7.712 -1.4290 -2.0576  1.0139
 1282TIP3   OH225408   4.212   6.955   1.603 -0.1869  0.2155  0.5666
 1282TIP3    H125409   4.259   6.899   1.665  0.7310  1.7757  1.3489
 1282TIP3    H225410   4.238   7.044   1.627 -1.9311  1.0203 -0.3501
 1283TIP3   OH225411   4.759   5.610   7.211 -0.4812 -0.0398  0.0417
 1283TIP3    H125412   4.719   5.697   7.220 -0.6953 -0.2253  0.9869
 1283TIP3    H225413   4.730   5.580   7.125 -0.1818  0.9337 -0.4226
 1284TIP3   OH225414   3.737   5.892   0.685 -0.0228 -0.7904 -0.3258
 1284TIP3    H125415   3.645   5.865   0.692 -0.1423 -0.3182  0.0112
 1284TIP3    H225416   3.764   5.906   0.776 -0.8619  3.1397 -0.4972
 1285TIP3   OH225417   1.838   6.657   6.832  0.1887  0.7667  0.4005
 1285TIP3    H125418   1.805   6.629   6.918 -0.6589  0.0531 -0.1336
 1285TIP3    H225419   1.864   6.576   6.789 -3.1632  0.5079 -1.5364
 1286TIP3   OH225420   4.783   2.129   1.620  0.1566  0.0235 -0.2145
 1286TIP3    H125421   4.736   2.104   1.540 -1.1960  1.6244  0.0192
 1286TIP3    H225422   4.733   2.203   1.654  1.4066  0.1296  1.4813
 1287TIP3   OH225423   3.718   3.070   1.070  0.2094 -0.1862 -0.5024
 1287TIP3    H125424   3.724   2.998   1.133 -0.8752 -0.9955 -1.2691
 1287TIP3    H225425   3.780   3.045   1.001  0.4736  0.0553 -0.3503
 1288TIP3   OH225426   2.724   3.190   7.100  0.3862 -0.0923 -0.6362
 1288TIP3    H125427   2.771   3.269   7.126 -0.9775  0.3845  0.5281
 1288TIP3    H225428   2.637   3.201   7.138 -0.2580 -1.5349 -1.6222
 1289TIP3   OH225429   5.376   1.089   1.544  0.8097  0.6034  0.5807
 1289TIP3    H125430   5.393   0.999   1.516 -0.9570  0.0051  1.2475
 1289TIP3    H225431   5.413   1.094   1.632  0.8297  0.5038  0.5785
 1290TIP3   OH225432   3.085   6.203   0.340  0.2743  0.4894 -0.2153
 1290TIP3    H125433   3.120   6.287   0.311 -0.6444  0.7346 -0.6792
 1290TIP3    H225434   3.146   6.172   0.406  0.4790  1.6545  0.1627
 1291TIP3   OH225435   1.161   3.256   0.127 -0.1277 -0.0405  0.7494
 1291TIP3    H125436   1.207   3.235   0.208 -0.5641 -2.4346  0.4542
 1291TIP3    H225437   1.160   3.174   0.078 -0.1304  1.2582 -1.5716
 1292TIP3   OH225438   3.999   2.716   0.288  0.5426  0.0059  0.2517
 1292TIP3    H125439   3.990   2.704   0.194  0.0855 -2.0865  0.5080
 1292TIP3    H225440   4.000   2.811   0.301  0.3332  0.3256 -1.8132
 1293TIP3   OH225441   6.766   6.100   0.835  0.1266  0.1941 -0.4148
 1293TIP3    H125442   6.754   6.008   0.860  0.4512  0.4122  0.5907
 1293TIP3    H225443   6.810   6.096   0.750 -0.3407 -0.5782 -0.6323
 1294TIP3   OH225444   4.610   5.306   0.403  0.5410 -0.0537 -0.0021
 1294TIP3    H125445   4.593   5.228   0.351 -0.6434  0.1206  0.0940
 1294TIP3    H225446   4.567   5.377   0.354  3.4225  0.9839 -1.2754
 1295TIP3   OH225447   3.452   0.932   0.940 -0.3217  0.5800  0.2596
 1295TIP3    H125448   3.400   0.988   0.883 -0.1841  1.0809  0.6200
 1295TIP3    H225449   3.530   0.983   0.959  0.3633 -0.2177 -0.3750
 1296TIP3   OH225450   1.918   3.158   0.798  0.4804 -0.0007 -0.8736
 1296TIP3    H125451   1.998   3.164   0.746  1.2478 -0.3155  0.2288
 1296TIP3    H225452   1.948   3.166   0.889 -0.6824 -0.5958 -0.4123
 1297TIP3   OH225453   1.156   3.008   2.265 -0.2015 -0.0854  0.9450
 1297TIP3    H125454   1.085   3.024   2.328 -0.1156  2.1128  0.5663
 1297TIP3    H225455   1.221   3.075   2.286  1.2036 -1.2660  0.4536
 1298TIP3   OH225456   6.982   5.106   7.610 -0.5091 -0.6467  0.1973
 1298TIP3    H125457   7.023   5.189   7.630  0.4706 -0.4335 -2.3137
 1298TIP3    H225458   6.900   5.129   7.566 -0.9026 -1.0424  0.7015
 1299TIP3   OH225459   2.068   0.774   1.613  0.3047 -0.0033  0.1333
 1299TIP3    H125460   2.160   0.745   1.617  0.3051 -0.2395 -1.1280
 1299TIP3    H225461   2.070   0.864   1.644  1.5738  1.2030 -3.0064
 1300TIP3   OH225462   2.694   6.822   0.151  0.3102 -0.1006 -0.4205
 1300TIP3    H125463   2.604   6.847   0.131  0.1704 -0.1592  0.1401
 1300TIP3    H225464   2.743   6.847   0.072  0.4085  3.1970  0.5402
 1301TIP3   OH225465   1.885   5.317   6.716 -0.3467 -0.0540 -0.4130
 1301TIP3    H125466   1.905   5.262   6.791  0.9904  0.5194 -0.3197
 1301TIP3    H225467   1.843   5.258   6.653 -0.2650 -0.8447  0.2599
 1302TIP3   OH225468   3.343   4.358   0.378  0.4974 -0.7102 -0.0737
 1302TIP3    H125469   3.372   4.417   0.309 -1.2625  0.1171 -0.1395
 1302TIP3    H225470   3.414   4.294   0.386  0.5846 -1.0848 -2.9138
 1303TIP3   OH225471   3.544   5.912   7.766  0.5562 -0.0993  0.0716
 1303TIP3    H125472   3.604   5.931   7.839  1.7803  0.6718 -1.0844
 1303TIP3    H225473   3.473   5.976   7.777  0.5772 -0.1863  0.7503
 1304TIP3   OH225474   0.271   0.991   6.437  0.1250 -0.0150 -0.5223
 1304TIP3    H125475   0.187   1.004   6.479  0.2601 -0.0604 -0.2365
 1304TIP3    H225476   0.318   1.074   6.450  0.0055  0.1252 -0.9592
 1305TIP3   OH225477   0.713   0.944   7.283  0.4207 -0.0463 -0.1094
 1305TIP3    H125478   0.709   0.853   7.313  0.7426  0.0876  0.3578
 1305TIP3    H225479   0.635   0.956   7.228  0.3589 -0.5905 -0.1404
 1306TIP3   OH225480   4.559   3.531   7.266 -0.0379 -0.6981  0.0356
 1306TIP3    H125481   4.570   3.500   7.356  0.2211 -1.0031 -0.0994
 1306TIP3    H225482   4.519   3.458   7.220  0.2969 -0.7277 -0.2144
 1307TIP3   OH225483   4.275   3.552   0.739  0.2848  0.3286  0.2003
 1307TIP3    H125484   4.360   3.516   0.715 -0.2074 -1.6717  1.2802
 1307TIP3    H225485   4.281   3.569   0.833 -1.2283 -2.1391  0.8169
 1308TIP3   OH225486   1.567   4.958   0.004 -0.0260 -0.5933  0.1842
 1308TIP3    H125487   1.586   5.043  -0.036 -0.0754  0.0052  1.3961
 1308TIP3    H225488   1.481   4.935  -0.031  0.6007 -0.8591 -1.2743
 1309TIP3   OH225489   1.732   5.482   0.691  0.2252  0.0439  0.4000
 1309TIP3    H125490   1.668   5.480   0.620  0.8169 -0.2726 -0.1349
 1309TIP3    H225491   1.814   5.508   0.649  0.9513 -1.6801  0.6522
 1310TIP3   OH225492   1.255   6.093   1.919  0.0148 -0.5678  0.1903
 1310TIP3    H125493   1.159   6.092   1.914  0.0568 -0.7939 -0.7811
 1310TIP3    H225494   1.278   6.002   1.940 -0.0977  0.1175  4.0023
 1311TIP3   OH225495   5.115   6.321   1.366  0.0853 -0.2291 -0.6154
 1311TIP3    H125496   5.152   6.245   1.412 -0.6927  0.1618  0.6953
 1311TIP3    H225497   5.078   6.375   1.435  0.6888  1.4111 -1.5218
 1312TIP3   OH225498   0.824   6.377   0.351  0.1032 -0.4467 -0.0764
 1312TIP3    H125499   0.883   6.374   0.427 -0.8840 -0.4414  0.7108
 1312TIP3    H225500   0.753   6.435   0.378 -0.4211 -0.6929 -0.8912
 1313TIP3   OH225501   5.419   5.147   7.497 -0.4612 -0.4203 -0.0448
 1313TIP3    H125502   5.494   5.105   7.540 -0.8097 -0.6869  0.3128
 1313TIP3    H225503   5.355   5.158   7.567 -0.2633  1.0014 -0.0696
 1314TIP3   OH225504   0.781   1.497   6.602  0.3424  0.4937  0.2639
 1314TIP3    H125505   0.817   1.580   6.571 -1.6973  0.9871 -1.0276
 1314TIP3    H225506   0.744   1.518   6.688 -0.8241  1.1570 -0.3767
 1315TIP3   OH225507   6.425   4.911   7.729  0.3168 -0.0996  0.1910
 1315TIP3    H125508   6.361   4.977   7.703  0.0097 -0.1540  0.7889
 1315TIP3    H225509   6.432   4.854   7.653  0.3668  0.4544 -0.2226
 1316TIP3   OH225510   4.614   2.636   6.003 -0.4285 -0.3710 -0.5322
 1316TIP3    H125511   4.646   2.578   5.933 -3.1027 -0.9584 -1.3721
 1316TIP3    H225512   4.534   2.594   6.034 -1.5459  2.0295  0.0141
 1317TIP3   OH225513   3.757   2.254   7.586 -0.1805  0.5016 -0.0565
 1317TIP3    H125514   3.851   2.264   7.568 -0.1467  0.1490 -0.0921
 1317TIP3    H225515   3.747   2.280   7.678  0.2548 -1.1164  0.4878
 1318TIP3   OH225516   3.374   6.608   6.963  0.6959  0.0399 -0.1031
 1318TIP3    H125517   3.382   6.539   6.898  2.1335 -1.1732  1.2749
 1318TIP3    H225518   3.367   6.689   6.912 -0.1004 -1.0179 -1.7414
 1319TIP3   OH225519   1.974   3.078   6.773 -0.1187 -0.0652  0.0728
 1319TIP3    H125520   1.986   3.011   6.705  1.3743  1.8191 -1.6627
 1319TIP3    H225521   2.025   3.047   6.847  2.1092 -0.0695 -1.3572
 1320TIP3   OH225522   2.562   4.732   0.139  0.3251  0.4452 -0.5640
 1320TIP3    H125523   2.607   4.654   0.109  0.6464 -0.1803  1.4550
 1320TIP3    H225524   2.627   4.802   0.132  1.3072 -0.2272  1.1946
 1321TIP3   OH225525   1.613   1.452   7.940 -0.0712  0.0145 -0.0311
 1321TIP3    H125526   1.675   1.523   7.924 -0.4874  0.1317 -1.2336
 1321TIP3    H225527   1.588   1.462   8.032  0.1337  1.2065 -0.0947
 1322TIP3   OH225528   5.606   4.772   8.177 -0.2234  0.6563  0.0356
 1322TIP3    H125529   5.649   4.791   8.094  1.3131  3.1023  1.2805
 1322TIP3    H225530   5.678   4.765   8.240 -1.4673  1.6047  1.6343
 1323TIP3   OH225531   6.605   0.186   0.276 -0.1203  0.4949  0.2464
 1323TIP3    H125532   6.546   0.169   0.202 -0.9157  2.6400  0.3214
 1323TIP3    H225533   6.566   0.140   0.349 -1.1876  1.0582  0.0556
 1324TIP3   OH225534   6.430   2.988   0.284  0.2982  0.1878 -0.3904
 1324TIP3    H125535   6.428   2.990   0.380  2.0471 -2.0740 -0.2131
 1324TIP3    H225536   6.477   3.067   0.259 -0.5515  1.0241  0.5808
 1325TIP3   OH225537   5.073   5.515   1.738 -0.2562  0.0160 -0.1143
 1325TIP3    H125538   5.165   5.513   1.713 -0.2462  1.1666 -0.2362
 1325TIP3    H225539   5.035   5.585   1.684 -1.2976 -0.7098 -0.3669
 1326TIP3   OH225540   4.103   6.188   7.266  1.2537  0.2463  0.0619
 1326TIP3    H125541   4.128   6.193   7.358  0.8492 -0.6852  0.2362
 1326TIP3    H225542   4.033   6.122   7.264  0.5334  1.0113 -0.7619
 1327TIP3   OH225543   4.695   3.605   6.560 -0.4284  0.0420  0.0043
 1327TIP3    H125544   4.674   3.536   6.623  1.1664 -1.9046 -1.4409
 1327TIP3    H225545   4.788   3.624   6.576 -0.5275  0.9522 -0.4502
 1328TIP3   OH225546   6.216   5.389   2.359 -0.5251  0.5369  0.2185
 1328TIP3    H125547   6.140   5.443   2.340 -0.2934  0.7082 -0.2472
 1328TIP3    H225548   6.187   5.330   2.428 -1.0324  0.7044  0.1529
 1329TIP3   OH225549   1.558   1.649   7.522  0.2666  0.5678 -0.0031
 1329TIP3    H125550   1.464   1.657   7.534  0.2329 -0.5262  0.6302
 1329TIP3    H225551   1.569   1.636   7.427 -0.5821 -2.8887  0.2401
 1330TIP3   OH225552   3.566   0.337   7.342 -0.5162  0.1446  0.1546
 1330TIP3    H125553   3.555   0.247   7.373 -1.4055 -0.2119 -1.1255
 1330TIP3    H225554   3.521   0.391   7.408  0.8187 -0.2347  1.4160
 1331TIP3   OH225555   5.486   5.451   0.009 -0.2693  0.4595  0.3586
 1331TIP3    H125556   5.531   5.394   0.071 -0.7661  1.2867  1.5175
 1331TIP3    H225557   5.460   5.393  -0.062  2.6671 -0.0367 -0.4424
 1332TIP3   OH225558   7.002   0.763   0.531  0.0242  0.5954  0.3679
 1332TIP3    H125559   6.996   0.694   0.466  1.9196  0.2491  0.4942
 1332TIP3    H225560   6.965   0.840   0.489 -3.3086 -0.6868  0.6589
 1333TIP3   OH225561   2.517   4.064   6.829  0.4223  0.1716  0.2724
 1333TIP3    H125562   2.503   4.017   6.912 -0.2250 -0.3231 -0.1087
 1333TIP3    H225563   2.429   4.083   6.797  0.5722  3.8424  1.5960
 1334TIP3   OH225564   6.686   1.287   0.392 -0.3862 -0.0187  0.1626
 1334TIP3    H125565   6.596   1.319   0.405  0.0075  2.1754 -1.8670
 1334TIP3    H225566   6.676   1.192   0.383 -2.2294 -0.0772  1.8781
 1335TIP3   OH225567   2.501   0.978   7.501  0.1936  0.1723  0.2578
 1335TIP3    H125568   2.410   0.971   7.472  0.3592 -0.8928 -0.0619
 1335TIP3    H225569   2.551   0.989   7.419  0.3589  0.7361  0.4295
 1336TIP3   OH225570   7.001   5.907   0.003  0.3803 -0.2590  0.6397
 1336TIP3    H125571   7.060   5.851   0.054 -0.6308 -0.9630  1.0527
 1336TIP3    H225572   6.914   5.870   0.017 -0.2560  1.1523  0.5461
 1337TIP3   OH225573   3.300   6.049   7.826 -0.2333 -0.1040 -0.0318
 1337TIP3    H125574   3.287   6.102   7.905  0.0443 -0.4827  0.2722
 1337TIP3    H225575   3.232   6.079   7.766  0.2592  0.9869 -0.0717
 1338TIP3   OH225576   4.426   5.799   8.321  0.4584  0.1189 -0.2797
 1338TIP3    H125577   4.345   5.816   8.369  0.7732  3.1725 -0.6348
 1338TIP3    H225578   4.400   5.740   8.250 -0.8225 -1.1745  1.1764
 1339TIP3   OH225579   6.044   1.398   7.418  0.2931 -0.5218 -0.1613
 1339TIP3    H125580   5.983   1.367   7.351 -0.5726 -0.7034  0.6793
 1339TIP3    H225581   6.098   1.463   7.373  0.0837 -1.0199 -1.1611
 1340TIP3   OH225582   6.260   4.898   1.559  0.5102  0.2076  0.9516
 1340TIP3    H125583   6.172   4.924   1.531  0.4406  0.0339  1.0058
 1340TIP3    H225584   6.268   4.930   1.649  0.6139  0.4837  0.8459
 1341TIP3   OH225585   2.387   6.853   7.377  0.6293 -0.1241  0.1799
 1341TIP3    H125586   2.343   6.795   7.439 -0.5821  2.4004  1.8247
 1341TIP3    H225587   2.321   6.870   7.309  0.0165  1.2876  1.0736
 1342TIP3   OH225588   1.985   5.961   6.527 -0.2686 -0.8147 -0.2851
 1342TIP3    H125589   2.042   5.948   6.452  0.0185 -1.3261  0.0178
 1342TIP3    H225590   2.043   5.959   6.603 -0.6361 -0.9250 -0.0041
 1343TIP3   OH225591   2.810   4.766   1.197 -0.5426 -0.0530  0.1260
 1343TIP3    H125592   2.798   4.852   1.157  2.6863  0.1836 -0.6133
 1343TIP3    H225593   2.829   4.785   1.289  1.1683  0.2125 -0.2317
 1344TIP3   OH225594   5.331   2.191   0.059 -0.0054 -0.0094 -0.2197
 1344TIP3    H125595   5.364   2.271   0.101 -2.0818  1.0241 -0.4172
 1344TIP3    H225596   5.355   2.121   0.120  0.0390  1.0267  1.0051
 1345TIP3   OH225597   2.979   2.314   0.934  0.1102  0.3564  1.0607
 1345TIP3    H125598   3.041   2.384   0.956  2.7122 -2.1618  2.3714
 1345TIP3    H225599   3.029   2.253   0.881 -1.2081 -1.8200  2.1683
 1346TIP3   OH225600   0.418   6.923   6.690 -0.4005  0.6811 -0.5753
 1346TIP3    H125601   0.341   6.915   6.745 -0.5379  0.1689 -0.8371
 1346TIP3    H225602   0.383   6.928   6.601 -0.1835  1.5398 -0.6176
 1347TIP3   OH225603   4.374   1.533   8.135  0.8599  0.4820  0.1650
 1347TIP3    H125604   4.365   1.572   8.222  0.1103  0.9537 -0.1209
 1347TIP3    H225605   4.456   1.569   8.101  0.4423  1.4070  0.1130
 1348TIP3   OH225606   6.066   2.280   0.451 -0.5094 -0.6910 -0.6973
 1348TIP3    H125607   6.064   2.298   0.357 -0.7317  1.1209 -0.3910
 1348TIP3    H225608   6.126   2.206   0.461  1.1171  0.3865 -2.0824
 1349TIP3   OH225609   2.309   4.669   1.061  0.1608  0.0935 -0.3883
 1349TIP3    H125610   2.276   4.759   1.069 -1.4751 -0.5838  1.3234
 1349TIP3    H225611   2.230   4.617   1.044  0.7973 -1.2387  0.6186
 1350TIP3   OH225612   6.299   0.363   0.518 -0.3025  0.1765  0.1457
 1350TIP3    H125613   6.215   0.321   0.540  0.1061 -1.3806 -1.0743
 1350TIP3    H225614   6.314   0.340   0.427  1.2447  0.8096  0.2150
 1351TIP3   OH225615   0.757   1.635   0.610 -0.2696  0.5144  0.5826
 1351TIP3    H125616   0.849   1.659   0.608 -0.0416 -0.1256  1.9414
 1351TIP3    H225617   0.750   1.558   0.554 -0.2554  1.3736 -0.6212
 1352TIP3   OH225618   0.132   3.797   8.093 -0.0803  0.4874 -0.3605
 1352TIP3    H125619   0.118   3.706   8.117 -2.9628  1.5211  2.7039
 1352TIP3    H225620   0.192   3.831   8.159 -0.4562  1.1995 -0.3672
 1353TIP3   OH225621   4.519   6.188   0.418  0.4752 -0.6206  0.7788
 1353TIP3    H125622   4.608   6.192   0.453  0.5375  0.8895  0.5074
 1353TIP3    H225623   4.465   6.166   0.494  1.0010 -0.9002  1.0803
 1354TIP3   OH225624   1.922   1.427   5.817  0.3969 -0.1611  0.0215
 1354TIP3    H125625   1.875   1.366   5.761 -0.3536  0.0668  0.3949
 1354TIP3    H225626   1.920   1.387   5.904 -0.0284  0.3427  0.2513
 1355TIP3   OH225627   3.284   4.761   1.681 -0.1436  0.3485  0.0916
 1355TIP3    H125628   3.356   4.824   1.688  0.6953 -0.7444  1.7075
 1355TIP3    H225629   3.325   4.682   1.645 -0.9911  0.3568 -0.9665
 1356TIP3   OH225630   2.459   3.378   1.092  0.1337 -0.2373  0.1810
 1356TIP3    H125631   2.463   3.474   1.089  2.0773 -0.2496  1.0026
 1356TIP3    H225632   2.459   3.357   1.186 -0.3661 -1.0623  0.0093
 1357TIP3   OH225633   3.599   2.747   2.136  0.2159  0.4229  0.0600
 1357TIP3    H125634   3.570   2.777   2.222  2.0716 -1.4434  1.4364
 1357TIP3    H225635   3.555   2.662   2.125  2.4182 -0.8802  0.7004
 1358TIP3   OH225636   3.078   3.946   0.577 -0.1259 -0.0969 -0.0072
 1358TIP3    H125637   3.079   4.012   0.647  0.8843 -0.0480 -0.0550
 1358TIP3    H225638   3.165   3.950   0.539 -0.7505  0.0775 -1.4832
 1359TIP3   OH225639   0.173   2.632   7.752  0.4792 -0.0421 -0.2229
 1359TIP3    H125640   0.213   2.708   7.794 -0.0776  0.2792 -0.2599
 1359TIP3    H225641   0.190   2.645   7.658  0.4519 -0.0016 -0.2221
 1360TIP3   OH225642   4.977   0.418   7.728 -0.0165 -0.0220  0.7538
 1360TIP3    H125643   4.921   0.352   7.770 -0.4313  0.5549  1.1154
 1360TIP3    H225644   4.934   0.437   7.645  0.9301 -1.3398 -0.0868
 1361TIP3   OH225645   5.058   1.413   0.027  0.0485  0.2888 -0.6133
 1361TIP3    H125646   5.040   1.323   0.000 -3.0076  0.6838 -0.2788
 1361TIP3    H225647   5.094   1.405   0.116  0.5269 -0.6082 -0.8766
 1362TIP3   OH225648   4.306   4.509   7.917  0.3223  0.3331  0.4492
 1362TIP3    H125649   4.292   4.444   7.986  3.5342 -0.2228  0.7126
 1362TIP3    H225650   4.281   4.464   7.836 -1.4213  0.2564  0.9876
 1363TIP3   OH225651   0.090   5.988   7.023  0.2098  0.3238 -0.4509
 1363TIP3    H125652   0.113   6.021   6.936 -0.3399 -2.0738 -1.5743
 1363TIP3    H225653  -0.001   6.016   7.035  0.0854  0.1274 -0.9157
 1364TIP3   OH225654   2.189   3.404   0.472 -0.3479 -0.3037  0.2706
 1364TIP3    H125655   2.247   3.457   0.527 -0.4907  0.0658  0.0690
 1364TIP3    H225656   2.237   3.322   0.458  0.1778  0.0410  0.0129
 1365TIP3   OH225657   4.115   5.215   8.190 -0.3824  0.3005 -0.3025
 1365TIP3    H125658   4.029   5.217   8.150 -1.0275  1.2112  1.0370
 1365TIP3    H225659   4.111   5.282   8.258  0.7793 -0.8409  0.9620
 1366TIP3   OH225660   5.276   5.078   1.810 -0.5690  0.1235  0.4117
 1366TIP3    H125661   5.366   5.069   1.778 -0.6139  2.0655 -0.3646
 1366TIP3    H225662   5.237   4.992   1.794  0.8926 -0.4986 -0.0168
 1367TIP3   OH225663   1.307   6.064   7.087 -0.7996  0.7529 -0.0571
 1367TIP3    H125664   1.325   6.142   7.139  2.0039  0.1290  0.0737
 1367TIP3    H225665   1.262   6.005   7.147  0.5726  0.8206  1.0824
 1368TIP3   OH225666   1.247   6.749   7.929 -0.3975  0.1456  0.3447
 1368TIP3    H125667   1.194   6.772   8.005  0.2975 -0.3454  0.9849
 1368TIP3    H225668   1.322   6.808   7.933  0.0877 -0.4773  0.5409
 1369TIP3   OH225669   6.737   3.265   7.429  0.2973 -0.1785 -1.1346
 1369TIP3    H125670   6.689   3.325   7.486 -1.7117 -1.2684 -1.5529
 1369TIP3    H225671   6.743   3.184   7.480  1.1508 -0.2459 -1.3359
 1370TIP3   OH225672   3.942   0.788   6.927  0.1823 -0.3441  0.6265
 1370TIP3    H125673   3.927   0.729   6.854  0.9751 -0.6653  0.7158
 1370TIP3    H225674   3.975   0.869   6.887 -0.5675 -0.0793  0.5334
 1371TIP3   OH225675   4.389   2.763   1.711 -0.3800  0.0858 -0.0815
 1371TIP3    H125676   4.423   2.840   1.757 -2.3228  0.6332  0.5250
 1371TIP3    H225677   4.450   2.693   1.734  0.1297  0.9218  1.2743
 1372TIP3   OH225678   3.495   6.309   6.533  0.5862 -0.2294  0.2597
 1372TIP3    H125679   3.467   6.235   6.478  1.1564 -0.5927  0.4423
 1372TIP3    H225680   3.458   6.290   6.620  1.0264 -0.4884  0.3946
 1373TIP3   OH225681   4.451   0.860   1.738 -0.1537 -0.4587  0.1708
 1373TIP3    H125682   4.505   0.862   1.817 -0.2331 -2.3997  0.3326
 1373TIP3    H225683   4.377   0.803   1.761 -0.0278 -1.2888 -1.3753
 1374TIP3   OH225684   2.983   2.168   7.883  0.1367 -0.1402  0.1294
 1374TIP3    H125685   3.009   2.172   7.975 -1.0399 -0.4729  0.4994
 1374TIP3    H225686   3.028   2.242   7.842  1.8629 -0.8785  0.6389
 1375TIP3   OH225687   6.052   2.087   0.838 -0.0327 -0.2535 -0.0099
 1375TIP3    H125688   5.991   2.098   0.766  0.5528 -1.0855 -0.6481
 1375TIP3    H225689   6.040   2.165   0.892 -1.5180 -0.3120 -0.2105
 1376TIP3   OH225690   6.441   4.571   1.221  0.5702  0.0214  0.2701
 1376TIP3    H125691   6.413   4.480   1.222 -0.2153  0.0629 -3.7320
 1376TIP3    H225692   6.367   4.619   1.256 -0.5103 -0.6551 -1.0024
 1377TIP3   OH225693   1.149   0.198   1.727 -0.6521  0.1164  0.1338
 1377TIP3    H125694   1.237   0.167   1.750  0.3444  2.0442 -0.8263
 1377TIP3    H225695   1.090   0.131   1.763  1.2211 -1.7321 -0.0316
 1378TIP3   OH225696   6.298   5.434   6.372  0.0459  0.1284 -0.3032
 1378TIP3    H125697   6.235   5.398   6.309 -0.1707  2.7422 -1.7221
 1378TIP3    H225698   6.382   5.429   6.327  0.4869 -1.0205  0.5907
 1379TIP3   OH225699   0.511   6.459   6.868 -0.0047  0.1640  0.2037
 1379TIP3    H125700   0.466   6.427   6.790  2.6068 -0.8537 -0.9934
 1379TIP3    H225701   0.517   6.383   6.926 -0.4614  0.4947  0.6970
 1380TIP3   OH225702   5.905   0.192   0.951 -0.4310 -0.1799 -0.5192
 1380TIP3    H125703   5.894   0.285   0.970  4.0951 -0.0150  3.1772
 1380TIP3    H225704   5.841   0.148   1.007 -1.6687  0.5924 -1.2733
 1381TIP3   OH225705   0.702   2.163   6.566  0.3493 -0.1025 -0.3313
 1381TIP3    H125706   0.768   2.135   6.501 -0.9049 -1.5564 -1.0405
 1381TIP3    H225707   0.716   2.104   6.640  2.1078  1.8730  1.0429
 1382TIP3   OH225708   0.087   2.158   8.280 -0.1607 -0.2747  0.3040
 1382TIP3    H125709   0.111   2.242   8.319 -0.7489  0.8463 -1.6635
 1382TIP3    H225710   0.162   2.134   8.225 -0.9143  0.1314 -0.9378
 1383TIP3   OH225711   5.571   4.241   7.003 -0.0178 -0.1766  0.1153
 1383TIP3    H125712   5.568   4.191   7.084 -2.2301 -0.1420  0.1229
 1383TIP3    H225713   5.502   4.203   6.949  0.2487  0.9298 -1.0602
 1384TIP3   OH225714   4.729   1.503   7.777 -0.2904  0.2449 -0.0437
 1384TIP3    H125715   4.685   1.493   7.693 -0.0840  0.1667 -0.1428
 1384TIP3    H225716   4.744   1.414   7.808 -0.1450  0.2691 -0.0414
 1385TIP3   OH225717   4.461   4.161   7.790 -0.0266  0.0131  0.2635
 1385TIP3    H125718   4.366   4.161   7.794 -0.0164 -1.2447  0.8259
 1385TIP3    H225719   4.489   4.197   7.874  0.0020 -0.7040  0.5612
 1386TIP3   OH225720   3.682   5.507   0.634 -0.0819 -0.4607  0.6230
 1386TIP3    H125721   3.596   5.538   0.663  0.5738  0.6408  1.4932
 1386TIP3    H225722   3.677   5.510   0.538 -0.7753  0.2856  0.6657
 1387TIP3   OH225723   0.341   3.443   0.368  0.5572 -0.0832 -0.9041
 1387TIP3    H125724   0.407   3.375   0.353 -0.0949 -0.6328 -1.3969
 1387TIP3    H225725   0.386   3.525   0.350  1.4396 -0.3652 -0.0357
 1388TIP3   OH225726   0.057   6.318   8.311 -0.1327  0.1387  0.2157
 1388TIP3    H125727   0.139   6.295   8.356 -0.5345  0.1295  0.9500
 1388TIP3    H225728   0.027   6.236   8.273  0.4374  0.2315 -0.4617
 1389TIP3   OH225729   0.066   4.173   7.113 -0.0346  0.5944 -0.8219
 1389TIP3    H125730   0.125   4.142   7.182 -0.8070 -1.4505 -1.0164
 1389TIP3    H225731   0.056   4.266   7.131  1.5319  0.5564  0.4991
 1390TIP3   OH225732   3.548   2.034   0.863 -0.6628 -0.1990  0.0339
 1390TIP3    H125733   3.623   2.023   0.805 -0.4978 -0.5401  0.3095
 1390TIP3    H225734   3.585   2.038   0.950 -0.9121  0.3066  0.1231
 1391TIP3   OH225735   2.807   3.995   8.127 -0.2835 -0.4114  0.1223
 1391TIP3    H125736   2.809   4.054   8.051  0.3328  0.1636  0.5762
 1391TIP3    H225737   2.875   4.029   8.186 -0.9418 -0.6768  1.0597
 1392TIP3   OH225738   3.881   6.837   0.425  0.2020  0.3567  0.2362
 1392TIP3    H125739   3.811   6.772   0.429 -1.3708  1.9349 -0.0570
 1392TIP3    H225740   3.864   6.885   0.344  1.7788  0.6665  0.0490
 1393TIP3   OH225741   2.502   1.554   8.114 -0.0567  0.2101 -0.2148
 1393TIP3    H125742   2.578   1.579   8.167 -0.7360  0.9793  0.4393
 1393TIP3    H225743   2.480   1.634   8.066 -0.5132  0.0263 -0.3155
 1394TIP3   OH225744   2.170   6.702   7.523 -0.2553  0.0892  0.1402
 1394TIP3    H125745   2.082   6.665   7.531  0.4751 -1.7236  0.0430
 1394TIP3    H225746   2.194   6.727   7.612 -0.7702  0.3715  0.2014
 1395TIP3   OH225747   6.808   3.387   7.127 -0.0588 -0.0546 -0.2803
 1395TIP3    H125748   6.868   3.313   7.136 -0.0124 -0.0202 -0.3023
 1395TIP3    H225749   6.724   3.348   7.102 -0.0132 -0.0929 -0.3734
 1396TIP3   OH225750   6.435   0.447   1.668  0.0082 -0.1973  0.0615
 1396TIP3    H125751   6.488   0.393   1.609  0.3314 -2.0224  1.9302
 1396TIP3    H225752   6.378   0.385   1.713  0.0253  1.0728  1.9264
 1397TIP3   OH225753   5.565   7.013   1.841 -0.3890 -0.3334  0.0800
 1397TIP3    H125754   5.606   7.036   1.924  0.5733 -0.1801 -0.4246
 1397TIP3    H225755   5.474   7.043   1.850  0.0486  0.9075  0.5707
 1398TIP3   OH225756   5.186   4.165   1.050  0.5493 -0.1742 -0.1134
 1398TIP3    H125757   5.165   4.078   1.083 -3.1154  0.5185 -0.2204
 1398TIP3    H225758   5.153   4.225   1.118 -0.4093  1.1417 -1.6742
 1399TIP3   OH225759   4.490   6.954   6.657  0.2806  0.2005 -0.3253
 1399TIP3    H125760   4.427   6.917   6.719 -0.5118  1.4679 -0.3465
 1399TIP3    H225761   4.470   6.910   6.574 -0.0444  0.0250 -0.1561
 1400TIP3   OH225762   6.516   3.207   1.180  0.4445 -0.1290  0.4860
 1400TIP3    H125763   6.508   3.233   1.088 -0.9020  3.2732  1.4179
 1400TIP3    H225764   6.598   3.245   1.209 -0.2607  0.8529  1.2404
 1401TIP3   OH225765   5.414   5.637   6.536  0.7342  0.1276  0.6276
 1401TIP3    H125766   5.484   5.600   6.590  0.8490  0.1750  0.5090
 1401TIP3    H225767   5.352   5.564   6.524  1.8703 -0.5984 -1.1866
 1402TIP3   OH225768   6.519   4.214   7.012 -0.0818 -0.0398  0.2459
 1402TIP3    H125769   6.464   4.266   7.071 -1.1002  0.3010 -0.9513
 1402TIP3    H225770   6.576   4.279   6.971  0.9321 -0.3352  1.1498
 1403TIP3   OH225771   5.600   1.660   6.767  0.1151 -0.4091 -0.4149
 1403TIP3    H125772   5.640   1.684   6.851  0.9839 -3.1642  0.0669
 1403TIP3    H225773   5.506   1.661   6.784  0.2838 -1.2520  0.7297
 1404TIP3   OH225774   6.142   1.830   6.423 -0.6608 -0.1100 -0.5344
 1404TIP3    H125775   6.111   1.820   6.513 -3.6824  1.1957 -1.2968
 1404TIP3    H225776   6.192   1.912   6.424  3.4491 -2.3681  0.7691
 1405TIP3   OH225777   4.589   2.113   1.427 -0.2271 -0.3411  0.5024
 1405TIP3    H125778   4.519   2.175   1.443 -1.3609 -1.0090 -1.4642
 1405TIP3    H225779   4.555   2.055   1.359  2.7180  0.2094 -1.6660
 1406TIP3   OH225780   4.567   5.159   7.691 -0.2332 -0.1621  0.7333
 1406TIP3    H125781   4.510   5.094   7.731 -0.4606  0.6312  1.7471
 1406TIP3    H225782   4.537   5.165   7.601 -1.8511  0.3084  1.2641
 1407TIP3   OH225783   4.926   0.158   7.905  0.2184 -0.0190  0.2597
 1407TIP3    H125784   4.967   0.089   7.958 -0.9443 -0.7665  0.2108
 1407TIP3    H225785   4.900   0.225   7.968 -1.9096 -1.2732  0.8069
 1408TIP3   OH225786   2.516   6.082   1.231  0.0909  0.3917  0.1677
 1408TIP3    H125787   2.543   6.001   1.186 -3.5337  0.3960 -2.5070
 1408TIP3    H225788   2.500   6.144   1.160  0.6724  2.8311  2.0311
 1409TIP3   OH225789   2.716   0.620   6.630  0.1166 -0.0071  0.3797
 1409TIP3    H125790   2.734   0.675   6.554 -0.2752  0.6061  0.7233
 1409TIP3    H225791   2.623   0.596   6.621 -0.5244  1.7646  1.7121
 1410TIP3   OH225792   4.307   4.281   0.696 -0.3839 -0.6058 -0.0573
 1410TIP3    H125793   4.313   4.226   0.618 -2.7421 -1.3311  0.1772
 1410TIP3    H225794   4.334   4.223   0.768  1.1691 -0.1358 -0.2463
 1411TIP3   OH225795   0.123   3.261   0.371 -0.1326 -0.3017  0.6812
 1411TIP3    H125796   0.098   3.274   0.462 -0.3459 -0.4701  0.6463
 1411TIP3    H225797   0.199   3.317   0.359 -0.5649  0.3080  0.7532
 1412TIP3   OH225798   1.507   4.245   0.017 -0.6949  0.0732  0.6761
 1412TIP3    H125799   1.585   4.270   0.068  1.4504 -1.8036 -1.4268
 1412TIP3    H225800   1.487   4.156   0.046 -0.3979 -0.4295 -0.5966
 1413TIP3   OH225801   3.176   3.634   6.211 -0.0993  0.4445  0.2192
 1413TIP3    H125802   3.194   3.679   6.128 -1.1769  1.3739  0.4571
 1413TIP3    H225803   3.158   3.705   6.273 -2.8976 -0.2666  0.3809
 1414TIP3   OH225804   5.611   0.311   0.810  0.4751  0.3206  0.3249
 1414TIP3    H125805   5.656   0.227   0.813 -2.0862 -1.1260  2.2087
 1414TIP3    H225806   5.541   0.304   0.875 -2.3339  2.4430 -2.1522
 1415TIP3   OH225807   0.497   1.420   0.035 -0.1614 -0.2811 -0.6363
 1415TIP3    H125808   0.566   1.431   0.101 -0.9773 -0.3305  0.2574
 1415TIP3    H225809   0.533   1.358  -0.028 -0.0011 -1.6080  0.7133
 1416TIP3   OH225810   1.305   5.269   0.713 -0.0335 -0.5045 -0.0429
 1416TIP3    H125811   1.242   5.337   0.689  1.1932  0.5789 -0.3182
 1416TIP3    H225812   1.334   5.293   0.801 -0.6318 -1.4923  0.4369
 1417TIP3   OH225813   3.391   4.434   6.555 -0.3527 -0.3326 -0.3039
 1417TIP3    H125814   3.404   4.352   6.602 -0.9934  0.1174  0.7025
 1417TIP3    H225815   3.449   4.496   6.599 -0.5106 -0.0501 -0.4963
 1418TIP3   OH225816   4.036   6.778   1.190 -0.1249  0.1183 -0.1724
 1418TIP3    H125817   4.103   6.845   1.203  0.7201 -0.4450 -1.4220
 1418TIP3    H225818   3.954   6.819   1.219  0.6520  1.0550  0.7346
 1419TIP3   OH225819   1.486   6.711   1.313 -0.0824  0.0756 -0.5884
 1419TIP3    H125820   1.488   6.656   1.235  0.1683 -0.5783 -0.1233
 1419TIP3    H225821   1.561   6.771   1.302  0.3676 -0.4710 -0.5208
 1420TIP3   OH225822   0.527   0.143   0.025 -0.5154  0.0239  0.4327
 1420TIP3    H125823   0.439   0.108   0.038 -1.4479  1.5876 -1.2517
 1420TIP3    H225824   0.517   0.238   0.038  0.6482  0.3765 -1.0213
 1421TIP3   OH225825   5.853   5.250   8.330  0.0475  0.1658 -0.2405
 1421TIP3    H125826   5.947   5.239   8.320  0.5593  3.1864  0.3630
 1421TIP3    H225827   5.816   5.221   8.246  1.5356 -0.5237 -0.6822
 1422TIP3   OH225828   4.557   5.063   0.208 -0.2547 -0.5326  0.1130
 1422TIP3    H125829   4.549   4.999   0.138  0.0129  0.5632 -0.9674
 1422TIP3    H225830   4.649   5.058   0.236 -0.5300 -1.4747  0.9251
 1423TIP3   OH225831   5.144   5.299   6.870  0.2007 -0.3981 -0.4981
 1423TIP3    H125832   5.182   5.386   6.874 -1.0074  0.1196  0.3138
 1423TIP3    H225833   5.219   5.240   6.862  0.9840  0.7461 -1.8863
 1424TIP3   OH225834   0.529   2.149   2.409 -0.0067  0.6801 -0.9713
 1424TIP3    H125835   0.446   2.182   2.374 -0.0530  0.2650 -1.2597
 1424TIP3    H225836   0.504   2.080   2.470  0.1259  0.6115 -0.9947
 1425TIP3   OH225837   3.496   1.120   6.505  0.8276  0.4315  0.1146
 1425TIP3    H125838   3.547   1.188   6.461  0.0332  0.2150 -1.2203
 1425TIP3    H225839   3.414   1.164   6.529  0.9997  0.3780  0.8042
 1426TIP3   OH225840   4.116   2.417   0.161  0.3194  0.3978  0.4127
 1426TIP3    H125841   4.044   2.441   0.219 -0.3100 -0.0148 -0.1884
 1426TIP3    H225842   4.107   2.475   0.086  0.6447  0.3728  0.3520
 1427TIP3   OH225843   2.670   5.608   0.671  0.7909 -0.2660  0.3526
 1427TIP3    H125844   2.757   5.569   0.674  1.9371  1.7840 -2.1525
 1427TIP3    H225845   2.671   5.675   0.740  0.9915 -0.6302  0.7044
 1428TIP3   OH225846   5.508   0.042   1.018  0.4701 -0.1062  0.4263
 1428TIP3    H125847   5.574   0.024   0.950  1.2072 -1.0067  1.3387
 1428TIP3    H225848   5.425   0.014   0.979  1.0136 -1.5303  0.2154
 1429TIP3   OH225849   6.331   5.292   7.389 -0.3889  0.1025 -0.5363
 1429TIP3    H125850   6.347   5.382   7.416  0.3592  0.4248 -1.9675
 1429TIP3    H225851   6.248   5.296   7.341 -1.2784 -0.3208  0.8862
 1430TIP3   OH225852   1.568   3.711   7.997  0.0401 -0.2500 -0.0471
 1430TIP3    H125853   1.510   3.645   7.958  0.4946 -1.5130  1.3320
 1430TIP3    H225854   1.516   3.748   8.069  0.6047 -0.7586  0.6325
 1431TIP3   OH225855   1.616   1.142   0.954 -0.3318 -0.4455  0.2381
 1431TIP3    H125856   1.522   1.127   0.958 -0.5971  0.9323 -0.1513
 1431TIP3    H225857   1.639   1.175   1.041 -0.5527  0.8399 -0.1609
 1432TIP3   OH225858   6.084   2.666   6.628  0.0506 -0.7917 -0.1725
 1432TIP3    H125859   6.163   2.650   6.576  1.6867  0.5315  1.7558
 1432TIP3    H225860   6.103   2.627   6.713 -2.2682 -2.2916 -0.2712
 1433TIP3   OH225861   0.566   3.131   1.338  0.2595  0.5312  0.5327
 1433TIP3    H125862   0.595   3.062   1.278  1.1364  0.3070  1.1913
 1433TIP3    H225863   0.617   3.208   1.313  0.2373  0.5821  0.6428
 1434TIP3   OH225864   2.107   5.908   1.586  0.2992 -0.1524  0.3204
 1434TIP3    H125865   2.089   5.991   1.542  1.4982 -0.1437 -0.2146
 1434TIP3    H225866   2.198   5.888   1.563 -0.1278 -1.9040 -0.0246
 1435TIP3   OH225867   4.881   6.472   0.489 -0.0237  0.2609 -0.1285
 1435TIP3    H125868   4.958   6.440   0.442  0.0956  0.1208  0.1575
 1435TIP3    H225869   4.839   6.392   0.523  0.0889  0.3825  0.3042
 1436TIP3   OH225870   4.167   4.732   7.065  0.9474 -0.1838  0.1793
 1436TIP3    H125871   4.187   4.802   7.127  0.9209  0.3791 -0.4412
 1436TIP3    H225872   4.252   4.697   7.040  1.0003  0.1135 -0.0621
 1437TIP3   OH225873   5.560   6.533   6.293  0.0787  0.9462  0.0682
 1437TIP3    H125874   5.521   6.548   6.379 -0.4297  1.9704 -0.3278
 1437TIP3    H225875   5.504   6.467   6.253  0.8174 -0.1763  0.8329
 1438TIP3   OH225876   2.241   6.311   0.237 -0.5412  0.9457  0.6386
 1438TIP3    H125877   2.306   6.334   0.304 -0.4619  1.9057  0.2491
 1438TIP3    H225878   2.287   6.249   0.181 -0.6168  0.1095  1.4766
 1439TIP3   OH225879   2.832   2.643   6.586 -0.0016  0.0282  0.2181
 1439TIP3    H125880   2.865   2.677   6.670  1.3064  0.2547 -0.3629
 1439TIP3    H225881   2.783   2.564   6.610 -1.9019  1.4541  1.4599
 1440TIP3   OH225882   0.424   3.303   7.399  0.0028  0.5954 -0.0122
 1440TIP3    H125883   0.484   3.294   7.326 -2.4796 -0.2201 -2.1254
 1440TIP3    H225884   0.428   3.219   7.445  2.0618  1.3423  1.3073
 1441TIP3   OH225885   1.943   0.628   7.117  0.0079 -0.2038 -0.4904
 1441TIP3    H125886   1.884   0.655   7.046  0.9335  1.3145 -0.7378
 1441TIP3    H225887   2.028   0.664   7.092  0.8227 -1.4351  0.3846
 1442TIP3   OH225888   2.009   1.368   0.642 -0.0572 -0.1042  0.1664
 1442TIP3    H125889   2.056   1.447   0.617 -0.5190 -0.4566 -1.9589
 1442TIP3    H225890   1.930   1.368   0.588 -0.9027 -1.1854  1.3203
 1443TIP3   OH225891   2.977   4.003   7.269  0.2076  0.1602  0.1201
 1443TIP3    H125892   2.904   4.027   7.212  2.0646  1.9256 -1.6852
 1443TIP3    H225893   2.936   3.976   7.351 -2.4636  0.4023 -1.0480
 1444TIP3   OH225894   6.670   3.848   6.966 -0.7482 -0.0271 -0.5622
 1444TIP3    H125895   6.736   3.917   6.957 -0.1940 -0.5046 -0.2723
 1444TIP3    H225896   6.716   3.778   7.013 -0.6661 -1.3799 -2.5294
 1445TIP3   OH225897   6.670   1.619   0.800  0.3350  0.2803 -0.1780
 1445TIP3    H125898   6.578   1.602   0.778  0.0090 -0.5061  1.5864
 1445TIP3    H225899   6.681   1.713   0.789 -0.1699  0.1473 -2.1184
 1446TIP3   OH225900   3.453   3.341   1.405  0.2995  0.1431  0.5654
 1446TIP3    H125901   3.482   3.430   1.427  3.6633 -0.9758  1.3449
 1446TIP3    H225902   3.498   3.285   1.469 -2.2294 -2.1141  0.5140
 1447TIP3   OH225903   3.598   3.168   7.907 -0.4051  0.5516  0.6200
 1447TIP3    H125904   3.654   3.218   7.966  0.5639  0.0066  0.1815
 1447TIP3    H225905   3.523   3.143   7.961  0.0932  0.7144  1.4027
 1448TIP3   OH225906   4.601   0.148   0.940 -0.5262 -0.6205  0.8147
 1448TIP3    H125907   4.513   0.112   0.926 -1.0596  0.3996  1.4397
 1448TIP3    H225908   4.597   0.186   1.027  0.6926 -0.9698  1.0403
 1449TIP3   OH225909   4.261   3.111   0.878 -0.2422 -0.0917 -0.0594
 1449TIP3    H125910   4.284   3.204   0.870  1.0005 -0.4525 -1.0702
 1449TIP3    H225911   4.172   3.105   0.846  0.4250  0.4405 -2.1329
 1450TIP3   OH225912   3.324   0.095   7.201 -0.5873 -0.4363  0.0412
 1450TIP3    H125913   3.363   0.126   7.283  0.6341 -1.0267 -0.2942
 1450TIP3    H225914   3.289   0.009   7.224 -1.3350 -0.0894  0.2330
 1451TIP3   OH225915   4.738   6.167   2.019 -0.1886 -0.3124  0.1868
 1451TIP3    H125916   4.675   6.104   1.982 -0.4979  0.8310 -1.3348
 1451TIP3    H225917   4.684   6.225   2.073 -0.5979  0.9614 -1.4974
 1452TIP3   OH225918   6.968   4.501   6.875  0.0266 -0.6281  0.0664
 1452TIP3    H125919   6.897   4.489   6.937  1.2870  1.3097  2.0353
 1452TIP3    H225920   6.925   4.521   6.792 -1.7059 -0.4525  0.9639
 1453TIP3   OH225921   5.031   3.377   7.560 -0.3721  0.3716 -0.2062
 1453TIP3    H125922   5.001   3.312   7.623 -0.1686  0.2248 -0.2618
 1453TIP3    H225923   5.089   3.329   7.502  0.7266  0.8647  0.4611
 1454TIP3   OH225924   0.658   6.873   7.214  0.3161 -0.1952 -0.3610
 1454TIP3    H125925   0.664   6.879   7.119  0.5448 -0.8772 -0.3967
 1454TIP3    H225926   0.694   6.786   7.235 -0.3219 -0.3109  0.2904
 1455TIP3   OH225927   2.631   2.653   0.390 -0.2972 -0.0836 -0.2298
 1455TIP3    H125928   2.707   2.616   0.434 -1.1355 -1.7158 -0.0916
 1455TIP3    H225929   2.593   2.713   0.455  0.0602 -0.3218  0.2082
 1456TIP3   OH225930   0.813   0.582   8.071 -0.5102  0.0493 -0.4012
 1456TIP3    H125931   0.751   0.641   8.029  1.4416  2.6566  0.0898
 1456TIP3    H225932   0.829   0.513   8.006 -4.1116 -0.9906 -0.3550
 1457TIP3   OH225933   4.678   0.732   6.267 -0.7559  0.6230 -0.3404
 1457TIP3    H125934   4.643   0.665   6.208 -0.4434  0.9260 -0.8843
 1457TIP3    H225935   4.673   0.693   6.354 -0.9805  0.0605 -0.6019
 1458TIP3   OH225936   4.844   2.625   6.940 -0.9131  0.3223 -0.5017
 1458TIP3    H125937   4.858   2.681   7.017  0.7904 -0.4952 -0.1540
 1458TIP3    H225938   4.930   2.620   6.899 -0.8274 -2.5149 -0.1579
 1459TIP3   OH225939   6.673   6.621   7.710 -0.1462 -0.0644  0.1829
 1459TIP3    H125940   6.661   6.716   7.713 -0.4067  0.0032 -1.5037
 1459TIP3    H225941   6.685   6.594   7.801  2.1795  1.8608  0.5463
 1460TIP3   OH225942   3.675   2.386   6.228  0.1820  0.6840  0.1464
 1460TIP3    H125943   3.610   2.424   6.169  2.4269  0.0441 -3.0066
 1460TIP3    H225944   3.656   2.292   6.228  0.3425  0.6516  0.2326
 1461TIP3   OH225945   4.565   1.870   0.584  0.1620  0.1218 -0.5275
 1461TIP3    H125946   4.519   1.875   0.500 -2.3233  0.9280  0.7938
 1461TIP3    H225947   4.569   1.776   0.603 -1.0798  0.0210 -0.6449
 1462TIP3   OH225948   2.740   0.430   6.372 -0.3093  0.4167 -0.4407
 1462TIP3    H125949   2.787   0.394   6.448  0.1080  0.7423 -0.5394
 1462TIP3    H225950   2.657   0.383   6.371  0.5918 -1.2050 -1.1207
 1463TIP3   OH225951   2.859   1.742   7.774  0.0231  0.3971  0.3109
 1463TIP3    H125952   2.916   1.720   7.848 -0.4524 -1.8061  0.0884
 1463TIP3    H225953   2.807   1.663   7.760 -0.5833  1.1113 -1.7695
 1464TIP3   OH225954   3.648   5.922   8.035  0.1263 -0.5156 -0.1777
 1464TIP3    H125955   3.652   5.844   8.091  0.8594 -0.8547 -0.6818
 1464TIP3    H225956   3.620   5.992   8.093 -1.4264 -1.3249  0.0998
 1465TIP3   OH225957   2.438   1.388   1.122  0.3575 -0.2892 -0.3296
 1465TIP3    H125958   2.354   1.408   1.080  0.5158 -0.6833 -0.8384
 1465TIP3    H225959   2.415   1.350   1.207  0.0347  0.5363 -0.0406
 1466TIP3   OH225960   6.558   6.715   5.920 -0.0532  0.3654  0.2208
 1466TIP3    H125961   6.640   6.678   5.951 -0.2529  0.8414  1.3748
 1466TIP3    H225962   6.496   6.700   5.991 -1.3571 -1.1912 -1.1407
 1467TIP3   OH225963   2.961   3.500   1.689 -0.6423  0.4924  0.6620
 1467TIP3    H125964   2.977   3.532   1.600  1.5515 -0.3978  0.6613
 1467TIP3    H225965   2.980   3.576   1.745 -0.7210  0.6852  0.4277
 1468TIP3   OH225966   3.162   5.580   0.680 -0.2275 -0.5451 -0.6996
 1468TIP3    H125967   3.075   5.542   0.687  1.0031 -3.3393  1.3716
 1468TIP3    H225968   3.209   5.521   0.621  0.3262  0.9979 -1.9025
 1469TIP3   OH225969   2.671   4.498   0.464 -0.4208  0.3301 -0.2831
 1469TIP3    H125970   2.650   4.473   0.554 -1.5927 -0.6623 -0.8033
 1469TIP3    H225971   2.707   4.587   0.472  0.7803 -0.2577  1.2834
 1470TIP3   OH225972   5.375   3.707   7.157  0.5777 -0.4855  0.1505
 1470TIP3    H125973   5.379   3.705   7.252  0.4473 -1.2935  0.1503
 1470TIP3    H225974   5.331   3.789   7.136  0.8994 -0.1483  0.7722
 1471TIP3   OH225975   1.504   5.100   6.578 -0.1346  0.7568  0.4456
 1471TIP3    H125976   1.481   5.183   6.619 -0.8646  0.7098  0.1474
 1471TIP3    H225977   1.550   5.124   6.498  0.6051  0.8575  0.8985
 1472TIP3   OH225978   2.814   3.758   0.848  0.3637  0.7052 -0.1577
 1472TIP3    H125979   2.877   3.751   0.776 -0.0360 -0.7382 -0.3975
 1472TIP3    H225980   2.729   3.769   0.805  0.1588  0.1388  0.0932
 1473TIP3   OH225981   2.670   4.143   7.205  0.9015  0.5624 -0.8464
 1473TIP3    H125982   2.661   4.050   7.186  1.4398  0.2131  0.4666
 1473TIP3    H225983   2.619   4.187   7.137 -1.6404 -0.8106  0.0083
 1474TIP3   OH225984   3.582   1.315   6.342 -0.1760  0.0189  0.1106
 1474TIP3    H125985   3.655   1.349   6.290 -1.4125  0.5341 -1.3593
 1474TIP3    H225986   3.565   1.384   6.406  3.0609 -1.6742  3.2085
 1475TIP3   OH225987   1.249   1.706   1.363 -0.3154  0.1784 -0.0523
 1475TIP3    H125988   1.259   1.751   1.279  0.8487 -1.8345 -1.0759
 1475TIP3    H225989   1.320   1.741   1.417 -0.5924  0.9180 -0.1463
 1476TIP3   OH225990   1.869   0.514   0.373  0.0665 -0.0427 -0.3492
 1476TIP3    H125991   1.946   0.458   0.386 -1.4603 -1.9104  1.2397
 1476TIP3    H225992   1.820   0.472   0.303 -1.5354 -1.3647  1.4455
 1477TIP3   OH225993   4.611   0.516   0.135 -0.6175 -0.5258  0.7373
 1477TIP3    H125994   4.668   0.451   0.175  0.2994 -0.6780 -0.7636
 1477TIP3    H225995   4.650   0.600   0.158  0.3043 -0.6332 -0.3834
 1478TIP3   OH225996   2.319   6.977   7.843 -0.0021 -0.0584 -0.6096
 1478TIP3    H125997   2.246   7.026   7.806  1.4389  0.9203 -2.3370
 1478TIP3    H225998   2.317   6.999   7.936 -0.9731  1.2249 -0.8956
 1479TIP3   OH225999   0.140   2.546   7.095  0.1177 -0.4511  0.1200
 1479TIP3    H126000   0.147   2.518   7.003 -0.1401 -1.4247  0.3849
 1479TIP3    H226001   0.094   2.474   7.138  0.4530 -0.1076  1.0656
 1480TIP3   OH226002   5.263   3.867   2.004 -0.3188 -0.4840 -0.2069
 1480TIP3    H126003   5.318   3.934   2.044 -0.4622 -0.6517  0.2699
 1480TIP3    H226004   5.323   3.794   1.986 -0.0826 -0.0999 -1.0700
 1481TIP3   OH226005   6.542   0.300   1.484  0.2043  0.0981  0.0111
 1481TIP3    H126006   6.589   0.218   1.500  0.6451  0.3403 -0.0253
 1481TIP3    H226007   6.478   0.278   1.416  1.1029  0.0509 -0.8426
 1482TIP3   OH226008   5.203   3.186   1.522 -0.0213 -0.5089 -0.7203
 1482TIP3    H126009   5.119   3.225   1.500  0.4364  0.7032 -0.4429
 1482TIP3    H226010   5.263   3.261   1.528  0.6993 -1.1542  0.7852
 1483TIP3   OH226011   5.853   3.211   0.238 -0.0215  0.1203 -0.0316
 1483TIP3    H126012   5.807   3.272   0.181 -1.3141 -1.1673 -0.4272
 1483TIP3    H226013   5.806   3.215   0.321  0.3090  0.1505  0.1564
 1484TIP3   OH226014   1.984   3.374   2.502 -0.2366  0.1288 -0.0454
 1484TIP3    H126015   2.076   3.382   2.474 -0.1360  1.1234  0.5004
 1484TIP3    H226016   1.963   3.282   2.489  0.9595 -0.2026  0.1550
 1485TIP3   OH226017   6.666   2.319   1.227 -0.0069 -0.1977 -0.5944
 1485TIP3    H126018   6.607   2.260   1.275  0.2831  2.0273  2.8629
 1485TIP3    H226019   6.744   2.266   1.210 -0.4842 -1.3859  0.6814
 1486TIP3   OH226020   0.330   3.371   6.122  0.1816 -0.3496  0.5361
 1486TIP3    H126021   0.398   3.436   6.141  1.1840 -1.3402  0.4509
 1486TIP3    H226022   0.377   3.288   6.120 -1.2562 -1.2382  1.8294
 1487TIP3   OH226023   6.576   3.818   7.510  0.3950 -0.2155 -0.4676
 1487TIP3    H126024   6.662   3.856   7.532 -0.4301  1.0351  0.7836
 1487TIP3    H226025   6.527   3.822   7.592 -0.8306 -1.0231 -1.1375
 1488TIP3   OH226026   0.362   3.342   1.892  0.0538 -0.1141  0.2848
 1488TIP3    H126027   0.297   3.298   1.946  0.1024 -1.8378 -0.9515
 1488TIP3    H226028   0.347   3.435   1.905 -0.6956 -0.4843  2.3002
 1489TIP3   OH226029   4.534   5.918   6.719 -0.4544 -0.6630  0.9944
 1489TIP3    H126030   4.522   5.914   6.624  0.9247 -0.6561  0.7893
 1489TIP3    H226031   4.471   5.983   6.749 -1.0284 -0.7948  0.1151
 1490TIP3   OH226032   2.455   4.015   2.038 -0.7619 -0.3088  0.2412
 1490TIP3    H126033   2.478   4.028   2.130 -1.2425 -0.2421  0.3550
 1490TIP3    H226034   2.393   4.085   2.019 -2.4104 -1.6472  0.4949
 1491TIP3   OH226035   0.461   4.882   1.815  0.1848  0.0152 -0.2906
 1491TIP3    H126036   0.406   4.914   1.744 -0.1077  0.3320  0.0723
 1491TIP3    H226037   0.486   4.793   1.789  1.3394  0.6588 -1.5104
 1492TIP3   OH226038   0.178   6.558   6.903 -0.0647 -0.4852  0.3834
 1492TIP3    H126039   0.163   6.561   6.808 -0.2340  0.2584  0.4265
 1492TIP3    H226040   0.272   6.578   6.912 -0.2245  0.3148  0.4077
 1493TIP3   OH226041   6.473   4.068   1.500 -0.3832 -0.1213  0.4385
 1493TIP3    H126042   6.425   4.096   1.578  0.0998  1.3999  0.2235
 1493TIP3    H226043   6.427   3.989   1.471 -0.2297 -1.0712  2.5652
 1494TIP3   OH226044   0.455   3.875   6.691 -0.2319  0.4497  0.1094
 1494TIP3    H126045   0.452   3.813   6.618 -1.2097  0.1423  0.3908
 1494TIP3    H226046   0.403   3.833   6.760  1.2421  0.4061  1.2507
 1495TIP3   OH226047   5.102   0.086   1.066 -0.3492  0.1209 -0.2831
 1495TIP3    H126048   5.075   0.004   1.024 -0.7823 -0.0856  0.3745
 1495TIP3    H226049   5.197   0.077   1.078 -0.2804  0.0273 -0.8705
 1496TIP3   OH226050   5.077   3.504   8.279 -0.2678 -0.0360  0.6734
 1496TIP3    H126051   5.165   3.501   8.317 -0.0100 -0.2226  0.0840
 1496TIP3    H226052   5.036   3.580   8.320  0.7308  1.0198 -0.1773
 1497TIP3   OH226053   2.332   3.898   7.888  0.3061  0.7875  0.1750
 1497TIP3    H126054   2.418   3.856   7.888  0.1576  0.3871 -1.8920
 1497TIP3    H226055   2.351   3.992   7.892  0.7812  0.6720  0.7849
 1498TIP3   OH226056   4.354   3.869   8.224  0.0416 -0.1468 -0.8054
 1498TIP3    H126057   4.293   3.914   8.166 -0.9395 -0.1283  0.2023
 1498TIP3    H226058   4.300   3.803   8.268  0.5446  0.4131  0.7064
 1499TIP3   OH226059   3.023   1.174   0.364  0.2627 -0.5254 -0.4529
 1499TIP3    H126060   3.088   1.223   0.314 -0.4324  0.4798 -0.3908
 1499TIP3    H226061   2.939   1.211   0.337 -0.3247 -1.9381 -0.6836
 1500TIP3   OH226062   5.217   6.187   1.132  0.7590  0.3408 -0.3468
 1500TIP3    H126063   5.122   6.176   1.142  0.4838  2.4968 -0.0228
 1500TIP3    H226064   5.242   6.246   1.203  2.2700  0.1481 -0.6888
 1501TIP3   OH226065   5.204   5.924   0.825 -0.6489  0.1637  0.3047
 1501TIP3    H126066   5.263   5.961   0.891  0.5913 -0.6542 -0.2956
 1501TIP3    H226067   5.166   6.000   0.781  0.3927  0.7378  0.3577
 1502TIP3   OH226068   6.815   0.298   7.234  0.0149 -0.2699  0.6397
 1502TIP3    H126069   6.758   0.246   7.177  0.5405 -0.5712  0.3803
 1502TIP3    H226070   6.762   0.373   7.260 -0.8957 -1.1227  1.3261
 1503TIP3   OH226071   6.183   4.800   0.306  0.1885  0.7501  0.0198
 1503TIP3    H126072   6.094   4.824   0.279 -0.7809 -0.5599  1.7946
 1503TIP3    H226073   6.185   4.815   0.401  0.8259 -1.9818  0.5431
 1504TIP3   OH226074   4.695   5.324   6.753  0.3965 -0.0577  0.0722
 1504TIP3    H126075   4.709   5.292   6.842  1.1706  2.0529  0.7603
 1504TIP3    H226076   4.784   5.337   6.718  0.1004 -0.2829 -0.7982
 1505TIP3   OH226077   4.059   5.351   5.869 -0.0959 -0.2086  0.1569
 1505TIP3    H126078   4.088   5.438   5.839 -0.6273 -0.3033 -0.6773
 1505TIP3    H226079   3.966   5.362   5.888 -0.1872 -0.6158 -0.0438
 1506TIP3   OH226080   6.785   0.261   7.627  0.1676  0.1304 -0.3357
 1506TIP3    H126081   6.707   0.271   7.573 -0.4908  1.9444  0.8642
 1506TIP3    H226082   6.755   0.215   7.705  0.7885 -1.0888 -0.7882
 1507TIP3   OH226083   5.255   1.193   6.855 -0.1203  0.7873 -0.7452
 1507TIP3    H126084   5.264   1.098   6.853  3.0476  0.9052  0.9414
 1507TIP3    H226085   5.287   1.222   6.770  0.2920  0.3724 -0.7347
 1508TIP3   OH226086   2.735   3.761   1.453 -0.0422 -0.0775  0.7869
 1508TIP3    H126087   2.770   3.848   1.474  0.4028 -0.1849  0.5239
 1508TIP3    H226088   2.813   3.707   1.441 -0.2322  0.0516 -1.4065
 1509TIP3   OH226089   5.254   3.454   1.445  0.3894 -0.2680  0.0938
 1509TIP3    H126090   5.183   3.464   1.382 -0.8517 -2.3275  1.0726
 1509TIP3    H226091   5.325   3.509   1.410 -1.7248  2.1199 -0.7535
 1510TIP3   OH226092   0.366   3.287   0.964 -0.3568  0.2348  0.3887
 1510TIP3    H126093   0.450   3.296   1.010 -0.6797 -0.5230  1.1580
 1510TIP3    H226094   0.331   3.203   0.994 -1.3715  0.5157  0.0451
 1511TIP3   OH226095   3.746   2.781   7.451 -0.2249 -0.1195  0.9333
 1511TIP3    H126096   3.762   2.784   7.357 -0.0131 -0.3557  0.9623
 1511TIP3    H226097   3.683   2.851   7.467  0.6251  0.6963  0.7868
 1512TIP3   OH226098   5.212   4.558   8.366 -0.1054 -0.2354 -0.5734
 1512TIP3    H126099   5.236   4.598   8.282  0.1805 -2.3475 -1.5548
 1512TIP3    H226100   5.295   4.527   8.402 -0.3029  0.1596  0.2343
 1513TIP3   OH226101   0.665   5.108   6.171  0.4762  0.3179 -0.0950
 1513TIP3    H126102   0.654   5.058   6.091 -1.4983 -0.0334  0.3475
 1513TIP3    H226103   0.638   5.197   6.148 -0.8009  0.0599  0.3226
 1514TIP3   OH226104   2.879   2.528   6.330  0.5240 -0.5575 -0.2779
 1514TIP3    H126105   2.850   2.589   6.399  0.4306 -0.2414 -0.5944
 1514TIP3    H226106   2.828   2.554   6.253 -0.1695 -1.6036 -0.1922
 1515TIP3   OH226107   2.907   0.492   0.254  0.6846 -0.0241  0.6770
 1515TIP3    H126108   2.823   0.508   0.295 -0.4062 -1.2643 -0.9618
 1515TIP3    H226109   2.963   0.564   0.284 -0.9475  0.8310  1.7774
 1516TIP3   OH226110   4.111   5.031   6.447  0.5567  0.4443 -0.2496
 1516TIP3    H126111   4.087   4.952   6.399 -1.3552 -0.1947  1.5605
 1516TIP3    H226112   4.139   5.093   6.380 -1.6750 -0.4588 -2.1447
 1517TIP3   OH226113   0.656   0.896   7.001 -0.1795  0.4793 -0.0987
 1517TIP3    H126114   0.634   0.861   6.915  1.6296 -2.6312  0.5290
 1517TIP3    H226115   0.709   0.974   6.983  0.8277 -0.5486 -1.8802
 1518TIP3   OH226116   6.076   4.377   1.947 -0.6664 -0.1636  0.8176
 1518TIP3    H126117   6.045   4.350   2.033  0.9843 -0.5533  1.3260
 1518TIP3    H226118   6.168   4.401   1.960 -0.2488 -0.6459 -0.9038
 1519TIP3   OH226119   1.100   5.996   0.471 -0.0193  0.1166  0.5675
 1519TIP3    H126120   1.117   6.009   0.564 -0.0860 -0.1657  0.6181
 1519TIP3    H226121   1.173   6.041   0.427  0.1780 -0.0142  0.7602
 1520TIP3   OH226122   4.693   6.696   6.585 -0.0141  0.0518 -0.0245
 1520TIP3    H126123   4.620   6.694   6.523  0.4797 -2.1278 -0.6170
 1520TIP3    H226124   4.742   6.616   6.568  1.3154  0.3925  1.8191
 1521TIP3   OH226125   5.572   2.348   6.738 -0.1353  0.1385  0.2209
 1521TIP3    H126126   5.586   2.276   6.800 -1.6617 -0.5965 -0.2434
 1521TIP3    H226127   5.655   2.354   6.690  0.9925  0.5762  2.1441
 1522TIP3   OH226128   0.269   5.317   0.509 -0.0021 -0.1748  0.4554
 1522TIP3    H126129   0.193   5.263   0.490 -0.4030 -0.1944  1.9474
 1522TIP3    H226130   0.247   5.361   0.591  1.1423  0.6842  0.3294
 1523TIP3   OH226131   4.987   6.793   6.424 -0.1914 -0.1815  0.2346
 1523TIP3    H126132   5.009   6.747   6.343  1.9546  1.2453 -0.0877
 1523TIP3    H226133   5.036   6.747   6.492  0.1965  0.2771  0.2671
 1524TIP3   OH226134   2.260   2.308   7.541 -0.1979 -0.1998  0.0464
 1524TIP3    H126135   2.185   2.251   7.523 -0.1214 -0.2724 -0.0361
 1524TIP3    H226136   2.220   2.389   7.575 -0.3157 -0.2199 -0.0444
 1525TIP3   OH226137   5.374   2.426   1.409 -0.0604  0.1284  0.0016
 1525TIP3    H126138   5.407   2.503   1.363  0.3589  1.0736  1.8126
 1525TIP3    H226139   5.284   2.448   1.432 -0.3999 -0.5021 -0.6780
 1526TIP3   OH226140   4.429   2.187   0.466 -0.1287 -0.2963  1.1384
 1526TIP3    H126141   4.442   2.245   0.542 -1.4622  1.3707  0.1711
 1526TIP3    H226142   4.360   2.127   0.494 -0.8430  0.5147  1.1655
 1527TIP3   OH226143   4.133   6.206   7.887 -0.1627  0.0636  0.0798
 1527TIP3    H126144   4.220   6.186   7.923 -0.4825  0.9215  1.4071
 1527TIP3    H226145   4.152   6.250   7.804  0.6366 -0.8793 -0.2513
 1528TIP3   OH226146   4.925   2.368   0.277  0.4214  0.5990 -0.0089
 1528TIP3    H126147   4.880   2.387   0.359 -1.6531 -0.2455 -0.8708
 1528TIP3    H226148   4.990   2.302   0.299  0.6163  1.1569  1.1295
 1529TIP3   OH226149   3.943   5.696   8.314 -0.1073  0.4122 -0.4412
 1529TIP3    H126150   3.993   5.712   8.234  0.5409 -1.8880 -0.5699
 1529TIP3    H226151   4.010   5.677   8.380 -0.6911  0.9945  0.3418
 1530TIP3   OH226152   0.609   6.758   6.550  0.6695  0.3867 -0.3009
 1530TIP3    H126153   0.596   6.821   6.479  2.4526  0.8635 -0.2676
 1530TIP3    H226154   0.589   6.807   6.630  0.1333  0.3097 -0.3878
 1531TIP3   OH226155   4.309   4.704   7.688 -0.7580  0.0712 -0.4619
 1531TIP3    H126156   4.292   4.665   7.773  0.5535 -0.5838 -0.4834
 1531TIP3    H226157   4.257   4.785   7.688 -0.0268  0.5956  1.3581
 1532TIP3   OH226158   2.230   4.062   1.658 -0.1130 -0.3881 -0.2503
 1532TIP3    H126159   2.183   3.984   1.685 -0.9167 -1.0648 -3.2527
 1532TIP3    H226160   2.162   4.121   1.624  0.5761  1.2730  1.0985
 1533TIP3   OH226161   4.112   5.324   1.473 -0.4119  0.3965 -0.2664
 1533TIP3    H126162   4.114   5.271   1.553 -3.2407 -0.6311 -0.7639
 1533TIP3    H226163   4.023   5.313   1.439  0.5152  1.2393 -3.2710
 1534TIP3   OH226164   3.606   1.820   8.048  0.4907  0.0922  0.5389
 1534TIP3    H126165   3.537   1.855   8.105  0.7307 -1.3025  1.7673
 1534TIP3    H226166   3.590   1.726   8.046  2.2489 -0.2583  0.7432
 1535TIP3   OH226167   3.766   5.412   7.866 -0.1154 -0.1336  0.3480
 1535TIP3    H126168   3.762   5.453   7.780  0.3041 -0.3056  0.2416
 1535TIP3    H226169   3.676   5.383   7.884 -0.3480  0.5454  0.2879
 1536TIP3   OH226170   6.119   4.164   0.097 -0.7167  0.1620 -0.4170
 1536TIP3    H126171   6.140   4.086   0.149  1.9860  0.0571 -1.5113
 1536TIP3    H226172   6.159   4.236   0.146 -1.0593  0.5344 -0.6806
 1537TIP3   OH226173   5.831   6.176   0.558  0.0875 -0.2859 -0.8004
 1537TIP3    H126174   5.877   6.218   0.486 -0.6495 -0.9627 -1.6866
 1537TIP3    H226175   5.899   6.158   0.623  0.5910  1.2323 -0.8830
 1538TIP3   OH226176   3.741   1.925   6.349 -0.3878  0.1514 -0.0499
 1538TIP3    H126177   3.695   1.842   6.360 -1.0175  0.5251  0.1874
 1538TIP3    H226178   3.733   1.969   6.434  0.8205  0.0306  0.1508
 1539TIP3   OH226179   6.081   1.072   2.109 -0.0261 -0.5624 -0.0265
 1539TIP3    H126180   6.105   0.988   2.068 -1.1369 -0.5032 -0.8527
 1539TIP3    H226181   6.111   1.138   2.047  2.5094 -0.2000  1.4608
 1540TIP3   OH226182   0.091   6.111   0.519  0.2478  0.7622  0.3377
 1540TIP3    H126183   0.042   6.102   0.436 -0.6409  1.9501  0.7020
 1540TIP3    H226184   0.115   6.204   0.522 -0.6791  0.9861  1.9006
 1541TIP3   OH226185   3.601   4.363   2.144  0.6486  0.0229 -0.5117
 1541TIP3    H126186   3.629   4.278   2.180  1.2468  0.4590  0.0638
 1541TIP3    H226187   3.526   4.387   2.199  1.8232  0.8906  0.7628
 1542TIP3   OH226188   0.985   0.736   1.910 -0.3296 -0.5214 -0.7780
 1542TIP3    H126189   0.898   0.774   1.920  0.2496  1.2033 -1.9376
 1542TIP3    H226190   0.969   0.642   1.901 -2.2205 -0.1087 -2.4129
 1543TIP3   OH226191   6.266   3.253   2.042  0.3858 -0.2300  0.2132
 1543TIP3    H126192   6.343   3.265   1.986  1.3750  2.5094  1.9462
 1543TIP3    H226193   6.302   3.246   2.130 -1.2717  3.3837  1.3619
 1544TIP3   OH226194   0.975   5.117   5.614  0.1576  0.3278 -0.1554
 1544TIP3    H126195   1.038   5.100   5.684  0.5011  1.1435 -0.2671
 1544TIP3    H226196   0.898   5.066   5.640  0.7538 -0.4762  0.1094
 1545TIP3   OH226197   3.494   4.792   8.157 -0.4290  0.0892 -0.6623
 1545TIP3    H126198   3.492   4.726   8.088  0.5755  1.1277 -1.7176
 1545TIP3    H226199   3.582   4.785   8.194 -0.9164 -0.3645  0.4499
 1546TIP3   OH226200   4.791   3.848   1.420  0.2085 -0.0396  0.2346
 1546TIP3    H126201   4.695   3.849   1.415  0.2442  0.3016 -0.4848
 1546TIP3    H226202   4.818   3.935   1.392  0.6845  0.3398  1.7775
 1547TIP3   OH226203   1.269   3.501   6.418  0.1374 -0.3186  0.1873
 1547TIP3    H126204   1.256   3.527   6.327 -2.1718 -0.0590  0.5446
 1547TIP3    H226205   1.267   3.405   6.417 -0.6338 -0.3064  0.0414
 1548TIP3   OH226206   6.079   2.861   0.186 -0.2818  0.2037 -0.5736
 1548TIP3    H126207   6.105   2.837   0.097  1.0947  0.4202 -0.2582
 1548TIP3    H226208   6.117   2.792   0.241 -0.1477  0.6827 -0.0583
 1549TIP3   OH226209   6.373   5.951   7.036  0.2867  0.3979 -0.6144
 1549TIP3    H126210   6.285   5.950   6.997  0.5247  1.6492 -1.2198
 1549TIP3    H226211   6.383   5.864   7.075 -1.0516  0.0929 -0.9182
 1550TIP3   OH226212   0.767   6.950   7.594 -0.1372 -0.6600 -0.3524
 1550TIP3    H126213   0.686   6.901   7.587 -0.7382  0.4954 -4.8583
 1550TIP3    H226214   0.834   6.892   7.558  0.3333 -0.2818 -0.1149
 1551TIP3   OH226215   5.110   6.198   0.757  0.0403  0.0994 -0.6743
 1551TIP3    H126216   5.056   6.248   0.818  1.3377 -2.0899  2.5286
 1551TIP3    H226217   5.199   6.204   0.794  0.8676 -1.4456 -2.2801
 1552TIP3   OH226218   4.135   1.136   7.116 -0.7935  0.2388  0.2885
 1552TIP3    H126219   4.117   1.042   7.112 -1.6264  0.4197 -0.7532
 1552TIP3    H226220   4.122   1.160   7.208  1.0960 -0.9513  0.9294
 1553TIP3   OH226221   2.208   5.827   0.628 -0.6531 -0.4140  0.1755
 1553TIP3    H126222   2.227   5.789   0.543  0.1905  0.8505 -0.2345
 1553TIP3    H226223   2.207   5.922   0.612  0.6038 -0.0961  1.7657
 1554TIP3   OH226224   6.136   1.796   6.979 -0.1010  0.7432  0.5726
 1554TIP3    H126225   6.098   1.805   7.066  1.3261  0.4329  1.2684
 1554TIP3    H226226   6.197   1.869   6.971 -0.0275  0.6223 -0.0642
 1555TIP3   OH226227   1.582   3.003   1.804 -0.7571  0.3794 -0.0250
 1555TIP3    H126228   1.527   3.017   1.881 -0.7149  0.3608  0.0090
 1555TIP3    H226229   1.648   2.940   1.834 -0.4213  0.7741  0.0803
 1556TIP3   OH226230   2.267   7.004   1.666  0.5576  0.0037  0.4135
 1556TIP3    H126231   2.347   7.039   1.706  0.3419  1.6735 -0.5394
 1556TIP3    H226232   2.290   6.988   1.575 -0.1004  0.1986  0.2085
 1557TIP3   OH226233   1.707   0.468   1.345  0.0329 -0.7981 -0.0037
 1557TIP3    H126234   1.790   0.422   1.335  0.4739 -0.2258  0.8924
 1557TIP3    H226235   1.711   0.539   1.281  0.5400 -0.3509  0.5181
 1558TIP3   OH226236   3.141   0.685   8.312  0.8636 -0.7160  0.2516
 1558TIP3    H126237   3.174   0.747   8.377 -0.0087 -0.3134  0.3306
 1558TIP3    H226238   3.046   0.689   8.321  0.7935 -2.8444  0.9640
 1559TIP3   OH226239   0.240   5.456   7.898  0.4614  0.2635  0.4172
 1559TIP3    H126240   0.150   5.431   7.916 -0.1472 -0.3722 -2.8512
 1559TIP3    H226241   0.257   5.529   7.957 -2.7243  1.3754  0.1587
 1560TIP3   OH226242   1.775   0.283   7.865  0.9147 -0.1218  0.1858
 1560TIP3    H126243   1.806   0.354   7.921  1.1684 -0.1406  0.0706
 1560TIP3    H226244   1.724   0.327   7.796 -0.5670 -0.1911  1.1771
 1561TIP3   OH226245   6.331   3.118   6.723 -0.3808 -0.1858 -0.1258
 1561TIP3    H126246   6.415   3.083   6.696  0.0742  2.5024 -2.7125
 1561TIP3    H226247   6.351   3.174   6.798 -0.3988 -1.6945  1.0566
 1562TIP3   OH226248   5.958   4.088   7.813 -0.7061 -0.3346 -0.3251
 1562TIP3    H126249   5.937   4.048   7.898 -1.1319 -1.7318 -1.0656
 1562TIP3    H226250   5.939   4.181   7.826 -3.6871 -0.9091  0.2433
 1563TIP3   OH226251   4.847   0.378   0.895  0.6812  0.0671 -0.3626
 1563TIP3    H126252   4.757   0.412   0.884 -0.0155 -1.9423 -1.2178
 1563TIP3    H226253   4.873   0.349   0.808  0.5691 -3.0759  0.5405
 1564TIP3   OH226254   2.640   6.985   1.316 -0.7698 -0.1088 -0.3286
 1564TIP3    H126255   2.677   6.958   1.232 -1.7239  1.2705 -1.2272
 1564TIP3    H226256   2.691   7.062   1.342 -1.1550  0.0964 -0.1646
 1565TIP3   OH226257   3.756   4.909   7.041  0.3718  0.5560  0.0893
 1565TIP3    H126258   3.662   4.920   7.059  0.2116  0.5505 -0.7241
 1565TIP3    H226259   3.786   4.997   7.018  0.3098  0.3409 -0.8224
 1566TIP3   OH226260   6.365   3.622   7.546 -0.2374 -0.5245  0.3456
 1566TIP3    H126261   6.433   3.669   7.595  0.6573 -0.5339 -0.8255
 1566TIP3    H226262   6.382   3.530   7.565 -0.6358 -0.4742  0.9468
 1567TIP3   OH226263   1.646   2.545   7.191 -0.1131  0.1667  0.5514
 1567TIP3    H126264   1.704   2.616   7.218  2.5638 -1.7132  0.1025
 1567TIP3    H226265   1.617   2.506   7.274  2.4460 -1.2406  0.8661
 1568TIP3   OH226266   4.920   1.249   2.078  0.4206  0.2484 -0.9063
 1568TIP3    H126267   4.835   1.243   2.035  0.8259  0.6517 -1.7789
 1568TIP3    H226268   4.973   1.181   2.036  0.2879 -0.5899  0.2335
 1569TIP3   OH226269   4.714   2.883   7.352  0.4163 -0.2005 -0.4355
 1569TIP3    H126270   4.745   2.816   7.292 -2.3739 -2.0914  0.0283
 1569TIP3    H226271   4.759   2.865   7.435 -0.4687 -1.7456 -0.2492
 1570TIP3   OH226272   5.821   3.729   0.889 -0.3997 -0.0037  0.5284
 1570TIP3    H126273   5.767   3.674   0.832 -1.5437  0.1196  1.4753
 1570TIP3    H226274   5.902   3.742   0.839 -1.2703 -0.1113 -0.9562
 1571TIP3   OH226275   6.087   3.754   1.554 -0.1031  0.3385 -0.1610
 1571TIP3    H126276   6.057   3.668   1.582 -1.5769  0.1681 -2.0655
 1571TIP3    H226277   6.118   3.796   1.634 -0.9756 -1.3045  1.0938
 1572TIP3   OH226278   0.299   1.343   0.470 -0.9317 -0.1705  0.2456
 1572TIP3    H126279   0.210   1.371   0.495 -0.3340  1.0702  1.0883
 1572TIP3    H226280   0.322   1.399   0.396 -0.6059 -0.0275  0.4535
 1573TIP3   OH226281   6.668   0.481   0.952 -0.2453  0.3137  0.1829
 1573TIP3    H126282   6.602   0.418   0.979  0.9316 -1.3811 -0.6574
 1573TIP3    H226283   6.752   0.438   0.972  0.6100  1.0386 -1.5686
 1574TIP3   OH226284   2.208   6.031   6.668 -1.2358 -0.2548 -0.0787
 1574TIP3    H126285   2.192   6.095   6.598 -0.4497 -0.8558 -0.8279
 1574TIP3    H226286   2.287   5.985   6.640 -1.7285 -1.4876  0.5058
 1575TIP3   OH226287   3.636   4.856   0.566 -0.2173  0.0685  0.2752
 1575TIP3    H126288   3.705   4.854   0.633  1.4765  2.8809 -1.1938
 1575TIP3    H226289   3.567   4.910   0.605  0.1601  0.5421  0.3000
 1576TIP3   OH226290   4.888   3.626   1.094  0.2001  0.3501  0.2141
 1576TIP3    H126291   4.977   3.600   1.072  0.1341 -1.7282  2.0517
 1576TIP3    H226292   4.865   3.571   1.169 -2.5976  0.9039 -0.1390
 1577TIP3   OH226293   4.052   6.675   1.806 -0.0517  0.0714 -0.1500
 1577TIP3    H126294   4.024   6.635   1.889 -0.9385  1.1683  0.1028
 1577TIP3    H226295   4.060   6.768   1.826  1.4177  0.1124 -0.8795
 1578TIP3   OH226296   5.024   5.491   7.223 -0.1318 -0.2666 -0.9332
 1578TIP3    H126297   5.008   5.484   7.129 -0.5933  1.4291 -1.0127
 1578TIP3    H226298   4.991   5.577   7.246  1.1912 -0.1266  0.5462
 1579TIP3   OH226299   0.899   0.489   0.911 -0.5033  0.4538 -0.1637
 1579TIP3    H126300   0.847   0.409   0.909  1.7729 -1.1981  1.9743
 1579TIP3    H226301   0.856   0.543   0.978 -0.2691 -0.3745  0.6881
 1580TIP3   OH226302   4.962   0.562   7.024  0.0959  0.3235 -0.3906
 1580TIP3    H126303   4.920   0.503   7.086  2.2185  1.2688  2.1032
 1580TIP3    H226304   4.900   0.634   7.013  0.2404  0.8560  1.8641
 1581TIP3   OH226305   4.380   4.642   8.170  0.2148 -0.5697  0.3953
 1581TIP3    H126306   4.295   4.685   8.164  0.4987 -0.1599 -2.4480
 1581TIP3    H226307   4.360   4.552   8.195 -0.9971 -0.2851  0.4891
 1582TIP3   OH226308   5.248   2.710   8.280 -0.2307  0.6165  0.2717
 1582TIP3    H126309   5.325   2.767   8.281  0.1606  0.1270 -0.3466
 1582TIP3    H226310   5.277   2.633   8.230 -1.3914  0.8011 -0.7203
 1583TIP3   OH226311   4.820   2.947   1.160 -0.3937  0.3321 -0.6803
 1583TIP3    H126312   4.883   2.878   1.140  0.3009  0.4155  1.0193
 1583TIP3    H226313   4.735   2.907   1.143  0.0210 -0.7160 -0.3947
 1584TIP3   OH226314   2.614   2.289   0.189 -0.2931 -0.1042  0.4412
 1584TIP3    H126315   2.631   2.254   0.276  1.5823  1.7603  0.9035
 1584TIP3    H226316   2.700   2.294   0.147 -0.8568  1.1062 -0.6645
 1585TIP3   OH226317   3.311   2.018   1.894  0.0352 -0.5017  0.3374
 1585TIP3    H126318   3.341   2.043   1.807  2.1423 -0.3162  1.0541
 1585TIP3    H226319   3.303   2.101   1.941 -3.0689 -0.4001 -0.1822
 1586TIP3   OH226320   4.841   6.878   0.487  0.0202 -0.2330  0.4272
 1586TIP3    H126321   4.822   6.846   0.575  1.1877  1.4761  1.3411
 1586TIP3    H226322   4.927   6.842   0.467 -1.2449 -2.6769 -1.1021
 1587TIP3   OH226323   1.140   0.094   7.282  0.7540  0.3302 -0.0346
 1587TIP3    H126324   1.196   0.157   7.329  0.4069  1.7592 -1.4517
 1587TIP3    H226325   1.071   0.072   7.345  0.1934  2.3296  0.1249
 1588TIP3   OH226326   6.653   2.600   1.896  0.1633  0.6540 -0.0618
 1588TIP3    H126327   6.650   2.651   1.977  1.8432  0.1564  0.3589
 1588TIP3    H226328   6.706   2.652   1.836  0.5356  0.1551 -0.1776
 1589TIP3   OH226329   0.654   1.633   7.130  0.0508 -0.1407  0.1062
 1589TIP3    H126330   0.649   1.611   7.223  0.6254 -0.3321  0.0943
 1589TIP3    H226331   0.573   1.682   7.113  0.9415  1.8770  1.2247
 1590TIP3   OH226332   2.831   2.553   0.140  0.2686  0.6730  0.6220
 1590TIP3    H126333   2.752   2.527   0.093  2.0696 -0.7553 -1.8285
 1590TIP3    H226334   2.822   2.648   0.152 -2.4452  0.3619  1.8328
 1591TIP3   OH226335   5.872   0.632   7.591  0.1133 -0.6802 -0.0681
 1591TIP3    H126336   5.843   0.546   7.561 -0.5623 -0.8088  0.9146
 1591TIP3    H226337   5.797   0.668   7.639  1.2038 -0.5916  1.6595
 1592TIP3   OH226338   1.084   5.880   6.869  0.0264 -0.4842 -0.5598
 1592TIP3    H126339   1.009   5.872   6.810 -0.1676 -0.7914 -0.2759
 1592TIP3    H226340   1.153   5.919   6.815 -1.0887  2.2443 -0.1645
 1593TIP3   OH226341   2.320   5.096   7.225 -0.1711  0.5401 -0.2166
 1593TIP3    H126342   2.308   5.159   7.154  2.3116 -0.1342 -1.3259
 1593TIP3    H226343   2.324   5.011   7.182 -2.0232 -0.2912  1.1284
 1594TIP3   OH226344   1.406   0.202   7.344 -0.4770  0.4242  0.6631
 1594TIP3    H126345   1.406   0.249   7.260  0.6206  0.4624  0.6714
 1594TIP3    H226346   1.496   0.208   7.375 -0.6943 -0.2714  1.4708
 1595TIP3   OH226347   4.918   0.086   7.645  0.4865  0.3459 -0.1109
 1595TIP3    H126348   4.890   0.159   7.590  1.4964  1.7802  1.2175
 1595TIP3    H226349   4.915   0.120   7.734  1.5841 -1.0404  0.4909
 1596TIP3   OH226350   0.786   6.166   2.091 -0.4860  0.0625  0.1246
 1596TIP3    H126351   0.794   6.221   2.013  0.8544  0.3832  0.4595
 1596TIP3    H226352   0.840   6.210   2.157  1.8508 -2.3783 -0.0277
 1597TIP3   OH226353   2.973   2.434   0.342  0.3390  0.3895  0.0232
 1597TIP3    H126354   2.989   2.517   0.386  0.4236  0.0385  0.6655
 1597TIP3    H226355   2.960   2.458   0.250 -2.5859  1.4767  0.5971
 1598TIP3   OH226356   0.692   3.338   1.013  0.1627 -0.2523 -0.0087
 1598TIP3    H126357   0.705   3.353   1.106 -1.1744  0.3262  0.1075
 1598TIP3    H226358   0.745   3.404   0.969 -0.5766  0.6268  0.3931
 1599TIP3   OH226359   0.266   1.303   7.555  0.0789 -0.2769 -0.3761
 1599TIP3    H126360   0.275   1.212   7.584 -1.2073 -0.0728  0.7960
 1599TIP3    H226361   0.302   1.354   7.627  0.9226  0.1462 -1.0892
 1600TIP3   OH226362   6.479   6.314   8.109 -0.6087 -0.5913  0.4641
 1600TIP3    H126363   6.564   6.317   8.154 -0.0503 -1.7050 -0.4729
 1600TIP3    H226364   6.428   6.383   8.152  1.0548  0.7260  0.4808
 1601TIP3   OH226365   6.208   6.502   0.337  0.8169  0.3914  0.5099
 1601TIP3    H126366   6.180   6.422   0.380 -1.4366  0.1453 -1.2240
 1601TIP3    H226367   6.292   6.480   0.296  2.1981  0.1766  3.2493
 1602TIP3   OH226368   1.911   1.915   1.448 -0.5106 -0.3085  0.2855
 1602TIP3    H126369   1.944   1.948   1.531  0.5643 -0.4771 -0.0648
 1602TIP3    H226370   1.822   1.884   1.469 -0.1192 -0.7094  1.4582
 1603TIP3   OH226371   1.915   2.268   7.907  0.4150  0.8694 -0.0013
 1603TIP3    H126372   1.996   2.219   7.921 -0.1988 -0.1129  0.2137
 1603TIP3    H226373   1.887   2.244   7.819  0.5732  1.5449 -0.2428
 1604TIP3   OH226374   5.639   3.455   7.514  0.9277 -0.0532 -0.1740
 1604TIP3    H126375   5.589   3.448   7.433  1.9461  0.5940 -0.8838
 1604TIP3    H226376   5.638   3.549   7.534 -1.5818 -0.4259  2.0747
 1605TIP3   OH226377   1.828   5.122   7.466 -0.1840 -0.5099  0.3986
 1605TIP3    H126378   1.770   5.156   7.398 -0.1782  0.9248  1.0685
 1605TIP3    H226379   1.916   5.137   7.432 -0.1835 -1.2970  0.0340
 1606TIP3   OH226380   6.658   5.843   0.893  0.3794 -0.6694 -0.5315
 1606TIP3    H126381   6.706   5.760   0.893 -1.5553 -1.8540  0.5907
 1606TIP3    H226382   6.579   5.825   0.944  0.4299  2.1853  0.7591
 1607TIP3   OH226383   5.918   2.636   1.067  0.2497 -0.2534 -0.4844
 1607TIP3    H126384   5.837   2.631   1.017  0.6138  1.0024 -1.2593
 1607TIP3    H226385   5.986   2.609   1.005  0.5926  0.2891 -0.3498
 1608TIP3   OH226386   1.257   2.224   7.365 -0.2481 -0.5797  0.2397
 1608TIP3    H126387   1.196   2.284   7.321 -1.8396 -2.0309  0.3914
 1608TIP3    H226388   1.284   2.271   7.444 -1.6861 -0.1493  0.5008
 1609TIP3   OH226389   0.793   0.223   0.451  0.3431  0.2066  0.6259
 1609TIP3    H126390   0.721   0.174   0.411 -0.0241  0.2733  1.1900
 1609TIP3    H226391   0.751   0.302   0.486  0.4571 -0.3236  2.0259
 1610TIP3   OH226392   0.859   5.919   1.406 -0.3124 -0.0232 -0.4588
 1610TIP3    H126393   0.796   5.991   1.406  1.8558  1.9919 -1.3063
 1610TIP3    H226394   0.836   5.867   1.483 -2.2828  1.2445 -0.1148
 1611TIP3   OH226395   5.849   2.407   1.910 -0.1875 -1.0849 -0.2370
 1611TIP3    H126396   5.792   2.450   1.973  1.4522  1.3078 -0.2624
 1611TIP3    H226397   5.932   2.395   1.956  0.4242 -1.0925 -1.3042
 1612TIP3   OH226398   3.912   6.984   0.102  0.5874 -0.2908  0.4768
 1612TIP3    H126399   3.886   7.047   0.170 -1.7609 -1.4887  0.7819
 1612TIP3    H226400   3.840   6.920   0.099  2.6239 -2.7013 -0.1688
 1613TIP3   OH226401   1.238   4.397   7.356 -0.0047  0.1639  0.3707
 1613TIP3    H126402   1.287   4.329   7.401  2.6138  1.3952 -0.4597
 1613TIP3    H226403   1.238   4.472   7.417 -0.9800  0.1702  0.3896
 1614TIP3   OH226404   5.678   2.712   1.645 -0.3540 -0.0701 -0.0489
 1614TIP3    H126405   5.668   2.678   1.556  0.2067  1.5547 -0.7713
 1614TIP3    H226406   5.736   2.788   1.635 -0.0787 -0.0031  1.7454
 1615TIP3   OH226407   0.049   0.577   1.086 -0.2567  1.0076 -0.2854
 1615TIP3    H126408   0.110   0.524   1.137 -0.9457  1.0205  0.5666
 1615TIP3    H226409  -0.011   0.514   1.048  0.0448  1.0295 -0.8114
 1616TIP3   OH226410   5.557   3.181   0.070  0.4756  0.8202 -0.3750
 1616TIP3    H126411   5.554   3.268   0.110  1.6069  0.1231  1.3366
 1616TIP3    H226412   5.543   3.121   0.143 -1.6984 -0.4412 -1.7430
 1617TIP3   OH226413   5.285   4.657   0.475  0.2007  0.0605 -0.4869
 1617TIP3    H126414   5.234   4.646   0.555  1.1086  1.3082  0.3168
 1617TIP3    H226415   5.374   4.634   0.500  0.5669  0.8424 -1.0122
 1618TIP3   OH226416   6.024   6.156   7.491 -0.4129  0.3532  0.0629
 1618TIP3    H126417   5.944   6.130   7.446 -0.0191  0.4339 -0.7151
 1618TIP3    H226418   6.040   6.246   7.461  0.2621  0.1416 -0.2307
 1619TIP3   OH226419   2.595   2.020   0.700  0.0786 -0.4484  0.4847
 1619TIP3    H126420   2.625   1.984   0.616  0.3217 -1.0316  0.8172
 1619TIP3    H226421   2.540   1.952   0.737  0.4150 -0.4196  1.0508
 1620TIP3   OH226422   2.892   4.170   0.161  0.0534  1.0833 -0.2753
 1620TIP3    H126423   2.893   4.251   0.211  0.2949  1.1041 -0.3143
 1620TIP3    H226424   2.884   4.101   0.227 -1.5438  1.1972 -0.3149
 1621TIP3   OH226425   3.653   0.940   7.451 -0.5861  0.2554  0.4236
 1621TIP3    H126426   3.597   0.959   7.375  1.3705  2.1967 -0.6715
 1621TIP3    H226427   3.697   0.859   7.428 -0.0914  0.7719 -0.5047
 1622TIP3   OH226428   2.940   4.136   6.055  0.4824  0.1006 -0.4104
 1622TIP3    H126429   2.866   4.131   6.115 -0.1687 -1.4187 -1.2835
 1622TIP3    H226430   3.001   4.069   6.084  1.0024  0.5697 -0.3903
 1623TIP3   OH226431   3.482   0.906   7.664  0.1169  0.2283  0.4678
 1623TIP3    H126432   3.519   0.822   7.689 -0.0245  0.8214  2.9214
 1623TIP3    H226433   3.537   0.936   7.591  1.3464 -1.1411  0.7916
 1624TIP3   OH226434   2.163   2.900   6.085 -0.1895  0.6975  0.0230
 1624TIP3    H126435   2.246   2.944   6.103  0.3156 -0.3324  0.2562
 1624TIP3    H226436   2.110   2.967   6.042  0.1876  1.8514  1.2766
 1625TIP3   OH226437   5.968   1.700   7.192 -0.2241  0.0811  0.6063
 1625TIP3    H126438   5.901   1.631   7.190 -0.0111 -0.1558 -2.0560
 1625TIP3    H226439   6.051   1.652   7.201 -0.1238 -0.0319 -0.6479
 1626TIP3   OH226440   3.108   5.957   1.719  0.1273  0.1633 -0.1927
 1626TIP3    H126441   3.173   5.994   1.778  0.1159 -0.9919  0.5608
 1626TIP3    H226442   3.050   5.906   1.775 -1.4651  1.1607 -0.8406
 1627TIP3   OH226443   4.394   0.328   8.185 -0.1209  0.1839 -0.0334
 1627TIP3    H126444   4.484   0.357   8.169 -0.4153 -0.5046 -4.0892
 1627TIP3    H226445   4.378   0.348   8.277  3.5853  1.8645  0.4234
 1628TIP3   OH226446   6.843   2.633   6.638  0.2474 -0.1476  0.3169
 1628TIP3    H126447   6.880   2.564   6.583 -2.2133 -0.8032 -0.6329
 1628TIP3    H226448   6.908   2.703   6.635  2.3656 -1.9991  0.5081
 1629TIP3   OH226449   4.539   6.637   7.899 -0.0531  0.1841  0.2614
 1629TIP3    H126450   4.631   6.609   7.902 -0.2905 -0.5070  1.9560
 1629TIP3    H226451   4.489   6.555   7.902 -0.7281  0.5996  0.5498
 1630TIP3   OH226452   3.294   6.328   8.324 -0.4966 -0.0328 -0.0631
 1630TIP3    H126453   3.377   6.304   8.366 -0.7856 -1.4416 -0.2580
 1630TIP3    H226454   3.290   6.424   8.332  0.8142 -0.0097  0.5554
 1631TIP3   OH226455   5.016   1.525   7.873 -0.4474  0.5543 -0.0179
 1631TIP3    H126456   4.998   1.432   7.858 -0.1001  0.3467  0.8123
 1631TIP3    H226457   5.047   1.530   7.964  1.9853  1.1243 -0.7862
 1632TIP3   OH226458   3.287   6.791   6.743 -0.3969 -0.8827 -0.5529
 1632TIP3    H126459   3.222   6.826   6.681  0.6627 -1.0794 -1.8343
 1632TIP3    H226460   3.335   6.726   6.692  0.8515 -0.6921  0.3369
 1633TIP3   OH226461   5.555   3.340   8.195  0.2007  0.1945 -0.2506
 1633TIP3    H126462   5.544   3.303   8.108 -0.3260 -0.4863  0.0989
 1633TIP3    H226463   5.602   3.422   8.180 -0.6134  0.5012 -1.2664
 1634TIP3   OH226464   2.685   0.430   1.693 -0.1623 -0.7526  0.3411
 1634TIP3    H126465   2.622   0.495   1.663 -1.0500 -1.3996  0.7548
 1634TIP3    H226466   2.660   0.411   1.784  1.8611  0.4531  1.2354
 1635TIP3   OH226467   3.170   4.271   0.585 -0.4551  0.5472 -0.2198
 1635TIP3    H126468   3.191   4.335   0.517  0.4492  1.8528  1.2111
 1635TIP3    H226469   3.082   4.296   0.615 -1.8868 -1.4698 -2.4053
 1636TIP3   OH226470   1.826   6.086   7.748 -0.0072  0.1195 -0.3334
 1636TIP3    H126471   1.858   6.138   7.822  0.0286 -0.8615  0.3654
 1636TIP3    H226472   1.901   6.035   7.720 -0.7101 -1.6846  0.8729
 1637TIP3   OH226473   1.144   2.293   0.789  0.0040  0.4166  0.8909
 1637TIP3    H126474   1.099   2.223   0.742  0.5155  0.3625  0.4743
 1637TIP3    H226475   1.187   2.249   0.862 -1.3265  0.5890  1.8273
 1638TIP3   OH226476   1.391   5.569   6.757  0.4325  0.2209 -0.3796
 1638TIP3    H126477   1.428   5.602   6.675  0.6122  3.0847  0.7258
 1638TIP3    H226478   1.441   5.614   6.825 -2.2627  0.9778  1.2235
 1639TIP3   OH226479   3.542   2.516   7.281  0.1647  0.1163  0.1162
 1639TIP3    H126480   3.627   2.537   7.318  0.1923 -0.9833  0.7457
 1639TIP3    H226481   3.485   2.502   7.357 -0.9801  2.2193 -0.2762
 1640TIP3   OH226482   6.989   0.258   8.179 -0.4691  0.9145 -0.2310
 1640TIP3    H126483   7.047   0.292   8.247 -1.2461 -0.6570  1.3112
 1640TIP3    H226484   6.902   0.264   8.218 -0.8577 -0.6603 -0.8056
 1641TIP3   OH226485   1.270   6.891   6.880  0.4862  0.1443 -0.0909
 1641TIP3    H126486   1.294   6.934   6.962 -0.0511  1.0159 -0.3799
 1641TIP3    H226487   1.330   6.928   6.815  1.2634 -0.9323 -0.0133
 1642TIP3   OH226488   3.091   6.812   6.223 -0.2343  0.4171  0.9184
 1642TIP3    H126489   3.065   6.872   6.153  0.4039  1.0061  1.1739
 1642TIP3    H226490   3.015   6.807   6.281 -0.6280  0.2256  0.3844
 1643TIP3   OH226491   2.127   6.261   7.917  0.2770 -0.6430  0.1102
 1643TIP3    H126492   2.148   6.200   7.846  1.7051  0.2799 -0.3170
 1643TIP3    H226493   2.152   6.216   7.997 -0.1700 -1.2184 -0.0729
 1644TIP3   OH226494   5.300   6.790   0.883  0.3170  0.2827  0.4022
 1644TIP3    H126495   5.208   6.776   0.857  0.3701 -0.4849  0.6084
 1644TIP3    H226496   5.328   6.864   0.829 -0.7069  1.1555  1.0161
 1645TIP3   OH226497   4.675   2.684   7.886  0.4117 -0.2517 -0.6021
 1645TIP3    H126498   4.599   2.664   7.940  0.5852  1.1237  0.2221
 1645TIP3    H226499   4.743   2.623   7.916  0.6586  0.8139  1.1498
 1646TIP3   OH226500   5.708   0.237   1.719 -0.3334  0.3570 -0.0657
 1646TIP3    H126501   5.785   0.180   1.728 -0.9820 -0.4817  0.3413
 1646TIP3    H226502   5.634   0.178   1.731 -1.0256  1.3180  0.4797
 1647TIP3   OH226503   3.835   5.140   6.034 -0.2187  0.0376  0.7997
 1647TIP3    H126504   3.777   5.068   6.059 -0.3026  0.7832  2.9509
 1647TIP3    H226505   3.916   5.096   6.005 -0.1449 -0.9664  2.3699
 1648TIP3   OH226506   4.604   4.196   0.889  0.6782 -0.3929  0.7207
 1648TIP3    H126507   4.612   4.282   0.847  0.0361  0.4705  2.2704
 1648TIP3    H226508   4.694   4.169   0.906  0.8799  1.1296  2.3776
 1649TIP3   OH226509   4.111   5.874   8.139  0.1098  0.4307  0.0654
 1649TIP3    H126510   4.160   5.827   8.071 -0.7032 -1.6774  0.8751
 1649TIP3    H226511   4.046   5.925   8.090  0.7110  0.3852 -0.8142
 1650TIP3   OH226512   6.534   0.225   0.950  0.2251 -0.0327  0.2215
 1650TIP3    H126513   6.525   0.132   0.931 -2.0680 -0.2729  1.9401
 1650TIP3    H226514   6.478   0.268   0.885 -0.4358 -0.0727  0.7514
 1651TIP3   OH226515   1.916   2.391   0.717  0.2687 -0.7780  0.0117
 1651TIP3    H126516   1.994   2.406   0.770  1.1436  1.1828 -1.6866
 1651TIP3    H226517   1.851   2.451   0.753  0.8061  0.4171 -0.9070
 1652TIP3   OH226518   4.841   6.601   0.752  0.1263 -0.0082  0.1608
 1652TIP3    H126519   4.885   6.540   0.692 -0.6835 -1.1270  0.6846
 1652TIP3    H226520   4.912   6.636   0.806  0.7123  0.1803 -0.7045
 1653TIP3   OH226521   1.074   2.512   6.947  0.1233 -0.4903 -0.7016
 1653TIP3    H126522   1.087   2.602   6.918  2.2959 -0.6208 -0.2697
 1653TIP3    H226523   0.986   2.489   6.915 -0.0507  1.4115 -1.7269
 1654TIP3   OH226524   0.664   1.444   0.306  0.3110  0.1295  0.7342
 1654TIP3    H126525   0.613   1.410   0.379  0.3521  0.8386  1.1086
 1654TIP3    H226526   0.755   1.427   0.329  0.2699 -0.9080  0.1840
 1655TIP3   OH226527   0.710   4.111   1.025 -0.4341 -0.3324 -0.6434
 1655TIP3    H126528   0.688   4.201   1.047  1.0808  0.0477 -0.5860
 1655TIP3    H226529   0.657   4.058   1.085 -1.3556  0.4998 -0.6956
 1656TIP3   OH226530   2.839   4.476   6.985  0.5987 -0.5036 -0.3833
 1656TIP3    H126531   2.927   4.472   7.023  0.4494 -2.6749 -0.1639
 1656TIP3    H226532   2.811   4.385   6.979 -1.6358  0.1338 -0.5084
 1657TIP3   OH226533   4.368   3.890   7.924  0.4070  0.5213  0.9542
 1657TIP3    H126534   4.395   3.804   7.955  1.6014 -0.0124 -1.3217
 1657TIP3    H226535   4.449   3.942   7.927  0.3332  0.7308 -0.2205
 1658TIP3   OH226536   1.983   3.314   1.423 -0.5247  0.2036  0.2876
 1658TIP3    H126537   1.939   3.302   1.507  0.4003  0.3112  0.7890
 1658TIP3    H226538   2.025   3.399   1.429 -0.6864  0.3375 -0.3961
 1659TIP3   OH226539   2.887   1.850   8.058  0.1031  0.0687 -0.2173
 1659TIP3    H126540   2.814   1.875   8.116 -0.5363  0.2710 -1.0802
 1659TIP3    H226541   2.940   1.790   8.110 -1.0765 -0.6504  0.1993
 1660TIP3   OH226542   0.030   2.349   6.442  0.2149 -0.2670 -0.2406
 1660TIP3    H126543  -0.031   2.421   6.430 -0.0947 -0.2243  1.2908
 1660TIP3    H226544  -0.026   2.273   6.461  0.5947 -0.3614  0.5676
 1661TIP3   OH226545   5.444   0.550   0.816 -0.3040 -0.2857  0.6166
 1661TIP3    H126546   5.388   0.627   0.809  1.3859  0.8884 -0.8503
 1661TIP3    H226547   5.408   0.487   0.754 -0.0306  0.4598 -0.3112
 1662TIP3   OH226548   4.274   0.627   6.098  0.2121  0.3100 -0.7427
 1662TIP3    H126549   4.238   0.715   6.093 -2.7243 -0.7517 -0.2279
 1662TIP3    H226550   4.203   0.570   6.068  1.0250 -2.0945  1.5147
 1663TIP3   OH226551   4.771   6.193   0.572  0.4741  0.4371  0.0854
 1663TIP3    H126552   4.824   6.114   0.564  1.5746  1.3188 -1.9861
 1663TIP3    H226553   4.752   6.199   0.666  0.0348 -2.4244  0.2730
 1664TIP3   OH226554   2.959   5.720   0.891 -0.2488 -0.0615 -0.3620
 1664TIP3    H126555   2.918   5.635   0.907  1.4256 -1.1301 -1.3576
 1664TIP3    H226556   3.038   5.718   0.944 -0.0355  0.7514 -0.6485
 1665TIP3   OH226557   3.049   3.556   7.812  0.2018  0.2000 -0.5339
 1665TIP3    H126558   3.003   3.638   7.797 -0.6073 -0.3951 -1.4212
 1665TIP3    H226559   3.128   3.581   7.860 -0.9859  1.2444  0.9652
 1666TIP3   OH226560   0.127   4.222   0.877  0.1159 -0.8210 -0.0729
 1666TIP3    H126561   0.045   4.270   0.868  0.9562  0.5632 -0.5552
 1666TIP3    H226562   0.134   4.204   0.971  0.1435  0.6697  0.2363
 1667TIP3   OH226563   5.477   2.102   7.685 -0.1142  0.3388  0.2847
 1667TIP3    H126564   5.488   2.112   7.591 -0.1756  0.3236  0.2759
 1667TIP3    H226565   5.383   2.111   7.700  0.0073  1.4719  0.4763
 1668TIP3   OH226566   2.274   0.690   8.313 -0.4774 -0.2333 -0.0019
 1668TIP3    H126567   2.205   0.675   8.248  1.0235 -0.6539 -1.5682
 1668TIP3    H226568   2.301   0.603   8.341 -1.5943 -0.0577  1.8071
 1669TIP3   OH226569   1.526   1.588   7.269 -0.4178 -0.1377  0.0185
 1669TIP3    H126570   1.473   1.650   7.219  1.4826  0.7525 -1.0050
 1669TIP3    H226571   1.600   1.568   7.211  1.2069 -0.0703  1.9695
 1670TIP3   OH226572   6.153   5.650   6.947 -0.7784  0.0520 -0.4998
 1670TIP3    H126573   6.117   5.738   6.953  0.0656  0.6137 -2.9876
 1670TIP3    H226574   6.077   5.593   6.962 -1.2617  1.1050  1.5476
 1671TIP3   OH226575   1.291   1.438   7.808 -0.1394 -0.0788 -0.2996
 1671TIP3    H126576   1.248   1.456   7.892 -0.9671 -2.1893 -0.2359
 1671TIP3    H226577   1.363   1.379   7.830 -0.2435 -0.4945 -1.0453
 1672TIP3   OH226578   2.283   2.799   6.786 -0.3375 -0.3097 -0.6054
 1672TIP3    H126579   2.233   2.723   6.756 -1.4719  0.5475 -0.9518
 1672TIP3    H226580   2.217   2.858   6.823  0.7144 -0.2248  1.2807
 1673TIP3   OH226581   5.551   3.215   6.092  0.0043 -0.3651  0.3516
 1673TIP3    H126582   5.562   3.121   6.079  1.3515 -0.3647  1.3696
 1673TIP3    H226583   5.581   3.255   6.010  0.7348 -0.7573  0.4247
 1674TIP3   OH226584   6.903   4.843   7.427 -0.0991  0.2779  0.4401
 1674TIP3    H126585   6.905   4.934   7.396 -0.9267  0.4097  0.7584
 1674TIP3    H226586   6.967   4.798   7.371 -0.0448  0.9489 -0.0569
 1675TIP3   OH226587   6.558   6.750   0.707 -0.2801 -0.3931 -0.3635
 1675TIP3    H126588   6.581   6.843   0.712 -2.2694  0.1908 -0.8668
 1675TIP3    H226589   6.639   6.704   0.725  0.3162  1.4360  2.2426
 1676TIP3   OH226590   0.030   3.973   0.469 -0.6708 -0.0745 -0.4532
 1676TIP3    H126591   0.123   3.993   0.485 -0.5706 -0.3455 -0.6812
 1676TIP3    H226592  -0.011   4.059   0.456  0.0703 -0.0431 -3.1225
 1677TIP3   OH226593   0.341   3.145   7.826 -0.2655 -0.4469  0.2107
 1677TIP3    H126594   0.430   3.110   7.819 -0.0313  0.4589 -2.5437
 1677TIP3    H226595   0.302   3.130   7.740 -2.8692 -0.8995  1.3589
 1678TIP3   OH226596   5.657   2.444   1.143 -0.1785 -0.1461 -0.0763
 1678TIP3    H126597   5.712   2.413   1.214  1.5215  1.0204 -0.8079
 1678TIP3    H226598   5.609   2.366   1.113 -0.0819 -0.8729  1.5619
 1679TIP3   OH226599   5.314   3.355   0.697  0.1619 -0.6956  0.1198
 1679TIP3    H126600   5.343   3.290   0.761 -1.0872 -0.6435  0.7753
 1679TIP3    H226601   5.239   3.398   0.738 -0.5549 -0.5189 -1.2862
 1680TIP3   OH226602   4.010   2.655   1.742 -0.1658 -0.1300  0.0489
 1680TIP3    H126603   3.927   2.676   1.698  0.2890  1.8862  0.0723
 1680TIP3    H226604   3.993   2.675   1.834  0.3823  0.4284  0.0313
 1681TIP3   OH226605   5.832   1.329   0.195 -0.3504  0.1939  0.5322
 1681TIP3    H126606   5.820   1.239   0.226 -0.0643 -0.0623 -0.0712
 1681TIP3    H226607   5.921   1.352   0.221  0.5295 -0.6401 -1.5185
 1682TIP3   OH226608   6.027   5.995   8.257  0.0477 -0.3151 -0.7976
 1682TIP3    H126609   6.081   6.039   8.192 -0.9137  1.2708 -0.5773
 1682TIP3    H226610   6.088   5.940   8.307  0.9188 -0.9307 -2.4867
 1683TIP3   OH226611   5.227   2.827   0.610 -0.1491 -0.1565 -0.6604
 1683TIP3    H126612   5.191   2.904   0.566  0.0640  0.1775 -0.2533
 1683TIP3    H226613   5.167   2.810   0.683  1.7209  1.8606  1.5274
 1684TIP3   OH226614   5.819   2.921   1.577  0.2988 -0.7096  0.1450
 1684TIP3    H126615   5.879   2.991   1.603  0.7210 -1.1067  0.2550
 1684TIP3    H226616   5.731   2.959   1.587  0.4854 -0.5395  1.2337
 1685TIP3   OH226617   5.185   3.609   6.786  0.3687 -0.1659 -0.2289
 1685TIP3    H126618   5.230   3.567   6.859 -0.3289 -0.9049 -0.2108
 1685TIP3    H226619   5.114   3.549   6.763  1.1506 -0.4192 -2.1616
 1686TIP3   OH226620   0.320   5.607   0.399  0.5105 -0.1159 -0.7039
 1686TIP3    H126621   0.285   5.531   0.447  1.1999 -0.3886 -0.6199
 1686TIP3    H226622   0.337   5.672   0.467  0.6324 -0.1662 -0.6860
 1687TIP3   OH226623   6.968   2.172   7.518 -0.7608  0.2901  0.3871
 1687TIP3    H126624   6.886   2.157   7.471 -0.8552 -0.1808  0.6970
 1687TIP3    H226625   7.037   2.156   7.453 -0.9122  0.5291  0.1696
 1688TIP3   OH226626   6.258   4.123   6.310 -0.1660  0.1150  0.1554
 1688TIP3    H126627   6.320   4.067   6.358  0.5128 -0.7758 -1.6454
 1688TIP3    H226628   6.212   4.062   6.252 -1.4359  1.0478  0.1541
 1689TIP3   OH226629   4.390   2.708   1.283  0.3471  0.2719 -0.1663
 1689TIP3    H126630   4.315   2.700   1.224  1.3986 -2.2952 -1.3170
 1689TIP3    H226631   4.408   2.618   1.311  1.3037  1.1526  2.3348
 1690TIP3   OH226632   1.323   6.157   0.369  0.0424  0.1335  0.0486
 1690TIP3    H126633   1.304   6.156   0.275  0.8835 -0.1115 -0.1312
 1690TIP3    H226634   1.357   6.245   0.385  0.3148  0.0328  0.0306
 1691TIP3   OH226635   1.080   6.373   7.837  0.3995 -0.0710  0.4935
 1691TIP3    H126636   1.032   6.292   7.817  0.7700  0.0707 -1.1267
 1691TIP3    H226637   1.170   6.344   7.851  0.4237 -0.0022  0.4790
 1692TIP3   OH226638   0.192   5.967   1.678  0.2045  0.5004  1.0792
 1692TIP3    H126639   0.194   5.903   1.606 -0.2658  1.5666  0.0894
 1692TIP3    H226640   0.259   5.936   1.739  1.4938  0.2266 -0.4077
 1693TIP3   OH226641   5.196   4.578   6.514 -0.4788  0.0875  0.2368
 1693TIP3    H126642   5.168   4.487   6.521  1.3094 -0.5412 -0.1590
 1693TIP3    H226643   5.121   4.629   6.543 -1.4261 -1.5185  0.7220
 1694TIP3   OH226644   4.979   1.722   0.541  0.0109  0.0076  0.1271
 1694TIP3    H126645   5.056   1.777   0.557 -0.2718 -0.4275  3.7161
 1694TIP3    H226646   5.013   1.648   0.490  1.9317  0.0056  1.3114
 1695TIP3   OH226647   1.121   0.252   7.046 -0.2709  0.0341 -0.1795
 1695TIP3    H126648   1.109   0.208   7.130 -1.3648  0.5663 -0.0427
 1695TIP3    H226649   1.074   0.335   7.055 -2.4190 -0.8506 -2.0586
 1696TIP3   OH226650   2.965   5.929   7.869  0.0210 -1.0399 -0.3180
 1696TIP3    H126651   2.876   5.962   7.883  0.1793 -0.6803 -0.1251
 1696TIP3    H226652   2.976   5.929   7.774 -0.1720 -1.0490 -0.3413
 1697TIP3   OH226653   0.270   0.188   6.577  1.3888 -0.2020  0.3193
 1697TIP3    H126654   0.246   0.148   6.661 -0.6671  0.2633  0.0043
 1697TIP3    H226655   0.273   0.114   6.516  0.6429 -0.2707  0.3572
 1698TIP3   OH226656   4.687   4.960   6.780 -0.3790 -0.1101 -0.1830
 1698TIP3    H126657   4.667   5.038   6.831  0.4010  1.6940 -2.4779
 1698TIP3    H226658   4.652   4.888   6.833 -0.2296  1.6367  2.5185
 1699TIP3   OH226659   0.897   2.458   0.518 -0.4201  0.3757  0.4824
 1699TIP3    H126660   0.896   2.515   0.595  1.3106 -2.0586  2.4512
 1699TIP3    H226661   0.885   2.370   0.553  1.6818 -0.9648 -1.8783
 1700TIP3   OH226662   4.030   2.054   7.037  0.4081 -0.2734 -0.0090
 1700TIP3    H126663   4.002   1.970   7.000 -1.9719  1.0069 -1.4281
 1700TIP3    H226664   3.981   2.062   7.119  2.4576 -1.2423  1.3866
 1701TIP3   OH226665   3.781   3.505   6.982  0.3600 -0.2493 -0.8044
 1701TIP3    H126666   3.761   3.595   6.957  2.9657  2.0172  3.9655
 1701TIP3    H226667   3.697   3.469   7.011 -0.2252  2.0320  0.5606
 1702TIP3   OH226668   2.798   1.929   7.131  0.3261 -0.5969 -0.1710
 1702TIP3    H126669   2.817   1.999   7.193 -1.1155 -0.2863 -0.0525
 1702TIP3    H226670   2.813   1.849   7.182  1.1478 -0.3839 -0.0559
 1703TIP3   OH226671   0.192   5.157   1.037  0.4381 -0.3615 -0.3116
 1703TIP3    H126672   0.198   5.069   0.999  3.2582 -0.7335  0.7449
 1703TIP3    H226673   0.209   5.144   1.130 -1.6375  1.0753  0.3531
 1704TIP3   OH226674   3.336   5.689   8.139 -0.2908 -0.2213  0.3745
 1704TIP3    H126675   3.361   5.617   8.198  1.6083  0.8469  0.9626
 1704TIP3    H226676   3.394   5.761   8.164  0.0886  0.5162 -2.3297
 1705TIP3   OH226677   2.097   5.206   6.499 -0.1802  0.1928 -0.1651
 1705TIP3    H126678   2.140   5.127   6.530  0.0174  0.6464  0.7545
 1705TIP3    H226679   2.004   5.193   6.519 -0.0954  0.3498  0.3457
 1706TIP3   OH226680   3.624   4.289   0.743 -0.1060  0.2268 -0.1443
 1706TIP3    H126681   3.621   4.193   0.739 -0.9271  0.1832  1.1379
 1706TIP3    H226682   3.532   4.316   0.739  0.1777  1.1269 -2.9421
 1707TIP3   OH226683   0.695   4.043   0.524 -0.0520  0.1961 -0.2571
 1707TIP3    H126684   0.732   4.027   0.437 -0.0785  0.1889 -0.2672
 1707TIP3    H226685   0.721   3.966   0.575  0.1064  0.2798 -0.2121
 1708TIP3   OH226686   4.363   0.350   7.879  0.1092  0.0398  0.2722
 1708TIP3    H126687   4.424   0.333   7.951  0.3072  0.8699  0.3152
 1708TIP3    H226688   4.301   0.414   7.915 -0.7512 -0.7536  0.2082
 1709TIP3   OH226689   6.919   2.575   1.381  0.3236  0.4687 -0.5004
 1709TIP3    H126690   6.928   2.656   1.432 -1.3749 -0.4631  1.4077
 1709TIP3    H226691   6.833   2.541   1.405  1.4783 -2.5773 -0.2229
 1710TIP3   OH226692   4.158   1.590   1.192 -0.3483 -0.4684  0.4690
 1710TIP3    H126693   4.163   1.605   1.098  0.4290 -1.5120  0.3331
 1710TIP3    H226694   4.100   1.514   1.201  1.4382 -1.8653  0.6515
 1711TIP3   OH226695   1.570   3.094   6.824  0.1026 -0.0469  0.0430
 1711TIP3    H126696   1.495   3.125   6.774 -0.4398 -2.0991 -0.4867
 1711TIP3    H226697   1.645   3.144   6.789 -0.3684 -0.8850 -2.3314
 1712TIP3   OH226698   3.585   0.649   7.651 -0.3199  0.1699 -0.2048
 1712TIP3    H126699   3.647   0.581   7.678 -0.1340  0.9350  1.4203
 1712TIP3    H226700   3.535   0.609   7.580  0.1262 -1.4832  0.3609
 1713TIP3   OH226701   0.418   6.064   7.461 -0.5111  0.1351  0.1338
 1713TIP3    H126702   0.337   6.065   7.411 -0.7983  0.4730  0.6005
 1713TIP3    H226703   0.431   5.972   7.483 -0.2225 -0.0592 -0.8065
 1714TIP3   OH226704   6.665   4.372   6.481  0.2839  0.2203  0.2757
 1714TIP3    H126705   6.601   4.369   6.411  1.6443  0.1339 -1.0054
 1714TIP3    H226706   6.683   4.281   6.502 -1.4714  0.2193  2.0823
 1715TIP3   OH226707   3.211   5.424   8.010 -0.4577 -0.2704 -0.7383
 1715TIP3    H126708   3.176   5.513   8.000  0.9698  0.3536 -0.4006
 1715TIP3    H226709   3.188   5.381   7.927 -1.4549  0.2948 -0.7789
 1716TIP3   OH226710   5.848   3.615   1.951 -0.2435  0.0043  0.2592
 1716TIP3    H126711   5.880   3.691   1.998  0.6065 -0.0760 -0.1634
 1716TIP3    H226712   5.840   3.547   2.017 -1.3260  0.5348  0.6998
 1717TIP3   OH226713   2.375   6.193   0.036  1.2725  0.9662 -0.0212
 1717TIP3    H126714   2.463   6.163   0.055  0.8681 -0.9294 -0.8785
 1717TIP3    H226715   2.323   6.113   0.031 -0.4112  2.0067  0.0457
 1718TIP3   OH226716   0.907   1.349   0.433  0.0575  0.2604  0.1098
 1718TIP3    H126717   0.911   1.253   0.427 -0.9531  0.0335  2.1415
 1718TIP3    H226718   0.995   1.377   0.407 -0.2303 -1.0212 -2.5826
 1719TIP3   OH226719   2.390   5.134   6.824  0.0595 -0.3300 -0.2605
 1719TIP3    H126720   2.318   5.128   6.762 -2.0129  2.0747  1.7033
 1719TIP3    H226721   2.426   5.045   6.828 -2.1952 -1.4138 -1.9813
 1720TIP3   OH226722   3.303   2.315   8.217 -0.0800  0.0288  0.0966
 1720TIP3    H126723   3.396   2.325   8.238 -0.4822  0.6182  1.7694
 1720TIP3    H226724   3.265   2.275   8.295 -1.4795  1.1637  0.0318
 1721TIP3   OH226725   0.939   0.434   1.903  0.3029  0.2569  0.3922
 1721TIP3    H126726   0.911   0.388   1.824  0.7720 -0.1375  0.4522
 1721TIP3    H226727   0.950   0.365   1.968 -1.3121  0.6997  1.1800
 1722TIP3   OH226728   4.033   2.849   7.253  0.0418  0.0308 -0.0478
 1722TIP3    H126729   4.067   2.917   7.312  2.6865 -1.5112  0.3602
 1722TIP3    H226730   4.035   2.890   7.167 -1.2204  1.4011  0.5286
 1723TIP3   OH226731   1.559   2.611   1.307  0.2824  0.0926  0.2483
 1723TIP3    H126732   1.609   2.592   1.387  0.3280 -1.4590 -0.1225
 1723TIP3    H226733   1.547   2.706   1.309  1.4949  0.2572  1.3805
 1724TIP3   OH226734   1.012   7.017   0.484  0.1058  0.2403 -0.7687
 1724TIP3    H126735   0.939   7.079   0.473  0.9466  1.1594 -1.3719
 1724TIP3    H226736   0.991   6.969   0.564 -0.6227  1.2511 -0.3259
 1725TIP3   OH226737   5.030   1.593   6.897  0.1168 -0.3247 -0.1459
 1725TIP3    H126738   5.034   1.679   6.939 -0.3794 -0.7016  0.7006
 1725TIP3    H226739   5.121   1.573   6.874  0.3411  0.0888  0.3577
 1726TIP3   OH226740   3.375   1.423   0.207 -0.6617 -0.3417  0.8498
 1726TIP3    H126741   3.346   1.332   0.198  0.8808 -0.7267 -0.8068
 1726TIP3    H226742   3.465   1.422   0.175 -1.1905  2.1222 -0.9522
 1727TIP3   OH226743   3.041   2.822   6.476  0.4766 -0.0228  0.3270
 1727TIP3    H126744   3.000   2.761   6.536  0.1710  1.2303  1.4240
 1727TIP3    H226745   2.968   2.858   6.425  0.5264  0.2325  0.4357
 1728TIP3   OH226746   4.571   2.862   1.118  0.3530 -0.6226  0.1205
 1728TIP3    H126747   4.506   2.802   1.153 -1.2749  1.0879  0.1880
 1728TIP3    H226748   4.538   2.885   1.031  1.3105 -0.3462 -0.1837
 1729TIP3   OH226749   3.675   4.336   8.362 -0.3400  0.0373 -0.3214
 1729TIP3    H126750   3.657   4.398   8.432  0.0766 -1.5816  1.3011
 1729TIP3    H226751   3.590   4.297   8.342 -0.0982 -1.3446  1.1636
 1730TIP3   OH226752   2.338   1.936   1.081 -0.0955 -0.0707 -0.2145
 1730TIP3    H126753   2.295   2.005   1.030 -0.7791  0.4855  1.0757
 1730TIP3    H226754   2.400   1.983   1.137  0.1128 -0.5956 -0.0015
 1731TIP3   OH226755   6.842   1.071   6.984 -0.0868 -0.2865  0.4336
 1731TIP3    H126756   6.849   0.982   6.947 -1.3333 -0.3408  0.3104
 1731TIP3    H226757   6.910   1.120   6.939 -0.5518 -0.7423 -0.8134
 1732TIP3   OH226758   1.602   0.441   7.722  0.0339 -0.5961 -0.2484
 1732TIP3    H126759   1.596   0.454   7.628 -0.5727  1.0819 -0.0264
 1732TIP3    H226760   1.599   0.530   7.758  2.1102 -1.0729  1.2768
 1733TIP3   OH226761   2.478   4.506   0.919 -0.1110 -0.0232 -0.2800
 1733TIP3    H126762   2.408   4.550   0.965 -1.1411 -2.8929  1.1363
 1733TIP3    H226763   2.545   4.490   0.986  1.0725  0.9339 -1.1760
 1734TIP3   OH226764   3.298   2.293   1.584 -0.0049  0.3139  0.5520
 1734TIP3    H126765   3.338   2.256   1.505 -1.9122  2.4877 -1.6086
 1734TIP3    H226766   3.356   2.366   1.608  0.2480  0.0252  0.8420
 1735TIP3   OH226767   0.838   3.567   0.916 -0.3075  0.5930  0.9369
 1735TIP3    H126768   0.888   3.550   0.836 -0.9249  0.6224  0.5407
 1735TIP3    H226769   0.904   3.593   0.980  0.2464  0.1454  0.5625
 1736TIP3   OH226770   6.151   4.823   7.472 -0.1766 -0.3551  0.2364
 1736TIP3    H126771   6.180   4.908   7.505  2.2936 -0.5796 -1.0945
 1736TIP3    H226772   6.057   4.833   7.459 -0.1333  1.7958  1.1542
 1737TIP3   OH226773   5.591   2.673   8.096 -0.5313 -0.0098  0.2242
 1737TIP3    H126774   5.600   2.584   8.061  2.6299  0.5848 -0.8387
 1737TIP3    H226775   5.647   2.674   8.173 -1.4868  0.7753  0.9362
 1738TIP3   OH226776   4.791   4.880   5.401 -0.2610 -0.0824  0.0136
 1738TIP3    H126777   4.864   4.937   5.377  0.3196 -0.0734  1.6355
 1738TIP3    H226778   4.827   4.823   5.469 -1.1987 -1.5183 -0.6485
 1739TIP3   OH226779   2.521   6.592   7.048 -0.1146 -0.8098 -0.6312
 1739TIP3    H126780   2.578   6.520   7.022 -0.1810 -1.1101  0.0277
 1739TIP3    H226781   2.506   6.578   7.142 -0.1471  0.0455 -0.4947
 1740TIP3   OH226782   6.798   4.450   0.133  0.1822  0.0925 -0.0841
 1740TIP3    H126783   6.713   4.441   0.092  0.0899  2.8131 -0.7034
 1740TIP3    H226784   6.855   4.483   0.064  0.8183  1.6963  1.1345
 1741TIP3   OH226785   4.608   4.097   0.623  0.0969 -0.0337 -0.1187
 1741TIP3    H126786   4.594   4.134   0.710  0.2171 -1.0543  0.3461
 1741TIP3    H226787   4.524   4.058   0.600  0.2196 -0.2339 -0.2283
 1742TIP3   OH226788   2.652   0.724   7.256 -0.3367 -0.3720 -0.6297
 1742TIP3    H126789   2.635   0.651   7.196 -0.9397 -1.1485  0.4620
 1742TIP3    H226790   2.607   0.700   7.337  0.1620  0.8281  0.0274
 1743TIP3   OH226791   5.810   3.490   8.325 -0.3955  0.6187 -0.4405
 1743TIP3    H126792   5.864   3.416   8.353  0.9528  1.1761 -1.4941
 1743TIP3    H226793   5.807   3.547   8.401  0.2489  0.4347 -0.2713
 1744TIP3   OH226794   6.985   3.315   7.680 -0.4612  0.0475  0.2193
 1744TIP3    H126795   6.906   3.359   7.647  0.3459  2.8626  1.6600
 1744TIP3    H226796   7.045   3.315   7.605 -0.0293  2.7577  0.4716
 1745TIP3   OH226797   1.223   1.904   7.430  0.0753 -0.0255 -0.3584
 1745TIP3    H126798   1.285   1.977   7.430  0.6713 -0.5217 -0.4750
 1745TIP3    H226799   1.246   1.853   7.353 -0.6929 -0.0513 -0.5828
 1746TIP3   OH226800   1.165   2.534   7.640 -0.5767  0.3795 -0.2932
 1746TIP3    H126801   1.235   2.590   7.671  0.5951 -0.7456 -0.8130
 1746TIP3    H226802   1.159   2.551   7.546  0.5818 -1.1448 -0.6794
 1747TIP3   OH226803   6.613   0.121   6.669 -0.3465  0.0442 -0.0542
 1747TIP3    H126804   6.708   0.115   6.659 -0.5333 -0.7538 -1.7566
 1747TIP3    H226805   6.599   0.196   6.726  1.3353 -0.4236  1.0300
 1748TIP3   OH226806   0.024   3.967   7.729  0.1527  0.4667  0.0979
 1748TIP3    H126807  -0.016   3.986   7.814  1.0071  0.6263  0.4672
 1748TIP3    H226808  -0.049   3.933   7.676 -0.3277  0.1115  0.9651
 1749TIP3   OH226809   1.762   3.213   6.689  0.1210  0.7254  0.4130
 1749TIP3    H126810   1.844   3.178   6.724  0.0052 -0.5292 -0.4896
 1749TIP3    H226811   1.751   3.168   6.605 -1.5387  0.7885  0.5630
 1750TIP3   OH226812   3.118   2.038   7.158  0.2243 -0.5840 -0.2920
 1750TIP3    H126813   3.041   2.028   7.214  0.6647  1.6297  0.8273
 1750TIP3    H226814   3.188   1.994   7.206  0.5492  1.1074  0.8465
 1751TIP3   OH226815   5.828   5.434   7.315 -0.5428 -0.1102  0.6165
 1751TIP3    H126816   5.735   5.416   7.332 -0.8009 -0.4975 -1.0693
 1751TIP3    H226817   5.860   5.355   7.271  0.6975 -0.1306  1.5158
 1752TIP3   OH226818   4.269   5.164   6.223  0.7052  0.0819 -0.2911
 1752TIP3    H126819   4.209   5.110   6.172  0.8453 -0.4822  0.1304
 1752TIP3    H226820   4.352   5.161   6.175  0.3481  1.0652 -1.0084
 1753TIP3   OH226821   2.539   4.888   6.571  0.6520  0.0058 -0.4032
 1753TIP3    H126822   2.598   4.926   6.637  2.1317 -0.6128 -1.3161
 1753TIP3    H226823   2.479   4.959   6.549  0.2449  0.2955  1.4347
 1754TIP3   OH226824   5.179   0.575   1.135 -0.2249  0.0485 -0.3659
 1754TIP3    H126825   5.211   0.654   1.092 -0.9039 -0.2164 -1.4022
 1754TIP3    H226826   5.162   0.514   1.064  0.1317 -0.9832  0.4073
 1755TIP3   OH226827   5.098   3.815   1.421  0.1068  0.5167 -0.2379
 1755TIP3    H126828   5.008   3.786   1.406 -0.0969  1.5969 -1.2687
 1755TIP3    H226829   5.090   3.893   1.476  0.4616  0.2662  0.1745
 1756TIP3   OH226830   4.848   0.883   0.427 -0.1348 -0.3424 -0.1236
 1756TIP3    H126831   4.832   0.871   0.521  0.4178 -0.6144 -0.0558
 1756TIP3    H226832   4.944   0.880   0.419 -0.1471  0.3262 -0.6129
 1757TIP3   OH226833   2.901   4.824   1.500  0.1498  0.3452 -0.0366
 1757TIP3    H126834   2.951   4.900   1.531 -0.0814  0.5865 -0.2476
 1757TIP3    H226835   2.949   4.748   1.534  0.9626  0.5595 -0.6773
 1758TIP3   OH226836   3.864   0.361   0.259 -0.4490  0.4348 -0.2319
 1758TIP3    H126837   3.959   0.361   0.245 -0.0632 -1.0722  1.9302
 1758TIP3    H226838   3.852   0.409   0.340 -1.5634  0.7490 -0.5779
 1759TIP3   OH226839   6.851   4.388   7.985 -0.4549  0.0734  0.5276
 1759TIP3    H126840   6.933   4.390   8.034  0.5509 -0.1218 -1.0741
 1759TIP3    H226841   6.878   4.394   7.893 -2.3163  1.2507  0.0135
 1760TIP3   OH226842   6.048   0.474   6.275  0.1822  0.2056  0.1980
 1760TIP3    H126843   5.965   0.427   6.263  0.2344  0.1116  0.2063
 1760TIP3    H226844   6.045   0.544   6.210 -0.7669  1.3989  1.4455
 1761TIP3   OH226845   2.330   5.353   0.082 -0.0589 -0.5468 -0.6623
 1761TIP3    H126846   2.381   5.277   0.107 -1.2929 -2.1008 -2.6003
 1761TIP3    H226847   2.246   5.342   0.128  0.0374  0.0780 -0.3209
 1762TIP3   OH226848   4.530   1.966   7.664  0.1174 -0.1128  0.0914
 1762TIP3    H126849   4.579   1.884   7.664 -1.2597 -0.9723 -0.2719
 1762TIP3    H226850   4.530   1.994   7.756  0.0357 -0.8597  0.3208
 1763TIP3   OH226851   6.972   0.670   1.618  0.1649 -0.4867 -0.3552
 1763TIP3    H126852   6.892   0.691   1.571 -0.0670  1.0227  0.6316
 1763TIP3    H226853   7.042   0.708   1.565 -0.1131  1.4047  0.5611
 1764TIP3   OH226854   3.380   4.311   8.012  0.1992 -0.4349 -0.1518
 1764TIP3    H126855   3.382   4.350   7.925  1.0428 -0.2079 -0.0404
 1764TIP3    H226856   3.384   4.386   8.072  1.7067 -0.6564  0.0647
 1765TIP3   OH226857   0.321   5.688   8.110 -0.2934 -0.0340 -0.5391
 1765TIP3    H126858   0.336   5.736   8.028  0.8346  0.3191 -0.1472
 1765TIP3    H226859   0.409   5.667   8.141 -0.6474  1.0253  1.2755
 1766TIP3   OH226860   6.934   3.674   7.789 -0.4250 -0.5401 -0.4871
 1766TIP3    H126861   6.943   3.649   7.881  1.7436  0.9787 -0.2213
 1766TIP3    H226862   7.011   3.638   7.746  0.5407  1.8066 -0.9075
 1767TIP3   OH226863   6.376   6.625   7.784  0.3924  0.2568 -0.0414
 1767TIP3    H126864   6.466   6.595   7.772 -0.2141 -2.2191  0.8912
 1767TIP3    H226865   6.382   6.720   7.783  3.1324  0.1913  0.8020
 1768TIP3   OH226866   5.661   6.354   0.691 -0.1825  0.5580 -0.6834
 1768TIP3    H126867   5.731   6.388   0.747 -0.3559  0.9943 -0.7353
 1768TIP3    H226868   5.701   6.278   0.648 -0.2328 -0.1573  0.4887
 1769TIP3   OH226869   4.674   3.591   0.381  0.3538  0.2361 -0.1640
 1769TIP3    H126870   4.638   3.662   0.328 -2.1108  0.6216  1.8641
 1769TIP3    H226871   4.718   3.635   0.454 -0.2672 -0.2804  0.5346
 1770TIP3   OH226872   3.480   3.652   1.170  0.0865  0.3160  0.2467
 1770TIP3    H126873   3.519   3.636   1.256  0.9248  1.5709  0.1341
 1770TIP3    H226874   3.552   3.689   1.117 -0.3954 -0.4741 -1.0131
 1771TIP3   OH226875   0.346   4.911   1.390  0.2995  0.0406 -0.6760
 1771TIP3    H126876   0.285   4.848   1.354  0.9737 -0.7924 -0.4048
 1771TIP3    H226877   0.428   4.896   1.342  0.3094  1.1198 -1.0272
 1772TIP3   OH226878   6.580   1.301   1.209  0.3537  0.2143  0.3620
 1772TIP3    H126879   6.537   1.286   1.293 -2.0089  1.1492 -0.5868
 1772TIP3    H226880   6.510   1.333   1.152  1.5312 -1.7208 -2.3876
 1773TIP3   OH226881   3.740   1.587   1.511 -0.1366 -0.0560 -0.1296
 1773TIP3    H126882   3.786   1.503   1.518 -0.9130 -0.3774  1.6636
 1773TIP3    H226883   3.772   1.638   1.585  1.0446  1.6632 -1.7132
 1774TIP3   OH226884   2.548   2.892   1.918 -0.3979  0.0394  0.8260
 1774TIP3    H126885   2.523   2.823   1.979 -1.4890 -0.2099  0.1259
 1774TIP3    H226886   2.644   2.889   1.916 -0.4317 -1.6766  0.5693
 1775TIP3   OH226887   1.723   3.050   7.637  0.1993  0.2141 -0.0710
 1775TIP3    H126888   1.653   3.042   7.702  0.4335 -0.3248  0.1180
 1775TIP3    H226889   1.677   3.053   7.553 -0.2955  3.3639  0.1871
 1776TIP3   OH226890   2.805   6.966   1.072  0.9786  0.0397  0.8253
 1776TIP3    H126891   2.857   6.886   1.064  3.9005  1.7952  0.9300
 1776TIP3    H226892   2.825   7.016   0.993 -2.1475  0.0669 -0.1019
 1777TIP3   OH226893   4.756   1.315   0.272 -0.1965 -0.3402 -0.0560
 1777TIP3    H126894   4.761   1.397   0.320  2.6550 -1.2633  1.4720
 1777TIP3    H226895   4.709   1.255   0.330  3.2749 -1.4642  1.8556
 1778TIP3   OH226896   5.515   6.878   6.655 -0.2767  0.3124  0.2529
 1778TIP3    H126897   5.532   6.948   6.719 -0.2606  0.0543  0.5344
 1778TIP3    H226898   5.524   6.921   6.570  1.0009  0.3794  0.3979
 1779TIP3   OH226899   4.028   5.565   6.481  0.0015 -0.1281 -0.5952
 1779TIP3    H126900   3.937   5.595   6.480  0.4412  1.2927 -0.1153
 1779TIP3    H226901   4.029   5.491   6.420 -1.5989 -0.5823 -0.1150
 1780TIP3   OH226902   4.620   2.798   0.125 -0.6276  0.2294  0.3780
 1780TIP3    H126903   4.664   2.720   0.159 -0.9214  0.6901  1.8630
 1780TIP3    H226904   4.648   2.803   0.033  0.0077 -1.1739  0.4757
 1781TIP3   OH226905   5.643   6.440   7.148 -0.8586  0.6028 -0.8584
 1781TIP3    H126906   5.641   6.382   7.071 -0.8442  1.0666 -1.2075
 1781TIP3    H226907   5.560   6.422   7.193 -0.6827  0.0258 -0.7534
 1782TIP3   OH226908   2.266   3.428   6.895 -0.0504 -0.3846  0.1792
 1782TIP3    H126909   2.296   3.503   6.843 -1.2856 -0.3175 -0.4789
 1782TIP3    H226910   2.334   3.361   6.882 -0.5934 -0.5939 -2.0601
 1783TIP3   OH226911   0.308   6.235   0.760 -1.0314  0.0294  0.0584
 1783TIP3    H126912   0.250   6.158   0.760  1.9663 -2.4415  0.9601
 1783TIP3    H226913   0.314   6.261   0.852 -2.6828  2.0154 -0.3242
 1784TIP3   OH226914   2.669   4.263   1.729  0.0662 -0.1434  0.0903
 1784TIP3    H126915   2.576   4.269   1.750 -0.2385 -2.0386 -0.4965
 1784TIP3    H226916   2.695   4.353   1.707 -1.9278  0.2427 -0.9479
 1785TIP3   OH226917   5.745   1.605   2.140 -0.2833  0.1148  0.3373
 1785TIP3    H126918   5.827   1.587   2.094 -0.0128 -1.9431  1.5234
 1785TIP3    H226919   5.752   1.697   2.166  0.8544  0.4703 -1.1035
 1786TIP3   OH226920   1.317   4.534   0.688 -0.3325 -0.2194 -0.0139
 1786TIP3    H126921   1.228   4.559   0.660  0.4880  0.2435 -2.4409
 1786TIP3    H226922   1.334   4.451   0.644  0.4207 -0.3384  0.4879
 1787TIP3   OH226923   4.634   2.081   6.853 -0.3538  0.1784 -0.2439
 1787TIP3    H126924   4.677   2.127   6.781 -2.2880  1.9828 -0.3532
 1787TIP3    H226925   4.553   2.047   6.814 -2.1260  2.3794  1.2615
 1788TIP3   OH226926   1.136   0.905   0.827  0.1901 -0.7837  0.3786
 1788TIP3    H126927   1.231   0.892   0.827  0.6686  2.0967  0.9639
 1788TIP3    H226928   1.119   0.961   0.752 -1.0124 -0.9188  0.5309
 1789TIP3   OH226929   5.959   6.933   7.777 -0.3793  0.1752 -0.0685
 1789TIP3    H126930   6.022   6.993   7.816  0.4215 -0.7438  0.0764
 1789TIP3    H226931   5.910   6.987   7.715  0.3812  0.9624 -0.0014
 1790TIP3   OH226932   1.406   0.243   7.782 -0.1022  0.0516  0.3449
 1790TIP3    H126933   1.373   0.249   7.872  0.4830  2.9564  0.4650
 1790TIP3    H226934   1.466   0.317   7.773  2.0632 -1.7739 -1.6100
 1791TIP3   OH226935   3.274   5.277   6.938 -0.3346  0.6958  0.3110
 1791TIP3    H126936   3.307   5.271   6.848  1.4439  1.1523  0.8751
 1791TIP3    H226937   3.196   5.222   6.940  0.0340  0.0769 -1.3174
 1792TIP3   OH226938   1.861   5.311   0.520 -0.1546  0.7347  0.2500
 1792TIP3    H126939   1.783   5.263   0.549  1.5483 -1.0287  2.2709
 1792TIP3    H226940   1.925   5.243   0.498  0.6148  2.1300 -2.1204
 1793TIP3   OH226941   6.982   6.059   5.911 -0.1421  0.4253 -0.6456
 1793TIP3    H126942   7.067   6.082   5.874 -0.2432  0.9733 -0.5395
 1793TIP3    H226943   6.971   5.966   5.889  0.0584  0.5907 -1.4713
 1794TIP3   OH226944   6.922   2.225   7.897 -0.6213  0.0787  0.5658
 1794TIP3    H126945   6.913   2.289   7.826  2.2879  0.2581  0.2479
 1794TIP3    H226946   6.897   2.273   7.976  0.7497  1.4040  0.2291
 1795TIP3   OH226947   5.494   4.363   8.113  0.1505  0.1136 -0.0116
 1795TIP3    H126948   5.435   4.419   8.063 -1.0284  0.4270  1.6449
 1795TIP3    H226949   5.503   4.284   8.060 -1.2657  0.3246 -0.5977
 1796TIP3   OH226950   6.393   0.111   5.914 -0.0807  0.4125 -0.2502
 1796TIP3    H126951   6.331   0.178   5.942 -0.2833  0.6998 -1.3479
 1796TIP3    H226952   6.340   0.049   5.863  0.4979  0.5963 -1.0966
 1797TIP3   OH226953   6.863   6.948   1.505 -0.0405  0.2991 -0.0516
 1797TIP3    H126954   6.918   6.984   1.575  2.2272 -0.4112 -1.3584
 1797TIP3    H226955   6.895   6.992   1.426 -0.3218 -1.2544 -1.0574
 1798TIP3   OH226956   1.116   1.569   0.982  0.3444  0.0116  0.1938
 1798TIP3    H126957   1.129   1.483   1.022 -0.6194 -0.1450  0.1978
 1798TIP3    H226958   1.059   1.616   1.044  0.6202  0.5427  0.0504
 1799TIP3   OH226959   3.583   4.616   7.680  0.8428  0.5003  0.4129
 1799TIP3    H126960   3.637   4.567   7.618 -0.1134  0.8267 -0.7290
 1799TIP3    H226961   3.532   4.675   7.625  1.4279  2.2657  1.6912
 1800TIP3   OH226962   6.011   1.511   8.053  0.1612  0.4107 -0.2615
 1800TIP3    H126963   5.956   1.440   8.085 -0.7145  0.4025 -1.6983
 1800TIP3    H226964   5.963   1.546   7.977  1.0946  1.8234 -0.2368
 1801TIP3   OH226965   5.258   5.101   2.148 -0.1594  0.4579 -0.5194
 1801TIP3    H126966   5.348   5.066   2.151 -0.3443 -0.0300  2.2028
 1801TIP3    H226967   5.209   5.037   2.097  0.7555  0.0448 -0.9114
 1802TIP3   OH226968   6.261   4.292   7.964 -0.2161 -0.1518 -0.1889
 1802TIP3    H126969   6.202   4.346   8.017  1.3511  2.0439 -0.5591
 1802TIP3    H226970   6.294   4.227   8.026 -2.7867 -1.3452  0.0714
 1803TIP3   OH226971   2.906   0.649   1.627  0.3228 -0.8800  0.1985
 1803TIP3    H126972   2.952   0.647   1.712 -0.8304 -0.0079  0.8697
 1803TIP3    H226973   2.837   0.582   1.636 -0.7097  0.1974  0.5085
 1804TIP3   OH226974   1.479   0.254   1.480  0.3681  0.3342  0.4903
 1804TIP3    H126975   1.495   0.335   1.431  1.1382  0.9926  1.7640
 1804TIP3    H226976   1.471   0.282   1.571 -1.0936 -0.8464  0.7713
 1805TIP3   OH226977   2.856   4.404   1.936  0.4549  0.0823 -0.1615
 1805TIP3    H126978   2.841   4.462   1.861 -2.8509 -1.0063 -0.5066
 1805TIP3    H226979   2.865   4.317   1.898  0.2087 -0.2900  0.6158
 1806TIP3   OH226980   2.466   2.597   1.029  0.3816  0.0422 -0.4174
 1806TIP3    H126981   2.556   2.566   1.043 -0.1538 -1.5478 -0.2989
 1806TIP3    H226982   2.412   2.519   1.042 -1.0901  1.1552  0.3378
 1807TIP3   OH226983   0.109   6.772   1.627  0.6283  0.2466 -0.5994
 1807TIP3    H126984   0.108   6.746   1.535 -0.9587  2.5820 -1.3289
 1807TIP3    H226985   0.060   6.854   1.629  3.9090  2.3715  1.7413
 1808TIP3   OH226986   3.027   1.481   7.288  0.6927  0.0149  0.2780
 1808TIP3    H126987   3.074   1.487   7.204 -1.4646  3.0123 -0.8951
 1808TIP3    H226988   3.055   1.559   7.336  0.4349 -0.6729  1.5721
 1809TIP3   OH226989   1.652   0.641   1.552 -0.3479  0.6142  0.3380
 1809TIP3    H126990   1.608   0.607   1.630 -0.7379  1.1050  0.3409
 1809TIP3    H226991   1.674   0.564   1.500 -0.7607  0.3313  0.5804
 1810TIP3   OH226992   2.066   6.314   7.549  0.0647 -0.0547 -0.2393
 1810TIP3    H126993   2.059   6.252   7.476 -1.1185  0.2465 -0.3964
 1810TIP3    H226994   2.037   6.397   7.513  1.4074  0.5586  0.0450
 1811TIP3   OH226995   0.913   1.112   7.344 -0.0708  0.1393 -0.5152
 1811TIP3    H126996   0.839   1.065   7.307 -0.2900  1.2789 -1.6158
 1811TIP3    H226997   0.923   1.189   7.287  0.8612  0.9102  0.6419
 1812TIP3   OH226998   6.130   1.871   6.693  0.1542 -0.0918 -0.4383
 1812TIP3    H126999   6.083   1.853   6.775  1.3928  0.3512  0.3879
 1812TIP3    H227000   6.215   1.829   6.703  0.1735 -0.4085 -1.6923
 1813TIP3   OH227001   3.585   1.411   0.809  0.0301 -0.4535  0.4145
 1813TIP3    H127002   3.551   1.494   0.841 -2.2557 -1.6578  1.3352
 1813TIP3    H227003   3.615   1.430   0.720 -3.4454  0.7344 -0.6535
 1814TIP3   OH227004   1.346   6.294   1.778  0.3011  0.2976 -0.2311
 1814TIP3    H127005   1.283   6.351   1.823  0.1478  0.7846 -1.0391
 1814TIP3    H227006   1.332   6.208   1.816 -0.3024  0.5628  0.1653
 1815TIP3   OH227007   1.656   5.436   8.371 -0.3052  1.3321 -0.1880
 1815TIP3    H127008   1.688   5.517   8.411  0.1895  1.5356 -0.9629
 1815TIP3    H227009   1.607   5.465   8.294 -2.9342  1.0614  1.2740
 1816TIP3   OH227010   1.866   3.903   2.426 -0.2020 -0.6329 -0.9423
 1816TIP3    H127011   1.864   3.996   2.406  0.5272 -0.3421  0.2350
 1816TIP3    H227012   1.940   3.893   2.486 -0.8579 -1.8089 -0.2964
 1817TIP3   OH227013   5.336   5.898   6.566 -0.7955 -0.2717  0.4223
 1817TIP3    H127014   5.315   5.954   6.491 -0.9973 -1.6141 -0.5678
 1817TIP3    H227015   5.376   5.820   6.526  0.6424 -0.3070  1.8453
 1818TIP3   OH227016   1.326   4.954   8.270  0.2386 -0.0490  0.1740
 1818TIP3    H127017   1.318   5.024   8.205 -0.5060 -0.5573 -0.2962
 1818TIP3    H227018   1.341   4.875   8.217  1.9340 -0.1491  0.7217
 1819TIP3   OH227019   1.540   1.366   1.290  0.4472  0.1448  0.1819
 1819TIP3    H127020   1.569   1.341   1.377  0.7465 -0.0409  0.0318
 1819TIP3    H227021   1.453   1.405   1.303  1.1364  1.5275  0.7380
 1820TIP3   OH227022   5.143   5.244   0.026 -0.0881  0.1406  0.0747
 1820TIP3    H127023   5.132   5.293  -0.056  0.9417 -0.7292 -0.6067
 1820TIP3    H227024   5.198   5.300   0.080  0.5911  0.0064 -0.4689
 1821TIP3   OH227025   5.670   5.222   0.561 -0.8124 -0.4965 -0.0298
 1821TIP3    H127026   5.656   5.254   0.472  0.6564  2.5570  0.7028
 1821TIP3    H227027   5.582   5.219   0.599 -1.2666  0.0994 -0.9911
 1822TIP3   OH227028   2.515   5.803   1.082 -0.0632 -0.2315  0.1693
 1822TIP3    H127029   2.513   5.708   1.082 -1.3154 -0.3154  2.9570
 1822TIP3    H227030   2.609   5.825   1.087  0.1925 -1.4042  1.1307
 1823TIP3   OH227031   0.071   1.886   7.594  0.0443 -0.1647  0.3876
 1823TIP3    H127032   0.158   1.853   7.616  0.9159  0.6698 -1.5420
 1823TIP3    H227033   0.066   1.879   7.499 -1.8322  0.2433  0.4133
 1824TIP3   OH227034   3.580   0.036   1.395  0.1197  0.0830  0.0056
 1824TIP3    H127035   3.589  -0.031   1.464 -2.4008  1.1826  1.5439
 1824TIP3    H227036   3.528  -0.007   1.327  0.1208 -0.1082  0.1238
 1825TIP3   OH227037   6.549   5.169   2.070 -0.4342 -0.6910 -0.6825
 1825TIP3    H127038   6.458   5.169   2.041 -0.8449 -0.7403  0.5514
 1825TIP3    H227039   6.558   5.090   2.123  0.5309 -1.0585 -1.3603
 1826TIP3   OH227040   1.870   3.837   0.327  0.2275  0.6697  0.1527
 1826TIP3    H127041   1.874   3.933   0.331 -0.8090  0.7350  0.1112
 1826TIP3    H227042   1.874   3.816   0.234 -1.8482  0.8538 -0.0430
 1827TIP3   OH227043   1.288   1.722   2.269  0.1775  0.8482  0.2208
 1827TIP3    H127044   1.377   1.717   2.302 -0.3890 -0.1259  1.7105
 1827TIP3    H227045   1.256   1.808   2.298  0.1921  0.6264  0.9120
 1828TIP3   OH227046   2.883   4.095   2.285 -0.0854 -0.0252 -0.6735
 1828TIP3    H127047   2.970   4.131   2.267 -0.3775  1.2547  0.2977
 1828TIP3    H227048   2.823   4.165   2.261 -0.9869 -1.4019 -2.6828
 1829TIP3   OH227049   5.006   6.606   2.001 -0.3374  0.1657 -0.5526
 1829TIP3    H127050   5.024   6.614   2.094  2.1069 -0.3443 -0.9131
 1829TIP3    H227051   5.029   6.692   1.965 -1.5510  0.4583 -0.6984
 1830TIP3   OH227052   5.705   5.681   0.078 -0.4492  0.4971  0.3533
 1830TIP3    H127053   5.640   5.643   0.138 -0.8460 -0.1922 -0.5041
 1830TIP3    H227054   5.659   5.692  -0.005  0.4955  0.0807 -0.2469
 1831TIP3   OH227055   4.179   1.438   7.539  0.1382 -0.6545  0.1470
 1831TIP3    H127056   4.247   1.463   7.476  1.2299 -0.5777  1.3245
 1831TIP3    H227057   4.188   1.501   7.610 -2.0052  0.1399 -0.2026
 1832TIP3   OH227058   0.229   4.519   6.934 -0.0827  0.4520  0.2291
 1832TIP3    H127059   0.231   4.551   6.844  0.6159 -0.7751 -0.2177
 1832TIP3    H227060   0.137   4.503   6.952 -0.1193 -0.5637 -0.7603
 1833TIP3   OH227061   1.075   3.179   7.908 -0.0547 -0.2022  0.5093
 1833TIP3    H127062   1.115   3.120   7.844 -0.3324  1.1721 -1.0063
 1833TIP3    H227063   0.984   3.152   7.913 -0.0275 -0.3316  0.3210
 1834TIP3   OH227064   1.360   3.747   0.501 -0.4200 -0.2495  0.1150
 1834TIP3    H127065   1.454   3.743   0.486 -0.6266 -0.8488 -1.2173
 1834TIP3    H227066   1.345   3.830   0.545  0.5424  0.6456 -1.1959
 1835TIP3   OH227067   5.894   0.385   2.147  0.1226  0.2188 -0.4718
 1835TIP3    H127068   5.887   0.477   2.123  3.9254  0.5038 -1.1219
 1835TIP3    H227069   5.918   0.385   2.240  1.4514  0.0397 -0.7864
 1836TIP3   OH227070   3.740   1.734   0.742  0.8688  0.1124 -0.1518
 1836TIP3    H127071   3.654   1.733   0.784  0.3627 -1.2445 -1.1392
 1836TIP3    H227072   3.773   1.823   0.757 -0.8014  0.7334  0.0591
 1837TIP3   OH227073   1.519   3.725   5.751  0.0744  0.1608  0.3989
 1837TIP3    H127074   1.472   3.659   5.701 -0.3921  0.3547  0.5831
 1837TIP3    H227075   1.543   3.681   5.833 -1.9156  0.7718  1.3610
 1838TIP3   OH227076   2.382   4.101   6.462  0.1916  0.5886  0.1226
 1838TIP3    H127077   2.392   4.116   6.368 -0.5446 -0.3650 -0.1286
 1838TIP3    H227078   2.425   4.176   6.504 -0.6477  1.7170 -0.9798
 1839TIP3   OH227079   3.966   3.582   8.084 -0.5626 -0.3244  0.6103
 1839TIP3    H127080   3.984   3.498   8.126 -1.8912 -0.7025  0.4661
 1839TIP3    H227081   3.871   3.591   8.089 -0.6937 -0.0294 -1.6627
 1840TIP3   OH227082   5.589   3.766   6.013  0.0490 -0.0054 -0.3571
 1840TIP3    H127083   5.657   3.830   6.035 -0.5706  0.0452  1.5565
 1840TIP3    H227084   5.638   3.692   5.976  1.0396  0.4594 -0.0195
 1841TIP3   OH227085   0.119   5.810   0.221 -0.4496  0.2760 -0.0166
 1841TIP3    H127086   0.112   5.760   0.303 -0.3898 -1.6015 -1.0983
 1841TIP3    H227087   0.206   5.851   0.227 -1.4938  2.4070  1.9961
 1842TIP3   OH227088   1.427   2.142   2.016  0.1031 -0.2110  0.1901
 1842TIP3    H127089   1.414   2.227   2.057 -0.6479 -1.0224  1.6930
 1842TIP3    H227090   1.520   2.124   2.028  0.2948  0.4231 -0.2460
 1843TIP3   OH227091   3.441   1.572   7.475  0.7895  0.2576 -0.4148
 1843TIP3    H127092   3.437   1.531   7.388  1.1834 -0.3233 -0.1615
 1843TIP3    H227093   3.373   1.639   7.472 -1.3575 -1.7777 -0.1261
 1844TIP3   OH227094   2.778   6.894   8.277  0.9454 -0.4615 -0.2710
 1844TIP3    H127095   2.698   6.945   8.266 -0.0003 -1.6805  0.7202
 1844TIP3    H227096   2.822   6.898   8.192 -0.0247  0.4466 -0.7429
 1845TIP3   OH227097   3.301   4.735   0.052 -0.1027  0.5627  0.2995
 1845TIP3    H127098   3.291   4.814  -0.000  0.3112 -0.2981 -1.1286
 1845TIP3    H227099   3.344   4.765   0.133 -2.4466  2.2073  1.0253
 1846TIP3   OH227100   6.974   5.716   1.996  0.5008 -0.5081  0.5104
 1846TIP3    H127101   6.923   5.781   1.948  0.0828 -0.0914  1.4813
 1846TIP3    H227102   7.059   5.715   1.952 -0.1493 -0.8287 -0.8070
 1847TIP3   OH227103   4.651   3.948   7.912 -0.1433 -0.6649 -0.9160
 1847TIP3    H127104   4.642   3.873   7.853  0.8579 -0.6861 -1.0583
 1847TIP3    H227105   4.704   4.011   7.864  2.7391 -1.6261  0.7467
 1848TIP3   OH227106   0.396   3.166   6.389  0.6090  0.6395 -0.0566
 1848TIP3    H127107   0.367   3.199   6.304 -2.1730 -2.4982 -0.5439
 1848TIP3    H227108   0.447   3.088   6.369 -1.1511 -0.8848  1.0566
 1849TIP3   OH227109   0.754   0.836   6.222  0.6418  0.3333 -0.2768
 1849TIP3    H127110   0.774   0.854   6.130  0.1037  0.0203 -0.4572
 1849TIP3    H227111   0.821   0.773   6.250  0.9501  0.6115 -0.3822
 1850TIP3   OH227112   6.962   3.518   0.771 -0.3978 -0.0664  0.3700
 1850TIP3    H127113   7.008   3.563   0.843 -0.5178  0.3110  0.2141
 1850TIP3    H227114   6.996   3.559   0.692 -0.1298 -0.6144  0.2019
 1851TIP3   OH227115   1.448   4.777   8.089  0.0014  0.4817  1.1757
 1851TIP3    H127116   1.525   4.725   8.065 -0.6933  0.4777 -1.3204
 1851TIP3    H227117   1.376   4.714   8.089 -0.2150  0.7061  2.3171
 1852TIP3   OH227118   0.816   0.364   6.136  0.0822 -0.0172  0.1908
 1852TIP3    H127119   0.863   0.280   6.138 -1.7820 -1.1120  1.9811
 1852TIP3    H227120   0.741   0.348   6.079 -0.1569  0.4832  0.3643
 1853TIP3   OH227121   1.614   1.470   0.435 -0.1187 -0.3140  0.1052
 1853TIP3    H127122   1.545   1.471   0.369  0.1975  0.5382 -0.2206
 1853TIP3    H227123   1.591   1.542   0.495  0.8668  0.4668 -0.4191
 1854TIP3   OH227124   6.576   6.299   7.845 -0.3774 -0.5889  0.1289
 1854TIP3    H127125   6.514   6.290   7.918 -0.1761 -1.2276  0.2286
 1854TIP3    H227126   6.605   6.390   7.849 -1.5043 -0.2060 -0.0814
 1855TIP3   OH227127   1.850   4.821   7.490 -0.4410 -0.2397 -0.1139
 1855TIP3    H127128   1.859   4.767   7.412 -2.5271 -0.3123 -0.3630
 1855TIP3    H227129   1.836   4.910   7.455 -1.8044 -0.3384  0.1133
 1856TIP3   OH227130   2.583   3.014   7.958 -0.2650 -0.2455  0.6382
 1856TIP3    H127131   2.522   2.979   8.023 -0.5255  1.6696  1.5016
 1856TIP3    H227132   2.548   3.100   7.936  1.8949  0.7490  0.8724
 1857TIP3   OH227133   2.652   4.605   7.201 -0.0873 -0.2069  0.3182
 1857TIP3    H127134   2.707   4.582   7.126  0.8654 -0.0101  0.9274
 1857TIP3    H227135   2.565   4.618   7.164 -0.1419 -2.2559 -0.4288
 1858TIP3   OH227136   3.229   6.160   8.095 -0.6482 -0.1006 -0.1345
 1858TIP3    H127137   3.228   6.250   8.128  1.1205 -0.5072  1.1630
 1858TIP3    H227138   3.173   6.112   8.156  0.8178 -0.4079  1.0527
 1859TIP3   OH227139   4.571   0.170   6.795  0.2931 -0.0474 -0.0741
 1859TIP3    H127140   4.565   0.226   6.717 -1.9351 -1.3824 -0.9655
 1859TIP3    H227141   4.542   0.084   6.764  2.8508 -1.5510  1.4394
 1860TIP3   OH227142   6.094   2.636   0.349 -0.1642  0.5909  0.0473
 1860TIP3    H127143   6.177   2.632   0.395 -0.2407  0.8955  0.2121
 1860TIP3    H227144   6.029   2.653   0.417 -0.3008  0.8612 -0.1467
 1861TIP3   OH227145   2.306   6.311   1.578  0.3089  0.3819 -0.0318
 1861TIP3    H127146   2.394   6.290   1.547  1.0196  0.0724  1.9941
 1861TIP3    H227147   2.248   6.255   1.527  1.4322 -0.4778 -0.4181
 1862TIP3   OH227148   2.256   1.313   6.759  0.1059  0.4595  0.0567
 1862TIP3    H127149   2.233   1.289   6.849 -0.8595 -0.8173 -0.4914
 1862TIP3    H227150   2.187   1.373   6.731  0.0930  0.4143 -0.0098
 1863TIP3   OH227151   5.278   4.726   0.202 -0.0325 -0.4741 -0.7132
 1863TIP3    H127152   5.274   4.692   0.292 -0.0642  0.0758 -0.5065
 1863TIP3    H227153   5.220   4.667   0.152  0.7260 -1.3668 -0.5750
 1864TIP3   OH227154   6.322   4.064   1.089 -0.5276  0.7474 -0.1051
 1864TIP3    H127155   6.324   3.969   1.103  0.5946  0.2540 -3.0100
 1864TIP3    H227156   6.228   4.085   1.083 -0.9760  0.4400  3.3700
 1865TIP3   OH227157   4.313   0.260   0.516 -0.0091  0.3513 -0.2195
 1865TIP3    H127158   4.392   0.233   0.468  1.6079  0.8828  1.9684
 1865TIP3    H227159   4.347   0.297   0.598 -2.6198 -0.8884  1.5285
 1866TIP3   OH227160   2.389   5.514   7.963  0.2351 -0.7805 -0.2572
 1866TIP3    H127161   2.371   5.531   8.056  3.4801  0.4124  0.2837
 1866TIP3    H227162   2.323   5.449   7.937 -0.7675 -1.1776  2.8591
 1867TIP3   OH227163   1.773   1.549   0.225  0.2101  0.0025  0.4426
 1867TIP3    H127164   1.762   1.543   0.320  1.3977  0.6294  0.6435
 1867TIP3    H227165   1.861   1.584   0.214  0.4706 -1.0038 -0.9174
 1868TIP3   OH227166   2.703   0.211   8.046  0.1510 -0.7982 -0.5030
 1868TIP3    H127167   2.635   0.148   8.069  1.6033 -2.4051 -0.3927
 1868TIP3    H227168   2.742   0.237   8.130 -0.5330  0.4113 -0.5323
 1869TIP3   OH227169   6.512   6.710   1.291  0.2144 -0.0432  0.0243
 1869TIP3    H127170   6.486   6.710   1.199 -0.9042  1.2881  0.3080
 1869TIP3    H227171   6.568   6.633   1.300  0.2040 -0.2941 -1.7216
 1870TIP3   OH227172   4.584   5.846   0.536 -0.4625 -0.5907 -0.4999
 1870TIP3    H127173   4.672   5.808   0.531 -0.9061 -1.7062 -0.2241
 1870TIP3    H227174   4.525   5.771   0.523 -1.3727  0.3538 -2.0628
 1871TIP3   OH227175   6.911   4.535   8.264 -0.2458  0.3295 -0.4378
 1871TIP3    H127176   6.829   4.533   8.215  0.9097  0.0180 -2.4770
 1871TIP3    H227177   6.978   4.516   8.199  1.4104 -0.0308  1.2883
 1872TIP3   OH227178   6.209   6.915   7.466  0.0139 -0.0464  0.2371
 1872TIP3    H127179   6.127   6.931   7.512 -0.3250 -3.0657  0.9310
 1872TIP3    H227180   6.274   6.905   7.536  0.8350  1.4393 -0.2735
 1873TIP3   OH227181   1.342   4.933   6.446 -0.5558  0.0007 -0.1057
 1873TIP3    H127182   1.402   4.990   6.493 -0.9932  1.0934 -0.8367
 1873TIP3    H227183   1.398   4.883   6.386 -0.4906  2.3140 -2.1057
 1874TIP3   OH227184   3.324   2.463   2.222 -0.3466  0.9075  0.7019
 1874TIP3    H127185   3.294   2.434   2.309 -0.9070 -0.3749  0.1090
 1874TIP3    H227186   3.307   2.557   2.221  1.0675  1.2574  2.5392
 1875TIP3   OH227187   5.528   0.836   6.776  0.0933  0.3022 -0.5653
 1875TIP3    H127188   5.524   0.800   6.864 -0.3775  1.3303 -0.1562
 1875TIP3    H227189   5.589   0.778   6.729  0.1306 -0.4116  0.3473
 1876TIP3   OH227190   0.971   1.565   1.771 -0.3303 -0.4045  0.3335
 1876TIP3    H127191   1.035   1.541   1.839  0.2351  0.1819  0.0241
 1876TIP3    H227192   0.916   1.631   1.813 -1.4563 -1.6804  0.9612
 1877TIP3   OH227193   2.893   5.061   7.847 -0.2564  0.6834  0.5441
 1877TIP3    H127194   2.874   4.976   7.888 -1.1897  0.6970  0.1676
 1877TIP3    H227195   2.983   5.052   7.815  0.1980  0.3870  1.8546
 1878TIP3   OH227196   4.659   5.922   0.246 -0.4012 -0.1780 -0.3545
 1878TIP3    H127197   4.635   5.951   0.334 -1.3417  0.1404 -0.7023
 1878TIP3    H227198   4.659   6.002   0.193 -0.1312 -0.4068 -0.7086
 1879TIP3   OH227199   1.833   6.794   6.595  0.2880 -0.3314 -0.1009
 1879TIP3    H127200   1.805   6.720   6.542 -1.2397  0.7098 -0.8064
 1879TIP3    H227201   1.843   6.758   6.683  1.1972 -1.7117 -0.7250
 1880TIP3   OH227202   1.217   6.595   8.206  0.6354 -0.0309  0.2176
 1880TIP3    H127203   1.278   6.658   8.244  0.4176 -0.4663  1.3157
 1880TIP3    H227204   1.155   6.575   8.276  1.9165 -3.0339  0.6739
 1881TIP3   OH227205   1.594   5.717   1.255  0.6448  0.2527  0.3018
 1881TIP3    H127206   1.651   5.685   1.325 -0.2386 -1.7718  0.1572
 1881TIP3    H227207   1.542   5.641   1.230 -1.5955  1.8219 -0.1005
 1882TIP3   OH227208   3.375   3.469   6.146  0.1197  0.3081  0.3484
 1882TIP3    H127209   3.297   3.509   6.185  0.9635 -0.4165  2.9777
 1882TIP3    H227210   3.352   3.377   6.135  0.3012  0.2771  0.2194
 1883TIP3   OH227211   3.860   4.756   7.742 -0.2386  0.0479 -0.4171
 1883TIP3    H127212   3.871   4.695   7.815 -0.5153  0.7010  0.1783
 1883TIP3    H227213   3.841   4.699   7.667  0.5371 -0.6597 -0.0943
 1884TIP3   OH227214   4.158   3.049   7.762  0.1506 -0.2050  0.2456
 1884TIP3    H127215   4.223   2.995   7.716 -1.2415 -1.9936  0.2457
 1884TIP3    H227216   4.086   2.988   7.781 -0.2763  0.9936  2.8443
 1885TIP3   OH227217   3.975   0.803   1.924 -0.2098  0.0434  0.1309
 1885TIP3    H127218   3.882   0.803   1.902 -0.7823  0.3817  2.3587
 1885TIP3    H227219   3.990   0.717   1.963  0.9460 -0.8185 -2.0216
 1886TIP3   OH227220   1.910   5.617   1.076  0.6153 -0.4860 -0.2382
 1886TIP3    H127221   1.829   5.581   1.040  1.6349 -1.2008 -1.9640
 1886TIP3    H227222   1.953   5.658   1.001  1.2443  1.0930  0.9296
 1887TIP3   OH227223   4.035   3.504   6.610 -0.3370 -0.2860 -0.6583
 1887TIP3    H127224   3.986   3.427   6.584 -1.8130  0.3386  0.1348
 1887TIP3    H227225   3.970   3.562   6.651  1.1316  0.3710  0.9100
 1888TIP3   OH227226   0.110   2.467   6.820 -0.0949  0.4595 -0.2777
 1888TIP3    H127227   0.171   2.418   6.765  1.5986 -0.0426  1.9210
 1888TIP3    H227228   0.035   2.408   6.830 -0.5184  0.6341 -2.1181
 1889TIP3   OH227229   6.060   3.515   1.799 -0.1574 -0.0051 -0.0920
 1889TIP3    H127230   5.992   3.565   1.844  1.9396  0.2208  3.1338
 1889TIP3    H227231   6.050   3.426   1.831  1.0894  0.0691  0.6080
 1890TIP3   OH227232   4.072   3.285   6.034  0.1511 -0.5921 -0.1973
 1890TIP3    H127233   4.104   3.375   6.044 -0.5908 -0.3275 -0.1562
 1890TIP3    H227234   4.099   3.241   6.114  0.3817 -0.3633 -0.1479
 1891TIP3   OH227235   3.005   0.506   0.789  0.2190 -0.0569 -0.6040
 1891TIP3    H127236   2.990   0.596   0.760 -1.4955  0.1506  0.7768
 1891TIP3    H227237   2.924   0.480   0.832  0.9051 -2.0556 -0.3971
 1892TIP3   OH227238   1.021   2.880   7.616 -0.0247 -0.1902  0.6101
 1892TIP3    H127239   0.954   2.927   7.666  0.1408  0.0686  0.5922
 1892TIP3    H227240   0.978   2.800   7.586 -0.8609  0.7748 -0.8877
 1893TIP3   OH227241   3.918   1.446   7.275  0.6582  0.5370  1.0044
 1893TIP3    H127242   3.849   1.421   7.213  0.8307 -0.1574  1.0905
 1893TIP3    H227243   3.966   1.365   7.292 -1.4404 -0.1500  4.6636
 1894TIP3   OH227244   5.998   3.252   8.313 -0.1675  0.9657  0.3808
 1894TIP3    H127245   5.921   3.208   8.276 -1.8310  2.6762  1.5932
 1894TIP3    H227246   6.030   3.192   8.380 -0.4364  0.2055 -0.1662
 1895TIP3   OH227247   4.037   6.076   0.190  0.1556 -0.0499 -0.7018
 1895TIP3    H127248   4.129   6.049   0.188  0.4627  0.8687 -0.0394
 1895TIP3    H227249   4.036   6.149   0.252 -1.1973 -0.6926  0.0884
 1896TIP3   OH227250   3.230   6.894   0.007  0.1308  0.3374 -0.2853
 1896TIP3    H127251   3.297   6.883  -0.061  0.3031  0.9282 -0.2260
 1896TIP3    H227252   3.182   6.972  -0.020 -0.0692  0.3328  0.0521
 1897TIP3   OH227253   6.598   5.118   0.465 -0.0708 -0.1915  0.4691
 1897TIP3    H127254   6.666   5.095   0.529  0.6641  2.8305  0.9409
 1897TIP3    H227255   6.634   5.090   0.381  1.6922  1.0669  0.7459
 1898TIP3   OH227256   1.170   4.213   0.805  0.3184  0.1177  0.4749
 1898TIP3    H127257   1.175   4.187   0.713 -0.7986  0.2288  0.3695
 1898TIP3    H227258   1.247   4.174   0.845  0.1375 -1.0258 -0.2461
 1899TIP3   OH227259   5.736   6.805   1.034 -0.0828 -0.0672 -0.5240
 1899TIP3    H127260   5.801   6.787   0.966 -1.2089 -1.8450 -1.2056
 1899TIP3    H227261   5.677   6.729   1.031 -0.7646  0.3114  1.7392
 1900TIP3   OH227262   0.821   5.471   8.366 -0.2622 -0.3673  0.3560
 1900TIP3    H127263   0.803   5.378   8.379 -2.0052  0.0120  0.8070
 1900TIP3    H227264   0.817   5.509   8.454 -0.9434  0.3566  0.0241
 1901TIP3   OH227265   4.785   0.926   0.720  0.0048  0.3650  0.0131
 1901TIP3    H127266   4.690   0.916   0.712 -0.3503  2.0069  1.5634
 1901TIP3    H227267   4.819   0.837   0.709 -1.8985 -0.6822  1.7681
 1902TIP3   OH227268   0.165   4.714   1.278 -0.7994 -0.0105  0.0151
 1902TIP3    H127269   0.159   4.639   1.337  1.1046 -0.2990 -0.1035
 1902TIP3    H227270   0.196   4.677   1.195  2.6855  1.1383  0.6658
 1903TIP3   OH227271   4.321   2.344   7.273 -0.2023 -0.0649 -0.1664
 1903TIP3    H127272   4.385   2.392   7.221  0.5289 -0.7874  0.0400
 1903TIP3    H227273   4.297   2.269   7.219  0.6899 -0.9117  0.5824
 1904TIP3   OH227274   2.166   3.419   7.966 -0.3348  0.1573  0.4945
 1904TIP3    H127275   2.149   3.513   7.966  2.8809  0.8595  1.6734
 1904TIP3    H227276   2.163   3.394   8.058  2.0902 -0.1317  0.5495
 1905TIP3   OH227277   1.175   4.839   0.824 -0.6082 -0.1899 -0.0968
 1905TIP3    H127278   1.261   4.802   0.842 -0.6582 -0.4424 -0.3797
 1905TIP3    H227279   1.176   4.924   0.869 -0.1227 -0.0844 -0.2997
 1906TIP3   OH227280   2.460   0.990   0.800  0.0872  0.0174  0.3346
 1906TIP3    H127281   2.368   0.964   0.795  0.2748 -0.5374 -0.4050
 1906TIP3    H227282   2.475   1.006   0.893 -0.0034 -2.7036  0.8870
 1907TIP3   OH227283   6.370   4.525   0.388  1.0247  0.1841  0.1734
 1907TIP3    H127284   6.413   4.479   0.460  1.4855 -0.3581 -0.4322
 1907TIP3    H227285   6.388   4.618   0.404 -2.9921  0.6735  3.4532
 1908TIP3   OH227286   3.184   5.195   0.304 -0.1563 -0.0036 -0.1805
 1908TIP3    H127287   3.239   5.235   0.237 -1.1323  1.4289 -0.1586
 1908TIP3    H227288   3.104   5.247   0.305 -1.6929 -2.2084 -0.4195
 1909TIP3   OH227289   3.530   5.826   7.233 -0.2293 -0.4043 -0.1269
 1909TIP3    H127290   3.439   5.802   7.251  0.0846 -1.5603  0.0081
 1909TIP3    H227291   3.564   5.856   7.317 -0.3683 -0.3674 -0.0834
 1910TIP3   OH227292   5.348   0.609   6.086  0.3676 -0.6280  0.1007
 1910TIP3    H127293   5.408   0.606   6.012 -0.8648  0.3680 -1.0045
 1910TIP3    H227294   5.400   0.645   6.158  1.2194 -0.1963 -0.7080
 1911TIP3   OH227295   5.960   0.790   8.074  0.1241 -0.3398 -0.0977
 1911TIP3    H127296   5.925   0.782   8.163  0.6614  0.3160  0.1764
 1911TIP3    H227297   5.894   0.841   8.027  0.0865 -0.2427  0.0607
 1912TIP3   OH227298   2.805   1.457   1.940  0.0507 -0.1540  0.2042
 1912TIP3    H127299   2.859   1.482   1.866  0.3113 -3.6371 -0.9860
 1912TIP3    H227300   2.861   1.400   1.993 -0.5585  1.1666  2.3950
 1913TIP3   OH227301   2.204   5.922   6.923  0.1347  0.1196  0.0282
 1913TIP3    H127302   2.123   5.873   6.942  0.3836 -1.4952 -2.5800
 1913TIP3    H227303   2.195   5.949   6.832  2.3341  0.3344 -0.1764
 1914TIP3   OH227304   4.552   3.190   0.729 -0.2769 -0.1526 -0.4224
 1914TIP3    H127305   4.503   3.248   0.787  1.1880  0.3409  0.3642
 1914TIP3    H227306   4.556   3.238   0.646  0.6804  0.7746  0.1385
 1915TIP3   OH227307   6.144   0.775   0.176 -0.3111 -0.3923 -0.0705
 1915TIP3    H127308   6.137   0.697   0.121  3.2671 -0.4748 -0.5987
 1915TIP3    H227309   6.236   0.779   0.202 -0.1091  4.0555 -0.7026
 1916TIP3   OH227310   4.422   3.322   7.120 -0.4324 -0.3439  0.1708
 1916TIP3    H127311   4.348   3.298   7.065 -2.3454  0.6603  2.1633
 1916TIP3    H227312   4.479   3.245   7.119 -0.8001 -0.6804 -2.4069
 1917TIP3   OH227313   1.153   5.323   7.638 -0.3432  0.0136  0.3006
 1917TIP3    H127314   1.147   5.278   7.723  0.9001 -0.6513  0.0536
 1917TIP3    H227315   1.231   5.379   7.646  0.6998 -1.2021 -0.9013
 1918TIP3   OH227316   6.007   3.474   0.959  0.6708 -0.5053  0.7511
 1918TIP3    H127317   6.018   3.392   1.007  1.4088 -0.4214  0.7286
 1918TIP3    H227318   6.021   3.451   0.867  1.4292 -0.2549  0.7988
 1919TIP3   OH227319   4.331   0.296   0.793  0.0274 -0.1782 -0.2977
 1919TIP3    H127320   4.355   0.210   0.828  0.0363  0.6466  1.8871
 1919TIP3    H227321   4.250   0.319   0.840 -0.2876  0.7752 -1.2628
 1920TIP3   OH227322   3.443   4.211   6.741 -0.5616 -0.2874 -0.3106
 1920TIP3    H127323   3.350   4.189   6.751 -0.9088  1.3829  0.5237
 1920TIP3    H227324   3.468   4.248   6.825  0.9561 -0.9372 -0.4420
 1921TIP3   OH227325   2.838   3.724   7.177 -0.4784 -0.1877 -0.7601
 1921TIP3    H127326   2.785   3.772   7.113 -0.3884 -1.5681 -1.9128
 1921TIP3    H227327   2.928   3.750   7.158 -0.5940  1.1817  0.3714
 1922TIP3   OH227328   4.573   5.488   7.038 -0.1414  0.2418 -0.2604
 1922TIP3    H127329   4.649   5.445   6.998 -1.0645 -0.2775 -1.5390
 1922TIP3    H227330   4.539   5.545   6.969 -0.3402  1.2343  0.6285
 1923TIP3   OH227331   3.295   6.508   1.313 -0.2973 -0.3007  0.2393
 1923TIP3    H127332   3.328   6.598   1.311 -2.4746  0.6141  1.7823
 1923TIP3    H227333   3.336   6.469   1.389 -0.1547 -0.2748  0.1756
 1924TIP3   OH227334   5.137   5.653   0.012  0.7013  0.4875 -0.2342
 1924TIP3    H127335   5.133   5.603  -0.069  0.0335  0.0823  0.0392
 1924TIP3    H227336   5.156   5.588   0.080  0.3946  0.6802  0.0441
 1925TIP3   OH227337   2.995   3.390   6.654 -0.1908 -0.6839 -0.3556
 1925TIP3    H127338   3.070   3.404   6.712  0.8779  0.3348 -1.8972
 1925TIP3    H227339   3.009   3.451   6.582 -1.1793 -2.2297 -1.9517
 1926TIP3   OH227340   7.012   4.689   0.174  0.0079 -0.2901  0.1750
 1926TIP3    H127341   7.025   4.603   0.135  2.4948  0.9985 -2.1535
 1926TIP3    H227342   7.038   4.678   0.266  1.4145 -1.8081 -0.3615
 1927TIP3   OH227343   4.731   4.719   2.391 -0.7356 -0.3523  0.3156
 1927TIP3    H127344   4.664   4.775   2.352  0.6915 -0.3671 -2.3584
 1927TIP3    H227345   4.810   4.772   2.392 -0.2684 -1.0163  1.5093
 1928TIP3   OH227346   3.788   1.089   0.684  0.3836 -0.4512  0.4430
 1928TIP3    H127347   3.700   1.052   0.688 -0.4041  1.3012  0.4418
 1928TIP3    H227348   3.816   1.093   0.776 -0.3673  0.7407  0.6563
 1929TIP3   OH227349   3.559   3.903   7.465  0.0896  0.1818 -0.0004
 1929TIP3    H127350   3.631   3.946   7.419 -1.4890  2.3196 -0.6470
 1929TIP3    H227351   3.493   3.972   7.476 -1.7260 -1.5885  0.8719
 1930TIP3   OH227352   4.852   0.686   6.550  0.5208  0.2757 -0.2693
 1930TIP3    H127353   4.816   0.767   6.515  0.0922  0.1180 -0.1961
 1930TIP3    H227354   4.780   0.623   6.543  1.0460 -0.2731 -0.9303
 1931TIP3   OH227355   5.339   1.634   7.307  0.3934 -0.4691 -0.2940
 1931TIP3    H127356   5.250   1.664   7.287  0.1997 -0.8671 -0.0451
 1931TIP3    H227357   5.336   1.540   7.291  0.8381 -0.4471 -0.5095
 1932TIP3   OH227358   2.766   4.662   7.430  0.4513  0.1051 -0.2782
 1932TIP3    H127359   2.860   4.662   7.410  0.0948  0.9000 -2.1330
 1932TIP3    H227360   2.724   4.639   7.347 -0.9652 -2.0123  0.9275
 1933TIP3   OH227361   0.187   3.349   1.239 -0.2921 -0.2932  0.1781
 1933TIP3    H127362   0.233   3.266   1.238 -0.4621 -0.4369  1.8014
 1933TIP3    H227363   0.243   3.408   1.188 -1.1860 -1.8470 -2.8504
 1934TIP3   OH227364   5.982   1.817   0.896 -0.2052 -0.5132 -0.2195
 1934TIP3    H127365   6.055   1.774   0.942  0.4506  0.1915 -0.5719
 1934TIP3    H227366   5.999   1.911   0.908  0.2965 -0.2936 -2.3513
 1935TIP3   OH227367   0.216   6.221   6.414  0.4052 -0.0970 -0.1252
 1935TIP3    H127368   0.225   6.266   6.497  1.2938  0.1490 -0.3472
 1935TIP3    H227369   0.122   6.202   6.407  0.5463 -1.9412  1.8641
 1936TIP3   OH227370   2.726   5.804   6.857  0.5724  0.4794  0.0304
 1936TIP3    H127371   2.637   5.798   6.893  0.0915 -0.7832 -1.2722
 1936TIP3    H227372   2.714   5.841   6.770  1.3753  0.6282 -0.0231
 1937TIP3   OH227373   0.894   1.750   0.373 -0.8276 -0.3119 -0.8294
 1937TIP3    H127374   0.967   1.751   0.311 -0.1876 -0.5582 -0.0969
 1937TIP3    H227375   0.899   1.835   0.417  0.3973 -1.1353  0.7536
 1938TIP3   OH227376   2.292   0.901   0.216  0.1714 -0.2696  0.7801
 1938TIP3    H127377   2.285   0.947   0.299  1.7064  0.5597  0.4985
 1938TIP3    H227378   2.213   0.849   0.210 -0.2728  0.1653  2.4492
 1939TIP3   OH227379   6.329   0.783   0.805 -0.7417  0.3092  0.2341
 1939TIP3    H127380   6.302   0.732   0.729 -3.5294 -0.6364  1.7210
 1939TIP3    H227381   6.380   0.855   0.769 -0.5933 -0.9957 -2.3465
 1940TIP3   OH227382   5.001   4.722   7.260 -0.1595  0.2251  0.1357
 1940TIP3    H127383   4.943   4.647   7.245  1.2884 -0.6937 -1.2317
 1940TIP3    H227384   4.996   4.738   7.354 -0.4386 -1.6527  0.4834
 1941TIP3   OH227385   7.004   0.091   7.353 -0.3851  0.4784  0.0175
 1941TIP3    H127386   7.097   0.068   7.364 -0.4264  0.4381  0.2817
 1941TIP3    H227387   7.006   0.178   7.313 -0.2320  0.7769  0.6625
 1942TIP3   OH227388   5.448   1.338   0.065  0.9276 -0.7822  0.0389
 1942TIP3    H127389   5.490   1.420   0.092 -1.1977  0.2514  0.3374
 1942TIP3    H227390   5.479   1.324  -0.024  3.4571 -1.1535  0.8848
 1943TIP3   OH227391   4.623   3.391   6.736  0.6551  0.2374  0.3303
 1943TIP3    H127392   4.543   3.410   6.784  0.2241 -1.4068  0.3451
 1943TIP3    H227393   4.667   3.324   6.788  1.7184  0.6508 -0.0157
 1944TIP3   OH227394   4.610   6.693   0.005  0.0389 -0.6417 -0.3297
 1944TIP3    H127395   4.650   6.690   0.092  1.0092  0.6498 -0.6941
 1944TIP3    H227396   4.655   6.625  -0.045  1.6943  0.5954 -0.6500
 1945TIP3   OH227397   5.530   5.389   7.079 -0.5355  0.0012  0.3743
 1945TIP3    H127398   5.562   5.472   7.114 -0.5995  0.6632 -1.0842
 1945TIP3    H227399   5.480   5.350   7.151  1.0651  0.3204  1.7083
 1946TIP3   OH227400   0.790   3.908   7.270 -0.2632 -0.0701 -0.3615
 1946TIP3    H127401   0.807   3.825   7.226 -1.3033 -1.0224  0.9762
 1946TIP3    H227402   0.694   3.914   7.275 -0.2428 -0.6014  2.7543
 1947TIP3   OH227403   2.827   5.281   1.218  0.8840 -0.0397 -0.1589
 1947TIP3    H127404   2.840   5.372   1.244  1.4946 -0.2547  0.3216
 1947TIP3    H227405   2.905   5.236   1.249  0.5934 -0.7273 -0.4010
 1948TIP3   OH227406   1.006   3.758   0.243  0.5016  0.4265  0.7194
 1948TIP3    H127407   0.994   3.827   0.177  0.4099 -0.7219 -0.5179
 1948TIP3    H227408   1.099   3.738   0.239  0.3918 -0.0427  0.5320
 1949TIP3   OH227409   1.870   6.600   0.648  0.1087 -0.1709 -0.0326
 1949TIP3    H127410   1.814   6.536   0.692  0.6188 -1.9117 -1.7853
 1949TIP3    H227411   1.956   6.587   0.688  0.0898 -0.1760  0.0072
 1950TIP3   OH227412   2.902   6.939   8.031  0.6623  0.2046 -0.9922
 1950TIP3    H127413   2.904   7.029   7.998  3.8704 -0.0628 -1.7762
 1950TIP3    H227414   2.964   6.892   7.976  1.5569 -1.7261  1.5057
 1951TIP3   OH227415   6.608   3.841   1.095 -0.0588  0.6130 -0.2796
 1951TIP3    H127416   6.649   3.916   1.138 -0.3278  0.3455  0.4518
 1951TIP3    H227417   6.679   3.777   1.086 -0.6023 -0.5123  2.4845
 1952TIP3   OH227418   4.908   3.783   8.123  0.2696  0.0379 -0.3473
 1952TIP3    H127419   4.931   3.817   8.037  0.3432 -1.3394 -0.8892
 1952TIP3    H227420   4.851   3.850   8.161  1.2960  1.2717 -0.9141
 1953TIP3   OH227421   4.901   6.592   1.529 -0.2761 -0.2856  0.0714
 1953TIP3    H127422   4.888   6.685   1.545 -1.6684 -0.5002  0.3007
 1953TIP3    H227423   4.833   6.568   1.466 -1.2211 -1.5305  1.4895
 1954TIP3   OH227424   3.849   0.324   6.568 -0.0150 -0.1955  0.1921
 1954TIP3    H127425   3.835   0.374   6.648  0.3169  0.7003 -0.2861
 1954TIP3    H227426   3.776   0.348   6.511 -0.0908 -0.5983  0.1163
 1955TIP3   OH227427   6.712   6.516   1.218 -0.5919  0.0856  0.4370
 1955TIP3    H127428   6.805   6.493   1.225 -0.8975 -1.2603  0.2027
 1955TIP3    H227429   6.690   6.498   1.127 -0.9801  0.8631  0.3669
 1956TIP3   OH227430   1.128   6.017   8.011  0.3236  0.0377  0.2542
 1956TIP3    H127431   1.115   6.089   8.072  1.1891  0.5064 -0.0923
 1956TIP3    H227432   1.071   6.038   7.937 -0.7886 -0.5734  0.9104
 1957TIP3   OH227433   0.885   0.904   7.929 -0.3819 -0.1162  0.3199
 1957TIP3    H127434   0.946   0.894   8.003 -0.4197  1.3031  0.5561
 1957TIP3    H227435   0.929   0.858   7.857  1.9453  2.4038 -0.0394
 1958TIP3   OH227436   6.586   4.920   1.666  0.0116 -0.0914 -0.2002
 1958TIP3    H127437   6.665   4.911   1.720  0.4630 -1.7817 -1.0558
 1958TIP3    H227438   6.520   4.868   1.712 -0.0451 -0.2360 -0.4416
 1959TIP3   OH227439   2.248   5.188   1.251  0.2916 -0.4016  0.0449
 1959TIP3    H127440   2.329   5.151   1.286  0.0850  1.2562  2.5242
 1959TIP3    H227441   2.236   5.269   1.300 -1.6561  0.6125 -1.9322
 1960TIP3   OH227442   0.743   3.877   0.303  0.2159 -0.0082 -0.2178
 1960TIP3    H127443   0.815   3.816   0.287  0.2995 -0.3996  1.4290
 1960TIP3    H227444   0.738   3.931   0.224  1.9408 -0.3473 -0.5882
 1961TIP3   OH227445   5.109   0.824   0.394  0.2545  0.1274 -0.6430
 1961TIP3    H127446   5.204   0.817   0.385  0.2524 -1.9944  0.3011
 1961TIP3    H227447   5.076   0.739   0.365 -1.0966 -0.2032  1.6070
 1962TIP3   OH227448   3.414   4.410   7.562 -0.0963  0.0215  0.5773
 1962TIP3    H127449   3.424   4.318   7.586 -0.1072 -0.0585  0.2802
 1962TIP3    H227450   3.368   4.449   7.637 -2.0248 -0.6764 -0.1708
 1963TIP3   OH227451   4.548   5.193   0.668 -0.5109  0.5109 -0.4716
 1963TIP3    H127452   4.604   5.241   0.607  1.1880 -1.6312 -0.6827
 1963TIP3    H227453   4.566   5.101   0.651 -0.7559 -0.1913  2.5545
 1964TIP3   OH227454   3.652   5.595   1.395  0.1147 -0.2632 -0.4329
 1964TIP3    H127455   3.707   5.653   1.342  0.6518  0.6040  1.0235
 1964TIP3    H227456   3.582   5.568   1.336  0.0719  1.5545 -1.2763
 1965TIP3   OH227457   3.084   5.886   1.237 -0.1547  0.1283  0.1224
 1965TIP3    H127458   3.093   5.969   1.191  4.0112 -0.1632  0.0891
 1965TIP3    H227459   3.119   5.902   1.324  0.2589 -1.4594  0.2771
 1966TIP3   OH227460   1.698   3.523   6.783 -0.1147 -0.4775  0.3574
 1966TIP3    H127461   1.774   3.470   6.802 -0.4080 -1.6638 -1.4619
 1966TIP3    H227462   1.650   3.529   6.866  0.3747 -2.3512  0.8182
 1967TIP3   OH227463   1.482   3.065   0.547  0.4566  0.0104 -0.3470
 1967TIP3    H127464   1.569   3.039   0.575  0.5785 -0.3572 -1.0475
 1967TIP3    H227465   1.427   2.988   0.563  0.6792 -0.4792 -1.7842
 1968TIP3   OH227466   1.259   1.465   0.641 -0.0905 -0.1422 -0.3819
 1968TIP3    H127467   1.171   1.495   0.664  0.3411  1.0671 -0.2840
 1968TIP3    H227468   1.269   1.486   0.548  0.6873  1.2366 -0.0058
 1969TIP3   OH227469   1.518   0.052   1.190  0.8628  0.2380 -0.2147
 1969TIP3    H127470   1.429   0.018   1.198  0.5252  1.1242 -0.1312
 1969TIP3    H227471   1.512   0.120   1.123  1.2042  1.1885  0.6900
 1970TIP3   OH227472   1.043   2.187   6.890 -0.7218 -0.1137  0.3848
 1970TIP3    H127473   1.014   2.098   6.868  2.3578 -0.9344 -0.8570
 1970TIP3    H227474   1.104   2.174   6.963  0.6198  0.7945 -0.5381
 1971TIP3   OH227475   3.949   5.530   0.340  0.0697 -0.6356  0.6132
 1971TIP3    H127476   3.978   5.595   0.276  1.7347 -1.1461  0.8075
 1971TIP3    H227477   3.990   5.448   0.312 -0.4104 -1.1863  1.4754
 1972TIP3   OH227478   0.538   6.129   2.440 -0.3265 -0.2480 -0.5068
 1972TIP3    H127479   0.468   6.069   2.415  1.5294 -1.5525 -3.0297
 1972TIP3    H227480   0.529   6.203   2.381  0.8839 -0.8440 -1.4917
 1973TIP3   OH227481   4.713   0.428   8.265 -0.0774  0.0777 -0.0739
 1973TIP3    H127482   4.688   0.481   8.190 -1.3800  0.2853  0.4809
 1973TIP3    H227483   4.701   0.486   8.340  1.6065  0.0117  0.2951
 1974TIP3   OH227484   0.966   5.928   7.500  0.4178 -0.3468 -0.0130
 1974TIP3    H127485   0.988   5.876   7.578  1.3492 -1.5863 -1.0548
 1974TIP3    H227486   1.029   6.000   7.501  1.0962 -0.9236 -0.1426
 1975TIP3   OH227487   4.887   3.206   1.148 -0.1549  0.1871 -0.2164
 1975TIP3    H127488   4.874   3.117   1.181  1.6046 -0.1074 -0.1858
 1975TIP3    H227489   4.881   3.197   1.053 -1.2336  0.2931 -0.1722
 1976TIP3   OH227490   2.470   3.872   6.614  0.1180 -0.4686 -0.3787
 1976TIP3    H127491   2.426   3.917   6.542 -0.9562 -1.1773 -0.1871
 1976TIP3    H227492   2.496   3.942   6.673 -0.2742  0.0172 -0.7721
 1977TIP3   OH227493   3.473   5.270   5.951 -0.2285  0.0096  0.3621
 1977TIP3    H127494   3.385   5.305   5.937  0.3592  0.7211 -2.1813
 1977TIP3    H227495   3.461   5.176   5.960 -1.1248 -0.2740 -2.7551
 1978TIP3   OH227496   2.450   0.913   6.448 -0.0955 -0.1034  1.0338
 1978TIP3    H127497   2.442   0.994   6.498  1.4016  0.7348 -0.0055
 1978TIP3    H227498   2.412   0.933   6.362 -1.3107 -1.0713  1.3185
 1979TIP3   OH227499   0.534   4.585   0.234  0.1862 -0.3150  1.0179
 1979TIP3    H127500   0.484   4.534   0.297 -2.1679 -1.1706 -1.3747
 1979TIP3    H227501   0.495   4.672   0.237 -0.2300 -0.4782  0.4509
 1980TIP3   OH227502   4.784   2.381   0.512 -0.3417  0.1525 -0.1108
 1980TIP3    H127503   4.729   2.452   0.545  0.0221  0.1708  0.4627
 1980TIP3    H227504   4.785   2.316   0.582 -0.0316 -0.0669 -0.3133
 1981TIP3   OH227505   0.230   7.005   7.355 -0.2073  0.3441  0.1979
 1981TIP3    H127506   0.206   6.946   7.283 -1.2301  0.1998  0.6472
 1981TIP3    H227507   0.312   6.967   7.389  0.1339  0.2481 -0.6877
 1982TIP3   OH227508   6.716   1.683   8.208  0.3291  0.2624 -0.5208
 1982TIP3    H127509   6.792   1.626   8.193  1.2461  1.4146 -0.3731
 1982TIP3    H227510   6.643   1.638   8.166  0.2015 -2.8450  2.5388
 1983TIP3   OH227511   0.817   0.818   0.310  0.0671 -0.4442  0.1792
 1983TIP3    H127512   0.726   0.812   0.282 -0.9739  2.3688  2.5289
 1983TIP3    H227513   0.851   0.895   0.265  0.7306 -0.3904  0.7631
 1984TIP3   OH227514   2.413   3.932   7.051  0.4139  0.4757  0.6419
 1984TIP3    H127515   2.461   3.926   7.134  0.3373 -1.9820  0.5696
 1984TIP3    H227516   2.323   3.954   7.078 -0.0623 -2.1062  1.4701
 1985TIP3   OH227517   4.003   1.509   1.855  0.6168  0.1746 -0.2054
 1985TIP3    H127518   4.036   1.542   1.771 -1.6944  1.6374 -0.6280
 1985TIP3    H227519   3.945   1.578   1.887 -0.3853 -1.3463  1.4584
 1986TIP3   OH227520   0.973   2.282   7.629  0.1869 -0.3957 -0.5203
 1986TIP3    H127521   0.947   2.337   7.704  0.3073 -1.6514  0.4664
 1986TIP3    H227522   0.944   2.332   7.553 -1.7286  0.0286  0.4132
 1987TIP3   OH227523   2.179   4.597   7.800  0.1516 -0.0576  0.3532
 1987TIP3    H127524   2.108   4.641   7.754  0.2419  1.0534  1.2419
 1987TIP3    H227525   2.143   4.577   7.887  0.3448 -1.1409  0.2070
 1988TIP3   OH227526   4.938   2.384   6.497 -0.5220  0.1874 -0.9173
 1988TIP3    H127527   4.943   2.363   6.404 -1.5537 -0.0566 -0.9255
 1988TIP3    H227528   4.879   2.319   6.534 -0.8633  0.8448 -0.2637
 1989TIP3   OH227529   5.133   3.196   7.996  0.3019 -0.0560 -0.0841
 1989TIP3    H127530   5.220   3.163   7.971  0.2343  0.7254 -1.4789
 1989TIP3    H227531   5.093   3.222   7.913 -0.6949  0.9677  0.6889
 1990TIP3   OH227532   6.820   1.697   7.731  0.1828  0.0724  0.4730
 1990TIP3    H127533   6.726   1.681   7.740  0.3173 -0.2604  1.3612
 1990TIP3    H227534   6.849   1.633   7.666 -0.3217  0.6504 -0.3340
 1991TIP3   OH227535   4.310   5.566   8.130  0.0016 -0.9371  0.5208
 1991TIP3    H127536   4.243   5.585   8.064 -0.2048 -1.9972  0.4145
 1991TIP3    H227537   4.262   5.524   8.201  0.2979 -0.2037  1.1680
 1992TIP3   OH227538   1.761   4.217   6.891  0.1015 -0.1633 -0.7247
 1992TIP3    H127539   1.701   4.160   6.844  0.4686  0.3996 -1.9167
 1992TIP3    H227540   1.847   4.178   6.877  0.1332 -0.4034  0.1178
 1993TIP3   OH227541   4.277   4.977   7.133  0.3375  0.5407  0.4068
 1993TIP3    H127542   4.357   5.028   7.136 -0.4351  1.7644  2.0049
 1993TIP3    H227543   4.228   5.011   7.058 -0.3490  2.5344  1.6842
 1994TIP3   OH227544   4.733   5.398   6.169  0.2365  0.5579  0.0571
 1994TIP3    H127545   4.729   5.309   6.133 -1.6284  0.1671  1.1003
 1994TIP3    H227546   4.672   5.448   6.114  1.9773  1.4945 -1.1390
 1995TIP3   OH227547   6.586   3.008   1.784  0.5540 -0.2869  0.0941
 1995TIP3    H127548   6.552   3.096   1.796 -2.7297 -1.6144  1.6691
 1995TIP3    H227549   6.523   2.966   1.725  1.0226 -2.0642  0.8002
 1996TIP3   OH227550   0.795   5.137   1.317 -0.4697  0.5582  0.2057
 1996TIP3    H127551   0.848   5.183   1.381 -0.7346  1.5364 -0.2703
 1996TIP3    H227552   0.858   5.099   1.256 -0.2647  0.4421  0.4852
 1997TIP3   OH227553   0.303   1.501   8.029 -0.5223  0.4728 -0.4233
 1997TIP3    H127554   0.350   1.580   8.055  0.2586 -0.8910  2.7356
 1997TIP3    H227555   0.217   1.510   8.070 -0.4793 -0.2774 -0.1720
 1998TIP3   OH227556   3.731   1.373   7.494  0.6539 -0.4641 -0.5201
 1998TIP3    H127557   3.768   1.412   7.415  1.5538  0.6072  0.3991
 1998TIP3    H227558   3.779   1.291   7.505 -1.0476 -1.8137 -2.3021
 1999TIP3   OH227559   6.861   1.889   2.588 -0.6298  0.8410  0.3770
 1999TIP3    H127560   6.799   1.833   2.634 -0.5788  0.5547  0.1011
 1999TIP3    H227561   6.915   1.927   2.658 -0.3430  0.1559  0.5415
 2000TIP3   OH227562   2.416   5.372   0.768  0.1750 -0.2028  0.4748
 2000TIP3    H127563   2.409   5.322   0.687  2.0901 -0.1671  0.2399
 2000TIP3    H227564   2.508   5.401   0.770 -0.2297  1.0996  1.8871
 2001TIP3   OH227565   0.780   1.892   1.375  0.0381  0.4090 -0.2944
 2001TIP3    H127566   0.690   1.924   1.382 -0.7854 -1.9413  0.5799
 2001TIP3    H227567   0.801   1.902   1.282 -1.4157  0.2678 -0.6722
 2002TIP3   OH227568   5.315   0.366   0.644  0.2870 -0.0166  0.0292
 2002TIP3    H127569   5.324   0.392   0.552  0.1392  1.5148  0.4268
 2002TIP3    H227570   5.224   0.338   0.652 -0.0192  0.9292 -0.0423
 2003TIP3   OH227571   1.954   3.120   5.990  0.0155  0.3911  0.2246
 2003TIP3    H127572   1.859   3.129   5.983 -0.0643 -0.9313 -0.7205
 2003TIP3    H227573   1.980   3.079   5.907  1.0036 -2.0863  1.6473
 2004TIP3   OH227574   5.152   5.621   6.755  0.2975 -0.2482 -0.1929
 2004TIP3    H127575   5.223   5.623   6.690 -0.1543 -0.5659 -0.7164
 2004TIP3    H227576   5.121   5.711   6.759 -0.4720 -0.4302 -1.3525
 2005TIP3   OH227577   5.933   0.817   1.847  0.1715  0.3910  0.4127
 2005TIP3    H127578   5.944   0.876   1.772  0.5844 -1.6917 -1.2837
 2005TIP3    H227579   6.021   0.809   1.883  0.2049  0.4802  0.3528
 2006TIP3   OH227580   0.009   0.176   7.681 -0.5630  0.0187 -0.3570
 2006TIP3    H127581   0.018   0.124   7.760 -0.2723  0.0734 -0.3522
 2006TIP3    H227582  -0.084   0.199   7.677 -0.0372  3.5354  2.2198
 2007TIP3   OH227583   6.869   5.589   1.220  0.0979 -0.1449 -0.1855
 2007TIP3    H127584   6.893   5.533   1.294 -2.1633 -1.6901 -0.5185
 2007TIP3    H227585   6.951   5.599   1.171  1.5318  0.4372  2.1314
 2008TIP3   OH227586   4.783   4.025   7.129 -0.1840 -0.2609 -0.1092
 2008TIP3    H127587   4.732   4.099   7.094 -0.5155  0.9426  2.6940
 2008TIP3    H227588   4.717   3.968   7.168  0.3928  0.3509  1.8511
 2009TIP3   OH227589   6.214   1.589   7.285 -0.1132 -0.5426 -0.2852
 2009TIP3    H127590   6.276   1.534   7.236  2.4662  0.8051  1.2209
 2009TIP3    H227591   6.264   1.669   7.304 -1.4833 -0.3256  3.0832
 2010TIP3   OH227592   2.276   5.972   0.366  0.2352  0.3269  0.5498
 2010TIP3    H127593   2.325   6.040   0.412 -0.4274  1.4939 -0.4023
 2010TIP3    H227594   2.341   5.906   0.342  0.6892 -0.0150  2.5586
 2011TIP3   OH227595   0.325   0.926   0.759  0.4696  0.3802  0.5679
 2011TIP3    H127596   0.365   0.930   0.672  0.3507  0.7257  0.5288
 2011TIP3    H227597   0.308   1.017   0.782 -0.2572  0.2483  0.5989
 2012TIP3   OH227598   4.601   5.670   0.119 -0.1765 -0.3577  0.2168
 2012TIP3    H127599   4.554   5.714   0.048 -1.0087 -0.1894  0.8584
 2012TIP3    H227600   4.644   5.741   0.167  0.1601 -0.4430  0.0390
 2013TIP3   OH227601   3.054   6.435   0.143 -0.1872  0.3367  0.7779
 2013TIP3    H127602   3.076   6.453   0.052 -2.4225 -1.1920 -0.1753
 2013TIP3    H227603   3.051   6.521   0.185 -0.3014  1.1980 -0.9037
 2014TIP3   OH227604   5.618   0.624   7.977 -0.4976  0.1737  0.3386
 2014TIP3    H127605   5.696   0.599   8.025  0.3804 -0.0473 -1.1271
 2014TIP3    H227606   5.546   0.578   8.020  0.5335 -1.6619  0.1648
 2015TIP3   OH227607   0.269   4.025   7.604  0.0052  0.0329 -0.2762
 2015TIP3    H127608   0.332   4.046   7.672  0.4431  2.3577 -1.2969
 2015TIP3    H227609   0.192   3.993   7.651  0.7260  0.4199  1.2183
 2016TIP3   OH227610   2.432   2.108   7.470  0.0490 -0.5129  0.3739
 2016TIP3    H127611   2.518   2.142   7.445  0.9463 -1.8418  1.5579
 2016TIP3    H227612   2.380   2.187   7.489  1.5727  0.2686  1.4750
 2017TIP3   OH227613   5.239   6.171   6.847  0.5910  0.8446  0.4192
 2017TIP3    H127614   5.307   6.223   6.891 -0.2686  1.3077  1.2401
 2017TIP3    H227615   5.273   6.082   6.848  0.6663  0.8726  1.9060
 2018TIP3   OH227616   3.861   5.031   0.471 -0.1328  0.0335  0.1035
 2018TIP3    H127617   3.915   5.110   0.465  1.5471 -1.1295 -1.2603
 2018TIP3    H227618   3.837   5.025   0.563  3.0065  0.0862  1.0506
 2019TIP3   OH227619   5.044   2.725   0.842 -0.0719  0.1221  0.3187
 2019TIP3    H127620   4.985   2.661   0.881 -0.9321 -0.0511 -1.1760
 2019TIP3    H227621   5.116   2.733   0.904 -0.8858 -0.8655  1.4260
 2020TIP3   OH227622   5.810   3.868   7.746 -0.2446 -0.4714 -0.1572
 2020TIP3    H127623   5.793   3.835   7.834  1.7204 -1.3045 -0.0297
 2020TIP3    H227624   5.872   3.940   7.760 -0.7811  0.1182 -0.7887
 2021TIP3   OH227625   3.621   0.059   7.414  0.1315 -0.3448 -0.2035
 2021TIP3    H127626   3.657   0.001   7.347  0.6246 -0.9262  0.5494
 2021TIP3    H227627   3.590   0.001   7.483  4.0479  0.2172  2.3397
 2022TIP3   OH227628   2.300   6.644   0.414  0.2373  0.2020  0.4392
 2022TIP3    H127629   2.307   6.739   0.422  2.0066  0.3597 -1.9134
 2022TIP3    H227630   2.210   6.628   0.386  0.4292  1.3915 -0.9726
 2023TIP3   OH227631   4.929   5.500   6.322 -0.2077  0.0556 -0.1821
 2023TIP3    H127632   4.849   5.478   6.275 -0.6886  1.4918 -0.0906
 2023TIP3    H227633   4.957   5.418   6.362 -1.6252 -0.4686 -0.2172
 2024TIP3   OH227634   6.958   2.916   0.619 -0.5582 -0.2438 -0.2629
 2024TIP3    H127635   7.009   2.835   0.621  0.0927  0.0585 -2.2817
 2024TIP3    H227636   6.975   2.953   0.532 -1.4685  1.6598  0.3119
 2025TIP3   OH227637   5.434   6.269   7.224  0.5583 -0.8011  0.2807
 2025TIP3    H127638   5.379   6.313   7.159 -0.4271  0.9177  2.1746
 2025TIP3    H227639   5.423   6.175   7.204 -0.6409 -0.3794 -1.2657
 2026TIP3   OH227640   5.965   3.096   7.341 -0.3025 -0.0298 -0.1661
 2026TIP3    H127641   5.910   3.174   7.332 -0.6688 -0.0299  1.8321
 2026TIP3    H227642   5.962   3.074   7.433  1.3116 -1.3372 -0.3703
 2027TIP3   OH227643   4.281   6.578   1.421  0.3808  0.0114  0.2260
 2027TIP3    H127644   4.273   6.671   1.399  0.9697  0.0943  0.3565
 2027TIP3    H227645   4.345   6.575   1.492  0.5738 -0.5187  0.0381
 2028TIP3   OH227646   5.379   3.065   7.110  0.1573 -0.0426  0.3774
 2028TIP3    H127647   5.447   3.028   7.054  1.8372  1.4027  1.3489
 2028TIP3    H227648   5.335   2.989   7.148  1.2853 -1.0196 -0.2101
 2029TIP3   OH227649   4.088   4.647   6.459 -0.1799 -0.0311 -0.0588
 2029TIP3    H127650   4.147   4.709   6.417 -0.5196  0.1889 -0.2158
 2029TIP3    H227651   4.048   4.600   6.386  1.5200 -1.8182  0.0763
 2030TIP3   OH227652   1.479   1.786   1.518  0.3619 -0.5652 -0.1317
 2030TIP3    H127653   1.478   1.878   1.490 -0.6971 -0.6413 -0.4068
 2030TIP3    H227654   1.482   1.789   1.613 -0.3691 -0.2191 -0.1100
 2031TIP3   OH227655   0.871   2.243   7.188 -0.2724  0.2920  0.0928
 2031TIP3    H127656   0.927   2.320   7.190  0.1773  0.0606 -1.6665
 2031TIP3    H227657   0.882   2.203   7.274  0.4626  1.5063  0.5819
 2032TIP3   OH227658   2.875   1.167   7.947 -0.4119  0.6272 -0.2972
 2032TIP3    H127659   2.951   1.219   7.921  0.4331 -0.9748 -1.2033
 2032TIP3    H227660   2.800   1.226   7.935  0.6579  2.2086  0.5191
 2033TIP3   OH227661   2.194   4.571   0.193 -0.2538 -0.9497 -0.1222
 2033TIP3    H127662   2.108   4.603   0.219  0.0037  0.1713 -0.6243
 2033TIP3    H227663   2.186   4.476   0.199 -0.9237 -0.8299  1.7484
 2034TIP3   OH227664   1.403   6.420   0.439 -0.3131 -0.6498 -0.0920
 2034TIP3    H127665   1.447   6.461   0.364  1.4237  1.0282  1.7154
 2034TIP3    H227666   1.317   6.462   0.443  0.5171  1.1160  0.2606
 2035TIP3   OH227667   2.150   3.689   6.992 -0.3050  0.5262 -0.2721
 2035TIP3    H127668   2.135   3.654   6.904  0.0871  0.5556 -0.3547
 2035TIP3    H227669   2.238   3.728   6.987 -1.6193  3.7064 -0.9021
 2036TIP3   OH227670   2.173   1.098   7.718 -0.6055 -0.1008 -0.0259
 2036TIP3    H127671   2.201   1.082   7.628 -0.1886 -0.7634  0.2164
 2036TIP3    H227672   2.151   1.011   7.752  0.3084 -0.0066  0.8635
 2037TIP3   OH227673   4.698   0.771   0.189 -0.1016 -0.5904  0.0529
 2037TIP3    H127674   4.746   0.785   0.271 -1.9077  1.2178  0.8797
 2037TIP3    H227675   4.748   0.819   0.123  0.7882 -1.1773  0.2800
 2038TIP3   OH227676   4.544   4.964   0.889 -0.3562  0.3697  0.3337
 2038TIP3    H127677   4.634   4.990   0.910 -0.1824 -0.5509  0.7790
 2038TIP3    H227678   4.542   4.962   0.793  0.4299 -0.6561  0.3119
 2039TIP3   OH227679   5.205   1.579   8.201  0.2436  0.4147  0.2477
 2039TIP3    H127680   5.173   1.523   8.272 -0.3244  1.9554  1.2322
 2039TIP3    H227681   5.296   1.550   8.188  0.3124  0.0242  1.4974
 2040TIP3   OH227682   2.257   1.470   7.055 -0.1559  0.0964  0.1834
 2040TIP3    H127683   2.287   1.540   7.114  0.5639 -2.0738  2.5955
 2040TIP3    H227684   2.337   1.429   7.024 -0.5696 -0.5444 -0.0519
 2041TIP3   OH227685   1.648   1.081   0.649 -0.0253  0.5755 -0.6285
 2041TIP3    H127686   1.608   1.060   0.733  1.7060  0.1240  0.1132
 2041TIP3    H227687   1.636   1.002   0.596  2.1972 -0.6333  0.5221
 2042TIP3   OH227688   0.403   2.213   0.276  0.1073  0.4154 -0.1519
 2042TIP3    H127689   0.378   2.264   0.199  0.6407  0.2327 -0.4506
 2042TIP3    H227690   0.321   2.176   0.308 -0.0505  0.0608 -0.9507
 2043TIP3   OH227691   4.147   5.818   1.033  0.2912 -0.7161 -0.6308
 2043TIP3    H127692   4.221   5.809   0.973  1.4317 -2.1554  0.9014
 2043TIP3    H227693   4.097   5.738   1.022  0.3086 -0.8301  0.0662
 2044TIP3   OH227694   1.821   3.193   0.455 -0.6701  0.4007  0.0120
 2044TIP3    H127695   1.904   3.154   0.428  0.2007  1.4520  1.1067
 2044TIP3    H227696   1.815   3.177   0.549 -1.5556  0.6347  0.0088
 2045TIP3   OH227697   4.566   3.758   0.171 -0.0164 -0.2318  0.4518
 2045TIP3    H127698   4.474   3.734   0.184 -0.6464 -0.5347 -3.4299
 2045TIP3    H227699   4.597   3.697   0.104  1.5255  2.8455 -1.8502
 2046TIP3   OH227700   3.155   3.118   7.916  0.0572 -0.2206 -0.0289
 2046TIP3    H127701   3.155   3.181   7.844  0.1506  1.0122  1.0063
 2046TIP3    H227702   3.093   3.050   7.889  1.3006 -0.6631 -1.9733
 2047TIP3   OH227703   2.223   5.370   6.271 -0.2160 -0.5043 -0.0828
 2047TIP3    H127704   2.244   5.305   6.338  1.6249  0.2420  0.1243
 2047TIP3    H227705   2.132   5.351   6.246  0.0179 -2.6231  0.5326
 2048TIP3   OH227706   0.510   5.260   7.346  0.3648  0.1074  0.1175
 2048TIP3    H127707   0.542   5.173   7.370 -0.7572  0.4304  3.0904
 2048TIP3    H227708   0.420   5.263   7.378 -0.2864  1.7262 -1.6658
 2049TIP3   OH227709   1.930   2.827   1.851  0.5980  0.4001 -0.3883
 2049TIP3    H127710   1.900   2.913   1.880  0.1709 -0.2322  1.0940
 2049TIP3    H227711   1.872   2.765   1.893  1.1295 -0.6537 -1.1514
 2050TIP3   OH227712   3.169   5.096   7.549 -0.3639 -0.2448 -0.1571
 2050TIP3    H127713   3.248   5.068   7.503  0.1042  0.9948 -0.1622
 2050TIP3    H227714   3.150   5.026   7.611 -0.1412 -1.2572 -1.1959
 2051TIP3   OH227715   5.621   0.269   7.662 -0.3155  0.4395  0.4595
 2051TIP3    H127716   5.715   0.282   7.655  0.0096 -0.1001  2.7357
 2051TIP3    H227717   5.602   0.195   7.605  0.5739  0.7462 -0.2514
 2052TIP3   OH227718   2.665   3.380   7.826 -0.3063  0.2736  0.0668
 2052TIP3    H127719   2.649   3.449   7.762  1.1877  1.3780  0.8074
 2052TIP3    H227720   2.611   3.404   7.902 -0.2405  0.3084  0.1031
 2053TIP3   OH227721   2.527   2.857   0.131  0.4054  0.0422 -0.3778
 2053TIP3    H127722   2.555   2.819   0.047  2.0984  1.1356 -0.3584
 2053TIP3    H227723   2.606   2.854   0.186 -0.2505  0.7926  0.6360
 2054TIP3   OH227724   5.598   3.490   6.724  0.0179 -1.1183  0.5181
 2054TIP3    H127725   5.635   3.577   6.709 -1.0123 -0.8317 -0.5385
 2054TIP3    H227726   5.515   3.506   6.768 -0.5602 -1.5052 -0.4061
 2055TIP3   OH227727   3.068   5.161   0.885 -0.1927 -0.1104  0.4078
 2055TIP3    H127728   3.115   5.235   0.925  0.3893  0.2656 -0.9185
 2055TIP3    H227729   2.985   5.157   0.933  0.9909 -0.5277  2.5168
 2056TIP3   OH227730   4.968   4.181   6.409  0.3188  0.4155 -0.1106
 2056TIP3    H127731   4.943   4.089   6.401 -0.7922  0.7750 -0.8717
 2056TIP3    H227732   4.887   4.226   6.431  0.8114  1.2610  0.0072
 2057TIP3   OH227733   2.364   1.325   1.400 -0.1160 -0.0132 -0.1631
 2057TIP3    H127734   2.383   1.247   1.452 -0.0681  1.1734  1.6898
 2057TIP3    H227735   2.270   1.340   1.412 -0.2548 -0.1120 -1.0298
 2058TIP3   OH227736   1.593   2.338   1.472 -0.1782  0.0536  0.4917
 2058TIP3    H127737   1.548   2.375   1.396  1.3161  0.4931 -0.2156
 2058TIP3    H227738   1.530   2.346   1.543 -1.7174 -0.6056 -0.7347
 2059TIP3   OH227739   0.485   2.975   8.084  1.0116 -0.2222 -0.4512
 2059TIP3    H127740   0.543   3.036   8.130  1.2599 -0.9020  0.1658
 2059TIP3    H227741   0.402   2.981   8.132  1.2203 -0.8067  0.0028
 2060TIP3   OH227742   3.446   4.681   7.929  0.3143 -0.2625 -0.4828
 2060TIP3    H127743   3.396   4.733   7.867 -0.7643 -3.0650 -2.1610
 2060TIP3    H227744   3.507   4.631   7.875 -0.0974 -2.1966  0.7161
 2061TIP3   OH227745   3.361   3.278   6.425  0.0850  0.4569 -0.2723
 2061TIP3    H127746   3.444   3.231   6.415 -1.3642 -1.9884 -1.8703
 2061TIP3    H227747   3.339   3.267   6.518  0.5608 -0.7304 -0.2742
 2062TIP3   OH227748   5.754   1.138   1.910 -0.4579 -0.5426 -0.2526
 2062TIP3    H127749   5.701   1.158   1.833  0.3665 -0.6170 -0.8530
 2062TIP3    H227750   5.804   1.218   1.926  0.0927 -0.8534 -0.3959
 2063TIP3   OH227751   6.073   3.149   8.005  0.5389 -0.2207  0.2699
 2063TIP3    H127752   6.064   3.242   7.984 -0.2877 -0.0869  1.1337
 2063TIP3    H227753   6.163   3.140   8.036  0.2764  0.5520  1.3205
 2064TIP3   OH227754   5.204   0.998   7.732 -0.0335 -0.0304  0.4337
 2064TIP3    H127755   5.234   1.008   7.642  1.3263  0.2170  0.8807
 2064TIP3    H227756   5.158   0.913   7.733 -0.7977  0.3584 -0.6517
 2065TIP3   OH227757   6.913   4.606   7.256  1.0126  0.0024  0.4114
 2065TIP3    H127758   6.840   4.546   7.240  2.1594 -1.0424 -1.2195
 2065TIP3    H227759   6.983   4.551   7.291  1.4751  0.7356  0.6726
 2066TIP3   OH227760   6.375   5.120   6.458 -0.5585 -0.6730  0.1847
 2066TIP3    H127761   6.299   5.111   6.400 -0.9475  0.9373  0.3913
 2066TIP3    H227762   6.449   5.089   6.407 -0.9476  0.3705 -1.0589
 2067TIP3   OH227763   1.107   3.509   2.187 -0.0788 -0.2097  0.3237
 2067TIP3    H127764   1.125   3.555   2.269  1.2552  0.9428 -0.5649
 2067TIP3    H227765   1.058   3.573   2.135  0.0585 -0.5114 -0.1771
 2068TIP3   OH227766   1.462   0.681   1.856 -0.2417 -0.3170 -0.6060
 2068TIP3    H127767   1.380   0.645   1.822  0.4575 -2.2657 -0.3678
 2068TIP3    H227768   1.530   0.625   1.818  0.9347  0.7685 -0.1742
 2069TIP3   OH227769   5.400   2.071   0.595  0.6213 -0.1566 -0.3230
 2069TIP3    H127770   5.478   2.057   0.649  0.5022 -0.9116 -0.3458
 2069TIP3    H227771   5.380   2.164   0.608  1.3827 -0.0059 -0.1306
 2070TIP3   OH227772   2.119   1.571   7.693  0.0906  0.0394  0.4122
 2070TIP3    H127773   2.214   1.565   7.702 -0.1162 -1.0556  2.5224
 2070TIP3    H227774   2.091   1.480   7.680 -0.6641  0.3892 -0.5339
 2071TIP3   OH227775   2.879   6.032   0.520  0.2450  0.6086 -0.0559
 2071TIP3    H127776   2.896   6.094   0.590 -0.7622  2.2520 -1.1799
 2071TIP3    H227777   2.930   6.065   0.446  1.3639 -1.1400 -0.1209
 2072TIP3   OH227778   6.933   5.921   1.769 -0.6845 -0.5142  0.5135
 2072TIP3    H127779   6.890   5.970   1.840 -1.5558  0.7904 -0.8302
 2072TIP3    H227780   7.005   5.978   1.741 -0.5055 -0.8993  0.1841
 2073TIP3   OH227781   2.760   6.895   2.030 -0.0353  0.3967 -0.0209
 2073TIP3    H127782   2.795   6.835   2.095 -0.1533  1.2992  0.9004
 2073TIP3    H227783   2.764   6.981   2.072  0.8060  1.1582 -1.5472
 2074TIP3   OH227784   5.451   1.413   0.812  0.4522 -0.1003 -0.1973
 2074TIP3    H127785   5.452   1.320   0.786  0.6038  0.2609 -1.5506
 2074TIP3    H227786   5.402   1.457   0.743  1.4393  1.0073 -0.2287
 2075TIP3   OH227787   2.152   6.365   1.176  0.1355 -0.3890  0.1920
 2075TIP3    H127788   2.235   6.324   1.150  0.3230  0.6216 -0.9028
 2075TIP3    H227789   2.179   6.441   1.229 -0.1193 -0.4496  0.4101
 2076TIP3   OH227790   3.405   5.459   0.290 -0.1655 -0.6641  0.2322
 2076TIP3    H127791   3.412   5.453   0.195 -1.8452 -0.2001  0.0635
 2076TIP3    H227792   3.494   5.480   0.319 -0.0427  1.3673 -1.4216
 2077TIP3   OH227793   5.006   4.130   8.001  0.5892  0.9458 -0.7798
 2077TIP3    H127794   5.024   4.215   8.042  2.3993  0.7484 -1.0698
 2077TIP3    H227795   4.918   4.107   8.031 -0.1853  3.1678 -1.1498
 2078TIP3   OH227796   6.239   6.828   1.426 -0.1487  0.0436  0.6459
 2078TIP3    H127797   6.326   6.823   1.386  0.5797 -0.7456  2.2182
 2078TIP3    H227798   6.184   6.773   1.371  0.6525 -0.4715  0.3391
 2079TIP3   OH227799   0.982   6.175   0.286  0.0718 -0.1746 -0.7607
 2079TIP3    H127800   0.972   6.118   0.363 -0.3659  0.2459 -0.4974
 2079TIP3    H227801   0.937   6.256   0.311  2.0392  0.9056 -0.5022
 2080TIP3   OH227802   2.741   5.233   1.589 -0.1934  0.6527  0.3580
 2080TIP3    H127803   2.734   5.283   1.671 -0.6614  0.6156  0.3433
 2080TIP3    H227804   2.813   5.171   1.605 -0.5903  0.3269  0.9096
 2081TIP3   OH227805   1.794   6.972   6.141  0.5086 -0.1019  0.3348
 2081TIP3    H127806   1.783   6.889   6.093 -0.8761 -0.5251  1.3055
 2081TIP3    H227807   1.732   7.032   6.099  1.6762  0.5404 -0.5159
 2082TIP3   OH227808   5.373   2.619   0.538  0.3001  0.0838  0.4594
 2082TIP3    H127809   5.432   2.633   0.464 -0.3668 -0.3987 -0.1774
 2082TIP3    H227810   5.331   2.705   0.551 -0.1909 -0.0320 -0.2746
 2083TIP3   OH227811   4.623   4.430   0.759 -0.3315 -0.5645 -0.8613
 2083TIP3    H127812   4.606   4.445   0.666 -0.3756 -0.8405 -0.8989
 2083TIP3    H227813   4.584   4.505   0.803  1.6367  0.7368 -1.2150
 2084TIP3   OH227814   6.563   2.489   0.920 -0.1022 -0.2418 -0.2399
 2084TIP3    H127815   6.597   2.449   1.000  0.8149  2.2835  0.7206
 2084TIP3    H227816   6.540   2.415   0.864 -0.1217 -2.0849  2.0674
 2085TIP3   OH227817   3.504   2.270   0.167  0.2024 -0.6267  0.5346
 2085TIP3    H127818   3.574   2.205   0.158 -1.2453 -2.0555 -1.1607
 2085TIP3    H227819   3.434   2.223   0.212  0.0153  0.5369  1.4877
 2086TIP3   OH227820   0.448   0.792   6.518  0.5914  0.7083 -0.5743
 2086TIP3    H127821   0.446   0.708   6.472 -0.1488  0.6260 -0.4041
 2086TIP3    H227822   0.366   0.835   6.492 -0.4547  0.1516  1.5836
 2087TIP3   OH227823   5.919   2.333   0.958 -1.0870 -0.2376 -0.1781
 2087TIP3    H127824   5.866   2.394   0.907 -1.4000 -0.2658  0.1053
 2087TIP3    H227825   5.927   2.375   1.044  0.1710  0.2240 -0.5013
 2088TIP3   OH227826   1.213   1.765   1.677  0.4583 -0.0360 -0.4755
 2088TIP3    H127827   1.190   1.707   1.605  0.9797 -2.1275  0.9423
 2088TIP3    H227828   1.294   1.729   1.713 -0.1846  0.4376  1.6411
 2089TIP3   OH227829   5.627   6.658   7.888  0.3426 -0.2658 -0.0571
 2089TIP3    H127830   5.571   6.648   7.964 -1.2617 -0.5313 -1.2340
 2089TIP3    H227831   5.604   6.743   7.851  0.5096 -0.4833 -0.6898
 2090TIP3   OH227832   3.736   0.370   7.681  0.3918  0.3947  0.3376
 2090TIP3    H127833   3.771   0.303   7.740 -1.3395 -1.5626 -0.7477
 2090TIP3    H227834   3.795   0.370   7.606  0.0349 -0.3875  0.0553
 2091TIP3   OH227835   0.399   6.506   0.106  0.3633  0.2247  0.1242
 2091TIP3    H127836   0.489   6.478   0.119  0.0364 -0.5687  0.7675
 2091TIP3    H227837   0.370   6.535   0.193 -0.2949 -0.4448  0.1389
 2092TIP3   OH227838   2.579   0.799   7.750 -0.0972  0.6777 -0.2260
 2092TIP3    H127839   2.585   0.862   7.822 -1.8059  0.3130  0.2730
 2092TIP3    H227840   2.539   0.849   7.679 -0.3450  0.4886 -0.2216
 2093TIP3   OH227841   3.769   3.156   2.199 -0.1667  0.4840  0.2534
 2093TIP3    H127842   3.761   3.251   2.204 -0.1253  0.4120  2.0265
 2093TIP3    H227843   3.863   3.139   2.204 -0.1379  0.3521 -0.5344
 2094TIP3   OH227844   3.562   2.306   0.975  0.0269 -0.0733  0.3238
 2094TIP3    H127845   3.561   2.224   0.926  1.4053 -0.5222  1.0004
 2094TIP3    H227846   3.469   2.330   0.984 -0.3127  0.7988 -3.6966
 2095TIP3   OH227847   6.219   1.548   6.942 -0.7715  0.2534  0.0295
 2095TIP3    H127848   6.265   1.558   6.859 -0.4292 -1.8153 -0.0728
 2095TIP3    H227849   6.192   1.637   6.965  0.7620  1.1246 -1.3410
 2096TIP3   OH227850   4.473   2.401   0.630  0.2831 -0.1029 -0.8816
 2096TIP3    H127851   4.380   2.420   0.642  0.7424  0.8957  1.6241
 2096TIP3    H227852   4.513   2.487   0.617  1.0526 -0.3804 -0.3853
 2097TIP3   OH227853   0.121   5.115   8.338 -0.0606 -0.2825 -0.1121
 2097TIP3    H127854   0.101   5.163   8.418 -0.1714  0.9652 -0.8741
 2097TIP3    H227855   0.082   5.028   8.352 -1.4862  0.4279  0.5261
 2098TIP3   OH227856   0.148   2.074   7.090  0.1913  0.4133 -0.4577
 2098TIP3    H127857   0.061   2.092   7.054 -0.6193 -0.9241  0.7536
 2098TIP3    H227858   0.207   2.130   7.038 -1.2632  0.7300 -1.8603
 2099TIP3   OH227859   4.030   2.966   8.047 -0.0263  0.4430 -0.7878
 2099TIP3    H127860   4.042   2.905   7.974 -0.9737  0.9284 -1.3708
 2099TIP3    H227861   4.030   3.053   8.006 -2.6849  0.6397 -0.5618
 2100TIP3   OH227862   5.111   5.640   0.428  0.3969 -0.3143  0.1814
 2100TIP3    H127863   5.133   5.644   0.521 -1.8586 -0.6833  0.7697
 2100TIP3    H227864   5.144   5.723   0.392  0.0787  0.4425  1.5824
 2101TIP3   OH227865   6.747   5.335   7.959 -0.3219 -0.4471 -0.6805
 2101TIP3    H127866   6.809   5.370   8.024 -2.2376 -0.6631  1.3977
 2101TIP3    H227867   6.730   5.245   7.989 -1.1167 -0.6252 -1.6207
 2102TIP3   OH227868   1.496   6.862   7.369  0.3571 -0.3955  0.0945
 2102TIP3    H127869   1.564   6.925   7.393  1.3238 -1.4431  0.2011
 2102TIP3    H227870   1.417   6.897   7.409  1.0449  0.2894  0.9176
 2103TIP3   OH227871   6.618   6.359   7.366 -0.4233  0.5910  0.3611
 2103TIP3    H127872   6.650   6.270   7.350  3.0147  1.6339  0.6935
 2103TIP3    H227873   6.544   6.368   7.306  0.2777 -1.8790 -1.0333
 2104TIP3   OH227874   1.419   3.565   1.054  0.0740  0.0731  0.5933
 2104TIP3    H127875   1.472   3.546   1.131 -0.2154 -1.5593  0.4256
 2104TIP3    H227876   1.462   3.517   0.983 -0.4442  0.4285  0.0298
 2105TIP3   OH227877   5.927   4.891   8.152  0.3645  0.5013 -0.3234
 2105TIP3    H127878   5.990   4.959   8.176 -1.4559  2.5864 -1.1551
 2105TIP3    H227879   5.886   4.923   8.071 -1.6201 -0.8345  0.0809
 2106TIP3   OH227880   5.731   6.486   1.322 -0.2135  0.1249  0.2426
 2106TIP3    H127881   5.729   6.506   1.415  2.5528 -0.3240  0.4723
 2106TIP3    H227882   5.822   6.461   1.304 -1.0807 -1.7350 -2.1867
 2107TIP3   OH227883   6.780   2.777   7.315  0.0150  0.8166  0.2685
 2107TIP3    H127884   6.733   2.859   7.302  0.9271  1.2030 -0.7315
 2107TIP3    H227885   6.804   2.778   7.408 -1.7540  0.6845  0.7601
 2108TIP3   OH227886   3.387   5.170   2.126 -0.4575  0.3102 -0.4075
 2108TIP3    H127887   3.456   5.231   2.104  1.8991 -1.5725  1.1946
 2108TIP3    H227888   3.397   5.098   2.064 -0.5932 -0.2391  0.1888
 2109TIP3   OH227889   6.761   0.617   7.854 -0.0973  0.1286 -0.5724
 2109TIP3    H127890   6.673   0.580   7.858  0.2760 -0.6755  1.2784
 2109TIP3    H227891   6.772   0.644   7.763 -1.4644 -1.6720 -1.3267
 2110TIP3   OH227892   0.872   4.687   1.415  0.4706  0.7687  0.0520
 2110TIP3    H127893   0.949   4.714   1.365 -1.0404  4.2660 -0.7051
 2110TIP3    H227894   0.900   4.690   1.506  1.4198  1.3431 -0.2419
 2111TIP3   OH227895   4.216   4.627   0.975  0.5061  0.1501 -0.2588
 2111TIP3    H127896   4.280   4.679   1.024  0.7108  0.4968 -0.8797
 2111TIP3    H227897   4.138   4.682   0.973  0.3048 -0.1194  0.1899
 2112TIP3   OH227898   6.749   3.529   0.390  0.5724 -0.1935  0.3395
 2112TIP3    H127899   6.793   3.609   0.419  0.5829 -0.3442  0.7408
 2112TIP3    H227900   6.655   3.550   0.397  0.5556 -0.5920  1.5337
 2113TIP3   OH227901   4.707   1.877   8.121  0.4193  0.3035  0.2466
 2113TIP3    H127902   4.692   1.791   8.082 -0.9639 -0.6451  2.7159
 2113TIP3    H227903   4.778   1.863   8.183 -1.7999  0.1029  2.9090
 2114TIP3   OH227904   6.423   5.885   8.234 -0.2773 -0.1540 -0.4523
 2114TIP3    H127905   6.506   5.854   8.199 -1.2059 -2.0129 -1.1395
 2114TIP3    H227906   6.385   5.939   8.164  0.9170  1.9007  0.3907
 2115TIP3   OH227907   1.278   6.943   1.130 -0.5976 -0.2648 -0.1859
 2115TIP3    H127908   1.322   6.912   1.051 -1.5696  1.1122 -1.3233
 2115TIP3    H227909   1.193   6.899   1.129 -1.6133  1.6040 -1.3136
 2116TIP3   OH227910   1.033   1.231   7.996 -0.0460 -1.0270  0.3833
 2116TIP3    H127911   0.962   1.195   7.942 -0.5475 -1.0322  1.0184
 2116TIP3    H227912   1.094   1.158   8.007  2.6446  0.1541 -4.1064
 2117TIP3   OH227913   6.909   3.327   1.232 -1.2150  0.3643  0.3246
 2117TIP3    H127914   6.953   3.266   1.173 -2.4596  0.1617 -0.4502
 2117TIP3    H227915   6.979   3.381   1.269 -0.4093  0.7261 -1.6094
 2118TIP3   OH227916   0.880   4.878   7.499  0.2249 -0.2300  0.0005
 2118TIP3    H127917   0.868   4.954   7.442  1.2305 -0.4902 -0.5885
 2118TIP3    H227918   0.941   4.908   7.566  2.6114 -1.1335 -1.6083
 2119TIP3   OH227919   5.840   0.553   1.855  0.2023 -0.2832  0.3662
 2119TIP3    H127920   5.878   0.641   1.848 -0.7038  0.0715 -0.2318
 2119TIP3    H227921   5.750   0.567   1.883  0.2277 -1.0656  0.8801
 2120TIP3   OH227922   5.915   5.419   0.173  0.1738  0.2381 -0.2764
 2120TIP3    H127923   5.842   5.476   0.194  0.8892  0.4518  1.8436
 2120TIP3    H227924   5.885   5.369   0.097 -1.0645  2.2812 -1.2333
 2121TIP3   OH227925   4.894   1.240   8.147  0.5694  0.4645 -0.5552
 2121TIP3    H127926   4.932   1.228   8.060  2.4666 -0.1389  0.3078
 2121TIP3    H227927   4.961   1.207   8.208 -0.5708  1.1452  1.1537
 2122TIP3   OH227928   3.651   6.214   0.961  0.6566  0.3486 -0.9791
 2122TIP3    H127929   3.573   6.193   1.011  0.8331  1.4598 -0.2078
 2122TIP3    H227930   3.717   6.237   1.027  0.3934  3.6072 -1.6659
 2123TIP3   OH227931   4.585   5.629   7.519 -0.5273  0.2142 -0.0035
 2123TIP3    H127932   4.553   5.593   7.437  0.8348  1.9841 -1.3871
 2123TIP3    H227933   4.512   5.617   7.580 -0.6099 -3.6709 -0.6045
 2124TIP3   OH227934   3.262   3.480   1.118  0.3867  0.4737 -0.6738
 2124TIP3    H127935   3.231   3.525   1.197  0.0610  0.2526 -0.6747
 2124TIP3    H227936   3.344   3.524   1.096  0.0689  1.0642 -0.6747
 2125TIP3   OH227937   6.850   0.454   0.527  0.0663  0.0781  0.5865
 2125TIP3    H127938   6.798   0.379   0.553  0.8493 -0.5321  0.4311
 2125TIP3    H227939   6.829   0.522   0.591 -0.4262 -0.3696  0.8986
 2126TIP3   OH227940   6.022   5.366   6.761 -0.4197  0.3470  0.6219
 2126TIP3    H127941   6.093   5.309   6.731  0.9166  2.5395 -0.6496
 2126TIP3    H227942   5.963   5.372   6.686 -0.7734  0.3155  0.8949
 2127TIP3   OH227943   3.965   4.053   7.723 -0.0062 -0.6873 -0.2555
 2127TIP3    H127944   3.945   3.963   7.751  1.7378 -1.0909 -0.1805
 2127TIP3    H227945   4.049   4.072   7.764 -0.5013  1.1361  0.0161
 2128TIP3   OH227946   2.164   3.000   0.584  0.1409  0.2195  0.2586
 2128TIP3    H127947   2.232   3.028   0.646 -1.5420  0.5878  2.0272
 2128TIP3    H227948   2.171   3.062   0.511  1.1915  0.7221  0.7696
 2129TIP3   OH227949   0.197   4.393   0.554 -0.1715  0.1627  0.2381
 2129TIP3    H127950   0.116   4.342   0.542  0.8818 -1.4399 -0.4508
 2129TIP3    H227951   0.252   4.338   0.610  0.1185  1.6457  1.4539
 2130TIP3   OH227952   6.612   0.046   1.553 -0.0645  0.2483  0.2723
 2130TIP3    H127953   6.676  -0.003   1.502 -0.7378 -0.2020 -0.1467
 2130TIP3    H227954   6.592  -0.011   1.627 -2.9040 -1.4281 -1.6087
 2131TIP3   OH227955   3.030   4.292   6.648 -0.0873  0.0560 -0.0411
 2131TIP3    H127956   3.001   4.222   6.590 -0.1792 -0.9758  1.1898
 2131TIP3    H227957   3.059   4.247   6.728 -0.0911  1.4104  0.7692
 2132TIP3   OH227958   6.648   3.198   7.919 -0.0305  0.4517 -0.1395
 2132TIP3    H127959   6.669   3.127   7.980  2.5852  1.7702  0.6529
 2132TIP3    H227960   6.565   3.172   7.880  1.0283 -3.2920 -0.2960
 2133TIP3   OH227961   2.002   5.984   0.437  0.7396  0.2345  0.1631
 2133TIP3    H127962   2.091   5.972   0.403  1.0485  0.0673  1.0167
 2133TIP3    H227963   1.988   6.079   0.434  1.1251  0.3022  0.4789
 2134TIP3   OH227964   0.777   5.701   7.975 -0.2385 -0.4311  0.1251
 2134TIP3    H127965   0.742   5.633   7.917  1.7635 -1.6390  0.2507
 2134TIP3    H227966   0.719   5.700   8.051 -0.9573 -1.1174 -0.4168
 2135TIP3   OH227967   1.380   5.116   0.316 -0.1227  0.3029  0.1132
 2135TIP3    H127968   1.316   5.090   0.250  1.7991  0.7503 -2.0426
 2135TIP3    H227969   1.449   5.050   0.310 -0.4969 -0.4716  2.7652
 2136TIP3   OH227970   3.600   2.010   2.013  0.1251 -0.0991  1.0188
 2136TIP3    H127971   3.662   1.979   2.079  0.3645  1.1751  1.4208
 2136TIP3    H227972   3.602   2.105   2.021  0.0845  0.0864 -0.7748
 2137TIP3   OH227973   5.107   2.576   0.318 -0.1658  0.1787 -0.1143
 2137TIP3    H127974   5.082   2.583   0.410 -0.4582 -0.4862 -0.1412
 2137TIP3    H227975   5.047   2.512   0.281  0.3038  0.0346 -0.6428
 2138TIP3   OH227976   1.547   3.511   7.273  0.1085  0.1265 -0.4912
 2138TIP3    H127977   1.559   3.417   7.283  2.7683  0.5510  1.1448
 2138TIP3    H227978   1.465   3.529   7.319  1.0621 -1.0488  1.8287
 2139TIP3   OH227979   5.118   5.791   7.097  0.4114  0.4634  0.5159
 2139TIP3    H127980   5.098   5.880   7.070  4.1494  1.9406  1.9356
 2139TIP3    H227981   5.158   5.800   7.184  0.5601 -2.6631  0.9098
 2140TIP3   OH227982   0.297   4.408   6.466  0.4284 -0.2798 -0.3860
 2140TIP3    H127983   0.385   4.444   6.475 -0.2032  1.3628 -0.4874
 2140TIP3    H227984   0.242   4.483   6.444 -1.3554 -0.9075  1.6301
 2141TIP3   OH227985   0.009   0.697   1.873 -0.3188 -0.0004  0.4421
 2141TIP3    H127986  -0.075   0.680   1.915 -0.8386 -1.0530 -0.9359
 2141TIP3    H227987  -0.011   0.700   1.779  1.3163 -1.3442 -0.0044
 2142TIP3   OH227988   1.211   2.944   7.440  0.2906 -0.5705  0.0066
 2142TIP3    H127989   1.141   2.931   7.504  0.4167 -0.0269  0.2590
 2142TIP3    H227990   1.284   2.893   7.474  0.3051 -0.4140  0.2094
 2143TIP3   OH227991   0.671   1.892   7.872 -0.1237  0.3385  0.1369
 2143TIP3    H127992   0.759   1.924   7.889 -0.7891  1.6042  1.3719
 2143TIP3    H227993   0.671   1.801   7.901  0.2858  0.8698  1.8545
 2144TIP3   OH227994   1.725   4.739   6.541 -0.4427  0.1710 -0.5859
 2144TIP3    H127995   1.815   4.768   6.559 -1.4607  3.1050  0.4168
 2144TIP3    H227996   1.686   4.728   6.627 -1.0833 -1.0782 -1.0204
 2145TIP3   OH227997   3.668   5.452   2.290 -0.3201  0.2886 -0.2043
 2145TIP3    H127998   3.673   5.358   2.307 -0.9568  0.1337 -0.8634
 2145TIP3    H227999   3.609   5.485   2.358 -0.4490  0.1426 -0.2444
 2146TIP3   OH228000   5.196   0.619   1.598  0.6600  0.0645 -0.3065
 2146TIP3    H128001   5.165   0.619   1.507  2.7166  0.5207 -1.0562
 2146TIP3    H228002   5.209   0.711   1.619  2.5526 -0.1211 -0.4614
 2147TIP3   OH228003   0.226   4.880   0.491 -0.1513  0.0644 -0.4460
 2147TIP3    H128004   0.163   4.951   0.478  0.1034  0.5101  0.6708
 2147TIP3    H228005   0.197   4.836   0.571  0.9240  0.2365  0.0548
 2148TIP3   OH228006   1.034   4.964   8.069  0.5062 -0.6390 -0.0877
 2148TIP3    H128007   1.002   5.003   8.150  0.9865  0.9859 -0.6611
 2148TIP3    H228008   1.120   4.928   8.093  0.0888 -1.3446  0.4210
 2149TIP3   OH228009   1.952   6.884   7.853 -0.0665  0.2798  0.1939
 2149TIP3    H128010   1.934   6.941   7.777 -2.0538 -0.9408 -0.3232
 2149TIP3    H228011   1.913   6.930   7.927 -0.3544  0.2978  0.0332
 2150TIP3   OH228012   1.634   4.778   0.476 -0.0600 -0.7072 -0.0944
 2150TIP3    H128013   1.647   4.864   0.438  0.8473 -0.9923 -0.4694
 2150TIP3    H228014   1.551   4.784   0.523  0.1671  0.4680  0.1845
 2151TIP3   OH228015   3.771   1.207   1.174 -0.3485  0.0880  0.0415
 2151TIP3    H128016   3.779   1.135   1.236 -2.4449  0.6192  1.0394
 2151TIP3    H228017   3.731   1.168   1.096  1.9709 -0.5127 -0.9040
 2152TIP3   OH228018   6.261   4.716   8.155  0.6983 -0.4867 -0.6181
 2152TIP3    H128019   6.319   4.714   8.231  1.1984 -1.0112 -1.0087
 2152TIP3    H228020   6.206   4.794   8.169  0.5083 -0.8053  0.4746
 2153TIP3   OH228021   6.482   5.284   0.084 -0.4088  0.5882 -0.8664
 2153TIP3    H128022   6.559   5.275   0.027  0.1693  1.3178 -0.2345
 2153TIP3    H228023   6.415   5.324   0.029  0.5446  2.4706 -0.7399
 2154TIP3   OH228024   4.379   1.419   6.878 -0.1323  0.1688  0.1829
 2154TIP3    H128025   4.329   1.440   6.799 -1.8786 -0.8858  0.9456
 2154TIP3    H228026   4.425   1.500   6.899  0.9746  0.2615 -2.2932
 2155TIP3   OH228027   4.785   2.239   0.739 -0.0223  0.7322 -0.4509
 2155TIP3    H128028   4.814   2.282   0.820 -1.2615 -0.2133  0.5266
 2155TIP3    H228029   4.703   2.196   0.763  0.5026 -1.0944 -1.7256
 2156TIP3   OH228030   3.373   6.129   6.698  0.7034  1.0517 -0.3570
 2156TIP3    H128031   3.432   6.054   6.707  0.2750  0.9594  2.1809
 2156TIP3    H228032   3.285   6.092   6.702  0.4487  1.7619  2.9234
 2157TIP3   OH228033   1.078   1.759   0.661  0.1912  0.3879 -0.1649
 2157TIP3    H128034   1.033   1.690   0.710  0.3718  0.7066  0.4561
 2157TIP3    H228035   1.109   1.715   0.581  1.2246 -0.5080  0.7026
 2158TIP3   OH228036   1.615   4.276   7.120  0.5738  0.3086 -0.1698
 2158TIP3    H128037   1.638   4.358   7.076 -1.6256  0.0789 -1.9179
 2158TIP3    H228038   1.684   4.215   7.093  1.7312  1.3079  0.4099
 2159TIP3   OH228039   2.809   2.255   1.342  0.5289  0.6518 -0.4700
 2159TIP3    H128040   2.812   2.193   1.415 -1.3072  0.7624 -0.2716
 2159TIP3    H228041   2.809   2.200   1.264 -1.3923  0.3250 -0.2912
 2160TIP3   OH228042   1.525   2.111   1.074 -0.0168 -0.2867 -0.0221
 2160TIP3    H128043   1.621   2.112   1.066  0.0448 -2.2620 -0.1584
 2160TIP3    H228044   1.507   2.044   1.140 -1.3208 -0.1186 -0.1756
 2161TIP3   OH228045   4.747   4.287   6.524 -0.3146 -0.2884 -0.2586
 2161TIP3    H128046   4.728   4.270   6.616  1.1999  1.6209  0.4548
 2161TIP3    H228047   4.694   4.364   6.502 -1.0569 -1.0235 -1.1814
 2162TIP3   OH228048   0.810   0.079   7.822  0.3564  0.0987 -0.3590
 2162TIP3    H128049   0.847   0.002   7.779 -1.3777 -1.4466  0.7854
 2162TIP3    H228050   0.731   0.099   7.771  1.0242  1.4794 -0.9324
 2163TIP3   OH228051   2.019   5.911   8.223 -0.3909  0.3766 -0.1190
 2163TIP3    H128052   2.045   5.819   8.215  1.4393  0.9992 -2.8246
 2163TIP3    H228053   1.924   5.909   8.218 -0.4576 -1.4126  1.0026
 2164TIP3   OH228054   4.763   4.681   5.644  1.0544  0.0474  0.3211
 2164TIP3    H128055   4.698   4.619   5.610 -1.1700  1.0318  2.4927
 2164TIP3    H228056   4.799   4.639   5.722  2.0118  0.1117 -0.0740
 2165TIP3   OH228057   4.995   3.284   7.079  0.5609  0.0888  0.1382
 2165TIP3    H128058   4.926   3.235   7.124  0.9770 -0.3788  0.2706
 2165TIP3    H228059   4.948   3.347   7.025  0.0500  0.5241  1.0689
 2166TIP3   OH228060   4.082   4.175   5.826  0.8081  0.3255 -0.1521
 2166TIP3    H128061   4.038   4.243   5.877  0.5924 -0.5580  0.8927
 2166TIP3    H228062   4.172   4.207   5.818  0.4984  1.1444 -0.4504
 2167TIP3   OH228063   4.291   6.857   1.345  0.2981 -0.0029 -0.8690
 2167TIP3    H128064   4.355   6.807   1.396 -1.3875 -2.5632 -1.0403
 2167TIP3    H228065   4.262   6.926   1.404 -0.0083 -1.5608  0.9066
 2168TIP3   OH228066   6.041   6.241   7.119  0.1499 -0.0479  0.0038
 2168TIP3    H128067   6.038   6.211   7.028 -0.2147  0.0360 -0.0129
 2168TIP3    H228068   6.132   6.228   7.146  0.3445  0.2955 -0.4951
 2169TIP3   OH228069   2.554   0.934   0.369 -0.2590  0.7459 -0.3816
 2169TIP3    H128070   2.467   0.925   0.408  0.1546 -1.3874  0.1556
 2169TIP3    H228071   2.607   0.975   0.437 -0.6929  1.6055 -0.5400
 2170TIP3   OH228072   5.475   0.601   1.259 -0.5464  0.0692 -0.0192
 2170TIP3    H128073   5.409   0.625   1.193 -0.1263  1.0248 -0.1220
 2170TIP3    H228074   5.452   0.512   1.285 -0.7587 -0.3140 -1.4221
 2171TIP3   OH228075   0.079   1.802   0.383 -0.0580  0.1510 -0.1358
 2171TIP3    H128076  -0.006   1.764   0.405  0.1481 -1.1523 -1.4865
 2171TIP3    H228077   0.064   1.850   0.302  0.2247  1.0090  0.3043
 2172TIP3   OH228078   4.891   1.364   1.248 -0.6403  0.0593 -0.0255
 2172TIP3    H128079   4.855   1.283   1.211  2.0383 -0.5041 -1.7327
 2172TIP3    H228080   4.873   1.431   1.183  0.8391 -0.1256 -0.6594
 2173TIP3   OH228081   5.167   7.010   1.521 -0.8695  0.3369  0.1117
 2173TIP3    H128082   5.085   7.057   1.536 -1.4263 -0.9869  1.5543
 2173TIP3    H228083   5.230   7.052   1.580 -0.6040  1.0693 -0.6749
 2174TIP3   OH228084   7.012   1.730   0.040  0.2193  0.2836  0.3646
 2174TIP3    H128085   6.992   1.733  -0.054  0.3129 -0.1096  0.3275
 2174TIP3    H228086   7.006   1.637   0.062  0.3961  0.3530  0.7074
 2175TIP3   OH228087   4.067   3.893   0.630  0.2868 -0.1016 -0.0413
 2175TIP3    H128088   4.008   3.964   0.658 -0.7640 -1.3202  0.9816
 2175TIP3    H228089   4.136   3.892   0.695 -0.6411 -1.1056  0.9751
 2176TIP3   OH228090   4.132   1.658   1.643  0.2637 -0.2371 -0.1787
 2176TIP3    H128091   4.191   1.726   1.611 -0.3046  1.9259  2.9399
 2176TIP3    H228092   4.185   1.578   1.644  2.0799  0.9013 -0.5916
 2177TIP3   OH228093   1.657   1.435   1.783  0.1691  0.0018  0.2710
 2177TIP3    H128094   1.656   1.402   1.873  0.9178  2.3624  1.2220
 2177TIP3    H228095   1.749   1.452   1.765 -0.0238 -0.0364 -0.8016
 2178TIP3   OH228096   6.247   4.161   6.964  0.1544 -0.2201  0.7411
 2178TIP3    H128097   6.328   4.153   6.914 -0.0886 -2.0181  0.5849
 2178TIP3    H228098   6.223   4.072   6.987 -3.2921 -0.1430 -1.6668
 2179TIP3   OH228099   4.460   1.375   7.357 -0.2138 -0.2173  0.1936
 2179TIP3    H128100   4.433   1.466   7.344 -0.5214 -0.5195 -1.5427
 2179TIP3    H228101   4.502   1.350   7.275 -0.1974 -1.6636  0.6098
 2180TIP3   OH228102   4.625   4.426   7.293  0.5180  0.0313  0.5436
 2180TIP3    H128103   4.569   4.469   7.358 -0.1266 -0.4443  0.3169
 2180TIP3    H228104   4.571   4.355   7.258  1.5435 -0.9346  0.8730
 2181TIP3   OH228105   4.530   0.531   6.120 -0.5703  0.0178 -0.5891
 2181TIP3    H128106   4.520   0.440   6.148 -0.0352 -0.4730 -1.9223
 2181TIP3    H228107   4.441   0.563   6.111 -0.7621 -0.3701 -0.1217
 2182TIP3   OH228108   3.771   5.555   1.623 -0.2528  0.0401  0.0172
 2182TIP3    H128109   3.724   5.569   1.541  1.9982 -2.6221 -1.9058
 2182TIP3    H228110   3.859   5.586   1.606  1.9388 -5.5091 -0.8384
 2183TIP3   OH228111   6.655   0.539   7.287 -0.0531 -0.0228  0.1663
 2183TIP3    H128112   6.570   0.559   7.327 -1.4143  1.6589 -3.1547
 2183TIP3    H228113   6.717   0.598   7.330 -1.3383  1.3708  0.1737
 2184TIP3   OH228114   4.978   5.851   6.276  0.4341  0.0799 -1.0386
 2184TIP3    H128115   4.899   5.823   6.230 -1.4162 -0.7329  2.3482
 2184TIP3    H228116   5.025   5.769   6.295  0.7640  0.3269 -0.7745
 2185TIP3   OH228117   4.432   2.079   2.117 -0.5151 -0.0616 -0.2971
 2185TIP3    H128118   4.355   2.093   2.172  0.4749  1.1322  0.8445
 2185TIP3    H228119   4.449   1.985   2.122 -0.9276 -0.0888  0.7878
 2186TIP3   OH228120   6.187   1.189   0.871  0.3184  0.1815  0.3641
 2186TIP3    H128121   6.191   1.210   0.778  0.7503 -0.2917  0.2687
 2186TIP3    H228122   6.147   1.102   0.874  2.0129 -0.6568  0.4616
 2187TIP3   OH228123   1.620   3.271   1.394 -0.2455  0.1034  0.0820
 2187TIP3    H128124   1.549   3.213   1.422 -0.4774  0.6117  0.5525
 2187TIP3    H228125   1.680   3.273   1.469 -1.5920  2.6422  1.2073
 2188TIP3   OH228126   2.201   3.689   0.249  0.5461 -0.0471  0.0654
 2188TIP3    H128127   2.296   3.677   0.257  0.2745 -1.4592  1.6803
 2188TIP3    H228128   2.164   3.606   0.279 -1.2106  0.4497 -0.6336
 2189TIP3   OH228129   4.144   2.648   0.023  0.0433 -0.1721  0.0691
 2189TIP3    H128130   4.205   2.651   0.097 -0.3290  1.5284  0.3627
 2189TIP3    H228131   4.115   2.739   0.013  0.7348 -0.1762 -2.7367
 2190TIP3   OH228132   5.245   4.971   7.948  0.1228  0.3364  0.3544
 2190TIP3    H128133   5.178   5.036   7.927 -0.7741 -0.6068  0.2427
 2190TIP3    H228134   5.257   4.980   8.043  0.9028  1.4843  0.1758
 2191TIP3   OH228135   5.164   5.576   7.823 -0.7795 -0.2045 -0.3946
 2191TIP3    H128136   5.192   5.498   7.871  0.2347  0.2810 -0.1528
 2191TIP3    H228137   5.072   5.587   7.847 -1.2373 -1.8871 -1.2390
 2192TIP3   OH228138   2.912   1.268   1.301 -0.4358  0.0324  0.2410
 2192TIP3    H128139   2.865   1.351   1.290  0.4928  0.4616 -0.6772
 2192TIP3    H228140   3.002   1.288   1.275  0.4436 -0.6105  2.5876
 2193TIP3   OH228141   2.131   6.623   1.688 -0.2514 -0.3136 -0.2348
 2193TIP3    H128142   2.214   6.671   1.683 -1.8697  2.6066 -1.4323
 2193TIP3    H228143   2.086   6.660   1.764 -1.3054 -0.3673 -0.8162
 2194TIP3   OH228144   5.975   4.795   7.157 -0.2073  0.7911  0.1242
 2194TIP3    H128145   5.926   4.717   7.130  0.1061  0.4907  0.4219
 2194TIP3    H228146   5.937   4.819   7.242  0.4127  0.3293  0.5418
 2195TIP3   OH228147   4.946   4.908   7.039 -0.2556  0.1671 -0.0313
 2195TIP3    H128148   4.860   4.873   7.019  0.4755 -0.4789 -2.4094
 2195TIP3    H228149   4.982   4.848   7.105  0.2267 -2.6522 -2.6276
 2196TIP3   OH228150   5.914   6.790   6.645  0.5558 -0.7893 -0.0743
 2196TIP3    H128151   5.968   6.794   6.724 -0.1108  1.8827  0.3478
 2196TIP3    H228152   5.952   6.856   6.587 -0.6549 -0.7401 -0.8469
 2197TIP3   OH228153   1.979   5.209   7.094  0.0613 -0.0568 -0.0742
 2197TIP3    H128154   1.972   5.140   7.028 -0.2435  0.4897 -0.6205
 2197TIP3    H228155   2.035   5.275   7.054 -0.1710  0.3071  0.1945
 2198TIP3   OH228156   2.130   4.004   7.052 -0.5887  0.2249 -0.6160
 2198TIP3    H128157   2.099   4.017   7.142 -1.6459 -1.1997 -0.7490
 2198TIP3    H228158   2.190   4.077   7.037 -1.2656  1.1225  0.8477
 2199TIP3   OH228159   0.238   3.533   0.916  0.6175 -0.1265  0.3201
 2199TIP3    H128160   0.245   3.451   0.964 -1.0078 -0.1904  0.4776
 2199TIP3    H228161   0.239   3.507   0.824  0.8409 -0.2496  0.3566
 2200TIP3   OH228162   4.554   5.417   5.956  0.1037 -0.1023 -0.6168
 2200TIP3    H128163   4.463   5.388   5.950  0.0605 -0.3756  1.1139
 2200TIP3    H228164   4.605   5.342   5.925 -0.1645 -0.8972  0.7873
 2201TIP3   OH228165   2.873   0.272   8.263  0.2160 -0.2654  0.1979
 2201TIP3    H128166   2.930   0.198   8.284  0.0730 -0.5232 -0.3088
 2201TIP3    H228167   2.925   0.326   8.203 -0.0542 -0.4822 -0.2366
 2202TIP3   OH228168   0.614   4.365   1.071  0.0375  0.5233 -0.7866
 2202TIP3    H128169   0.550   4.410   1.127  0.7535  2.4552 -1.4127
 2202TIP3    H228170   0.571   4.358   0.986 -0.7885 -1.7934 -0.2522
 2203TIP3   OH228171   5.706   1.116   7.461 -0.0054  0.0023  0.1864
 2203TIP3    H128172   5.772   1.048   7.469 -0.2786 -0.5810 -1.9382
 2203TIP3    H228173   5.739   1.188   7.515 -0.1304 -2.0369  3.2075
 2204TIP3   OH228174   1.311   5.023   6.092  0.6768 -0.4739  0.4074
 2204TIP3    H128175   1.382   5.088   6.094  1.7469 -1.4384 -2.0863
 2204TIP3    H228176   1.353   4.943   6.061 -1.5726 -0.9143 -1.8516
 2205TIP3   OH228177   0.008   3.018   0.367 -0.4255 -0.1330 -0.4605
 2205TIP3    H128178   0.070   3.091   0.373 -1.1965  0.6524 -1.6493
 2205TIP3    H228179   0.008   2.995   0.274  0.1245 -1.9533 -0.0431
 2206TIP3   OH228180   0.473   2.843   6.833 -0.3884  0.1388 -0.1377
 2206TIP3    H128181   0.414   2.815   6.903 -1.2330  0.7019 -0.6092
 2206TIP3    H228182   0.415   2.874   6.764  0.1875 -3.7552 -2.6521
 2207TIP3   OH228183   6.238   4.234   0.602 -0.1930  0.1485  0.0628
 2207TIP3    H128184   6.175   4.306   0.591 -0.1800  0.0520 -0.7692
 2207TIP3    H228185   6.205   4.184   0.676 -0.4387  0.7741  0.3800
 2208TIP3   OH228186   3.949   6.466   0.343 -0.6057 -0.2732  0.6406
 2208TIP3    H128187   3.974   6.514   0.422 -0.2702  1.2447 -0.3396
 2208TIP3    H228188   4.023   6.408   0.325  0.8750  1.7935 -0.3741
 2209TIP3   OH228189   6.055   2.363   7.101  0.0407  0.5409  0.0618
 2209TIP3    H128190   6.036   2.403   7.186 -0.5669  0.1424  0.1185
 2209TIP3    H228191   6.005   2.281   7.102  2.4290 -0.9856  0.5437
 2210TIP3   OH228192   6.490   0.919   0.643 -0.2842 -0.2322  0.0384
 2210TIP3    H128193   6.460   1.002   0.606 -1.0103 -0.0404  1.0270
 2210TIP3    H228194   6.578   0.939   0.675  1.3282 -0.9646 -3.4316
 2211TIP3   OH228195   0.766   3.661   7.131 -0.2053 -0.1380  0.0730
 2211TIP3    H128196   0.847   3.609   7.122  0.5033  0.8871  0.3760
 2211TIP3    H228197   0.707   3.623   7.066  0.0644 -1.7360  0.7216
 2212TIP3   OH228198   5.088   6.872   7.703  0.4329 -0.2451  0.1025
 2212TIP3    H128199   5.166   6.876   7.648  0.7615 -0.8862  0.5086
 2212TIP3    H228200   5.033   6.944   7.672  1.2492  0.3143 -0.0881
 2213TIP3   OH228201   6.039   6.682   1.289 -0.3683 -0.2942 -0.0822
 2213TIP3    H128202   5.973   6.732   1.338  1.3250  1.2879  0.6999
 2213TIP3    H228203   5.994   6.601   1.264 -2.0620 -0.0490  1.8975
 2214TIP3   OH228204   2.071   5.908   7.933  0.1116  0.5667  0.4435
 2214TIP3    H128205   2.050   5.967   8.005 -0.7278 -0.7112  1.2783
 2214TIP3    H228206   2.156   5.870   7.956  0.0425  0.4795  0.5549
 2215TIP3   OH228207   3.561   2.992   7.561 -0.2747 -0.2572 -0.1125
 2215TIP3    H128208   3.486   3.010   7.616 -0.1900 -1.1678  0.3265
 2215TIP3    H228209   3.580   3.075   7.517 -2.0080 -0.1991 -0.8226
 2216TIP3   OH228210   5.779   3.828   0.476 -0.0502  0.1667 -0.5638
 2216TIP3    H128211   5.797   3.771   0.550 -0.3387  0.3875 -0.3211
 2216TIP3    H228212   5.829   3.790   0.404 -0.3744 -0.4903 -0.4505
 2217TIP3   OH228213   2.368   3.358   7.732  0.7116 -0.5565 -0.0386
 2217TIP3    H128214   2.320   3.288   7.689 -1.8936 -0.4716  2.4013
 2217TIP3    H228215   2.316   3.378   7.810  1.7847  3.4692 -0.1206
 2218TIP3   OH228216   1.484   1.481   2.076 -0.0018 -0.1957  0.1193
 2218TIP3    H128217   1.515   1.396   2.044 -0.2714 -0.2275 -0.0534
 2218TIP3    H228218   1.563   1.522   2.113  0.1657 -0.4446  0.0453
 2219TIP3   OH228219   0.751   3.119   0.542  0.0590  0.1724 -0.3183
 2219TIP3    H128220   0.751   3.027   0.516  1.3751 -0.1128  0.6239
 2219TIP3    H228221   0.714   3.119   0.630 -0.1751  0.5821 -0.4155
 2220TIP3   OH228222   3.898   5.970   1.079 -0.4789  0.2046  0.0902
 2220TIP3    H128223   3.918   6.023   1.156  1.7841 -0.6140  0.1374
 2220TIP3    H228224   3.983   5.943   1.045 -1.4324  0.1316 -2.4473
 2221TIP3   OH228225   2.834   0.685   2.085  0.2320 -0.2517 -0.6360
 2221TIP3    H128226   2.798   0.597   2.073  0.4480 -0.2554 -1.3152
 2221TIP3    H228227   2.920   0.671   2.123  0.4167 -0.3567 -1.0882
 2222TIP3   OH228228   3.061   0.964   7.752 -0.5001 -0.4375  0.2185
 2222TIP3    H128229   3.070   1.050   7.711 -0.0586  0.1053  1.3898
 2222TIP3    H228230   2.994   0.919   7.700 -0.5147  0.4971 -0.5968
 2223TIP3   OH228231   3.931   5.981   7.189  0.1199 -0.7087 -0.8382
 2223TIP3    H128232   3.905   5.975   7.097 -2.0004 -1.3832 -0.2356
 2223TIP3    H228233   3.914   5.894   7.225  0.5567 -0.3414  0.3009
 2224TIP3   OH228234   0.554   5.474   0.671 -0.0028 -0.0576 -0.6395
 2224TIP3    H128235   0.596   5.549   0.714  1.0596 -1.3174  0.5828
 2224TIP3    H228236   0.460   5.487   0.687 -0.1078  2.2352 -2.4982
 2225TIP3   OH228237   3.369   3.206   0.459  0.2753  0.4283  0.3912
 2225TIP3    H128238   3.409   3.251   0.385 -0.4112  1.6543  0.7453
 2225TIP3    H228239   3.433   3.213   0.529  0.5071  0.1398  0.2098
 2226TIP3   OH228240   5.926   1.622   0.231 -0.3051  0.2294  0.0534
 2226TIP3    H128241   5.884   1.557   0.174 -0.7440  2.1105 -1.8980
 2226TIP3    H228242   5.887   1.706   0.204  2.6558  1.7349  0.0998
 2227TIP3   OH228243   3.877   1.766   1.692 -0.1446 -0.5919 -0.0697
 2227TIP3    H128244   3.972   1.753   1.684 -0.1792 -0.1203 -1.4097
 2227TIP3    H228245   3.865   1.792   1.784  1.3482  1.7670 -0.4645
 2228TIP3   OH228246   1.825   3.697   5.945 -0.3420  0.0506  0.3064
 2228TIP3    H128247   1.783   3.624   5.900 -1.1815 -1.1139  2.8205
 2228TIP3    H228248   1.754   3.744   5.988  0.3681  1.4585  0.0125
 2229TIP3   OH228249   2.939   1.248   6.961  0.2047  0.0746 -0.3899
 2229TIP3    H128250   3.025   1.289   6.968  0.2966 -0.3539  2.0450
 2229TIP3    H228251   2.957   1.159   6.930  0.4947  0.4027 -1.1632
 2230TIP3   OH228252   5.786   3.671   0.158 -0.5237  0.6187 -0.4788
 2230TIP3    H128253   5.854   3.726   0.197 -1.3165  1.9300 -0.8520
 2230TIP3    H228254   5.706   3.722   0.169 -1.6366 -1.3299  0.8425
 2231TIP3   OH228255   1.306   0.464   7.283 -0.2344  0.0717  0.0838
 2231TIP3    H128256   1.226   0.460   7.232  0.0331 -2.2935 -0.2929
 2231TIP3    H228257   1.376   0.453   7.219  0.4030  1.5640  0.4739
 2232TIP3   OH228258   5.811   1.598   1.457  0.3102  0.4420  0.3620
 2232TIP3    H128259   5.754   1.660   1.502 -0.4849 -0.0414  0.0385
 2232TIP3    H228260   5.777   1.595   1.367  0.9948  0.3232  0.0966
 2233TIP3   OH228261   4.706   2.542   6.707 -0.0004  0.6418  0.1651
 2233TIP3    H128262   4.727   2.619   6.760  1.1511  1.1424 -0.9675
 2233TIP3    H228263   4.779   2.534   6.645 -0.9090 -0.3791 -0.8375
 2234TIP3   OH228264   1.464   2.141   6.897  0.3051 -0.1324 -0.6108
 2234TIP3    H128265   1.391   2.174   6.950 -0.0997 -1.4216 -0.3270
 2234TIP3    H228266   1.435   2.156   6.806 -0.1226 -0.2193 -0.4936
 2235TIP3   OH228267   0.154   0.975   8.326  0.4150  0.0058 -0.0979
 2235TIP3    H128268   0.150   1.049   8.265  1.7697  0.6434  0.5365
 2235TIP3    H228269   0.248   0.964   8.343  0.0632 -0.0588  1.9973
 2236TIP3   OH228270   1.810   4.521   7.304 -0.3898  0.0664  0.6547
 2236TIP3    H128271   1.743   4.576   7.263 -1.5031  1.1145  3.6294
 2236TIP3    H228272   1.892   4.568   7.289 -0.9043  0.9475  0.5530
 2237TIP3   OH228273   2.237   1.023   7.435 -0.3063 -0.4320 -0.2308
 2237TIP3    H128274   2.251   1.059   7.347  0.4080 -1.0041 -0.3661
 2237TIP3    H228275   2.185   0.944   7.420  0.4426 -0.9403 -0.2348
 2238TIP3   OH228276   2.468   3.491   0.094 -0.4474 -0.1903  0.2398
 2238TIP3    H128277   2.468   3.395   0.102 -1.4860 -0.3590 -1.3652
 2238TIP3    H228278   2.510   3.508   0.009 -0.2311  0.7939  0.5329
 2239TIP3   OH228279   3.093   2.681   7.863  0.6287 -0.5271 -0.1359
 2239TIP3    H128280   3.012   2.719   7.897  1.2712  1.2290 -0.4343
 2239TIP3    H228281   3.139   2.649   7.940 -0.1141 -1.0804  0.0853
 2240TIP3   OH228282   1.159   3.278   6.200  0.2383 -0.0680 -0.4898
 2240TIP3    H128283   1.122   3.214   6.261  1.6102  0.6834  1.1913
 2240TIP3    H228284   1.250   3.289   6.229  0.6270  1.0844 -2.0500
 2241TIP3   OH228285   3.519   0.070   1.816 -0.6709 -0.2556  0.4696
 2241TIP3    H128286   3.446   0.016   1.789 -0.5803 -0.2214  0.1537
 2241TIP3    H228287   3.581   0.009   1.857 -1.6813 -0.0358  2.4653
 2242TIP3   OH228288   6.650   2.683   6.822  0.9155 -0.1690 -0.4418
 2242TIP3    H128289   6.696   2.677   6.739 -1.0217  0.0941 -1.5932
 2242TIP3    H228290   6.577   2.621   6.815  0.4519  0.1773  0.8728
 2243TIP3   OH228291   2.361   3.683   6.795  0.2133 -0.2334 -0.0129
 2243TIP3    H128292   2.431   3.673   6.860  0.5144 -0.1608 -0.3249
 2243TIP3    H228293   2.393   3.751   6.735 -0.8709  1.0516  0.8206
 2244TIP3   OH228294   1.219   5.432   1.431  0.0057 -0.0976  0.0816
 2244TIP3    H128295   1.268   5.384   1.364 -0.2657 -0.1503 -0.0831
 2244TIP3    H228296   1.209   5.520   1.395  1.6349  0.4822  0.9516
 2245TIP3   OH228297   3.171   3.949   1.760  0.2708  0.2949  0.4286
 2245TIP3    H128298   3.104   3.999   1.714 -0.8115  0.2732  1.9067
 2245TIP3    H228299   3.152   3.858   1.738  0.2214  0.3331  0.3114
 2246TIP3   OH228300   5.755   5.026   1.439  0.0312  0.5451  0.2777
 2246TIP3    H128301   5.759   4.944   1.488 -1.4763  0.8180  0.9053
 2246TIP3    H228302   5.706   5.086   1.496  0.6082  1.7105 -0.4165
 2247TIP3   OH228303   1.421   6.745   8.329  0.4328 -0.0174 -0.6973
 2247TIP3    H128304   1.395   6.761   8.419 -0.2340 -1.2810 -0.6398
 2247TIP3    H228305   1.478   6.818   8.307 -0.1837  0.8269  0.4222
 2248TIP3   OH228306   6.487   4.386   0.586  0.4042 -0.4797  0.1340
 2248TIP3    H128307   6.508   4.428   0.670  0.4388  0.1354 -0.1807
 2248TIP3    H228308   6.407   4.335   0.604 -0.0213  0.2497  0.3530
 2249TIP3   OH228309   3.117   6.211   7.355 -0.6121 -0.0470 -0.0536
 2249TIP3    H128310   3.185   6.188   7.418 -0.5770  1.6113  0.5428
 2249TIP3    H228311   3.157   6.193   7.270 -0.4461 -1.7162  0.3405
 2250TIP3   OH228312   4.388   5.095   1.262  0.6600 -0.2045  0.2098
 2250TIP3    H128313   4.481   5.074   1.274  0.8457  1.0166  1.0744
 2250TIP3    H228314   4.344   5.054   1.336  0.6231 -0.0911  0.2512
 2251TIP3   OH228315   0.183   1.588   1.834 -0.3649 -0.1596  0.2670
 2251TIP3    H128316   0.199   1.575   1.741 -0.7805  2.4231 -0.2531
 2251TIP3    H228317   0.090   1.611   1.839 -0.3583 -0.3330  1.3117
 2252TIP3   OH228318   4.161   6.310   1.375 -0.1699  0.5215 -0.0202
 2252TIP3    H128319   4.169   6.268   1.460  1.1281 -0.2021 -0.4646
 2252TIP3    H228320   4.159   6.404   1.395 -2.2881  0.3228  0.9295
 2253TIP3   OH228321   0.057   1.036   6.666 -0.2075  0.5341 -0.0172
 2253TIP3    H128322   0.050   1.074   6.754 -1.2627  1.0214 -0.2898
 2253TIP3    H228323   0.069   0.943   6.681 -1.2446  0.4842  0.6600
 2254TIP3   OH228324   2.016   6.514   7.343  0.0832 -0.1418 -0.1736
 2254TIP3    H128325   1.954   6.587   7.351 -0.4475 -0.5632 -0.3901
 2254TIP3    H228326   1.986   6.466   7.266  1.6361  0.5411 -1.2496
 2255TIP3   OH228327   5.592   6.584   1.093  0.2699 -0.1768 -0.9105
 2255TIP3    H128328   5.518   6.613   1.145  0.1990  0.5018 -1.3753
 2255TIP3    H228329   5.650   6.539   1.155  0.0995  0.4584 -0.2923
 2256TIP3   OH228330   6.953   3.733   1.272 -0.7915  0.0458  0.2330
 2256TIP3    H128331   6.949   3.644   1.307  1.4949 -0.1323  0.2093
 2256TIP3    H228332   7.004   3.725   1.192 -0.2469  1.3983  0.4103
 2257TIP3   OH228333   0.136   3.881   7.224 -0.1369  0.0665 -0.2009
 2257TIP3    H128334   0.175   3.797   7.249  1.1405  0.5899 -0.3912
 2257TIP3    H228335   0.164   3.895   7.134 -1.6673 -0.0414 -0.7323
 2258TIP3   OH228336   5.321   0.828   7.942 -0.5592 -0.6785 -0.3666
 2258TIP3    H128337   5.355   0.826   8.032 -1.5321 -0.4614  0.0209
 2258TIP3    H228338   5.380   0.886   7.895 -0.1149 -0.6921  0.1625
 2259TIP3   OH228339   4.488   5.230   6.556  0.3014 -0.7981 -0.2112
 2259TIP3    H128340   4.500   5.302   6.494  2.4840 -1.0548 -0.1668
 2259TIP3    H228341   4.557   5.243   6.621  0.5438 -2.7362 -0.0312
 2260TIP3   OH228342   2.193   5.613   0.398  0.6420  0.2051  0.2870
 2260TIP3    H128343   2.120   5.557   0.372  0.7335  0.8646 -1.5369
 2260TIP3    H228344   2.240   5.630   0.317  1.9237  1.0906  1.1755
 2261TIP3   OH228345   7.011   3.962   6.651  0.2766 -0.4610 -0.1453
 2261TIP3    H128346   6.924   3.922   6.643  0.4315 -1.0648  1.0231
 2261TIP3    H228347   6.995   4.046   6.694  0.0653  0.3576 -1.7355
 2262TIP3   OH228348   2.785   4.525   1.419  0.0653 -0.8197 -0.2124
 2262TIP3    H128349   2.740   4.609   1.412  0.9575 -0.1202  1.7714
 2262TIP3    H228350   2.715   4.461   1.435 -0.3783  0.0950  1.7520
 2263TIP3   OH228351   4.783   4.703   0.687 -0.6336  0.6693  0.3646
 2263TIP3    H128352   4.704   4.652   0.666  0.0292 -0.4484  0.5169
 2263TIP3    H228353   4.800   4.683   0.779 -0.3376  1.1423  0.4135
 2264TIP3   OH228354   1.049   4.681   1.026  0.6997 -0.4867  0.2817
 2264TIP3    H128355   0.980   4.656   0.964  1.8093 -1.9254 -0.4486
 2264TIP3    H228356   1.122   4.706   0.970  1.0544  0.1837  1.0393
 2265TIP3   OH228357   5.799   5.086   2.452  0.1293  0.0785  0.5422
 2265TIP3    H128358   5.726   5.090   2.513 -0.3364  0.0260 -0.0019
 2265TIP3    H228359   5.877   5.097   2.507 -0.3185  0.8877  1.0304
 2266TIP3   OH228360   6.899   5.467   1.877 -0.4185 -0.3232 -0.6927
 2266TIP3    H128361   6.945   5.530   1.822 -1.3237  1.0129  0.0509
 2266TIP3    H228362   6.811   5.502   1.886 -1.2355 -2.1725 -0.9969
 2267TIP3   OH228363   0.069   3.124   1.084 -0.5793 -0.3692  0.3471
 2267TIP3    H128364   0.024   3.046   1.120 -0.1161 -0.3352  1.0202
 2267TIP3    H228365   0.146   3.134   1.139 -0.2125  0.1034 -0.2483
 2268TIP3   OH228366   4.377   4.747   0.540  0.6531  0.7473 -0.1949
 2268TIP3    H128367   4.324   4.798   0.479  0.4102 -1.0703 -1.6092
 2268TIP3    H228368   4.357   4.656   0.519  2.1421  0.0239  1.2324
 2269TIP3   OH228369   2.408   4.152   7.769  0.7417  0.1645  0.9207
 2269TIP3    H128370   2.464   4.226   7.745  0.7077 -0.2081 -0.3705
 2269TIP3    H228371   2.325   4.192   7.795 -1.1962  0.6173 -4.6274
 2270TIP3   OH228372   2.001   5.637   7.799 -0.7169  0.3154  0.7011
 2270TIP3    H128373   2.004   5.679   7.885 -0.6342  3.6142 -0.7548
 2270TIP3    H228374   1.927   5.678   7.755  0.9633  0.9205 -1.7783
 2271TIP3   OH228375   1.203   5.529   0.544  0.1783 -0.1089 -0.6951
 2271TIP3    H128376   1.224   5.499   0.456  0.6565  1.1924 -1.0421
 2271TIP3    H228377   1.280   5.579   0.572 -1.6370  3.3319 -1.3237
 2272TIP3   OH228378   2.460   1.260   7.974  0.5122 -0.2762 -0.1840
 2272TIP3    H128379   2.410   1.268   7.893  0.9890  0.9971 -0.3685
 2272TIP3    H228380   2.399   1.287   8.043  0.6460  0.4023 -0.3197
 2273TIP3   OH228381   0.230   6.158   7.647 -0.5651  0.0485 -0.3328
 2273TIP3    H128382   0.309   6.145   7.596 -1.5861 -1.0071 -1.7368
 2273TIP3    H228383   0.260   6.163   7.738  1.2214  1.2334 -0.9549
 2274TIP3   OH228384   3.737   2.015   6.954  0.0032 -0.2519 -0.0619
 2274TIP3    H128385   3.794   1.973   6.890 -0.4636  1.3145 -1.5884
 2274TIP3    H228386   3.709   2.096   6.912 -0.9304  0.4929  1.8539
 2275TIP3   OH228387   3.659   6.683   1.955  0.6155  0.2324 -0.1231
 2275TIP3    H128388   3.611   6.702   1.874  1.8470  0.3744 -0.8576
 2275TIP3    H228389   3.595   6.694   2.025 -0.1090  1.5985 -0.9632
 2276TIP3   OH228390   4.974   3.917   0.548  0.4133  0.0615  0.0460
 2276TIP3    H128391   4.921   3.989   0.582 -1.1482 -1.7677  1.7729
 2276TIP3    H228392   5.054   3.920   0.599  0.7916  1.1309 -0.5816
 2277TIP3   OH228393   5.753   6.035   7.056  0.1243 -0.6395  0.2538
 2277TIP3    H128394   5.760   5.990   6.972 -0.1919 -1.7906  0.8330
 2277TIP3    H228395   5.659   6.043   7.072  0.0676  2.1829 -0.8324
 2278TIP3   OH228396   3.708   4.352   7.265 -0.1150 -0.1544  0.0809
 2278TIP3    H128397   3.786   4.339   7.212  1.0607  1.1161  1.4105
 2278TIP3    H228398   3.694   4.268   7.309  0.1415 -0.5735 -0.6260
 2279TIP3   OH228399   0.255   4.428   1.883  0.3650 -0.0572  0.1522
 2279TIP3    H128400   0.238   4.488   1.955  0.3765 -0.8477  0.8321
 2279TIP3    H228401   0.170   4.388   1.864  0.5350 -0.5380  0.3724
 2280TIP3   OH228402   6.916   4.029   6.966  0.1389  0.4834  0.2077
 2280TIP3    H128403   6.897   4.077   6.885  0.8767 -0.2061 -0.3862
 2280TIP3    H228404   6.982   4.083   7.010  0.9846  0.0400 -0.4715
 2281TIP3   OH228405   0.436   5.254   0.265  0.1115  0.0509 -0.3458
 2281TIP3    H128406   0.387   5.240   0.346 -0.9385 -1.7359 -1.2418
 2281TIP3    H228407   0.416   5.178   0.210 -0.7016  2.0507 -3.0499
 2282TIP3   OH228408   5.330   0.097   1.757 -0.0276  0.0546 -0.5017
 2282TIP3    H128409   5.380   0.179   1.763 -0.5665  0.5006 -1.7249
 2282TIP3    H228410   5.261   0.106   1.823 -0.3296  0.7902 -0.8983
 2283TIP3   OH228411   2.193   1.541   8.085 -0.6610 -0.4425  0.7474
 2283TIP3    H128412   2.266   1.492   8.122  0.3407  0.7664  0.4544
 2283TIP3    H228413   2.182   1.505   7.997 -0.3841 -0.5942  0.7748
 2284TIP3   OH228414   5.537   3.992   8.082  0.1726  0.1930  0.0557
 2284TIP3    H128415   5.527   4.028   8.170 -1.6986  1.7995 -0.7409
 2284TIP3    H228416   5.452   4.005   8.041  0.5512 -1.8733 -1.5409
 2285TIP3   OH228417   2.007   4.024   2.092  0.5485 -0.2667 -0.1381
 2285TIP3    H128418   1.948   4.090   2.129 -1.8615 -2.7449  0.7589
 2285TIP3    H228419   2.015   4.049   2.000  0.2447  1.5855  0.2863
 2286TIP3   OH228420   0.274   4.076   2.323 -0.0484 -0.0723 -0.0441
 2286TIP3    H128421   0.272   4.107   2.232  0.8741 -0.3870 -0.1875
 2286TIP3    H228422   0.366   4.054   2.338 -0.1054  0.4616  1.1378
 2287TIP3   OH228423   4.082   2.142   7.463 -0.4088  0.2246 -0.1742
 2287TIP3    H128424   4.132   2.095   7.530 -1.9590 -0.2728  0.6884
 2287TIP3    H228425   4.051   2.074   7.403 -1.3119  0.3302  0.1629
 2288TIP3   OH228426   0.650   6.481   8.170 -0.2974 -0.2868 -0.2572
 2288TIP3    H128427   0.677   6.412   8.110 -3.0574 -1.4994 -0.2579
 2288TIP3    H228428   0.675   6.450   8.257 -0.9871 -1.0347 -0.3171
 2289TIP3   OH228429   6.328   3.861   1.408  0.0386  0.8492  0.4715
 2289TIP3    H128430   6.323   3.827   1.319 -0.9097  0.6067  0.6096
 2289TIP3    H228431   6.249   3.829   1.451  1.2939 -0.4539  1.9168
 2290TIP3   OH228432   6.026   0.491   6.808 -0.1627 -0.2097  0.3090
 2290TIP3    H128433   5.957   0.426   6.793  0.9993 -1.6743  1.0847
 2290TIP3    H228434   6.099   0.461   6.755 -0.5190  2.1400 -1.6687
 2291TIP3   OH228435   5.669   5.833   1.407  0.2495 -0.1533 -0.4607
 2291TIP3    H128436   5.711   5.747   1.397  0.9552  0.1113  0.1692
 2291TIP3    H228437   5.735   5.896   1.379  0.5283  0.3083  1.1233
 2292TIP3   OH228438   5.894   2.104   0.604  0.0369 -0.4761 -0.0013
 2292TIP3    H128439   5.906   2.181   0.549 -0.7130 -1.3445 -1.4527
 2292TIP3    H228440   5.942   2.035   0.559  2.5850 -0.4454  2.4260
 2293TIP3   OH228441   3.510   6.567   8.128  0.3369 -0.1110 -0.0441
 2293TIP3    H128442   3.589   6.619   8.143  0.1802 -0.1101  0.8486
 2293TIP3    H228443   3.542   6.482   8.096  0.6535  0.1285 -0.3706
 2294TIP3   OH228444   0.480   0.798   0.297  0.4353 -0.2641  0.2868
 2294TIP3    H128445   0.520   0.885   0.295  0.5190 -0.3090 -0.1054
 2294TIP3    H228446   0.418   0.801   0.370  0.4937  0.0998  0.3213
 2295TIP3   OH228447   3.517   3.765   0.342 -0.4386  0.2834  0.1576
 2295TIP3    H128448   3.440   3.717   0.314 -0.1899 -0.5887  0.9046
 2295TIP3    H228449   3.541   3.820   0.267  0.4720 -2.2510 -1.5207
 2296TIP3   OH228450   4.233   1.695   6.865 -0.1305 -0.1014  0.2958
 2296TIP3    H128451   4.260   1.641   6.791  2.4047  0.1402  0.9555
 2296TIP3    H228452   4.295   1.768   6.866 -1.0543  0.7152  1.7578
 2297TIP3   OH228453   5.555   0.866   0.450 -0.0463 -0.1166  0.1242
 2297TIP3    H128454   5.540   0.953   0.487  0.8137 -0.6810  1.9531
 2297TIP3    H228455   5.567   0.810   0.527  0.6329 -1.6270 -1.0336
 2298TIP3   OH228456   3.741   1.122   1.922 -0.1869 -0.5136 -0.0472
 2298TIP3    H128457   3.694   1.203   1.905  0.9270  0.2061  0.1825
 2298TIP3    H228458   3.693   1.055   1.873 -0.5338  0.4519 -1.0638
 2299TIP3   OH228459   1.021   4.298   7.616  0.0253  0.6928  0.4383
 2299TIP3    H128460   0.982   4.235   7.677  0.7703  0.8713  1.1129
 2299TIP3    H228461   1.105   4.321   7.655  0.8840  0.2246 -1.0320
 2300TIP3   OH228462   0.069   6.832   6.804 -0.0420  0.3864 -0.4729
 2300TIP3    H128463   0.066   6.775   6.727  1.5476 -0.6940  0.2160
 2300TIP3    H228464   0.126   6.786   6.866 -0.8273  1.4920  1.1429
 2301TIP3   OH228465   3.096   2.227   0.512 -0.3848 -0.5214 -0.1156
 2301TIP3    H128466   3.038   2.301   0.493 -0.0031 -0.1503  0.1301
 2301TIP3    H228467   3.147   2.256   0.587 -1.4079 -1.7018  1.0814
 2302TIP3   OH228468   6.591   5.557   7.850 -0.3265 -0.2453 -0.2904
 2302TIP3    H128469   6.663   5.498   7.876 -1.2648 -1.3434 -0.0870
 2302TIP3    H228470   6.513   5.518   7.890 -1.0799  0.7764 -0.7326
 2303TIP3   OH228471   4.228   2.577   0.835 -0.1792  0.4787 -0.0240
 2303TIP3    H128472   4.319   2.583   0.862 -0.3407 -0.9469  0.9398
 2303TIP3    H228473   4.227   2.511   0.766 -0.6790 -0.7146  1.0893
 2304TIP3   OH228474   2.156   1.949   8.358  0.6787  0.5309 -0.2295
 2304TIP3    H128475   2.222   2.011   8.328 -0.4985  1.3168 -1.2899
 2304TIP3    H228476   2.102   1.932   8.281 -0.0875 -0.4589  0.4938
 2305TIP3   OH228477   3.686   2.115   8.198  0.6345  0.7386 -0.3098
 2305TIP3    H128478   3.765   2.078   8.238  0.2337 -1.5045 -1.4426
 2305TIP3    H228479   3.701   2.108   8.104 -0.6234  1.0004 -0.5452
 2306TIP3   OH228480   4.859   0.619   7.486  0.3691  0.2491 -0.0614
 2306TIP3    H128481   4.784   0.610   7.427  0.0327  0.9218  0.2547
 2306TIP3    H228482   4.919   0.678   7.440 -0.1466  1.2368  0.4934
 2307TIP3   OH228483   3.919   0.072   6.648  0.1784  0.1521  0.1823
 2307TIP3    H128484   3.890   0.147   6.597  0.6321  0.6791  0.6890
 2307TIP3    H228485   4.004   0.048   6.609 -0.2783 -0.5426 -0.4243
 2308TIP3   OH228486   5.344   1.366   7.294  0.0520  0.4583  0.1983
 2308TIP3    H128487   5.415   1.305   7.274 -2.2238 -1.4271 -2.9970
 2308TIP3    H228488   5.332   1.358   7.389  4.1482  1.1386  0.9835
 2309TIP3   OH228489   0.228   2.561   1.935  0.2900 -0.6796 -0.4225
 2309TIP3    H128490   0.306   2.548   1.881  1.2438  0.6372  0.5940
 2309TIP3    H228491   0.231   2.653   1.961 -0.4785 -1.1069  1.3511
 2310TIP3   OH228492   0.501   6.211   6.981 -0.3184  0.6758 -0.0599
 2310TIP3    H128493   0.514   6.143   6.914 -0.2255 -1.2103  1.7521
 2310TIP3    H228494   0.574   6.199   7.042 -1.7410  0.5824  1.7135
 2311TIP3   OH228495   1.877   0.192   7.285  0.2102  0.1769 -0.2405
 2311TIP3    H128496   1.937   0.133   7.332  0.0223  0.1755  0.0011
 2311TIP3    H228497   1.892   0.173   7.193 -0.7286 -1.1370 -0.1521
 2312TIP3   OH228498   5.186   3.824   0.694  0.3491 -0.1852  0.4949
 2312TIP3    H128499   5.144   3.741   0.717 -2.7210  0.8078 -0.9664
 2312TIP3    H228500   5.259   3.832   0.756 -0.6272 -2.8594  2.1725
 2313TIP3   OH228501   3.638   1.331   1.385  0.2161  0.0771  0.6353
 2313TIP3    H128502   3.694   1.313   1.461  1.0520  2.1358  0.5897
 2313TIP3    H228503   3.699   1.334   1.311  0.0443  1.9946  0.5282
 2314TIP3   OH228504   0.248   5.557   5.918 -0.1789  0.2181  0.2405
 2314TIP3    H128505   0.160   5.571   5.953  0.6823  1.2494  2.1699
 2314TIP3    H228506   0.243   5.473   5.872 -2.4180  0.7755 -0.6668
 2315TIP3   OH228507   0.155   1.112   0.425  0.0728 -0.3714 -0.0698
 2315TIP3    H128508   0.102   1.125   0.347 -0.1619 -0.5311  0.0611
 2315TIP3    H228509   0.210   1.190   0.430 -0.8893  0.3049  0.3719
 2316TIP3   OH228510   2.698   6.894   7.505 -0.0945  0.1870 -0.2885
 2316TIP3    H128511   2.682   6.848   7.422 -0.0913  0.1307 -0.2581
 2316TIP3    H228512   2.634   6.857   7.565 -0.2752  0.4237 -0.3378
 2317TIP3   OH228513   6.819   2.113   7.235  0.1193 -0.2644  0.2496
 2317TIP3    H128514   6.875   2.036   7.237 -2.8192 -2.5893  0.2330
 2317TIP3    H228515   6.765   2.105   7.314 -1.7680  0.5531 -0.9010
 2318TIP3   OH228516   2.808   3.041   7.340 -0.6587 -0.0696 -0.3289
 2318TIP3    H128517   2.823   3.132   7.365  0.8236 -0.1468 -0.8158
 2318TIP3    H228518   2.798   3.045   7.244  3.4878 -0.7482 -1.0022
 2319TIP3   OH228519   3.523   6.463   7.364 -0.1094  0.0362 -0.2306
 2319TIP3    H128520   3.595   6.399   7.360  0.4138  0.5364  0.8254
 2319TIP3    H228521   3.564   6.544   7.393 -1.0472  0.4152  0.0850
 2320TIP3   OH228522   0.261   5.506   6.788 -0.5824  0.1317 -0.0174
 2320TIP3    H128523   0.326   5.438   6.773 -0.9938  0.0422 -1.4882
 2320TIP3    H228524   0.242   5.500   6.882 -1.2779 -2.4160 -0.2433
 2321TIP3   OH228525   2.144   3.491   0.938  0.3118 -0.2522 -0.0769
 2321TIP3    H128526   2.176   3.426   1.001 -0.1864  0.2706  0.7324
 2321TIP3    H228527   2.219   3.507   0.881  0.4579 -1.4908 -0.2562
 2322TIP3   OH228528   0.424   5.726   6.743  0.0054 -0.2536  0.7902
 2322TIP3    H128529   0.366   5.654   6.770 -1.6470  0.3620 -0.9147
 2322TIP3    H228530   0.372   5.776   6.681  1.5175  1.8244  1.1216
 2323TIP3   OH228531   6.457   5.138   0.825 -0.1095 -0.1425 -0.8186
 2323TIP3    H128532   6.523   5.205   0.805  1.6150 -1.2904  0.7852
 2323TIP3    H228533   6.376   5.175   0.791  0.4451  3.5047  1.3382
 2324TIP3   OH228534   4.063   5.274   7.560  0.7005  0.1564  0.4793
 2324TIP3    H128535   4.037   5.240   7.474 -0.9483  1.3657  0.4469
 2324TIP3    H228536   4.071   5.369   7.547  1.0585  0.2753  1.5106
 2325TIP3   OH228537   2.235   4.028   6.752 -0.0636 -0.0284 -0.9101
 2325TIP3    H128538   2.223   4.029   6.847 -1.8191 -1.2927 -1.0713
 2325TIP3    H228539   2.187   4.104   6.720 -1.0987 -0.6715 -0.9183
 2326TIP3   OH228540   5.702   5.953   7.539 -0.2054  0.1809 -0.1598
 2326TIP3    H128541   5.735   5.997   7.461  0.4705  1.7399  0.9391
 2326TIP3    H228542   5.665   6.024   7.592 -1.6097 -0.9773  0.4819
 2327TIP3   OH228543   2.334   2.550   8.267 -0.2823 -0.4147 -0.6621
 2327TIP3    H128544   2.419   2.531   8.306  0.0157  1.7648 -0.1390
 2327TIP3    H228545   2.278   2.574   8.341 -0.7337  0.2778 -1.2144
 2328TIP3   OH228546   1.770   3.315   7.007 -0.1692  0.8338  0.1844
 2328TIP3    H128547   1.725   3.284   6.928 -1.9221  1.6018  0.8454
 2328TIP3    H228548   1.714   3.285   7.079  0.8768  1.0305  1.0940
 2329TIP3   OH228549   0.551   2.990   7.823  0.0500 -0.1062  0.0240
 2329TIP3    H128550   0.555   2.967   7.916  0.2200 -1.2447 -0.2554
 2329TIP3    H228551   0.550   2.907   7.778  0.0088  0.4437 -1.0095
 2330TIP3   OH228552   4.221   0.042   0.302  0.0417  0.4690  0.3330
 2330TIP3    H128553   4.252  -0.010   0.229 -1.5081  1.0945 -0.8386
 2330TIP3    H228554   4.283   0.025   0.373  1.1896 -0.6833 -0.9068
 2331TIP3   OH228555   4.740   2.039   7.225 -0.5870  0.6060  0.6264
 2331TIP3    H128556   4.687   2.011   7.151 -2.2129  2.1471  1.1339
 2331TIP3    H228557   4.820   1.986   7.220 -0.1174  1.4290 -2.8365
 2332TIP3   OH228558   5.352   3.484   6.985  0.0679  0.3433  0.0160
 2332TIP3    H128559   5.371   3.557   7.044  0.5881  1.6306 -1.6561
 2332TIP3    H228560   5.434   3.434   6.982 -0.0861  0.0396  0.6681
 2333TIP3   OH228561   6.918   2.733   6.940  0.2751  0.2835  0.6267
 2333TIP3    H128562   6.835   2.708   6.900  1.2547 -0.5099 -1.0110
 2333TIP3    H228563   6.976   2.659   6.924  2.1274  1.9431 -0.8540
 2334TIP3   OH228564   3.525   4.713   2.249 -0.1231  0.0730 -0.9663
 2334TIP3    H128565   3.593   4.780   2.261 -0.2019  0.2530 -1.4955
 2334TIP3    H228566   3.558   4.658   2.179  1.6726 -2.6868  1.7795
 2335TIP3   OH228567   5.706   3.160   8.023 -0.0476  0.0914 -0.3944
 2335TIP3    H128568   5.706   3.133   8.115 -0.0660 -0.6057 -0.5953
 2335TIP3    H228569   5.731   3.252   8.026 -1.4130  0.4760  0.4181
 2336TIP3   OH228570   4.496   6.151   6.518 -0.0209  0.0310  0.5060
 2336TIP3    H128571   4.582   6.137   6.556 -0.1556  1.5326  1.4752
 2336TIP3    H228572   4.512   6.206   6.441 -0.0208 -0.5489  0.0896
 2337TIP3   OH228573   1.520   4.468   8.217 -0.2916  0.1618  0.1166
 2337TIP3    H128574   1.453   4.485   8.284  1.6828 -0.2516  2.3158
 2337TIP3    H228575   1.568   4.393   8.251 -0.2847 -1.2185 -2.6912
 2338TIP3   OH228576   5.171   2.760   6.094 -0.3660  0.3044 -0.8812
 2338TIP3    H128577   5.131   2.778   6.179 -0.1120 -1.4567 -0.3671
 2338TIP3    H228578   5.127   2.682   6.062  1.4821 -0.7013 -1.0630
 2339TIP3   OH228579   5.413   6.523   0.907  0.2166  0.1574  0.0700
 2339TIP3    H128580   5.385   6.613   0.897  1.7828  0.6056 -0.6028
 2339TIP3    H228581   5.481   6.527   0.975 -0.5295 -0.7202  0.9069
 2340TIP3   OH228582   0.978   0.064   8.052  1.0679  0.5274  0.2372
 2340TIP3    H128583   0.976   0.052   7.957  0.5878  4.2583 -0.4088
 2340TIP3    H228584   0.889   0.046   8.081  1.1847 -0.4958 -0.0055
 2341TIP3   OH228585   0.555   6.942   1.600  0.3173 -0.2666 -0.3738
 2341TIP3    H128586   0.509   6.872   1.647  2.1635 -1.2929  0.0035
 2341TIP3    H228587   0.576   6.905   1.515  2.9451 -0.9183  0.4902
 2342TIP3   OH228588   3.987   3.201   7.894  0.3333  0.0796 -0.3710
 2342TIP3    H128589   3.935   3.203   7.814 -1.0500  0.3357  0.4885
 2342TIP3    H228590   4.076   3.179   7.866 -0.0535  0.5199 -1.9942
 2343TIP3   OH228591   2.302   6.473   7.537  0.7455  0.0938  0.6000
 2343TIP3    H128592   2.230   6.411   7.524  1.5307 -0.9942  1.1730
 2343TIP3    H228593   2.264   6.559   7.521 -0.4099 -0.5301 -0.1417
 2344TIP3   OH228594   3.926   4.268   1.936 -0.3654  0.4196  0.1881
 2344TIP3    H128595   3.922   4.173   1.926  0.0063  0.5358 -1.2228
 2344TIP3    H228596   3.846   4.300   1.894  0.1782  0.8062 -0.5715
 2345TIP3   OH228597   4.760   6.672   7.021 -0.2541 -0.8966 -0.0906
 2345TIP3    H128598   4.823   6.712   6.962 -0.8850  0.9499  0.4191
 2345TIP3    H228599   4.768   6.722   7.102 -0.6413 -2.2392  0.8159
 2346TIP3   OH228600   1.281   1.201   1.272  0.2457  0.0133  0.2168
 2346TIP3    H128601   1.212   1.162   1.327 -0.5260 -1.4925 -1.6817
 2346TIP3    H228602   1.272   1.295   1.286 -1.5670 -0.1970  0.7689
 2347TIP3   OH228603   0.411   1.347   2.062  0.2440  0.3798  0.2437
 2347TIP3    H128604   0.407   1.252   2.075  0.2456  0.5140  1.3221
 2347TIP3    H228605   0.319   1.373   2.055  0.2065  0.3990  0.7761
 2348TIP3   OH228606   4.056   2.665   7.466  0.3478  0.7265 -0.4521
 2348TIP3    H128607   4.015   2.738   7.421 -3.9560 -1.8543 -1.2735
 2348TIP3    H228608   4.038   2.589   7.410  0.8522 -1.6103  2.3107
 2349TIP3   OH228609   1.573   4.822   6.341 -0.4988 -0.1196  0.0664
 2349TIP3    H128610   1.628   4.794   6.414  0.8936 -0.8016 -1.1973
 2349TIP3    H228611   1.631   4.874   6.286 -1.7076  0.9584 -0.2435
 2350TIP3   OH228612   1.035   0.766   8.143 -0.0572 -0.0921 -0.3226
 2350TIP3    H128613   1.014   0.798   8.230  1.1308  1.8335 -0.6676
 2350TIP3    H228614   0.961   0.711   8.118 -2.1468  2.1437  0.5270
 2351TIP3   OH228615   1.598   1.601   8.371 -1.0318  0.3575  0.0418
 2351TIP3    H128616   1.645   1.579   8.451  0.9512 -0.1498 -1.1789
 2351TIP3    H228617   1.637   1.684   8.342 -0.2811 -0.4608 -1.4043
 2352TIP3   OH228618   0.340   2.122   8.100  0.2373  0.1333 -0.2854
 2352TIP3    H128619   0.375   2.103   8.187 -1.3731  0.5923  0.4904
 2352TIP3    H228620   0.342   2.218   8.094 -0.4535  0.1456 -0.4022
 2353TIP3   OH228621   2.813   4.574   0.118 -1.0845  0.3697  0.1389
 2353TIP3    H128622   2.882   4.629   0.154 -0.7994 -0.2764  0.6067
 2353TIP3    H228623   2.852   4.534   0.040 -0.8840 -0.0771  0.4620
 2354TIP3   OH228624   6.511   5.178   7.966  0.5664  0.2260 -0.0355
 2354TIP3    H128625   6.558   5.112   8.017  1.9497  1.7063  0.7002
 2354TIP3    H228626   6.555   5.178   7.881  0.1493 -0.2164 -0.2585
 2355TIP3   OH228627   1.340   2.189   0.563 -0.6999  0.6237 -0.0836
 2355TIP3    H128628   1.298   2.201   0.477 -1.0268  0.9610  0.1224
 2355TIP3    H228629   1.299   2.111   0.599  0.8135 -0.6842 -1.0533
 2356TIP3   OH228630   6.168   4.648   7.891 -0.0452  0.4069 -0.1176
 2356TIP3    H128631   6.182   4.736   7.855  1.8073  0.4709  0.6285
 2356TIP3    H228632   6.201   4.653   7.980 -0.6433 -0.8561  0.1962
 2357TIP3   OH228633   1.988   2.526   0.002 -0.2436  0.4505  0.7590
 2357TIP3    H128634   1.961   2.582   0.074  0.4038  0.4939  0.9777
 2357TIP3    H228635   2.051   2.466   0.041 -0.6597 -0.1906  0.4459
 2358TIP3   OH228636   6.366   5.800   6.278 -0.3681 -0.2761  0.5596
 2358TIP3    H128637   6.384   5.894   6.275  2.3871 -0.6249  2.5681
 2358TIP3    H228638   6.272   5.793   6.259 -0.4780  2.7474 -0.6263
 2359TIP3   OH228639   5.107   5.968   7.934 -0.4698 -0.2619  0.7553
 2359TIP3    H128640   5.087   5.910   8.008 -1.0771 -0.3191  0.5484
 2359TIP3    H228641   5.156   5.913   7.874 -2.7445 -1.1775 -0.3542
 2360TIP3   OH228642   6.377   6.862   7.208 -0.3392 -0.1782  0.6141
 2360TIP3    H128643   6.425   6.943   7.230  0.4961 -0.7231  0.8454
 2360TIP3    H228644   6.378   6.811   7.289 -0.4294 -0.6368  0.3268
 2361TIP3   OH228645   5.352   4.326   1.258 -0.3587  0.1810  0.1038
 2361TIP3    H128646   5.263   4.293   1.255 -0.5485  0.7197 -0.5414
 2361TIP3    H228647   5.376   4.323   1.350 -1.8161  2.0403  0.5988
 2362TIP3   OH228648   6.359   4.239   8.258  0.1585 -0.2242 -0.7385
 2362TIP3    H128649   6.410   4.161   8.281  0.7227  0.3423 -0.0360
 2362TIP3    H228650   6.286   4.238   8.320  0.3803  0.0167 -0.4724
 2363TIP3   OH228651   6.245   5.248   2.624  0.2287 -0.1369 -0.4181
 2363TIP3    H128652   6.150   5.247   2.640  0.2336  0.8604 -0.3145
 2363TIP3    H228653   6.270   5.155   2.628 -0.4114 -0.2812  1.5677
 2364TIP3   OH228654   1.897   1.984   0.812  0.3327  0.0182  0.9895
 2364TIP3    H128655   1.810   2.013   0.840  0.5966 -1.2459  3.3739
 2364TIP3    H228656   1.914   2.033   0.731 -2.4558  0.4970  0.5937
 2365TIP3   OH228657   1.635   3.746   0.504  0.3208 -0.4892 -0.3773
 2365TIP3    H128658   1.726   3.757   0.477  0.1645  0.6329 -0.5008
 2365TIP3    H228659   1.640   3.733   0.599  0.4804  3.0674  0.2574
 2366TIP3   OH228660   5.185   1.130   1.356 -0.0604 -0.3337 -0.6144
 2366TIP3    H128661   5.167   1.038   1.342 -0.5692  0.0139 -2.4900
 2366TIP3    H228662   5.254   1.132   1.423  1.1062 -2.1202 -1.7110
 2367TIP3   OH228663   1.562   3.096   6.202  0.5547 -0.2413  0.1326
 2367TIP3    H128664   1.606   3.155   6.140  1.7761 -1.8234 -0.5904
 2367TIP3    H228665   1.538   3.020   6.149  0.4006 -1.0569  1.3325
 2368TIP3   OH228666   4.541   7.011   7.275  0.1161 -0.0022 -0.0985
 2368TIP3    H128667   4.597   7.088   7.280  1.2951 -0.7515 -1.0817
 2368TIP3    H228668   4.494   7.009   7.358 -2.4143  3.5408 -1.2212
 2369TIP3   OH228669   4.896   6.868   6.843  0.2182  0.0563 -0.1434
 2369TIP3    H128670   4.933   6.903   6.762 -1.1352 -2.9644 -2.2381
 2369TIP3    H228671   4.805   6.847   6.820  0.2169 -2.2871  1.7025
 2370TIP3   OH228672   5.490   6.827   0.016  0.3031 -0.4730  0.5786
 2370TIP3    H128673   5.539   6.870  -0.054  0.6913 -1.7616  0.0262
 2370TIP3    H228674   5.415   6.788  -0.027  0.7594 -1.6245  0.7844
 2371TIP3   OH228675   5.220   4.351   7.302  0.4023 -0.0276 -0.0958
 2371TIP3    H128676   5.230   4.257   7.317  0.5004 -0.0426 -0.2523
 2371TIP3    H228677   5.166   4.357   7.224 -1.6236  0.0437  1.2275
 2372TIP3   OH228678   0.119   2.710   0.183 -0.4563 -0.2157  0.0346
 2372TIP3    H128679   0.074   2.634   0.220 -0.7345  0.1452  0.4643
 2372TIP3    H228680   0.056   2.747   0.121  0.7376 -1.9288 -2.3174
 2373TIP3   OH228681   0.411   5.214   7.920  0.0347 -0.1912  0.4976
 2373TIP3    H128682   0.344   5.281   7.929  0.8058  0.5827  0.5883
 2373TIP3    H228683   0.491   5.255   7.955  1.4235  0.2219 -2.8132
 2374TIP3   OH228684   1.205   3.716   8.251 -0.2482 -0.0315  0.1255
 2374TIP3    H128685   1.294   3.748   8.234 -0.1611 -0.2456  0.1795
 2374TIP3    H228686   1.210   3.677   8.338  0.3526 -2.6954 -0.9907
 2375TIP3   OH228687   1.953   6.955   0.386  0.2670 -0.4968  0.0065
 2375TIP3    H128688   1.910   7.041   0.396  1.4713  0.1259  0.0339
 2375TIP3    H228689   1.883   6.896   0.359 -0.5008  0.6020 -0.4723
 2376TIP3   OH228690   4.995   4.795   0.364 -0.2816 -0.1717 -0.3761
 2376TIP3    H128691   5.061   4.790   0.433 -0.7710 -0.5876  0.0645
 2376TIP3    H228692   5.041   4.835   0.290  0.4489 -0.3977 -0.0524
 2377TIP3   OH228693   4.658   5.505   0.585  0.8206  0.0629  0.0972
 2377TIP3    H128694   4.577   5.555   0.598  0.8289 -0.0443  0.5770
 2377TIP3    H228695   4.634   5.438   0.521  0.2803 -0.5125  0.8705
 2378TIP3   OH228696   6.779   4.603   0.740 -0.2905  0.2103  0.0067
 2378TIP3    H128697   6.722   4.630   0.812  0.7023  1.8334  0.2451
 2378TIP3    H228698   6.844   4.674   0.734  1.9898 -1.7564  0.0561
 2379TIP3   OH228699   4.314   5.019   1.495  0.0334 -0.3234 -0.1116
 2379TIP3    H128700   4.360   4.994   1.576  0.5933 -2.3802 -0.9953
 2379TIP3    H228701   4.232   5.057   1.525  0.5821 -0.2824  1.4512
 2380TIP3   OH228702   4.102   5.098   1.651 -0.2590  0.2428 -0.1101
 2380TIP3    H128703   4.012   5.067   1.653 -1.3005  2.5343 -3.6353
 2380TIP3    H228704   4.113   5.147   1.733 -1.9481 -0.6332  0.6810
 2381TIP3   OH228705   5.904   5.762   7.664 -0.0728  0.0061 -0.4837
 2381TIP3    H128706   5.891   5.756   7.570 -0.7173 -1.3026 -0.3262
 2381TIP3    H228707   5.852   5.839   7.690  1.3962  1.3631 -1.3837
 2382TIP3   OH228708   5.487   4.695   0.981  0.1692  0.0057  0.0535
 2382TIP3    H128709   5.578   4.710   0.958  0.9471 -2.7626  0.8455
 2382TIP3    H228710   5.459   4.624   0.922 -1.4769  0.7412 -0.1189
 2383TIP3   OH228711   0.751   5.959   0.260 -0.1634 -0.0175  0.3404
 2383TIP3    H128712   0.696   6.029   0.295  0.3497  0.7450 -0.3332
 2383TIP3    H228713   0.808   5.934   0.333 -0.0941  0.5357  0.4800
 2384TIP3   OH228714   3.752   2.003   0.671  0.4798 -0.3045 -0.1801
 2384TIP3    H128715   3.815   2.056   0.624 -1.3562  0.3575 -2.0575
 2384TIP3    H228716   3.677   1.997   0.612 -2.0043  0.5701  2.6098
 2385TIP3   OH228717   6.968   3.259   0.169  0.4859  0.1234 -0.3372
 2385TIP3    H128718   7.027   3.266   0.244  0.8758 -1.1935 -0.4966
 2385TIP3    H228719   6.899   3.323   0.186  0.2139 -0.5901  1.4608
 2386TIP3   OH228720   6.194   1.689   0.998  0.8839 -0.0716 -0.1359
 2386TIP3    H128721   6.246   1.634   0.940  0.2479 -2.3292  1.2957
 2386TIP3    H228722   6.238   1.683   1.083 -1.2357 -1.5619  0.9725
 2387TIP3   OH228723   1.977   2.490   0.438 -0.0148  0.1445  0.3377
 2387TIP3    H128724   2.070   2.466   0.447 -0.6574 -2.9713 -0.0754
 2387TIP3    H228725   1.945   2.494   0.528  0.1180 -0.7992  0.4422
 2388TIP3   OH228726   2.172   0.303   7.177 -0.5907 -0.1385  0.5842
 2388TIP3    H128727   2.151   0.223   7.226 -3.0370  0.6242  0.8994
 2388TIP3    H228728   2.169   0.276   7.085 -1.8012 -0.3603  0.6743
 2389TIP3   OH228729   3.712   0.788   7.137  0.0141  0.0908  0.0070
 2389TIP3    H128730   3.661   0.806   7.058 -0.6419 -1.3799  0.0651
 2389TIP3    H228731   3.801   0.773   7.105 -0.3049 -0.7942 -0.5149
 2390TIP3   OH228732   1.649   5.194   8.217  0.8922 -0.0792 -0.4213
 2390TIP3    H128733   1.672   5.180   8.125 -0.4546 -0.2090 -0.7534
 2390TIP3    H228734   1.698   5.273   8.242  4.7967 -2.4098  0.0979
 2391TIP3   OH228735   5.325   0.535   8.170 -0.2703  0.1993 -0.1474
 2391TIP3    H128736   5.249   0.545   8.228  0.1654  2.5700  0.1162
 2391TIP3    H228737   5.288   0.502   8.088 -1.4442  0.3182  0.3082
 2392TIP3   OH228738   4.318   1.782   1.362  0.5181  0.3988  0.5789
 2392TIP3    H128739   4.280   1.870   1.351  1.0491  0.6950  1.0730
 2392TIP3    H228740   4.285   1.733   1.287 -0.2484  0.8568  0.6006
 2393TIP3   OH228741   4.465   1.548   1.841  0.3854 -0.2324  0.1000
 2393TIP3    H128742   4.399   1.507   1.784  0.3094  0.4680 -0.3256
 2393TIP3    H228743   4.527   1.588   1.781  0.0231  0.9694  0.4938
 2394TIP3   OH228744   2.668   3.264   0.063 -0.4201 -0.2516 -0.3527
 2394TIP3    H128745   2.748   3.266   0.116  0.0272 -0.8624 -0.9916
 2394TIP3    H228746   2.684   3.328  -0.007 -1.0925  0.7059  0.3327
 2395TIP3   OH228747   2.965   6.175   0.733  0.0198 -0.1351 -0.1687
 2395TIP3    H128748   2.968   6.259   0.780 -0.6991 -0.7158  0.9797
 2395TIP3    H228749   3.056   6.156   0.712  0.1048  1.4274 -1.3936
 2396TIP3   OH228750   4.021   5.683   1.619  0.0536  0.3878 -0.5184
 2396TIP3    H128751   4.040   5.641   1.703 -0.1924  1.3126  0.0136
 2396TIP3    H228752   4.079   5.639   1.557  1.6315  0.9509  0.4865
 2397TIP3   OH228753   5.862   4.848   6.093 -0.4724 -0.4212  0.4719
 2397TIP3    H128754   5.876   4.928   6.143  0.6329 -0.4505  0.2251
 2397TIP3    H228755   5.826   4.786   6.156 -0.9853  0.1558  0.7496
 2398TIP3   OH228756   2.782   1.971   0.197  0.7871  0.4260 -0.5651
 2398TIP3    H128757   2.792   2.066   0.193  0.3149  0.4753 -0.5714
 2398TIP3    H228758   2.856   1.938   0.147  1.6571  0.7533  0.4511
 2399TIP3   OH228759   6.539   6.919   6.383 -0.3344 -0.0926  0.0253
 2399TIP3    H128760   6.494   6.945   6.303 -0.0896  0.3746  0.0356
 2399TIP3    H228761   6.617   6.872   6.353  0.1511  0.7259 -0.0372
 2400TIP3   OH228762   4.664   0.746   7.130 -0.4995 -0.1418 -0.1374
 2400TIP3    H128763   4.620   0.831   7.132  1.5522  0.9751  1.5158
 2400TIP3    H228764   4.635   0.702   7.210 -1.8231 -1.2267 -1.1535
 2401TIP3   OH228765   6.277   2.857   1.069 -0.0872 -0.7525 -0.3580
 2401TIP3    H128766   6.261   2.933   1.012 -1.3447  0.0555  1.0013
 2401TIP3    H228767   6.321   2.794   1.012 -0.2884  0.4361 -1.9186
 2402TIP3   OH228768   4.509   4.587   1.351 -0.5435  0.1248  0.1996
 2402TIP3    H128769   4.536   4.541   1.431 -1.1528 -0.4830  0.0609
 2402TIP3    H228770   4.417   4.563   1.339 -0.0503 -1.0883 -1.5562
 2403TIP3   OH228771   0.164   4.462   1.377  0.0964  0.3257  0.1480
 2403TIP3    H128772   0.123   4.375   1.376  2.8021 -1.0991 -2.5671
 2403TIP3    H228773   0.226   4.458   1.450  1.9892 -1.0622 -1.4484
 2404TIP3   OH228774   1.873   0.982   7.897 -0.4461  0.1493 -0.6332
 2404TIP3    H128775   1.961   0.958   7.869 -0.4351  2.0694 -2.4580
 2404TIP3    H228776   1.870   1.077   7.891 -2.5563  0.1641 -0.3381
 2405TIP3   OH228777   6.580   5.327   6.764 -0.1812  0.4098 -0.1561
 2405TIP3    H128778   6.560   5.380   6.687 -0.6076 -0.7096 -0.8513
 2405TIP3    H228779   6.513   5.351   6.828 -0.6442  0.3793 -0.6232
 2406TIP3   OH228780   3.939   0.429   0.539  0.3496 -0.4522 -0.9600
 2406TIP3    H128781   4.015   0.479   0.510  0.3750  0.7590  0.9818
 2406TIP3    H228782   3.976   0.356   0.589  0.4305  2.0293  3.0499
 2407TIP3   OH228783   0.519   5.728   5.984  0.1756  0.2680 -0.2657
 2407TIP3    H128784   0.565   5.679   6.051  0.0088  0.7516  0.2102
 2407TIP3    H228785   0.440   5.676   5.966 -0.4873  0.8278  0.9290
 2408TIP3   OH228786   4.744   1.602   1.647 -0.0009  0.6424  0.0043
 2408TIP3    H128787   4.809   1.656   1.602  0.1020  0.2571 -0.3157
 2408TIP3    H228788   4.661   1.625   1.607  0.2347 -0.5913 -1.2823
 2409TIP3   OH228789   5.350   4.661   8.139  0.5912  0.1726 -0.3792
 2409TIP3    H128790   5.439   4.687   8.164  1.1583 -2.1684  0.2747
 2409TIP3    H228791   5.353   4.655   8.044  0.6201  1.7185 -0.5018
 2410TIP3   OH228792   3.679   2.067   7.938 -0.2027 -0.4792  0.3453
 2410TIP3    H128793   3.732   2.033   7.866 -0.1323 -1.4662  0.8372
 2410TIP3    H228794   3.631   1.991   7.970  0.5334 -0.3029  1.9843
 2411TIP3   OH228795   3.462   3.799   7.854 -0.1632  0.9206 -0.8534
 2411TIP3    H128796   3.403   3.820   7.782 -0.5306 -0.6698 -1.0463
 2411TIP3    H228797   3.537   3.858   7.842 -0.2604  0.7557 -2.4744
 2412TIP3   OH228798   4.379   0.942   8.048  0.1080  0.3720 -0.0753
 2412TIP3    H128799   4.461   0.917   8.092  0.5184  0.1201 -0.9668
 2412TIP3    H228800   4.356   1.026   8.089  1.6957  1.2772 -0.9066
 2413TIP3   OH228801   6.201   4.666   1.295 -0.1854 -0.3514 -0.1212
 2413TIP3    H128802   6.164   4.749   1.327  1.7057  0.8193 -0.8161
 2413TIP3    H228803   6.209   4.612   1.373 -2.0180 -0.1594  0.2582
 2414TIP3   OH228804   0.608   4.992   8.228 -0.3559  0.6340  0.2491
 2414TIP3    H128805   0.618   5.087   8.236 -1.0241  0.6831  0.5138
 2414TIP3    H228806   0.600   4.977   8.134 -0.7568  0.8919  0.2399
 2415TIP3   OH228807   1.710   4.027   0.163 -0.0559 -0.5490 -0.3751
 2415TIP3    H128808   1.663   3.955   0.206 -0.4030 -0.3316 -0.3802
 2415TIP3    H228809   1.754   3.987   0.089  3.6300 -1.7145  2.1654
 2416TIP3   OH228810   0.819   5.859   0.839  0.1133 -0.4279 -0.0037
 2416TIP3    H128811   0.842   5.863   0.932 -0.8127 -0.2153  0.2174
 2416TIP3    H228812   0.813   5.950   0.811 -2.2782 -0.4022  0.4109
 2417TIP3   OH228813   2.734   5.553   7.770  0.2322  0.8079  0.3223
 2417TIP3    H128814   2.703   5.467   7.797 -0.3487  0.9060 -0.0020
 2417TIP3    H228815   2.828   5.551   7.786 -0.1149  1.0433  2.7986
 2418TIP3   OH228816   0.149   0.047   8.117  0.0299  0.8195 -0.4589
 2418TIP3    H128817   0.118   0.000   8.039  0.5628 -1.5694  0.6628
 2418TIP3    H228818   0.072   0.093   8.150 -0.5865  0.5711 -1.5035
 2419TIP3   OH228819   3.812   5.073   0.771 -0.3425  0.1841  0.3152
 2419TIP3    H128820   3.725   5.111   0.761  0.1109  0.8648 -1.4576
 2419TIP3    H228821   3.872   5.146   0.755  0.5435 -1.0221 -2.5385
 2420TIP3   OH228822   1.864   2.359   6.277  0.3854 -0.0137  0.0338
 2420TIP3    H128823   1.880   2.417   6.202  0.4213  0.2117  0.2173
 2420TIP3    H228824   1.942   2.303   6.281  0.9454  0.7829  0.6493
 2421TIP3   OH228825   6.964   4.651   5.852 -0.0348  0.5865 -0.2515
 2421TIP3    H128826   6.946   4.621   5.941 -0.6792  0.6294 -0.3604
 2421TIP3    H228827   7.014   4.580   5.812  1.7406  1.2631  0.6565
 2422TIP3   OH228828   1.480   0.483   0.319 -0.0971  0.0066 -0.2234
 2422TIP3    H128829   1.455   0.509   0.408  1.3831 -2.0992  0.9153
 2422TIP3    H228830   1.433   0.543   0.262 -1.9750  0.7473  1.9430
 2423TIP3   OH228831   1.552   6.796   7.763 -0.1396  0.2268 -0.2201
 2423TIP3    H128832   1.604   6.778   7.685  1.8296  2.6139  0.4240
 2423TIP3    H228833   1.594   6.871   7.804 -2.8746  0.9614  1.5682
 2424TIP3   OH228834   5.742   1.296   7.919 -0.4683  0.5786  0.1100
 2424TIP3    H128835   5.647   1.301   7.927 -0.3349  0.3769  2.4909
 2424TIP3    H228836   5.774   1.380   7.951  0.2363 -0.5407  2.5631
 2425TIP3   OH228837   0.631   0.003   6.433 -0.0071  0.1961  0.0291
 2425TIP3    H128838   0.538  -0.014   6.445  0.1366  1.0151  3.2229
 2425TIP3    H228839   0.635   0.089   6.391 -0.6666  0.0596 -0.3250
 2426TIP3   OH228840   5.979   1.493   6.790 -0.0899  0.1194  0.8997
 2426TIP3    H128841   6.058   1.519   6.837  0.7335  1.8616 -1.2955
 2426TIP3    H228842   5.909   1.546   6.830 -0.0288 -0.7177  2.1872
 2427TIP3   OH228843   3.541   2.670   1.820  0.0420  0.0400 -0.3443
 2427TIP3    H128844   3.463   2.668   1.876  0.8946 -1.0212  0.8277
 2427TIP3    H228845   3.608   2.625   1.870  0.8910 -0.7856 -2.1531
 2428TIP3   OH228846   3.065   0.949   7.446  0.1634 -0.4048 -0.5691
 2428TIP3    H128847   3.133   0.890   7.479 -1.2224 -1.5953  0.2613
 2428TIP3    H228848   3.094   0.972   7.358  1.4815 -1.1331 -0.3494
 2429TIP3   OH228849   1.175   6.312   8.172 -0.4884  0.1990  0.1021
 2429TIP3    H128850   1.085   6.342   8.160 -0.6508  0.5296  1.7950
 2429TIP3    H228851   1.228   6.391   8.167 -0.5467  0.3273  1.1705
 2430TIP3   OH228852   6.455   5.466   1.708  0.7878  0.1783 -0.0402
 2430TIP3    H128853   6.458   5.371   1.714  1.8614  0.1398 -0.8859
 2430TIP3    H228854   6.364   5.486   1.690  0.6095 -0.7124 -0.1602
 2431TIP3   OH228855   6.855   3.641   0.132  0.0632 -0.1919  0.1790
 2431TIP3    H128856   6.924   3.614   0.192  0.2623 -0.4433 -0.1641
 2431TIP3    H228857   6.896   3.704   0.074 -0.2748  0.4866  0.6621
 2432TIP3   OH228858   6.281   5.431   0.293  0.7986 -0.2277  0.4098
 2432TIP3    H128859   6.254   5.393   0.209 -1.0198  1.1985  0.2894
 2432TIP3    H228860   6.371   5.402   0.304  1.1096 -0.4386 -2.0498
 2433TIP3   OH228861   1.566   4.304   7.410 -0.2959 -0.4014 -0.3884
 2433TIP3    H128862   1.576   4.396   7.434 -2.2441 -0.0306 -0.7751
 2433TIP3    H228863   1.595   4.298   7.319 -0.0529 -0.2026 -0.3231
 2434TIP3   OH228864   2.623   4.027   0.082 -0.5606 -0.0131  0.1835
 2434TIP3    H128865   2.686   4.084   0.039  0.4679 -0.8264  0.5403
 2434TIP3    H228866   2.548   4.083   0.100 -1.0916  0.3438 -2.6972
 2435TIP3   OH228867   3.722   5.390   6.936 -0.1661  0.0378 -0.6327
 2435TIP3    H128868   3.713   5.457   6.868  0.0100 -0.5589 -1.2615
 2435TIP3    H228869   3.639   5.342   6.933 -0.2388  0.1356 -0.2784
 2436TIP3   OH228870   6.507   0.512   1.261  0.0207 -0.7167  0.1036
 2436TIP3    H128871   6.478   0.506   1.170  0.0050 -0.5713  0.0994
 2436TIP3    H228872   6.457   0.445   1.307  0.0653 -0.8246 -0.0051
 2437TIP3   OH228873   5.472   1.792   0.526 -0.2718 -0.2036 -0.1741
 2437TIP3    H128874   5.540   1.786   0.593  0.2795  3.0987 -0.2988
 2437TIP3    H228875   5.519   1.816   0.446 -1.4545  1.3587 -0.4431
 2438TIP3   OH228876   2.221   4.384   7.526 -0.2416 -0.1758  0.2411
 2438TIP3    H128877   2.238   4.474   7.552  0.8227 -0.1427 -0.4965
 2438TIP3    H228878   2.289   4.333   7.570 -1.3968 -0.7759  1.4237
 2439TIP3   OH228879   3.098   0.970   0.515  0.0606  0.0004  0.2972
 2439TIP3    H128880   3.048   0.944   0.593  0.9134 -1.2685  0.4360
 2439TIP3    H228881   3.049   1.045   0.480  0.0049  1.0298  2.3952
 2440TIP3   OH228882   2.243   3.126   7.643  0.4080 -0.1094  0.1019
 2440TIP3    H128883   2.148   3.116   7.645  0.3012  0.8581  0.6442
 2440TIP3    H228884   2.276   3.038   7.629 -0.6219 -0.2266 -1.9902
 2441TIP3   OH228885   3.443   4.935   6.668  0.0652 -0.1881  0.2695
 2441TIP3    H128886   3.519   4.887   6.633 -0.7198 -0.6078 -0.9028
 2441TIP3    H228887   3.404   4.874   6.731 -1.2115 -1.3646 -1.5700
 2442TIP3   OH228888   5.558   1.579   0.151 -0.2764 -0.5289 -0.0833
 2442TIP3    H128889   5.501   1.655   0.162 -0.9948 -1.1871  0.8303
 2442TIP3    H228890   5.602   1.570   0.236  0.9992 -0.2066 -0.6751
 2443TIP3   OH228891   5.456   3.443   7.292  0.0077  0.0006 -0.0600
 2443TIP3    H128892   5.372   3.399   7.280  0.2825 -0.2808 -0.9834
 2443TIP3    H228893   5.506   3.421   7.214  0.3858  1.4058 -0.2430
 2444TIP3   OH228894   0.914   0.827   7.629  0.3567  0.1055 -0.6574
 2444TIP3    H128895   0.820   0.828   7.612  0.2015  1.0525  0.2061
 2444TIP3    H228896   0.952   0.783   7.552 -0.9365 -1.9162 -0.2060
 2445TIP3   OH228897   1.489   2.528   6.971  0.3042 -0.0079  0.4580
 2445TIP3    H128898   1.552   2.527   7.043 -0.7689  0.0122  1.4375
 2445TIP3    H228899   1.436   2.450   6.985 -0.1893  0.2313 -0.0614
 2446TIP3   OH228900   6.072   4.663   6.858 -0.4657 -0.5674 -0.1421
 2446TIP3    H128901   6.137   4.731   6.875 -1.4339  0.7229 -1.3028
 2446TIP3    H228902   6.113   4.582   6.888  2.0427  0.0334 -1.6230
 2447TIP3   OH228903   0.745   6.407   7.593  0.5627  0.7524 -0.4541
 2447TIP3    H128904   0.718   6.362   7.673  1.3894  1.3323  0.1595
 2447TIP3    H228905   0.724   6.345   7.523 -0.0876  0.2010  0.2116
 2448TIP3   OH228906   4.421   5.910   6.453  0.6173  0.1733  0.4429
 2448TIP3    H128907   4.360   5.897   6.380  0.3472 -1.7218  0.9685
 2448TIP3    H228908   4.430   6.005   6.459  0.7950  0.3882 -2.1643
 2449TIP3   OH228909   1.026   4.621   7.559 -0.2455  0.0650 -0.1095
 2449TIP3    H128910   1.122   4.623   7.566 -0.2427 -0.8979  0.3776
 2449TIP3    H228911   1.005   4.681   7.488  0.7626 -0.1364 -0.5868
 2450TIP3   OH228912   6.390   6.455   7.191  0.6098 -0.2172 -0.1832
 2450TIP3    H128913   6.370   6.364   7.170  1.1656 -0.6312  0.9757
 2450TIP3    H228914   6.309   6.490   7.229  0.8208 -0.6774  0.7212
 2451TIP3   OH228915   5.784   4.377   8.164  0.2004 -0.7234 -0.1618
 2451TIP3    H128916   5.825   4.460   8.141 -1.3033  1.0004  2.7461
 2451TIP3    H228917   5.710   4.370   8.104  0.9030 -0.4743 -1.0697
 2452TIP3   OH228918   6.857   3.000   1.731  0.3306  0.0309 -0.2531
 2452TIP3    H128919   6.824   3.085   1.702  0.9807  0.3659 -0.0390
 2452TIP3    H228920   6.781   2.954   1.766  0.2119  1.0486  0.8578
 2453TIP3   OH228921   1.663   0.056   0.694  0.3547 -0.6773  0.6121
 2453TIP3    H128922   1.684   0.148   0.681 -1.5224 -0.2928 -0.1128
 2453TIP3    H228923   1.568   0.052   0.683  0.4940 -2.8356 -0.2936
 2454TIP3   OH228924   4.316   1.601   0.194 -0.2447 -0.2550 -0.1212
 2454TIP3    H128925   4.297   1.639   0.279 -1.5546 -0.1003 -0.4666
 2454TIP3    H228926   4.371   1.525   0.213 -2.1781 -1.4290  1.0691
 2455TIP3   OH228927   1.763   6.185   1.544 -0.1513  0.0217  0.0777
 2455TIP3    H128928   1.762   6.091   1.529 -2.0005  0.2924 -2.1202
 2455TIP3    H228929   1.803   6.221   1.465  0.0659  1.0972  0.6629
 2456TIP3   OH228930   2.761   1.968   5.818 -0.1150  0.2144 -0.0592
 2456TIP3    H128931   2.690   1.946   5.878 -0.3519  0.1420 -0.3613
 2456TIP3    H228932   2.810   1.886   5.808 -0.6568 -0.0481 -0.7300
 2457TIP3   OH228933   5.992   5.522   1.431  0.1839  0.5723 -0.0719
 2457TIP3    H128934   5.979   5.446   1.487  3.1835 -0.1767 -0.2333
 2457TIP3    H228935   5.912   5.528   1.379 -0.4272 -2.0122  0.4656
 2458TIP3   OH228936   6.213   4.405   1.700 -0.2713  0.2326 -0.1541
 2458TIP3    H128937   6.151   4.405   1.773  1.1523 -0.4260  1.1032
 2458TIP3    H228938   6.227   4.498   1.680 -2.7267  0.4162 -1.4772
 2459TIP3   OH228939   0.976   5.067   5.996 -0.5383  0.5293  0.3097
 2459TIP3    H128940   0.944   4.986   5.956  2.5348 -2.1337  2.7511
 2459TIP3    H228941   1.065   5.077   5.961  0.7407  0.3084  3.2569
 2460TIP3   OH228942   5.176   4.480   0.946 -0.6431 -0.3959  0.1908
 2460TIP3    H128943   5.099   4.424   0.958 -0.2850 -0.8884  0.1767
 2460TIP3    H228944   5.249   4.420   0.938  0.0558  0.0937  2.2360
 2461TIP3   OH228945   2.367   1.704   7.785  0.0276  0.5324  0.0884
 2461TIP3    H128946   2.442   1.762   7.771  1.5711 -1.8122 -2.2922
 2461TIP3    H228947   2.395   1.619   7.752 -2.7669 -1.1756  1.6836
 2462TIP3   OH228948   5.941   5.959   6.398  0.4175  0.0559  0.3472
 2462TIP3    H128949   5.945   6.032   6.337  1.4461 -1.1041 -1.0316
 2462TIP3    H228950   5.863   5.977   6.451  0.3101  1.8182 -0.3375
 2463TIP3   OH228951   0.239   4.185   0.272 -0.2469  0.2483  0.5358
 2463TIP3    H128952   0.147   4.186   0.299  0.0831  1.7183  1.7540
 2463TIP3    H228953   0.236   4.190   0.177 -1.4256 -0.2639  0.5283
 2464TIP3   OH228954   1.929   0.865   1.047  0.0365  0.1341 -0.3842
 2464TIP3    H128955   2.017   0.879   1.014 -0.3041  0.8394 -1.0436
 2464TIP3    H228956   1.881   0.943   1.019 -1.0090 -0.6336 -0.7954
 2465TIP3   OH228957   5.030   6.535   1.214 -0.5116  0.4497  0.0610
 2465TIP3    H128958   4.945   6.524   1.171  0.4300  1.6538 -2.2835
 2465TIP3    H228959   5.043   6.454   1.263 -2.1589 -0.5860 -1.1106
 2466TIP3   OH228960   1.588   5.879   6.746  0.1655 -0.6580  0.0889
 2466TIP3    H128961   1.519   5.857   6.808 -1.9132 -0.3947 -1.9698
 2466TIP3    H228962   1.568   5.968   6.719  1.2531 -0.6214 -0.6774
 2467TIP3   OH228963   2.351   6.010   0.958  0.1316 -0.1865 -0.5938
 2467TIP3    H128964   2.385   5.924   0.985 -0.1158 -0.1226 -0.0520
 2467TIP3    H228965   2.306   6.043   1.036  0.0264  0.3364 -0.8709
 2468TIP3   OH228966   0.610   1.949   7.170  0.0018  0.1387 -0.4528
 2468TIP3    H128967   0.575   2.036   7.189  0.3035  0.3642 -0.8889
 2468TIP3    H228968   0.545   1.908   7.113  1.3145  1.3410 -3.0137
 2469TIP3   OH228969   6.502   5.479   6.136  0.3476 -0.5706  0.1144
 2469TIP3    H128970   6.442   5.478   6.063 -0.5710 -0.8906  0.8554
 2469TIP3    H228971   6.577   5.428   6.106  0.4203  0.1232 -0.9405
 2470TIP3   OH228972   6.762   0.578   6.680  0.6459  0.0879 -0.1008
 2470TIP3    H128973   6.852   0.578   6.714  0.7693 -2.5416 -0.2708
 2470TIP3    H228974   6.772   0.569   6.586  0.1832 -0.3125 -0.1131
 2471TIP3   OH228975   0.871   1.429   1.012  0.1487  0.4964  0.2932
 2471TIP3    H128976   0.816   1.481   0.953  1.8968  1.6066 -0.4285
 2471TIP3    H228977   0.877   1.481   1.092 -1.7757 -0.7625  1.3669
 2472TIP3   OH228978   1.946   3.415   7.797 -0.1101 -0.3075  0.2950
 2472TIP3    H128979   1.889   3.481   7.836 -1.3491 -1.6589  0.8772
 2472TIP3    H228980   2.027   3.421   7.846 -0.2276  0.7302  0.3769
 2473TIP3   OH228981   4.491   4.392   6.602 -0.5813  0.5168 -0.2367
 2473TIP3    H128982   4.535   4.420   6.522 -2.4572  1.9878 -0.8124
 2473TIP3    H228983   4.515   4.458   6.667 -1.1679  0.7824 -0.2915
 2474TIP3   OH228984   4.983   1.075   7.403  0.1676 -0.1687 -0.2425
 2474TIP3    H128985   4.927   1.106   7.474 -0.4538 -3.2006  0.7387
 2474TIP3    H228986   4.923   1.060   7.330  0.6908  2.1821 -1.2445
 2475TIP3   OH228987   1.007   3.639   1.129 -0.3134 -0.2837  0.5225
 2475TIP3    H128988   1.091   3.682   1.143 -0.5763  0.0792  1.0114
 2475TIP3    H228989   0.969   3.633   1.216 -0.9060 -0.2179  0.2691
 2476TIP3   OH228990   2.641   1.256   1.643  0.4204 -0.4117 -0.2934
 2476TIP3    H128991   2.660   1.345   1.614  1.3005 -0.3813  0.3375
 2476TIP3    H228992   2.618   1.264   1.735 -0.3067 -0.7432 -0.4415
 2477TIP3   OH228993   2.370   6.248   7.362  0.0324  0.3538 -0.2090
 2477TIP3    H128994   2.297   6.187   7.347  0.5525  0.0956 -1.8892
 2477TIP3    H228995   2.331   6.335   7.350 -0.1718  0.2397 -0.3952
 2478TIP3   OH228996   2.622   4.803   0.730  0.4094  0.0271 -0.3661
 2478TIP3    H128997   2.685   4.772   0.665  0.9228  0.4293 -0.0728
 2478TIP3    H228998   2.537   4.783   0.692  0.7069 -0.6461 -0.7179
 2479TIP3   OH228999   6.172   6.359   7.700  0.2211  0.0164  0.2995
 2479TIP3    H129000   6.110   6.309   7.753 -2.0823  2.0224 -0.3291
 2479TIP3    H229001   6.186   6.440   7.749  0.6234  0.5233 -0.6200
 2480TIP3   OH229002   1.505   4.068   6.728 -0.2514  0.3439  0.2512
 2480TIP3    H129003   1.539   4.003   6.789 -2.2755 -1.0823 -0.0148
 2480TIP3    H229004   1.567   4.068   6.655 -0.2444 -1.3942  0.2166
 2481TIP3   OH229005   1.216   2.184   1.818  0.1496 -0.5774  0.1837
 2481TIP3    H129006   1.293   2.159   1.869  0.9828  1.0680 -0.2011
 2481TIP3    H229007   1.162   2.234   1.878  0.2018 -0.2779 -0.0176
 2482TIP3   OH229008   6.747   4.950   6.395 -0.1596  0.2918 -0.2065
 2482TIP3    H129009   6.661   4.968   6.357 -0.6554  1.2989  1.2983
 2482TIP3    H229010   6.800   5.026   6.371  0.1747 -0.0819 -0.6817
 2483TIP3   OH229011   1.438   3.811   6.810 -0.4357  0.2246 -0.4584
 2483TIP3    H129012   1.468   3.741   6.868 -0.9621  1.1679  1.0100
 2483TIP3    H229013   1.437   3.771   6.723 -1.4780 -1.8426  0.4198
 2484TIP3   OH229014   3.907   5.204   6.864  0.2738  0.3274  0.6821
 2484TIP3    H129015   3.873   5.163   6.784  0.1190  1.2445  0.2681
 2484TIP3    H229016   3.858   5.286   6.872 -0.5661 -0.2673  2.3593
 2485TIP3   OH229017   0.449   6.533   6.545  0.4307  0.0966 -0.1761
 2485TIP3    H129018   0.512   6.601   6.566 -1.5145  1.7956  0.5047
 2485TIP3    H229019   0.491   6.481   6.476  2.4378  1.2543  0.1098
 2486TIP3   OH229020   4.499   1.422   2.308  0.0108 -0.0975 -0.5351
 2486TIP3    H129021   4.568   1.488   2.302 -0.6427  0.8836  1.5484
 2486TIP3    H229022   4.544   1.342   2.337  0.3666  0.4360  0.4428
 2487TIP3   OH229023   4.125   6.824   2.199 -0.0251  0.4932 -0.2407
 2487TIP3    H129024   4.064   6.751   2.214 -2.3793  2.5483  0.8531
 2487TIP3    H229025   4.211   6.786   2.218 -1.3158 -1.5159  2.3629
 2488TIP3   OH229026   2.224   0.631   1.351  0.6490 -0.2183  0.6997
 2488TIP3    H129027   2.265   0.649   1.436  0.5264  0.3949  0.6318
 2488TIP3    H229028   2.226   0.536   1.344  0.1819 -0.3070  1.6222
 2489TIP3   OH229029   3.893   1.520   6.780 -0.2682 -0.5123  0.4458
 2489TIP3    H129030   3.923   1.526   6.871  0.2498  2.0158  0.1820
 2489TIP3    H229031   3.971   1.495   6.730 -0.1309 -0.2096  0.5064
 2490TIP3   OH229032   4.282   1.901   0.978 -0.2308  0.4396  0.5080
 2490TIP3    H129033   4.203   1.953   0.983 -0.9133 -0.6397  1.3445
 2490TIP3    H229034   4.254   1.818   0.939 -0.0905 -0.9437  3.1382
 2491TIP3   OH229035   0.093   2.763   1.220  0.0326  0.0559  0.0683
 2491TIP3    H129036   0.018   2.818   1.240 -0.3995 -0.6214  0.3725
 2491TIP3    H229037   0.068   2.676   1.251  0.6095 -0.3592 -0.5902
 2492TIP3   OH229038   1.721   7.012   0.973  0.0726 -0.1399  0.2914
 2492TIP3    H129039   1.729   6.938   0.912  0.7351 -0.8410  1.1992
 2492TIP3    H229040   1.661   7.072   0.930  2.1001  0.3770 -2.0155
 2493TIP3   OH229041   5.297   3.332   7.783  0.0720 -0.9774  0.5848
 2493TIP3    H129042   5.392   3.327   7.795 -0.1262 -1.4983  2.1746
 2493TIP3    H229043   5.273   3.250   7.740  0.3023 -1.0208  0.5409
 2494TIP3   OH229044   4.586   5.549   1.237  0.0749  0.2040  0.1323
 2494TIP3    H129045   4.657   5.488   1.219 -0.0480 -1.2589  3.7497
 2494TIP3    H229046   4.507   5.496   1.231 -0.1522  0.2897  1.8904
 2495TIP3   OH229047   1.371   4.148   1.682  0.2415  0.4490  0.3381
 2495TIP3    H129048   1.364   4.073   1.740 -0.2044  0.6373  0.5348
 2495TIP3    H229049   1.426   4.118   1.610 -0.7667 -0.3976 -0.1097
 2496TIP3   OH229050   0.606   5.615   8.204 -0.3021  0.0006  0.3567
 2496TIP3    H129051   0.600   5.686   8.267 -1.5441 -0.4494  0.7610
 2496TIP3    H229052   0.679   5.561   8.235 -0.1935  0.3857  0.7730
 2497TIP3   OH229053   0.324   5.858   6.180  0.3510 -0.3982 -0.0895
 2497TIP3    H129054   0.229   5.853   6.190  0.3830 -0.6884  0.1079
 2497TIP3    H229055   0.338   5.876   6.087  0.0879  0.3435  0.0083
 2498TIP3   OH229056   3.236   4.603   8.126  0.4562  0.0686 -0.2344
 2498TIP3    H129057   3.196   4.687   8.106 -1.7220 -1.0571 -0.9003
 2498TIP3    H229058   3.321   4.606   8.083 -0.3271  1.2516 -1.7922
 2499TIP3   OH229059   3.494   3.043   7.112  0.7520  0.6643 -0.3028
 2499TIP3    H129060   3.582   3.035   7.075  0.1502 -2.9373 -1.3576
 2499TIP3    H229061   3.436   3.003   7.046 -1.5411  1.7626  0.9038
 2500TIP3   OH229062   4.567   2.088   0.755 -0.0111  0.2727  0.6561
 2500TIP3    H129063   4.565   2.014   0.694  1.5369  3.5976 -4.0650
 2500TIP3    H229064   4.476   2.099   0.783 -0.8497 -1.5437 -1.0862
 2501TIP3   OH229065   3.224   4.819   6.513 -0.1663 -0.0563 -0.3935
 2501TIP3    H129066   3.305   4.870   6.504  0.2886 -0.8003 -0.7197
 2501TIP3    H229067   3.166   4.854   6.446  0.0546  0.1953 -0.4559
 2502TIP3   OH229068   0.856   1.414   7.277  0.0138  0.0961  0.2669
 2502TIP3    H129069   0.947   1.437   7.260 -0.1627  1.2372  0.7729
 2502TIP3    H229070   0.818   1.403   7.190  0.5293  0.0208  0.0450
 2503TIP3   OH229071   0.430   5.790   7.482 -0.1174  0.1719  0.1925
 2503TIP3    H129072   0.478   5.792   7.566  0.7016 -0.4328 -0.2402
 2503TIP3    H229073   0.473   5.720   7.433 -0.6873  0.4294 -0.6807
 2504TIP3   OH229074   0.356   3.262   8.105  0.1938  0.1401 -0.0935
 2504TIP3    H129075   0.288   3.205   8.138 -0.6227  0.5151 -1.0612
 2504TIP3    H229076   0.382   3.223   8.021  1.7252 -0.4208  0.6058
 2505TIP3   OH229077   2.282   3.332   1.756 -0.1943 -0.3357 -0.6275
 2505TIP3    H129078   2.290   3.363   1.846 -1.9788 -0.1797 -0.4876
 2505TIP3    H229079   2.235   3.249   1.763  2.1718 -1.8249 -1.2185
 2506TIP3   OH229080   1.168   2.647   7.372  0.8486 -0.6400  0.5611
 2506TIP3    H129081   1.234   2.689   7.317  0.4583 -2.3530 -1.3452
 2506TIP3    H229082   1.085   2.684   7.341  0.7151 -0.6068  0.9588
 2507TIP3   OH229083   1.262   2.947   6.667 -0.3750  0.0146  0.0775
 2507TIP3    H129084   1.215   2.932   6.585 -0.3175  0.4854 -0.0431
 2507TIP3    H229085   1.355   2.947   6.642 -0.3048 -0.8977  0.3115
 2508TIP3   OH229086   4.994   4.230   6.714 -0.2058 -0.0614  0.7280
 2508TIP3    H129087   5.067   4.199   6.766 -1.1549 -0.9245  1.5890
 2508TIP3    H229088   5.034   4.272   6.638  1.1705 -0.1985  1.3582
 2509TIP3   OH229089   1.387   5.997   0.952  0.4403 -0.1770 -0.5179
 2509TIP3    H129090   1.457   5.936   0.975  1.0268  0.4643 -0.5377
 2509TIP3    H229091   1.330   5.948   0.894  1.1361 -0.5748 -0.8840
 2510TIP3   OH229092   0.462   5.027   5.782  0.1854 -0.0176 -0.4297
 2510TIP3    H129093   0.529   4.992   5.841 -0.1851  0.3360  0.1996
 2510TIP3    H229094   0.483   5.120   5.773 -1.8970  0.8546  2.1766
 2511TIP3   OH229095   3.637   3.730   6.943 -0.6235 -0.0308  0.4598
 2511TIP3    H129096   3.574   3.736   7.015 -1.4214 -0.8447 -0.1533
 2511TIP3    H229097   3.630   3.815   6.898 -1.8102 -0.3558 -0.0139
 2512TIP3   OH229098   4.502   6.895   7.032  0.2789 -0.0537  0.1302
 2512TIP3    H129099   4.545   6.961   6.978 -0.2862 -0.1079 -0.3907
 2512TIP3    H229100   4.532   6.914   7.121 -0.7118  1.6003  0.1574
 2513TIP3   OH229101   6.818   2.350   8.238 -0.0365 -0.2320 -0.1007
 2513TIP3    H129102   6.907   2.362   8.271 -0.3368  0.7557  0.4125
 2513TIP3    H229103   6.802   2.428   8.185 -0.9726  0.1623  0.7219
 2514TIP3   OH229104   6.583   3.071   6.311  0.3021  0.2120  0.0573
 2514TIP3    H129105   6.675   3.099   6.308  0.0122  1.1008 -0.9603
 2514TIP3    H229106   6.536   3.138   6.263 -0.6187 -1.3137 -1.2803
 2515TIP3   OH229107   1.680   1.663   6.648 -0.1693 -0.3214  0.0273
 2515TIP3    H129108   1.638   1.687   6.566  0.4967 -0.2634 -0.3057
 2515TIP3    H229109   1.647   1.726   6.711 -0.7002 -0.3778 -0.1934
 2516TIP3   OH229110   6.429   4.495   8.138  0.0672 -0.3029 -0.1524
 2516TIP3    H129111   6.360   4.559   8.121  1.0432  0.0452 -3.6538
 2516TIP3    H229112   6.383   4.412   8.148 -0.9610  0.1829 -0.6449
 2517TIP3   OH229113   4.565   1.770   1.048  0.3882 -0.1950 -0.8590
 2517TIP3    H129114   4.592   1.775   0.957  0.0128 -0.7349 -1.0088
 2517TIP3    H229115   4.471   1.791   1.046  0.5238  0.4491 -0.5119
 2518TIP3   OH229116   0.337   2.778   7.060 -0.3049  0.0281 -0.3503
 2518TIP3    H129117   0.247   2.744   7.067 -0.0964 -0.9188 -1.7892
 2518TIP3    H229118   0.390   2.701   7.039  0.9964  0.4310  1.2566
 2519TIP3   OH229119   3.197   4.365   1.809 -0.5931  0.2766  0.3111
 2519TIP3    H129120   3.154   4.322   1.882 -0.1558 -3.8818 -1.6048
 2519TIP3    H229121   3.138   4.349   1.734  0.8043  0.9210 -0.9794
 2520TIP3   OH229122   3.327   3.434   1.890  0.0261  0.1671  0.0497
 2520TIP3    H129123   3.386   3.361   1.908 -0.9925 -1.3244 -2.1684
 2520TIP3    H229124   3.371   3.511   1.927  2.8301 -1.0210 -0.5693
 2521TIP3   OH229125   5.368   1.308   6.257 -0.4421 -0.0740 -0.0410
 2521TIP3    H129126   5.335   1.220   6.271 -2.6852  0.8262  0.8980
 2521TIP3    H229127   5.297   1.355   6.214  1.8689  0.5267 -3.6925
 2522TIP3   OH229128   5.773   4.370   6.585  0.0377 -0.1154  0.4934
 2522TIP3    H129129   5.849   4.349   6.640 -0.0298 -0.8136  0.3387
 2522TIP3    H229130   5.740   4.453   6.619  0.7625  0.0950  0.6805
 2523TIP3   OH229131   3.762   3.666   0.748  0.2898  0.1206 -0.3820
 2523TIP3    H129132   3.743   3.587   0.799  3.0791 -0.9120 -0.7545
 2523TIP3    H229133   3.758   3.637   0.656  1.5743  0.3137 -0.5151
 2524TIP3   OH229134   5.819   6.410   0.921  0.0998  0.4021  0.0176
 2524TIP3    H129135   5.865   6.493   0.908 -0.1649  0.7210  1.0563
 2524TIP3    H229136   5.736   6.434   0.963 -0.4794 -0.2844 -0.7034
 2525TIP3   OH229137   6.404   0.475   8.110  0.3216  0.3381  0.5302
 2525TIP3    H129138   6.455   0.545   8.151  1.0985 -1.2524  2.4009
 2525TIP3    H229139   6.422   0.397   8.163 -0.3533 -1.3595 -1.5850
 2526TIP3   OH229140   6.192   5.395   1.276  0.4270  0.2758 -0.2579
 2526TIP3    H129141   6.153   5.453   1.342  1.2935  0.9468 -0.3193
 2526TIP3    H229142   6.268   5.358   1.319 -0.9647 -2.0921  0.3261
 2527TIP3   OH229143   1.777   0.636   6.687 -0.5800  0.5340  0.0074
 2527TIP3    H129144   1.842   0.624   6.617 -0.7680 -1.3471  0.1051
 2527TIP3    H229145   1.694   0.648   6.641 -0.5684  0.2145 -0.0974
 2528TIP3   OH229146   2.085   3.720   0.519  0.1710  0.3887 -0.5057
 2528TIP3    H129147   2.015   3.678   0.568  1.1819  1.0824  1.6486
 2528TIP3    H229148   2.043   3.752   0.439 -1.8894  0.5377  0.5760
 2529TIP3   OH229149   4.493   2.659   7.373 -0.3922  0.1839 -0.2494
 2529TIP3    H129150   4.563   2.719   7.399  0.1311 -0.6785  0.3932
 2529TIP3    H229151   4.487   2.597   7.445 -0.9204 -0.5414 -0.8991
 2530TIP3   OH229152   0.565   1.248   7.205  0.1355  0.0168 -0.1766
 2530TIP3    H129153   0.546   1.298   7.126 -0.7171 -2.7206 -1.8261
 2530TIP3    H229154   0.659   1.233   7.202  0.3561  1.2233  0.1971
 2531TIP3   OH229155   0.307   5.407   7.645 -0.5759 -0.2555 -0.2168
 2531TIP3    H129156   0.307   5.311   7.646  1.3266 -0.3022  0.6672
 2531TIP3    H229157   0.275   5.432   7.732 -2.6195 -0.0181 -0.9995
 2532TIP3   OH229158   5.461   5.274   6.317 -0.1302 -0.5215  0.0550
 2532TIP3    H129159   5.471   5.308   6.405 -1.0510 -0.0220 -0.0198
 2532TIP3    H229160   5.550   5.257   6.287  0.2171 -0.1976  0.8813
 2533TIP3   OH229161   6.119   3.319   7.739  0.2899  0.1836 -0.4287
 2533TIP3    H129162   6.089   3.353   7.655 -1.4785  1.5460  0.6780
 2533TIP3    H229163   6.041   3.280   7.778  0.7461  0.7819  1.1398
 2534TIP3   OH229164   5.799   5.987   7.892  0.5609  0.0569 -0.3290
 2534TIP3    H129165   5.844   6.066   7.864  1.8043  0.0759  1.5384
 2534TIP3    H229166   5.707   6.013   7.900  0.8636  1.1523 -0.2843
 2535TIP3   OH229167   0.496   1.815   6.327 -0.0995 -0.4510 -0.2080
 2535TIP3    H129168   0.486   1.755   6.401  3.0139 -2.5590 -1.2932
 2535TIP3    H229169   0.469   1.764   6.250 -2.2231  1.3231 -0.7478
 2536TIP3   OH229170   1.523   0.200   0.915 -0.3027 -0.1006  0.0566
 2536TIP3    H129171   1.558   0.289   0.918 -0.8357  0.0829  1.1096
 2536TIP3    H229172   1.450   0.205   0.854 -0.2538  0.1526  0.0175
 2537TIP3   OH229173   3.742   3.879   1.837 -0.1494  0.1433 -0.6738
 2537TIP3    H129174   3.823   3.921   1.866 -0.1976 -0.0960 -0.1889
 2537TIP3    H229175   3.672   3.932   1.875 -0.2092 -0.6428  0.3401
 2538TIP3   OH229176   0.754   5.468   1.587  1.4216 -0.1104  0.5776
 2538TIP3    H129177   0.702   5.549   1.593  0.7909 -0.4152 -0.5454
 2538TIP3    H229178   0.830   5.492   1.534  0.4563 -0.6087 -1.0899
 2539TIP3   OH229179   4.023   4.228   1.314 -0.0529 -0.5981  0.3034
 2539TIP3    H129180   4.032   4.277   1.397  0.9561  3.7648 -2.0383
 2539TIP3    H229181   4.111   4.232   1.276 -1.0662  0.0511 -2.1352
 2540TIP3   OH229182   5.080   6.772   0.535 -0.9818 -0.6156 -0.0929
 2540TIP3    H129183   5.140   6.762   0.461  1.0356  0.0236  1.3645
 2540TIP3    H229184   5.062   6.683   0.564 -1.3184 -0.8409 -0.9727
 2541TIP3   OH229185   1.379   6.296   0.702  0.4358  0.2174  0.9543
 2541TIP3    H129186   1.284   6.298   0.716  0.2093 -1.5157 -0.0921
 2541TIP3    H229187   1.393   6.346   0.622  0.4320  0.5824  1.1787
 2542TIP3   OH229188   4.392   3.520   6.847 -0.4948  0.4875 -0.1053
 2542TIP3    H129189   4.298   3.540   6.852 -0.1433  2.4276 -0.3877
 2542TIP3    H229190   4.424   3.530   6.936 -0.3202  1.1817 -0.2428
 2543TIP3   OH229191   2.609   0.144   6.814 -0.3342 -0.0803  0.0121
 2543TIP3    H129192   2.606   0.116   6.722 -0.4904  1.9902 -0.6700
 2543TIP3    H229193   2.699   0.174   6.827 -0.4011 -0.0590  0.4386
 2544TIP3   OH229194   4.157   0.886   6.062 -0.1890 -0.0586 -0.4763
 2544TIP3    H129195   4.168   0.965   6.114  0.0592 -0.6343  0.3709
 2544TIP3    H229196   4.081   0.903   6.007  0.1790  0.9654 -0.6887
 2545TIP3   OH229197   0.849   1.277   0.770 -0.4741  0.2306  0.1269
 2545TIP3    H129198   0.900   1.206   0.731  0.4712  1.2208 -0.5291
 2545TIP3    H229199   0.851   1.260   0.864  1.6349  0.5318  0.2023
 2546TIP3   OH229200   2.288   5.589   1.861 -0.2318 -0.0576  0.0889
 2546TIP3    H129201   2.365   5.608   1.808 -1.1157  0.1762 -1.1587
 2546TIP3    H229202   2.250   5.676   1.880 -0.3964 -0.1897  0.3827
 2547TIP3   OH229203   0.145   3.389   1.572 -0.0060  0.5096 -0.0031
 2547TIP3    H129204   0.232   3.350   1.562 -0.0569  0.7196 -1.3911
 2547TIP3    H229205   0.110   3.349   1.652  0.9371 -0.3982 -0.0270
 2548TIP3   OH229206   5.268   3.084   0.849 -0.0645 -0.2334 -0.0081
 2548TIP3    H129207   5.357   3.108   0.873  0.1887 -1.0281 -0.1387
 2548TIP3    H229208   5.241   3.021   0.916 -1.0450  1.0382  0.8440
 2549TIP3   OH229209   0.889   4.190   0.820  0.2548 -1.1817 -0.2815
 2549TIP3    H129210   0.979   4.204   0.851 -0.3410 -0.6166  1.2779
 2549TIP3    H229211   0.837   4.180   0.900 -1.6686  2.1791 -0.9143
 2550TIP3   OH229212   5.979   0.214   7.955  0.5836  0.2910 -0.0428
 2550TIP3    H129213   5.969   0.286   7.893 -0.0286 -0.0932 -0.4086
 2550TIP3    H229214   6.060   0.233   8.002  1.9071 -0.2217 -2.0389
 2551TIP3   OH229215   2.922   5.611   6.862  0.1911 -0.7857 -0.5354
 2551TIP3    H129216   2.984   5.623   6.934 -0.6282 -3.3846  0.7159
 2551TIP3    H229217   2.868   5.690   6.864  0.3077 -0.7009  1.5952
 2552TIP3   OH229218   0.595   1.518   7.643 -0.0517  0.1717  0.2519
 2552TIP3    H129219   0.504   1.508   7.670 -0.2174  1.0681  0.0323
 2552TIP3    H229220   0.647   1.488   7.718 -0.5058 -2.1011 -0.2589
 2553TIP3   OH229221   0.665   5.004   0.241  0.2511 -0.1866  0.1112
 2553TIP3    H129222   0.686   5.087   0.283 -3.3117  1.4199 -0.9135
 2553TIP3    H229223   0.598   4.965   0.297 -0.7620 -0.5506 -1.2935
 2554TIP3   OH229224   6.272   4.841   2.138  0.2302 -0.1327  0.6311
 2554TIP3    H129225   6.209   4.913   2.145  0.7688  0.2226  2.3487
 2554TIP3    H229226   6.350   4.872   2.184  0.9335 -1.3392  0.3069
 2555TIP3   OH229227   4.786   0.635   0.648  0.1525  0.3098 -0.3338
 2555TIP3    H129228   4.725   0.569   0.681  1.0899 -0.4625 -0.0613
 2555TIP3    H229229   4.766   0.643   0.555 -0.1366 -0.1868 -0.3187
 2556TIP3   OH229230   2.928   5.065   0.073  0.1857  0.5832 -0.1803
 2556TIP3    H129231   2.854   5.077   0.133  0.3281  2.2144 -0.3025
 2556TIP3    H229232   3.002   5.107   0.116  1.2580 -1.5256  0.2087
 2557TIP3   OH229233   5.609   0.141   1.380  0.0237 -0.0056 -0.0197
 2557TIP3    H129234   5.549   0.072   1.351 -0.8928  0.0493  1.6454
 2557TIP3    H229235   5.682   0.095   1.419  0.6048 -0.0488 -1.1105
 2558TIP3   OH229236   5.525   1.652   0.981  0.0008  0.4383  0.4311
 2558TIP3    H129237   5.535   1.560   1.007 -0.8159  0.3624  0.5029
 2558TIP3    H229238   5.504   1.648   0.888  0.9201  0.6086  0.2097
 2559TIP3   OH229239   1.171   4.813   1.893 -0.3383  0.5011 -0.0574
 2559TIP3    H129240   1.123   4.781   1.817  1.4870 -0.6858 -0.7611
 2559TIP3    H229241   1.241   4.867   1.856  0.5809 -0.1082  0.7476
 2560TIP3   OH229242   0.733   2.520   6.252 -0.1044  0.1443 -0.0968
 2560TIP3    H129243   0.640   2.521   6.230 -0.3624 -0.1514  0.9100
 2560TIP3    H229244   0.765   2.606   6.224 -1.2920  1.3364  1.9211
 2561TIP3   OH229245   3.122   4.132   8.010 -0.7937  0.1942  0.2034
 2561TIP3    H129246   3.190   4.161   8.070  0.2180  0.1510 -0.8903
 2561TIP3    H229247   3.071   4.068   8.060  0.8687 -0.8920  0.5747
 2562TIP3   OH229248   2.793   2.885   1.619 -0.0079  0.2847  0.3470
 2562TIP3    H129249   2.732   2.825   1.577 -2.8730  2.2472  1.3992
 2562TIP3    H229250   2.879   2.860   1.585 -0.8834 -4.5730  0.9891
 2563TIP3   OH229251   3.111   0.889   1.157 -0.6634 -0.0193  0.5024
 2563TIP3    H129252   3.104   0.838   1.238 -0.6691 -0.5274  0.1919
 2563TIP3    H229253   3.181   0.952   1.174 -0.9212  0.1294  1.0303
 2564TIP3   OH229254   4.448   4.512   7.516 -0.3633  0.6378 -0.2555
 2564TIP3    H129255   4.423   4.422   7.535  0.0858  0.6913  0.6431
 2564TIP3    H229256   4.386   4.565   7.566  0.6618  0.7877  0.8839
 2565TIP3   OH229257   3.281   4.166   1.076  0.0398 -0.4990  0.7105
 2565TIP3    H129258   3.258   4.249   1.033 -0.8493 -1.0830  0.0329
 2565TIP3    H229259   3.337   4.192   1.149 -1.7200  0.8935  1.6516
 2566TIP3   OH229260   3.324   2.030   0.661  0.1203  0.1651  0.3620
 2566TIP3    H129261   3.391   2.051   0.726 -0.4236 -0.4598  1.1362
 2566TIP3    H229262   3.343   1.940   0.635  0.8164  0.6707 -0.9547
 2567TIP3   OH229263   2.811   2.918   1.892 -0.2538  0.0901  0.4356
 2567TIP3    H129264   2.872   2.983   1.927  0.0036 -0.6195  1.3732
 2567TIP3    H229265   2.798   2.942   1.801  1.5982  0.1451  0.1569
 2568TIP3   OH229266   1.623   5.531   7.584 -0.3556 -0.0300  0.0925
 2568TIP3    H129267   1.674   5.462   7.627 -1.4069 -0.5950  0.4583
 2568TIP3    H229268   1.671   5.550   7.503 -0.2537 -1.4692 -0.2039
 2569TIP3   OH229269   2.791   0.167   2.008  0.1803 -0.3960  0.1238
 2569TIP3    H129270   2.835   0.250   2.030  0.4372 -0.8547  1.4368
 2569TIP3    H229271   2.725   0.192   1.944 -0.0889  0.9234  0.8606
 2570TIP3   OH229272   0.822   1.169   6.666  0.0805  0.0280  0.3380
 2570TIP3    H129273   0.829   1.264   6.671 -0.9326  0.0529  1.7073
 2570TIP3    H229274   0.889   1.144   6.602  0.1639  1.6706 -0.2673
 2571TIP3   OH229275   4.678   1.140   1.197  0.2839  0.0758 -0.5481
 2571TIP3    H129276   4.672   1.218   1.253  0.4798 -0.9240  0.9034
 2571TIP3    H229277   4.662   1.174   1.108  1.1121  1.8848 -0.0584
 2572TIP3   OH229278   5.235   0.917   6.870  1.0313  0.2439  0.2674
 2572TIP3    H129279   5.185   0.847   6.912  2.5406 -0.3146  1.2152
 2572TIP3    H229280   5.323   0.881   6.860  2.3011  2.4940  2.2488
 2573TIP3   OH229281   5.845   3.845   6.078 -0.2755  0.4162  0.0952
 2573TIP3    H129282   5.823   3.796   6.158 -2.0165 -1.5730 -1.4818
 2573TIP3    H229283   5.939   3.831   6.066 -0.2400 -0.3451  1.0960
 2574TIP3   OH229284   0.828   6.539   6.263 -0.0642 -0.2956  0.7383
 2574TIP3    H129285   0.865   6.528   6.176 -0.5399 -3.3287  0.8166
 2574TIP3    H229286   0.734   6.542   6.249 -0.1004  0.2663  1.0780
 2575TIP3   OH229287   3.754   0.334   7.156 -0.4209 -0.4514  0.3203
 2575TIP3    H129288   3.675   0.344   7.209 -0.3135 -1.2587  0.6454
 2575TIP3    H229289   3.754   0.242   7.129 -0.0156 -0.2628 -0.3638
 2576TIP3   OH229290   3.033   2.254   8.134 -0.0278  0.1145  0.0775
 2576TIP3    H129291   3.060   2.207   8.212  0.3511 -0.8255 -0.6061
 2576TIP3    H229292   3.063   2.344   8.149  0.6442 -0.2048  0.7238
 2577TIP3   OH229293   0.259   0.679   6.289  0.4700  0.5615 -0.7495
 2577TIP3    H129294   0.263   0.759   6.235  1.8561  0.2345 -1.1492
 2577TIP3    H229295   0.179   0.691   6.342  1.0532  2.5816 -0.2182
 2578TIP3   OH229296   1.900   3.027   7.146  0.2949 -0.5186 -0.6966
 2578TIP3    H129297   1.867   3.111   7.115  1.2336 -0.3032 -1.1245
 2578TIP3    H229298   1.894   3.032   7.241 -0.7232 -0.4182 -0.7456
 2579TIP3   OH229299   5.259   2.921   1.576  0.9033  0.3064 -0.1726
 2579TIP3    H129300   5.228   3.006   1.546 -0.3811 -0.3035 -0.6356
 2579TIP3    H229301   5.300   2.939   1.661 -1.1126  1.1233  0.6862
 2580TIP3   OH229302   2.697   6.642   6.521  0.6185 -0.0264 -0.1049
 2580TIP3    H129303   2.719   6.699   6.447 -0.2447  0.6340  0.1239
 2580TIP3    H229304   2.709   6.553   6.487  1.5139  0.2799 -0.6224
 2581TIP3   OH229305   0.241   0.932   7.861  0.0738  0.1095  0.1511
 2581TIP3    H129306   0.315   0.872   7.872 -0.6324 -0.7556  0.1969
 2581TIP3    H229307   0.252   0.967   7.772 -0.7455 -1.8117 -0.7585
 2582TIP3   OH229308   5.372   4.742   7.456  0.0147  0.1279 -0.2373
 2582TIP3    H129309   5.310   4.814   7.444  0.2258  0.6700  1.5085
 2582TIP3    H229310   5.424   4.741   7.376 -1.1416  0.7697 -1.0198
 2583TIP3   OH229311   4.818   4.080   1.271  0.0054  0.4115 -0.2837
 2583TIP3    H129312   4.800   4.046   1.183  0.2112 -1.7409  0.4492
 2583TIP3    H229313   4.760   4.156   1.280 -2.5460 -1.3018 -1.0771
 2584TIP3   OH229314   0.093   0.656   0.068 -0.3847  0.2219  0.1386
 2584TIP3    H129315   0.099   0.748   0.045 -0.1925  0.2019  0.1076
 2584TIP3    H229316   0.029   0.620   0.008 -1.6568  0.6666  1.1725
 2585TIP3   OH229317   0.189   5.095   1.774  0.0028  0.3251 -0.5843
 2585TIP3    H129318   0.197   5.168   1.836 -2.0501  1.2936 -1.3308
 2585TIP3    H229319   0.276   5.086   1.736  0.4780  1.9914 -0.0050
 2586TIP3   OH229320   1.287   6.451   1.330  0.3819 -0.6473  0.4173
 2586TIP3    H129321   1.283   6.358   1.350  0.5072 -0.7332  0.0534
 2586TIP3    H229322   1.289   6.455   1.234  0.3756 -0.2718  0.4307
 2587TIP3   OH229323   0.792   6.728   8.163  0.6356 -0.4958  0.2791
 2587TIP3    H129324   0.803   6.638   8.133  1.2589 -0.7413  1.1947
 2587TIP3    H229325   0.882   6.761   8.170  0.4160  0.1509  0.1015
 2588TIP3   OH229326   2.070   0.048   7.403 -0.0060  0.1340 -0.3181
 2588TIP3    H129327   2.141   0.090   7.452  0.2635 -1.6770  0.9541
 2588TIP3    H229328   2.115  -0.014   7.345 -0.4653  0.5997 -1.2096
 2589TIP3   OH229329   3.554   4.629   6.646  0.3952  0.0646  0.0876
 2589TIP3    H129330   3.585   4.669   6.727  1.5841 -1.0868  0.2370
 2589TIP3    H229331   3.593   4.682   6.577 -0.1693  0.7172  0.2598
 2590TIP3   OH229332   4.336   3.418   8.188 -0.5128  0.0973  0.5365
 2590TIP3    H129333   4.269   3.463   8.239 -1.8229 -0.1820 -0.8742
 2590TIP3    H229334   4.389   3.371   8.253 -3.5895 -2.2630  1.5802
 2591TIP3   OH229335   2.501   3.687   0.294 -0.2293 -0.8982 -0.5130
 2591TIP3    H129336   2.584   3.735   0.289 -0.9021  0.5368  1.0203
 2591TIP3    H229337   2.509   3.619   0.228  2.1644 -0.7884 -0.4488
 2592TIP3   OH229338   4.598   4.751   8.054  0.0775 -0.2928 -0.0480
 2592TIP3    H129339   4.525   4.707   8.098  0.7418 -1.1027  0.2667
 2592TIP3    H229340   4.566   4.766   7.965 -1.6220  2.1790  0.8800
 2593TIP3   OH229341   5.125   1.159   2.295 -0.5334 -0.0108 -0.4018
 2593TIP3    H129342   5.090   1.191   2.212 -1.4218 -0.8589 -0.3646
 2593TIP3    H229343   5.165   1.075   2.274  1.3184  0.8109 -0.3942
 2594TIP3   OH229344   5.670   6.796   7.572 -0.3902  0.2088  0.1062
 2594TIP3    H129345   5.703   6.707   7.589  1.3461  0.8112  0.0802
 2594TIP3    H229346   5.690   6.844   7.653 -2.0500  0.4158  0.4341
 2595TIP3   OH229347   1.459   5.286   7.580  0.9590 -0.2224 -0.6576
 2595TIP3    H129348   1.492   5.367   7.541 -0.0983  0.5041 -0.1195
 2595TIP3    H229349   1.432   5.233   7.506  0.0048  0.6768 -0.9804
 2596TIP3   OH229350   6.805   5.562   6.278  0.0703  1.3290  0.6094
 2596TIP3    H129351   6.897   5.569   6.305 -0.0297  1.0734  1.0340
 2596TIP3    H229352   6.787   5.468   6.283  0.2688  1.1701 -1.1069
 2597TIP3   OH229353   6.370   2.288   0.207 -0.6237 -0.8267  0.4777
 2597TIP3    H129354   6.350   2.213   0.150 -0.9142 -0.0085 -0.5167
 2597TIP3    H229355   6.402   2.248   0.288 -0.0843 -2.0142 -0.2965
 2598TIP3   OH229356   0.928   3.193   1.156  0.1241 -0.0287 -0.1084
 2598TIP3    H129357   0.841   3.163   1.129  0.6182 -0.9206 -0.7808
 2598TIP3    H229358   0.932   3.175   1.250  0.4361 -2.2534 -0.4978
 2599TIP3   OH229359   2.214   3.372   6.118 -0.5564  0.1058 -0.2772
 2599TIP3    H129360   2.203   3.308   6.188  0.4570  0.3174  0.0944
 2599TIP3    H229361   2.280   3.433   6.151  0.5781 -0.2726 -1.7477
 2600TIP3   OH229362   6.345   1.108   7.186 -0.1594  0.1921  0.5101
 2600TIP3    H129363   6.439   1.122   7.199  0.1558 -1.8274  0.6632
 2600TIP3    H229364   6.304   1.174   7.242  1.1449  0.9420  0.6498
 2601TIP3   OH229365   2.534   6.757   0.655  0.6262 -0.2095 -0.2020
 2601TIP3    H129366   2.453   6.742   0.704  1.1944  1.3515  1.3467
 2601TIP3    H229367   2.505   6.792   0.571 -0.3441 -1.6161 -0.4875
 2602TIP3   OH229368   4.868   3.140   0.484  0.2122  1.0940  0.2728
 2602TIP3    H129369   4.909   3.113   0.566 -1.3991 -0.2718  0.6813
 2602TIP3    H229370   4.830   3.060   0.448 -0.1438  1.8889 -1.2139
 2603TIP3   OH229371   1.422   3.291   0.703 -0.0640  0.3318 -0.3673
 2603TIP3    H129372   1.371   3.250   0.773  0.2476  2.8928  1.5230
 2603TIP3    H229373   1.435   3.221   0.639 -2.4292 -1.5110  0.9648
 2604TIP3   OH229374   6.564   0.396   6.757 -0.0899  0.0297  0.3849
 2604TIP3    H129375   6.628   0.468   6.757 -0.9436  0.8278 -0.8333
 2604TIP3    H229376   6.527   0.398   6.846  1.3023 -0.2195  0.9910
 2605TIP3   OH229377   3.674   6.860   1.586  0.8604  0.0582  0.4947
 2605TIP3    H129378   3.626   6.787   1.625 -0.6991  0.6602 -0.1898
 2605TIP3    H229379   3.685   6.923   1.658 -0.7420  0.5512  0.3529
 2606TIP3   OH229380   1.155   5.178   1.316 -0.0678 -0.4902 -0.0108
 2606TIP3    H129381   1.137   5.263   1.355 -0.2903 -1.4527  2.1260
 2606TIP3    H229382   1.179   5.122   1.390 -0.3422 -2.4072 -1.2896
 2607TIP3   OH229383   5.203   2.483   6.948 -0.4806 -0.2508  0.5005
 2607TIP3    H129384   5.130   2.467   7.008 -0.6721  2.2885  1.0686
 2607TIP3    H229385   5.164   2.530   6.875  0.4904  1.0024  0.7355
 2608TIP3   OH229386   2.411   6.890   0.069 -0.2707 -0.4706  0.0958
 2608TIP3    H129387   2.334   6.945   0.085 -0.1773 -0.3234  0.0429
 2608TIP3    H229388   2.378   6.801   0.075 -0.1776 -0.4376  1.4614
 2609TIP3   OH229389   1.737   5.804   8.188 -0.7622 -0.0223  0.5371
 2609TIP3    H129390   1.799   5.749   8.141 -0.5575 -0.1962  1.0074
 2609TIP3    H229391   1.741   5.773   8.279 -2.3662 -0.7975  0.3784
 2610TIP3   OH229392   3.738   0.693   1.224  0.4468  0.0538 -0.2288
 2610TIP3    H129393   3.808   0.754   1.201 -0.4256  0.9694 -0.5379
 2610TIP3    H229394   3.696   0.673   1.140 -0.4025  0.4526  0.0960
 2611TIP3   OH229395   0.229   0.698   7.451 -0.7116 -0.5806 -0.3136
 2611TIP3    H129396   0.240   0.660   7.364 -0.9901 -0.0480 -0.5859
 2611TIP3    H229397   0.236   0.792   7.437 -0.0519 -0.5198  0.3475
 2612TIP3   OH229398   4.969   4.106   7.521 -0.4523  0.1604  0.4778
 2612TIP3    H129399   4.936   4.033   7.469  0.0995  0.2670 -0.0338
 2612TIP3    H229400   4.944   4.184   7.471  0.3989  0.2499  0.1790
 2613TIP3   OH229401   4.464   0.311   1.130 -0.0495 -0.4049 -0.1873
 2613TIP3    H129402   4.449   0.397   1.169 -0.0160  0.3151 -1.6800
 2613TIP3    H229403   4.380   0.267   1.137 -0.3941  0.1977 -0.4421
 2614TIP3   OH229404   3.456   6.999   6.245  0.1939  0.4874 -0.8638
 2614TIP3    H129405   3.452   6.977   6.152 -0.7237 -2.3591 -0.2369
 2614TIP3    H229406   3.482   6.918   6.288  0.9627  1.8191  1.3858
 2615TIP3   OH229407   6.797   3.490   8.258  0.0472  0.2673 -0.8911
 2615TIP3    H129408   6.809   3.530   8.344  0.7985 -1.8403  0.0595
 2615TIP3    H229409   6.708   3.455   8.260  0.6108 -1.2614 -0.2321
 2616TIP3   OH229410   3.266   5.754   7.877  0.1777  0.3068 -0.0609
 2616TIP3    H129411   3.305   5.734   7.962  0.8474  0.4456 -0.3289
 2616TIP3    H229412   3.280   5.847   7.865  0.7550  0.1490 -0.6567
 2617TIP3   OH229413   4.107   6.979   0.798  0.2427  0.0199 -0.0001
 2617TIP3    H129414   4.076   6.891   0.772 -0.0596 -0.1703  0.9756
 2617TIP3    H229415   4.046   7.006   0.867 -0.4275  1.5362 -1.1259
 2618TIP3   OH229416   2.825   6.765   0.646 -0.1312 -0.1111 -0.1163
 2618TIP3    H129417   2.734   6.740   0.632  0.1498 -1.2633  0.0011
 2618TIP3    H229418   2.855   6.796   0.561 -0.5603  0.0080 -0.2247
 2619TIP3   OH229419   3.926   0.111   6.934 -0.0901  0.1045 -0.2168
 2619TIP3    H129420   4.008   0.089   6.979  0.1789  2.7969  0.7965
 2619TIP3    H229421   3.934   0.068   6.849  1.1232 -1.9438  0.8389
 2620TIP3   OH229422   6.223   4.302   0.329  0.2938 -0.2071 -0.0888
 2620TIP3    H129423   6.256   4.381   0.371 -0.5939 -0.2811  0.7680
 2620TIP3    H229424   6.213   4.239   0.400  0.4953 -0.9201 -0.6849
 2621TIP3   OH229425   3.120   4.419   6.404 -0.3412 -0.3403 -0.0053
 2621TIP3    H129426   3.149   4.330   6.426 -0.2884 -0.4162 -0.3770
 2621TIP3    H229427   3.024   4.414   6.407 -0.4699 -1.1517 -2.7691
 2622TIP3   OH229428   1.894   5.909   6.977 -0.7769  0.2372  0.5897
 2622TIP3    H129429   1.878   5.818   6.954  0.0713  0.2127  0.0345
 2622TIP3    H229430   1.876   5.914   7.071 -2.4074 -0.1130  0.3189
 2623TIP3   OH229431   1.094   5.287   6.710 -0.1154  0.3269 -0.1414
 2623TIP3    H129432   1.014   5.321   6.670 -1.0189 -1.4666  0.0130
 2623TIP3    H229433   1.079   5.292   6.804  1.0223  2.3085 -0.0273
 2624TIP3   OH229434   5.918   0.668   0.739 -0.0002 -0.4929 -0.2473
 2624TIP3    H129435   5.939   0.633   0.653 -2.7282  1.8581 -2.0606
 2624TIP3    H229436   5.853   0.606   0.775  0.0491 -0.7053 -0.5201
 2625TIP3   OH229437   3.426   3.947   6.261  0.1432 -0.2576 -0.1369
 2625TIP3    H129438   3.505   3.955   6.315  0.5285  1.1223 -0.8699
 2625TIP3    H229439   3.377   4.028   6.277 -1.1058 -1.0481  0.2331
 2626TIP3   OH229440   4.639   3.440   1.676 -0.1314  0.2111  0.0334
 2626TIP3    H129441   4.658   3.375   1.608 -1.6682  0.4831 -0.7011
 2626TIP3    H229442   4.590   3.391   1.742 -1.5060  0.6265 -0.6359
 2627TIP3   OH229443   3.375   4.119   6.473 -0.1166 -0.3926  0.2552
 2627TIP3    H129444   3.392   4.210   6.452 -0.7829 -0.6704 -1.7085
 2627TIP3    H229445   3.462   4.080   6.486  0.2158  0.3214  0.1834
 2628TIP3   OH229446   2.068   4.616   7.239 -0.4306 -0.4331 -0.3382
 2628TIP3    H129447   2.149   4.605   7.288  0.0358 -2.1857 -1.4155
 2628TIP3    H229448   2.088   4.682   7.173 -1.0790  1.9873  1.7238
 2629TIP3   OH229449   4.409   0.987   7.756  0.1167  0.3559 -0.1931
 2629TIP3    H129450   4.475   0.918   7.751  0.5565  0.6553  1.1075
 2629TIP3    H229451   4.361   0.968   7.836 -1.2169  0.3048 -0.9798
 2630TIP3   OH229452   5.695   3.090   7.579  0.0518  0.2382 -0.0831
 2630TIP3    H129453   5.782   3.121   7.556  0.2173 -1.2317 -1.5707
 2630TIP3    H229454   5.710   3.018   7.640 -0.0329 -0.8517 -1.3168
 2631TIP3   OH229455   2.038   4.613   1.067  0.4078  1.0178 -0.0562
 2631TIP3    H129456   2.003   4.675   1.003  0.5665 -0.6783 -1.8510
 2631TIP3    H229457   2.008   4.527   1.037  0.7963  0.1118  1.9616
 2632TIP3   OH229458   1.387   0.825   7.370 -0.1365  0.3459 -0.3247
 2632TIP3    H129459   1.392   0.735   7.339 -1.3405 -0.3317  1.2921
 2632TIP3    H229460   1.478   0.853   7.379  0.3156 -1.3700  0.8590
 2633TIP3   OH229461   4.308   6.379   0.733  0.1822  0.4390  0.5478
 2633TIP3    H129462   4.388   6.393   0.682  0.1550  0.3504  0.4790
 2633TIP3    H229463   4.257   6.317   0.680  0.0394  0.5463  0.5599
 2634TIP3   OH229464   1.646   2.200   8.097 -0.0882  0.0348  0.5443
 2634TIP3    H129465   1.709   2.205   8.169  0.9104 -0.6928 -0.2486
 2634TIP3    H229466   1.675   2.268   8.035 -1.2225  0.9808  1.0176
 2635TIP3   OH229467   2.408   0.312   5.874  0.0736 -0.4296 -0.3292
 2635TIP3    H129468   2.380   0.254   5.803  2.0165 -0.9285 -0.7506
 2635TIP3    H229469   2.474   0.262   5.921  0.9991  1.0356 -0.0142
 2636TIP3   OH229470   5.966   2.968   0.457  0.1109 -0.2363 -0.1531
 2636TIP3    H129471   6.005   3.047   0.496 -0.5110  0.6947 -1.3341
 2636TIP3    H229472   6.004   2.964   0.369 -1.6177  0.1001 -0.9507
 2637TIP3   OH229473   0.405   6.593   8.217  0.0705 -0.4428 -0.3556
 2637TIP3    H129474   0.392   6.589   8.311 -0.6068  1.8473 -0.2875
 2637TIP3    H229475   0.500   6.597   8.206  0.1332  1.9123  0.4667
 2638TIP3   OH229476   3.928   6.017   7.970  0.8755 -0.0882  0.4462
 2638TIP3    H129477   3.885   5.988   7.890 -0.6276  1.1792  0.7495
 2638TIP3    H229478   3.990   6.084   7.941 -0.1331  0.8376  0.3909
 2639TIP3   OH229479   3.386   1.635   1.447  0.1157  1.0130 -0.1654
 2639TIP3    H129480   3.424   1.547   1.442  1.8651  1.3218  4.0273
 2639TIP3    H229481   3.460   1.693   1.428 -0.5319  1.6430 -0.8345
 2640TIP3   OH229482   6.156   5.431   0.048  0.0628 -0.4479  0.1170
 2640TIP3    H129483   6.071   5.424   0.092  0.9493 -0.8403  1.8964
 2640TIP3    H229484   6.162   5.353  -0.006 -0.2086 -1.0559  0.9498
 2641TIP3   OH229485   6.255   1.055   1.133  0.2745 -0.1204  0.1731
 2641TIP3    H129486   6.268   1.127   1.071 -0.4355 -1.1817 -1.2810
 2641TIP3    H229487   6.170   1.074   1.174  0.7292  0.5655  0.8212
 2642TIP3   OH229488   2.474   2.004   6.866  0.1078 -0.3645  0.7137
 2642TIP3    H129489   2.403   1.979   6.924  1.1530 -2.0331  1.3239
 2642TIP3    H229490   2.538   1.933   6.873  1.4608  0.6717 -0.4554
 2643TIP3   OH229491   0.723   1.649   7.428 -0.9109 -0.1716  0.0998
 2643TIP3    H129492   0.674   1.616   7.503 -1.7307  0.2896 -0.2127
 2643TIP3    H229493   0.753   1.570   7.382  0.4522 -0.4594  1.4290
 2644TIP3   OH229494   0.208   3.504   8.092 -0.3790  0.4758 -0.6044
 2644TIP3    H129495   0.274   3.477   8.157 -2.7724 -1.1264  1.3688
 2644TIP3    H229496   0.242   3.470   8.009  0.9532 -0.9776  0.4477
 2645TIP3   OH229497   3.810   3.010   1.692 -0.1894 -0.0323  0.2874
 2645TIP3    H129498   3.842   3.004   1.782 -0.9124 -0.4238  0.5206
 2645TIP3    H229499   3.715   3.007   1.699 -0.2457 -0.5893 -0.5290
 2646TIP3   OH229500   1.866   4.251   2.152  0.4890 -0.5458 -0.5871
 2646TIP3    H129501   1.802   4.321   2.139 -1.8940 -2.5136 -0.1158
 2646TIP3    H229502   1.948   4.289   2.120 -0.8232  2.1544 -1.1299
 2647TIP3   OH229503   2.930   1.372   6.602  0.2313  0.1223 -0.0722
 2647TIP3    H129504   2.902   1.463   6.599 -0.5268 -0.0942  0.2001
 2647TIP3    H229505   2.888   1.337   6.681 -0.5298 -0.8029 -0.8694
 2648TIP3   OH229506   2.137   5.691   7.069 -0.2597  0.0403  0.4548
 2648TIP3    H129507   2.163   5.727   7.154 -1.3833  0.9987  0.4254
 2648TIP3    H229508   2.210   5.712   7.011  0.7335 -1.0443  1.2674
 2649TIP3   OH229509   2.887   6.089   1.056 -0.2927  0.5480  0.5986
 2649TIP3    H129510   2.812   6.135   1.017 -1.7297 -1.6944  0.5489
 2649TIP3    H229511   2.856   6.000   1.069  2.3360 -0.4175  0.7893
 2650TIP3   OH229512   2.620   4.906   8.215  0.4949 -0.0359 -0.4901
 2650TIP3    H129513   2.583   4.994   8.218  1.1125  0.2474 -0.9481
 2650TIP3    H229514   2.575   4.864   8.142  0.5223  0.0492 -0.5561
 2651TIP3   OH229515   4.867   5.625   7.667  0.3627  0.6093  0.7292
 2651TIP3    H129516   4.783   5.595   7.632  0.9276 -0.8755  0.5556
 2651TIP3    H229517   4.859   5.720   7.669  0.0136  0.8083 -2.8579
 2652TIP3   OH229518   6.079   0.074   7.014  0.0283  0.5724 -0.1011
 2652TIP3    H129519   6.038   0.023   6.944  2.2415 -1.3410 -0.1373
 2652TIP3    H229520   6.098   0.010   7.082  1.9506  1.5154  0.3249
 2653TIP3   OH229521   2.076   2.193   6.272 -0.1355  0.3861 -0.0615
 2653TIP3    H129522   2.042   2.120   6.219 -2.3615  0.7525  0.8037
 2653TIP3    H229523   2.136   2.151   6.334 -2.1824 -0.9495  1.1333
 2654TIP3   OH229524   6.986   0.365   0.312 -0.0922 -0.2355  0.4617
 2654TIP3    H129525   6.992   0.270   0.315  1.6571 -0.1637  0.2973
 2654TIP3    H229526   6.948   0.389   0.397 -2.0813 -1.1201 -0.1148
 2655TIP3   OH229527   0.747   3.065   6.649  0.1564 -0.0586 -0.1884
 2655TIP3    H129528   0.700   3.140   6.613  0.2767 -0.2619 -0.7813
 2655TIP3    H229529   0.772   3.013   6.572 -1.0152 -1.3567  0.2701
 2656TIP3   OH229530   6.399   5.114   2.349  0.1290  0.0787 -0.0843
 2656TIP3    H129531   6.479   5.068   2.326  0.3427 -0.8760  2.2275
 2656TIP3    H229532   6.381   5.086   2.439 -0.9092  2.9248  0.6880
 2657TIP3   OH229533   5.731   2.723   7.282 -0.8576 -0.1516  0.5752
 2657TIP3    H129534   5.716   2.755   7.371  0.5808 -0.3116  0.9047
 2657TIP3    H229535   5.644   2.704   7.248 -1.4555  0.2608  1.8234
 2658TIP3   OH229536   0.039   6.830   0.308 -0.6355  0.2568  0.0653
 2658TIP3    H129537  -0.044   6.798   0.343 -0.7314  1.0749  0.6241
 2658TIP3    H229538   0.030   6.822   0.213 -1.7380  1.2339  0.0716
 2659TIP3   OH229539   1.362   4.092   0.938  0.3694 -0.1489 -0.1493
 2659TIP3    H129540   1.313   4.030   0.992  0.0789 -1.0763 -1.4115
 2659TIP3    H229541   1.397   4.156   1.000  2.0101 -2.4253  1.4756
 2660TIP3   OH229542   7.000   1.346   7.473 -0.3943 -0.5453 -0.3835
 2660TIP3    H129543   7.073   1.386   7.520 -1.9758  3.1068 -0.7027
 2660TIP3    H229544   6.948   1.304   7.541 -0.1144  0.4388  0.4735
 2661TIP3   OH229545   3.761   6.947   0.668  0.1070 -0.1999  0.1522
 2661TIP3    H129546   3.813   6.912   0.596  3.4825 -0.4275  2.4675
 2661TIP3    H229547   3.702   6.876   0.692 -1.0044 -0.1635 -2.1651
 2662TIP3   OH229548   5.909   1.610   0.517 -0.4599  0.0140  0.6735
 2662TIP3    H129549   5.987   1.567   0.551 -0.7957  0.1488  1.6282
 2662TIP3    H229550   5.919   1.605   0.422  0.6986  0.0182  0.7822
 2663TIP3   OH229551   2.241   1.821   7.069  0.1869  0.3107 -0.6261
 2663TIP3    H129552   2.249   1.762   7.143 -1.3234 -1.1423 -1.5615
 2663TIP3    H229553   2.282   1.902   7.099  1.2119 -0.7855  1.1364
 2664TIP3   OH229554   0.088   6.452   1.790 -0.5897 -0.2205  0.0827
 2664TIP3    H129555   0.157   6.423   1.849  0.1139  0.8601 -0.1765
 2664TIP3    H229556   0.112   6.414   1.705 -0.2943  0.1608 -0.0091
 2665TIP3   OH229557   3.775   4.536   7.504  0.3179 -0.2432  0.2477
 2665TIP3    H129558   3.780   4.481   7.426  1.5234  0.4659 -0.1958
 2665TIP3    H229559   3.853   4.514   7.554  0.0993  0.0795  0.7353
 2666TIP3   OH229560   3.857   6.531   0.675  0.2542 -0.1120  0.2026
 2666TIP3    H129561   3.932   6.578   0.636 -0.6839  1.5393  0.2864
 2666TIP3    H229562   3.893   6.447   0.701  2.0357  0.5387  0.0200
 2667TIP3   OH229563   6.090   0.449   0.824  0.5797 -0.4548 -0.0326
 2667TIP3    H129564   6.074   0.399   0.743  0.3073 -0.1984 -0.1389
 2667TIP3    H229565   6.006   0.445   0.871 -0.3443  2.1232 -1.2503
 2668TIP3   OH229566   3.527   1.871   1.372 -0.0912 -0.0880 -0.0263
 2668TIP3    H129567   3.548   1.922   1.450  1.4767  0.9149 -1.0492
 2668TIP3    H229568   3.440   1.902   1.346 -0.4649 -0.1645  1.0974
 2669TIP3   OH229569   1.326   4.603   6.888 -0.4852 -0.4385  0.0612
 2669TIP3    H129570   1.337   4.579   6.980  2.3919  1.6855  0.4106
 2669TIP3    H229571   1.235   4.581   6.868 -1.5792  0.0711  3.7134
 2670TIP3   OH229572   0.617   2.334   6.900 -0.9833 -0.2929 -0.0075
 2670TIP3    H129573   0.712   2.341   6.897 -0.9261  0.2868  1.8624
 2670TIP3    H229574   0.589   2.344   6.809  0.5066  3.1872 -0.2208
 2671TIP3   OH229575   1.516   6.476   1.692 -0.3541  0.0260 -0.0087
 2671TIP3    H129576   1.469   6.393   1.694  1.7864 -1.2627  1.5745
 2671TIP3    H229577   1.450   6.543   1.713 -2.1511 -1.1909 -1.4691
 2672TIP3   OH229578   5.916   2.507   7.292  0.2978 -0.6518 -0.0556
 2672TIP3    H129579   5.887   2.431   7.343  0.9576 -1.0079 -0.2150
 2672TIP3    H229580   5.843   2.525   7.233 -0.0584 -0.8600  0.3118
 2673TIP3   OH229581   3.130   2.315   7.169 -0.0928  0.4408  0.0351
 2673TIP3    H129582   3.102   2.225   7.154 -0.8430  0.9220 -1.5420
 2673TIP3    H229583   3.132   2.323   7.265 -1.4315 -0.8026  0.1983
 2674TIP3   OH229584   2.153   4.301   0.106  0.5091  0.0661  0.4823
 2674TIP3    H129585   2.165   4.339   0.019  2.3565  2.8069  1.7884
 2674TIP3    H229586   2.106   4.219   0.090  2.9838 -0.8878 -3.3570
 2675TIP3   OH229587   3.256   1.111   1.208 -0.8494 -0.2952  0.4231
 2675TIP3    H129588   3.226   1.185   1.261  2.4513  2.6683 -1.3888
 2675TIP3    H229589   3.345   1.093   1.241  0.4120  0.1188 -2.4700
 2676TIP3   OH229590   0.354   2.383   1.667  0.0514 -0.7368 -0.0324
 2676TIP3    H129591   0.424   2.425   1.717  1.0242  1.0335 -2.6876
 2676TIP3    H229592   0.311   2.455   1.621 -1.8722 -2.0990 -0.4946
 2677TIP3   OH229593   5.253   3.147   1.239  0.6356 -0.2135  0.1884
 2677TIP3    H129594   5.206   3.179   1.317 -0.1883 -0.2912 -0.2612
 2677TIP3    H229595   5.318   3.214   1.221 -1.0016  1.2353 -0.6788
 2678TIP3   OH229596   3.728   0.730   2.114  0.1621  0.1131  0.1839
 2678TIP3    H129597   3.788   0.729   2.189 -0.3384 -0.2772  0.5866
 2678TIP3    H229598   3.652   0.781   2.145 -0.2478 -0.4435  0.1033
 2679TIP3   OH229599   4.994   4.459   0.083  0.3284  0.2857 -0.4802
 2679TIP3    H129600   5.014   4.486   0.173  1.2171 -2.8894  0.3972
 2679TIP3    H229601   5.067   4.491   0.031  3.4692 -3.3832  1.1685
 2680TIP3   OH229602   3.951   3.529   1.537  0.0850 -0.4094  0.0547
 2680TIP3    H129603   3.945   3.469   1.610 -0.9772 -1.5717 -0.9385
 2680TIP3    H229604   3.935   3.615   1.575  2.1297 -0.6413  1.5859
 2681TIP3   OH229605   4.217   5.459   8.369 -0.2416  0.2204  0.6498
 2681TIP3    H129606   4.205   5.529   8.434 -1.7944 -1.6616  2.5329
 2681TIP3    H229607   4.288   5.405   8.405  0.5227  0.4429 -0.4711
 2682TIP3   OH229608   3.365   2.630   1.201 -0.1672 -0.1172 -0.2342
 2682TIP3    H129609   3.322   2.619   1.116  0.0282 -0.7997 -0.2507
 2682TIP3    H229610   3.428   2.558   1.206 -0.6560 -0.4985  0.7863
 2683TIP3   OH229611   0.211   5.745   7.067  0.6607 -0.7924 -0.7250
 2683TIP3    H129612   0.172   5.833   7.064  1.7868 -0.0507  2.3622
 2683TIP3    H229613   0.145   5.688   7.029 -1.6380  0.9681  0.3949
 2684TIP3   OH229614   2.906   1.662   1.534  0.4178  0.2002  0.2469
 2684TIP3    H129615   2.963   1.610   1.590  0.8526  1.2267  0.7707
 2684TIP3    H229616   2.929   1.634   1.445 -0.3253 -1.4825  0.5322
 2685TIP3   OH229617   3.244   6.470   7.714 -0.0025 -0.5760  0.0284
 2685TIP3    H129618   3.203   6.477   7.627  1.4452 -0.2630 -0.6557
 2685TIP3    H229619   3.188   6.523   7.770 -1.4275 -1.4390 -0.5160
 2686TIP3   OH229620   0.979   5.640   6.415  0.9105  0.0578  0.1632
 2686TIP3    H129621   0.919   5.614   6.484 -0.1651  0.8454 -0.4441
 2686TIP3    H229622   0.924   5.648   6.337  1.7399  1.1065 -0.3453
 2687TIP3   OH229623   1.484   5.537   8.195 -0.1448  0.4503  0.2022
 2687TIP3    H129624   1.506   5.602   8.128 -3.2429  1.1397 -0.2867
 2687TIP3    H229625   1.398   5.565   8.229 -0.1015 -1.6088  2.2922
 2688TIP3   OH229626   2.978   0.145   0.949  0.1604 -0.1681  0.2225
 2688TIP3    H129627   3.052   0.113   1.002  1.2194  1.5209 -0.1691
 2688TIP3    H229628   2.977   0.087   0.872  2.0147  0.6463 -0.4667
 2689TIP3   OH229629   2.503   3.162   7.465  0.4598 -0.5042 -0.4855
 2689TIP3    H129630   2.417   3.171   7.506 -0.3761 -0.8003 -2.1012
 2689TIP3    H229631   2.559   3.127   7.534 -1.5815 -3.8718 -0.3495
 2690TIP3   OH229632   6.314   5.760   0.535  0.6744  0.3320  0.2868
 2690TIP3    H129633   6.265   5.718   0.607  0.8972 -0.8610 -0.2309
 2690TIP3    H229634   6.258   5.749   0.458  1.9247 -1.4952 -0.4172
 2691TIP3   OH229635   6.634   4.797   7.890  0.2255 -0.3792  0.0462
 2691TIP3    H129636   6.593   4.746   7.960 -1.0135 -0.2413 -0.5497
 2691TIP3    H229637   6.560   4.834   7.841  1.0725  1.6312  0.1910
 2692TIP3   OH229638   3.032   3.419   7.328  0.3724 -0.2058  0.0428
 2692TIP3    H129639   3.105   3.363   7.355  0.0973 -0.9720 -0.7740
 2692TIP3    H229640   2.961   3.396   7.387  0.3170 -0.5838 -0.1722
 2693TIP3   OH229641   6.218   0.177   0.261  0.1813 -0.3674  0.1466
 2693TIP3    H129642   6.181   0.239   0.198 -0.0799 -0.6115  0.0576
 2693TIP3    H229643   6.189   0.091   0.229  0.6202 -0.5393  0.2165
 2694TIP3   OH229644   0.007   5.248   6.591  0.2911 -0.1322  0.2935
 2694TIP3    H129645  -0.008   5.184   6.521 -1.2857  0.0503  0.4362
 2694TIP3    H229646  -0.072   5.245   6.644  0.4144  1.5443  0.6317
 2695TIP3   OH229647   1.637   1.166   7.240  0.1022  0.2129 -0.1644
 2695TIP3    H129648   1.639   1.205   7.328  0.1157  0.0453 -0.0894
 2695TIP3    H229649   1.716   1.200   7.198 -0.8187  1.7420 -0.7505
 2696TIP3   OH229650   1.528   4.091   8.057  0.6722  0.8985 -0.5242
 2696TIP3    H129651   1.463   4.161   8.047  1.3507  1.9640  1.8361
 2696TIP3    H229652   1.508   4.029   7.986 -2.2580  1.6571 -0.4721
 2697TIP3   OH229653   5.648   4.122   7.261 -0.0317 -0.4190 -0.0378
 2697TIP3    H129654   5.612   4.132   7.349  0.2208  0.2472 -0.0057
 2697TIP3    H229655   5.719   4.185   7.257  0.1896 -0.6963 -0.6025
 2698TIP3   OH229656   1.911   4.408   6.516 -0.3461  0.0180 -0.6606
 2698TIP3    H129657   1.838   4.390   6.457 -0.7835  1.0365 -0.4513
 2698TIP3    H229658   1.987   4.411   6.458 -0.8546  1.6178 -1.3152
 2699TIP3   OH229659   6.919   2.093   0.652  0.3281 -0.5840 -0.1735
 2699TIP3    H129660   6.915   2.134   0.566  0.9962 -1.9544 -0.8661
 2699TIP3    H229661   7.002   2.122   0.689 -0.4003  0.8303  0.4830
 2700TIP3   OH229662   2.436   2.544   0.192  0.2252  0.0791  0.3375
 2700TIP3    H129663   2.507   2.586   0.242 -0.1276  0.1818  0.7572
 2700TIP3    H229664   2.465   2.453   0.184  0.5274  0.1777  0.2811
 2701TIP3   OH229665   5.353   0.779   7.389 -0.0369  0.4450  0.2559
 2701TIP3    H129666   5.327   0.694   7.424 -1.5919 -0.8855 -3.5824
 2701TIP3    H229667   5.443   0.766   7.358  0.1616  0.6062  0.7542
 2702TIP3   OH229668   4.773   4.027   8.152 -0.1871  0.3350  0.1507
 2702TIP3    H129669   4.719   4.091   8.198 -1.8388 -0.9503  0.1218
 2702TIP3    H229670   4.725   4.008   8.071  1.4224  0.7119 -0.9515
 2703TIP3   OH229671   2.546   2.020   1.232  0.2901  0.2578  0.2305
 2703TIP3    H129672   2.635   2.017   1.196  0.5161 -1.9800  0.7979
 2703TIP3    H229673   2.554   2.074   1.311  1.4511 -0.8672  0.9254
 2704TIP3   OH229674   5.383   1.511   2.219  0.3356  0.1902 -0.2082
 2704TIP3    H129675   5.320   1.481   2.285 -0.0558  1.3563 -0.0326
 2704TIP3    H229676   5.447   1.562   2.269  0.7364  0.0356 -0.5636
 2705TIP3   OH229677   0.329   0.904   1.244  0.1208 -0.2366 -0.3511
 2705TIP3    H129678   0.384   0.954   1.305 -0.2997 -1.5742  1.1899
 2705TIP3    H229679   0.392   0.863   1.184  0.5735  0.7261 -0.5560
 2706TIP3   OH229680   6.049   4.273   5.981  0.1992 -0.0269 -0.2549
 2706TIP3    H129681   5.977   4.233   5.933  0.4695 -1.7262  0.6551
 2706TIP3    H229682   6.099   4.198   6.015  0.3954  1.0828  2.0660
 2707TIP3   OH229683   0.198   4.860   0.928  0.0775  0.1063 -0.3769
 2707TIP3    H129684   0.252   4.790   0.965  0.4171 -0.4954 -1.9489
 2707TIP3    H229685   0.116   4.856   0.978  0.9410  0.1013  1.0803
 2708TIP3   OH229686   2.518   2.388   1.247  0.1614 -0.0596  0.2175
 2708TIP3    H129687   2.597   2.337   1.264 -0.6043 -1.4854 -0.3238
 2708TIP3    H229688   2.453   2.351   1.306 -0.6158 -0.2675 -0.7462
 2709TIP3   OH229689   3.147   1.168   8.306  0.1742  0.4877  0.9711
 2709TIP3    H129690   3.200   1.245   8.285  0.2399  0.2669  0.2816
 2709TIP3    H229691   3.162   1.108   8.232 -0.5013  0.1460  1.1030
 2710TIP3   OH229692   5.644   6.558   1.597  0.1714  0.7230 -0.6114
 2710TIP3    H129693   5.718   6.618   1.610  1.6302 -0.1361 -3.9549
 2710TIP3    H229694   5.651   6.495   1.668  0.3447  2.7353  1.2797
 2711TIP3   OH229695   3.942   1.981   8.323 -0.2531 -0.5907 -0.3376
 2711TIP3    H129696   3.960   2.050   8.387  1.5980 -0.3308 -1.0604
 2711TIP3    H229697   3.949   1.899   8.372  0.7161 -0.3763 -0.0942
 2712TIP3   OH229698   2.549   0.005   8.182  0.4597  0.5620 -0.1636
 2712TIP3    H129699   2.521  -0.043   8.104  1.0078 -1.7206  0.9651
 2712TIP3    H229700   2.469   0.016   8.233  0.4106  0.3858 -0.2012
 2713TIP3   OH229701   3.966   2.701   1.363 -0.4564 -0.3601  0.2504
 2713TIP3    H129702   3.957   2.609   1.338 -2.3176 -0.3061  0.5701
 2713TIP3    H229703   4.034   2.701   1.431  3.0489 -0.7935 -2.9429
 2714TIP3   OH229704   0.634   2.491   7.570 -0.0037 -0.3664 -0.0167
 2714TIP3    H129705   0.674   2.481   7.656  0.1840 -0.7053 -0.1395
 2714TIP3    H229706   0.556   2.435   7.573 -1.7325  1.9610  0.9733
 2715TIP3   OH229707   3.017   4.955   0.412 -0.3499 -0.4737  0.1706
 2715TIP3    H129708   3.092   5.005   0.380 -1.5361  0.7501 -0.8409
 2715TIP3    H229709   3.015   4.972   0.506 -0.0600  0.4867  0.0174
 2716TIP3   OH229710   2.328   4.600   8.264 -0.1613  0.3044 -0.4547
 2716TIP3    H129711   2.293   4.581   8.351  1.0084  1.8787  0.3981
 2716TIP3    H229712   2.297   4.688   8.244  0.7519  0.5151 -1.0183
 2717TIP3   OH229713   3.289   2.161   0.320  0.4455 -0.1225  0.0156
 2717TIP3    H129714   3.224   2.180   0.388  0.4567 -1.9700  0.5875
 2717TIP3    H229715   3.310   2.068   0.332  1.9092  0.0083 -1.2720
 2718TIP3   OH229716   3.724   2.907   0.127 -0.1731  0.0407 -0.9592
 2718TIP3    H129717   3.707   2.906   0.221  1.7005 -0.4135 -0.5841
 2718TIP3    H229718   3.686   2.826   0.094 -0.0537 -0.2356 -0.4261
 2719TIP3   OH229719   1.466   2.865   1.357  0.3231 -0.0593 -0.1905
 2719TIP3    H129720   1.458   2.846   1.451  0.8209  0.3138 -0.0691
 2719TIP3    H229721   1.376   2.876   1.327  0.0798 -1.4030 -0.0169
 2720TIP3   OH229722   4.863   2.698   0.415 -0.2484  0.0392  0.1269
 2720TIP3    H129723   4.892   2.766   0.355 -1.6470  1.5118  1.0250
 2720TIP3    H229724   4.935   2.689   0.477  0.8505 -0.8950 -1.2462
 2721TIP3   OH229725   5.040   4.957   6.507  0.3725 -0.0333 -0.0461
 2721TIP3    H129726   5.004   5.043   6.484 -0.5927 -0.3934  0.0819
 2721TIP3    H229727   5.062   4.917   6.423  1.5179  0.6137 -0.0785
 2722TIP3   OH229728   5.287   0.960   2.179  0.3078 -0.8480 -0.3819
 2722TIP3    H129729   5.379   0.986   2.173  0.9949 -2.8700  0.7067
 2722TIP3    H229730   5.286   0.868   2.150 -1.0861 -1.3711  1.1839
 2723TIP3   OH229731   4.214   1.203   6.701  0.3514  0.2261  0.9180
 2723TIP3    H129732   4.186   1.293   6.687 -1.2604 -0.3677 -0.0059
 2723TIP3    H229733   4.264   1.180   6.623 -1.9694 -0.6172 -0.4433
 2724TIP3   OH229734   0.098   1.766   2.080 -0.3331  0.3816  0.3648
 2724TIP3    H129735   0.082   1.712   2.157  0.7385  1.1735  1.1680
 2724TIP3    H229736   0.069   1.712   2.006 -1.0646 -0.5147  1.2842
 2725TIP3   OH229737   5.723   1.796   1.634  0.0172  0.3890  0.8205
 2725TIP3    H129738   5.660   1.848   1.584 -0.0447  1.0950  1.6199
 2725TIP3    H229739   5.669   1.751   1.700  0.2135  0.1313  0.8082
 2726TIP3   OH229740   5.743   0.470   1.479  0.3036 -0.0405 -0.2465
 2726TIP3    H129741   5.696   0.439   1.557 -0.2917 -2.4008 -1.4250
 2726TIP3    H229742   5.715   0.560   1.468 -0.3414  0.0448  1.7211
 2727TIP3   OH229743   6.242   6.565   6.022 -0.2563  0.2209 -0.1565
 2727TIP3    H129744   6.324   6.589   6.065 -0.0728 -0.0970 -0.3225
 2727TIP3    H229745   6.250   6.471   6.006 -1.2609 -0.1063  1.1106
 2728TIP3   OH229746   3.519   4.008   1.914 -0.2261 -0.1753  0.2922
 2728TIP3    H129747   3.518   4.103   1.928 -0.6488  0.2356 -2.1898
 2728TIP3    H229748   3.438   3.977   1.955  1.0090  0.1176  3.2016
 2729TIP3   OH229749   2.893   3.422   2.256 -0.1319 -0.1003 -0.0163
 2729TIP3    H129750   2.877   3.424   2.161 -2.6964  0.4859  0.3381
 2729TIP3    H229751   2.824   3.478   2.293  0.9327 -0.1469  2.1976
 2730TIP3   OH229752   5.089   3.108   7.366 -0.1576  0.1694  0.4875
 2730TIP3    H129753   5.034   3.054   7.309 -1.6882  0.9617  1.1560
 2730TIP3    H229754   5.138   3.164   7.305  0.4754 -1.0362 -0.1487
 2731TIP3   OH229755   2.406   4.512   6.258  0.0138 -0.0633 -0.3526
 2731TIP3    H129756   2.485   4.531   6.308  0.4420 -0.8637 -0.7086
 2731TIP3    H229757   2.434   4.451   6.190 -1.1645 -1.5668  0.4268
 2732TIP3   OH229758   4.454   2.286   7.553 -0.4269  0.5093  0.3364
 2732TIP3    H129759   4.389   2.334   7.502 -1.4711 -1.4181 -0.2318
 2732TIP3    H229760   4.461   2.201   7.509  1.2894  0.0769  1.3508
 2733TIP3   OH229761   5.620   1.411   6.646 -0.1183  0.4563  0.0667
 2733TIP3    H129762   5.564   1.462   6.588  1.2720  2.1722  0.1097
 2733TIP3    H229763   5.618   1.459   6.729  0.6413  0.0165  0.3525
 2734TIP3   OH229764   3.822   3.659   6.636 -0.4935  0.5540  0.2839
 2734TIP3    H129765   3.743   3.612   6.664  0.1969 -0.5380  0.4627
 2734TIP3    H229766   3.799   3.696   6.551 -2.1699  2.7631  1.5827
 2735TIP3   OH229767   3.327   2.725   0.003  0.0161 -0.0976 -0.2284
 2735TIP3    H129768   3.237   2.748  -0.020  0.1738 -0.7363 -1.5801
 2735TIP3    H229769   3.375   2.727  -0.080  0.8049 -1.7388  0.1311
 2736TIP3   OH229770   1.414   6.578   6.848  0.2012 -0.5714  0.2177
 2736TIP3    H129771   1.324   6.612   6.849 -0.1468 -1.2387 -2.5182
 2736TIP3    H229772   1.469   6.657   6.851 -0.5280 -0.0062 -0.7891
 2737TIP3   OH229773   5.827   6.219   2.089  0.1855  0.7067  0.1884
 2737TIP3    H129774   5.893   6.227   2.157  1.2551 -1.6363 -0.4437
 2737TIP3    H229775   5.830   6.302   2.042 -0.3154  2.2243  2.6942
 2738TIP3   OH229776   1.764   4.651   0.686 -0.4617  0.1021  0.6954
 2738TIP3    H129777   1.741   4.729   0.635 -0.3105 -0.6253 -0.5427
 2738TIP3    H229778   1.840   4.678   0.739 -0.6615  0.9037  0.5841
 2739TIP3   OH229779   3.537   5.182   1.010  0.6804 -0.2599 -0.0636
 2739TIP3    H129780   3.519   5.090   0.989  1.5062 -0.0481 -1.8779
 2739TIP3    H229781   3.568   5.220   0.928 -1.1112  2.0661  0.2209
 2740TIP3   OH229782   4.393   2.727   7.952  0.2847  0.6375  0.7934
 2740TIP3    H129783   4.386   2.821   7.970 -0.2135  1.1011 -1.5276
 2740TIP3    H229784   4.335   2.686   8.016  1.2615  1.7910  2.4910
 2741TIP3   OH229785   1.378   1.098   6.819 -0.3745  0.1503 -0.1124
 2741TIP3    H129786   1.356   1.185   6.785  0.5077  0.1754 -0.6721
 2741TIP3    H229787   1.385   1.110   6.914 -0.1165  0.7338 -0.1973
 2742TIP3   OH229788   2.091   6.490   0.760  0.4531  0.5770  0.0046
 2742TIP3    H129789   2.077   6.520   0.850 -2.1713  1.0572 -0.4801
 2742TIP3    H229790   2.056   6.401   0.759  0.5322  0.5474 -0.5365
 2743TIP3   OH229791   3.739   5.703   7.670  0.0248 -0.9204 -0.1330
 2743TIP3    H129792   3.768   5.617   7.640  1.5327 -0.5459  0.1706
 2743TIP3    H229793   3.671   5.684   7.734  0.6670 -1.9135  0.2816
 2744TIP3   OH229794   3.682   0.529   0.591  0.2616  0.7763 -0.5289
 2744TIP3    H129795   3.624   0.464   0.630 -0.3854  1.5161 -0.2315
 2744TIP3    H229796   3.762   0.481   0.571 -0.0565 -0.0177  0.0639
 2745TIP3   OH229797   4.102   6.665   7.081  0.7166 -0.3599 -0.8916
 2745TIP3    H129798   4.173   6.722   7.111  0.8143 -1.3445  0.9427
 2745TIP3    H229799   4.139   6.577   7.083 -0.2562 -0.7882 -0.8624
 2746TIP3   OH229800   6.909   3.672   6.225  0.2771  0.0741 -0.0123
 2746TIP3    H129801   6.916   3.578   6.206 -0.3838 -0.0401  0.2855
 2746TIP3    H229802   6.901   3.713   6.139 -0.3977 -0.2329 -0.1011
 2747TIP3   OH229803   6.341   5.677   6.549 -0.1327  0.0628  0.6492
 2747TIP3    H129804   6.335   5.746   6.483 -1.0692  1.5522  2.2190
 2747TIP3    H229805   6.373   5.601   6.501 -1.1784  0.9564 -1.5998
 2748TIP3   OH229806   5.628   2.757   2.203  0.0212  0.1032  0.4414
 2748TIP3    H129807   5.648   2.826   2.266 -1.3826  1.5848 -0.6324
 2748TIP3    H229808   5.596   2.804   2.126 -1.0339 -1.7573 -0.3282
 2749TIP3   OH229809   6.759   4.141   0.757 -0.2727 -0.2030  0.3359
 2749TIP3    H129810   6.723   4.150   0.669 -1.1774  2.3565  0.8808
 2749TIP3    H229811   6.683   4.140   0.815  0.3517 -0.6464  1.1759
 2750TIP3   OH229812   6.908   2.198   2.009 -0.9726  0.0913  0.1675
 2750TIP3    H129813   6.920   2.140   2.084 -0.3867 -0.4588 -0.3397
 2750TIP3    H229814   6.986   2.184   1.955 -1.8158 -0.2093 -1.0044
 2751TIP3   OH229815   5.625   2.268   0.323  0.7841 -0.1275  0.0612
 2751TIP3    H129816   5.541   2.312   0.309 -1.4238 -3.9120 -0.1965
 2751TIP3    H229817   5.635   2.263   0.418  0.8545  0.5449  0.0905
 2752TIP3   OH229818   1.831   1.763   1.733 -0.0387 -0.5417 -0.0790
 2752TIP3    H129819   1.874   1.848   1.740 -0.4848 -0.3729  0.6938
 2752TIP3    H229820   1.754   1.770   1.789 -0.2058 -1.3797 -0.1906
 2753TIP3   OH229821   0.898   5.888   7.085 -0.1352  0.5602 -0.6126
 2753TIP3    H129822   0.940   5.894   6.999  1.3279  0.1883  0.0450
 2753TIP3    H229823   0.805   5.904   7.067 -0.0899 -0.8990 -2.4619
 2754TIP3   OH229824   5.967   4.917   1.815 -0.2465  0.0873 -0.2555
 2754TIP3    H129825   5.968   4.839   1.871 -0.1611  1.4499  1.7725
 2754TIP3    H229826   5.875   4.941   1.810 -0.6375 -1.6127 -3.1923
 2755TIP3   OH229827   6.569   1.736   7.466 -0.0117 -0.4925 -0.7143
 2755TIP3    H129828   6.661   1.711   7.475 -0.1354 -0.5102  0.6461
 2755TIP3    H229829   6.540   1.753   7.555 -1.4133 -0.7718 -1.0955
 2756TIP3   OH229830   3.381   6.845   8.170  0.5281 -0.1425 -0.0571
 2756TIP3    H129831   3.425   6.905   8.110  0.8118 -0.7009 -0.4236
 2756TIP3    H229832   3.438   6.768   8.173 -0.1182 -0.6388 -0.0711
 2757TIP3   OH229833   4.606   3.579   7.866  0.0196  0.1162 -0.3698
 2757TIP3    H129834   4.631   3.489   7.885 -0.5797  0.1674  0.7103
 2757TIP3    H229835   4.577   3.615   7.949 -1.2141  0.8365 -1.0797
 2758TIP3   OH229836   3.294   1.554   0.459 -0.4622 -0.0169  0.1374
 2758TIP3    H129837   3.291   1.474   0.511  3.8896 -0.6483 -0.2716
 2758TIP3    H229838   3.320   1.525   0.371  1.4948  1.8048  0.0442
 2759TIP3   OH229839   2.511   0.761   6.803 -0.3227 -0.6389  0.1897
 2759TIP3    H129840   2.503   0.677   6.850 -0.9559 -0.7585 -0.1347
 2759TIP3    H229841   2.597   0.756   6.761 -1.0170 -1.8205 -1.1638
 2760TIP3   OH229842   0.551   3.954   0.821  0.1237 -0.2311 -0.4551
 2760TIP3    H129843   0.613   3.983   0.888  1.4784 -1.3170 -1.1819
 2760TIP3    H229844   0.602   3.895   0.766 -1.5798 -1.1584 -1.0978
 2761TIP3   OH229845   5.275   6.424   6.621  0.2934  0.5740 -0.3166
 2761TIP3    H129846   5.363   6.460   6.611  0.9380 -1.2734 -1.7015
 2761TIP3    H229847   5.259   6.375   6.540 -1.8327  0.4629  0.1031
 2762TIP3   OH229848   4.831   1.825   0.862  0.3713  0.3195  0.4261
 2762TIP3    H129849   4.817   1.810   0.768  0.2278 -0.7229  0.5966
 2762TIP3    H229850   4.915   1.870   0.867  0.6887 -0.1866 -0.1740
 2763TIP3   OH229851   2.700   5.644   8.234  0.0076 -0.0716  0.4188
 2763TIP3    H129852   2.678   5.702   8.160 -0.1625 -0.5192  0.1110
 2763TIP3    H229853   2.670   5.691   8.311  0.1135  0.3714  0.1927
 2764TIP3   OH229854   1.368   3.990   7.267 -0.5313  0.1452 -0.2549
 2764TIP3    H129855   1.361   4.019   7.358 -1.6212  0.0658 -0.3035
 2764TIP3    H229856   1.303   3.921   7.259 -0.7871  0.4884 -1.2207
 2765TIP3   OH229857   0.577   3.260   6.854 -0.2412  0.0085 -0.0457
 2765TIP3    H129858   0.637   3.334   6.849 -1.4071  0.9661 -0.4054
 2765TIP3    H229859   0.573   3.227   6.764  0.1908 -0.4260  0.0924
 2766TIP3   OH229860   4.825   0.303   7.517  0.4413 -0.0678 -0.1615
 2766TIP3    H129861   4.815   0.343   7.430  2.3966  0.7349 -0.0729
 2766TIP3    H229862   4.735   0.290   7.548 -0.2858  0.6424 -1.8452
 2767TIP3   OH229863   1.426   2.749   7.880  0.1076  0.2943  0.1083
 2767TIP3    H129864   1.445   2.684   7.813 -3.2410  1.1002 -1.8794
 2767TIP3    H229865   1.357   2.709   7.933  0.7308  0.7833  1.3280
 2768TIP3   OH229866   2.650   0.569   7.025 -0.0674  0.2599 -0.1231
 2768TIP3    H129867   2.740   0.571   6.995 -0.0506 -0.9684 -0.2221
 2768TIP3    H229868   2.611   0.494   6.980 -0.9865  0.4496  0.3205
 2769TIP3   OH229869   1.717   3.001   0.663  0.4910 -0.1197  0.1652
 2769TIP3    H129870   1.767   2.932   0.620 -1.1488 -1.2996  0.1016
 2769TIP3    H229871   1.779   3.038   0.726  1.9879 -0.3490 -1.1051
 2770TIP3   OH229872   0.718   6.597   7.279 -0.0881 -0.7920 -0.0374
 2770TIP3    H129873   0.757   6.522   7.234  0.5470 -0.7649  0.4570
 2770TIP3    H229874   0.790   6.635   7.329 -0.0368  1.0439 -1.4132
 2771TIP3   OH229875   0.963   1.776   8.070 -0.4669  0.5092  0.0352
 2771TIP3    H129876   0.994   1.807   7.984 -1.8041  1.2633 -0.2099
 2771TIP3    H229877   0.871   1.754   8.055 -0.5015 -0.1077  1.1068
 2772TIP3   OH229878   2.150   6.699   7.802  0.0591 -0.3776  0.4880
 2772TIP3    H129879   2.084   6.768   7.812 -0.6768 -0.5369 -2.3233
 2772TIP3    H229880   2.223   6.727   7.857 -1.2725  1.1953  1.5614
 2773TIP3   OH229881   1.151   6.934   0.260  0.0922 -0.1630  0.3034
 2773TIP3    H129882   1.119   6.974   0.341  1.3765 -1.2236  1.3681
 2773TIP3    H229883   1.093   6.860   0.245  0.2880 -0.3858  0.6453
 2774TIP3   OH229884   0.161   6.382   0.584 -0.2143 -0.5472  0.3993
 2774TIP3    H129885   0.241   6.355   0.629  0.4150 -0.0974 -0.4145
 2774TIP3    H229886   0.137   6.464   0.626  0.4150 -0.0893 -0.1105
 2775TIP3   OH229887   3.822   5.759   7.299  0.2350  0.3108  0.0791
 2775TIP3    H129888   3.769   5.701   7.243  0.0583 -0.9956  1.5254
 2775TIP3    H229889   3.759   5.798   7.359  0.4514  1.5323 -0.4677
 2776TIP3   OH229890   1.410   5.217   1.006 -0.4713  0.4735  0.7475
 2776TIP3    H129891   1.504   5.216   0.990  0.3660  0.3548  4.6775
 2776TIP3    H229892   1.385   5.125   1.006 -0.2316  0.4091  1.4011
 2777TIP3   OH229893   2.679   0.382   0.740  0.3183  0.3557 -0.7431
 2777TIP3    H129894   2.591   0.418   0.738  0.3085  0.3611 -0.3415
 2777TIP3    H229895   2.687   0.332   0.659 -0.7152 -1.1987  0.0703
 2778TIP3   OH229896   4.132   0.359   0.306 -0.5976  0.2515  0.1795
 2778TIP3    H129897   4.157   0.272   0.336  0.0032  0.8416  1.4658
 2778TIP3    H229898   4.172   0.419   0.369 -0.3008  1.5071 -1.1471
 2779TIP3   OH229899   2.454   2.272   7.732 -0.4413  0.3501 -0.0417
 2779TIP3    H129900   2.503   2.352   7.718 -2.1750  1.5233  0.2499
 2779TIP3    H229901   2.378   2.279   7.673  0.1536 -1.8391 -1.2111
 2780TIP3   OH229902   4.652   3.582   0.945 -0.5628  0.3291  0.0566
 2780TIP3    H129903   4.724   3.621   0.994  1.2726 -3.0154  0.2714
 2780TIP3    H229904   4.594   3.545   1.011  0.8541 -2.3984 -0.1105
 2781TIP3   OH229905   1.971   0.374   0.697 -0.0803  0.2186 -0.2468
 2781TIP3    H129906   2.055   0.417   0.682 -0.4577  0.2122 -2.6341
 2781TIP3    H229907   1.994   0.285   0.723  0.6478  1.0897  2.5524
 2782TIP3   OH229908   0.890   1.015   1.134 -0.1131  0.2375 -0.0828
 2782TIP3    H129909   0.920   1.050   1.218  1.0522  1.2972 -0.9176
 2782TIP3    H229910   0.950   0.943   1.114  1.6663  1.9917 -1.4734
 2783TIP3   OH229911   5.567   1.306   1.448  0.4284 -0.5411 -0.8458
 2783TIP3    H129912   5.482   1.275   1.477 -0.0279 -0.6080 -2.2135
 2783TIP3    H229913   5.548   1.371   1.380  1.4364  0.6326 -0.0642
 2784TIP3   OH229914   1.458   2.273   0.807  0.4420 -0.7063 -0.0135
 2784TIP3    H129915   1.398   2.242   0.739  0.4931 -0.1415 -0.3209
 2784TIP3    H229916   1.429   2.229   0.886 -0.9569  0.2346  0.0271
 2785TIP3   OH229917   1.404   6.270   7.316 -0.4647  0.6651 -0.4481
 2785TIP3    H129918   1.415   6.293   7.408 -0.4052 -0.2454 -0.2129
 2785TIP3    H229919   1.372   6.350   7.274 -1.8696  0.7093  0.6279
 2786TIP3   OH229920   3.445   4.194   8.367 -1.1590  0.2851  0.4163
 2786TIP3    H129921   3.383   4.123   8.381 -0.8167 -0.0067  0.4480
 2786TIP3    H229922   3.395   4.273   8.387 -1.5388  0.0568  0.3856
 2787TIP3   OH229923   6.912   2.622   0.018 -0.0083 -0.2342 -0.1693
 2787TIP3    H129924   6.865   2.635   0.100  2.1414  0.0603  1.0899
 2787TIP3    H229925   6.884   2.695  -0.037 -1.2416 -0.2532  0.3908
 2788TIP3   OH229926   6.372   4.392   1.963  0.7371 -0.2087  0.2077
 2788TIP3    H129927   6.418   4.323   2.012 -1.1554 -2.2154 -0.6899
 2788TIP3    H229928   6.418   4.472   1.987  3.3625 -1.8000  0.9590
 2789TIP3   OH229929   3.062   2.820   1.580  0.1186  0.7604  0.3333
 2789TIP3    H129930   3.152   2.842   1.606  0.4566 -0.1668  0.0142
 2789TIP3    H229931   3.071   2.790   1.489 -0.9266  3.2749 -0.6965
 2790TIP3   OH229932   1.316   6.637   1.786 -0.1230 -0.4067 -0.1714
 2790TIP3    H129933   1.384   6.676   1.840 -0.6130 -0.4163  0.4556
 2790TIP3    H229934   1.280   6.565   1.838 -2.8571  1.5995  0.9540
 2791TIP3   OH229935   1.116   5.130   0.880 -0.2124  0.1255 -0.1500
 2791TIP3    H129936   1.171   5.158   0.808  0.5779  1.2374  0.8497
 2791TIP3    H229937   1.096   5.210   0.928 -0.3927 -0.6312  1.0865
 2792TIP3   OH229938   5.800   3.918   7.161  0.8841 -0.2600  0.8259
 2792TIP3    H129939   5.758   3.986   7.214  2.1302  2.2077 -1.1492
 2792TIP3    H229940   5.726   3.866   7.128 -0.3575  1.5586  0.5699
 2793TIP3   OH229941   0.583   4.166   2.138  0.8000 -0.2656  0.6115
 2793TIP3    H129942   0.595   4.072   2.128  1.7085 -0.1129  0.1452
 2793TIP3    H229943   0.671   4.202   2.129  0.3928  0.6728  0.2779
 2794TIP3   OH229944   1.850   2.674   1.231  0.3855  0.2709  0.1988
 2794TIP3    H129945   1.794   2.645   1.303  0.4991  2.0885  1.0887
 2794TIP3    H229946   1.791   2.681   1.156 -0.2796  0.6925  0.7451
 2795TIP3   OH229947   1.441   3.591   0.009 -0.0281  0.3430 -0.0799
 2795TIP3    H129948   1.514   3.570  -0.049 -1.3515  0.5762 -1.9338
 2795TIP3    H229949   1.422   3.509   0.054  2.1605  0.5921  1.4661
 2796TIP3   OH229950   4.418   3.213   7.450 -0.2796 -0.2977  0.1603
 2796TIP3    H129951   4.460   3.140   7.496 -1.2458 -0.3754  0.9603
 2796TIP3    H229952   4.324   3.195   7.457 -0.4727 -0.0425 -1.4487
 2797TIP3   OH229953   5.501   3.631   8.076 -0.4026 -0.4719 -0.1133
 2797TIP3    H129954   5.466   3.655   8.162  1.1938  1.5759  0.0505
 2797TIP3    H229955   5.444   3.561   8.045 -1.5378 -0.6734  2.2326
 2798TIP3   OH229956   2.036   2.870   1.186 -0.4273  0.6883 -0.3174
 2798TIP3    H129957   1.976   2.798   1.204  0.8989 -0.8180 -1.7082
 2798TIP3    H229958   2.013   2.936   1.252 -2.2380 -0.6248  0.4629
 2799TIP3   OH229959   3.710   1.337   6.684 -0.1199  0.3846  0.9271
 2799TIP3    H129960   3.759   1.290   6.617 -1.2382 -1.0640  1.0744
 2799TIP3    H229961   3.771   1.403   6.716  0.6868  0.6194 -0.9802
 2800TIP3   OH229962   0.025   3.678   1.023  0.0842 -0.1071  0.0559
 2800TIP3    H129963   0.117   3.652   1.028  0.2342  0.3576 -0.2352
 2800TIP3    H229964   0.025   3.757   0.970 -0.3863  0.4214  0.8269
 2801TIP3   OH229965   5.594   6.846   0.320 -0.3271  0.0586 -0.3361
 2801TIP3    H129966   5.665   6.823   0.261 -0.2294  0.1988 -0.2739
 2801TIP3    H229967   5.515   6.839   0.266 -0.0491  2.6307 -1.2473
 2802TIP3   OH229968   6.831   4.952   0.327 -0.3800  0.0955 -0.1494
 2802TIP3    H129969   6.772   4.929   0.256 -0.8796 -0.9048  0.5540
 2802TIP3    H229970   6.835   4.873   0.381  1.3330  0.2503  0.0143
 2803TIP3   OH229971   4.651   2.280   7.790 -0.8731 -0.6388  0.1808
 2803TIP3    H129972   4.594   2.307   7.718 -2.6035 -2.3362  0.8142
 2803TIP3    H229973   4.592   2.271   7.865  1.0687  2.6076  2.3705
 2804TIP3   OH229974   0.761   4.570   0.073  0.2494 -0.7533  0.1675
 2804TIP3    H129975   0.789   4.661   0.059  2.0708 -0.5776  3.6858
 2804TIP3    H229976   0.691   4.577   0.138  1.1932 -1.8340  1.3581
 2805TIP3   OH229977   4.314   6.073   6.755 -0.0255  0.2170 -0.1690
 2805TIP3    H129978   4.247   6.018   6.795  0.1049 -1.0191 -1.5603
 2805TIP3    H229979   4.270   6.117   6.683  1.0050 -2.1510 -2.4018
 2806TIP3   OH229980   2.600   5.631   7.153  0.2278  0.7700 -0.6435
 2806TIP3    H129981   2.667   5.562   7.152 -0.7703 -0.3756  1.7385
 2806TIP3    H229982   2.641   5.704   7.200  0.5891  1.0143 -1.3274
 2807TIP3   OH229983   1.012   1.877   1.930 -0.1779  0.1881  0.6335
 2807TIP3    H129984   1.015   1.973   1.935  0.9184  0.1393  1.0944
 2807TIP3    H229985   1.100   1.851   1.903 -0.0051 -0.7655  2.0054
 2808TIP3   OH229986   4.488   2.948   0.862  0.7702 -0.4414  0.3042
 2808TIP3    H129987   4.525   3.003   0.793  1.4476 -0.8440  0.3398
 2808TIP3    H229988   4.412   2.998   0.894 -1.2945 -1.4873 -2.6059
 2809TIP3   OH229989   1.733   6.579   8.079 -0.4468 -0.3873 -0.0683
 2809TIP3    H129990   1.695   6.602   8.164  0.1417 -0.6329  0.2670
 2809TIP3    H229991   1.817   6.626   8.077 -0.9929  0.5771 -1.0248
 2810TIP3   OH229992   2.439   2.826   0.525  0.3287 -0.1927 -0.1345
 2810TIP3    H129993   2.426   2.879   0.603  1.0998  0.2553 -0.2974
 2810TIP3    H229994   2.428   2.887   0.452  0.4963 -0.4149 -0.3486
 2811TIP3   OH229995   0.558   2.102   0.703 -0.2035 -0.8303  0.4616
 2811TIP3    H129996   0.537   2.058   0.620 -1.9068  2.4541 -1.0463
 2811TIP3    H229997   0.475   2.140   0.731  0.6398 -0.7458  3.0447
 2812TIP3   OH229998   3.672   6.882   6.614  0.4178  0.4450  0.2894
 2812TIP3    H129999   3.654   6.931   6.533 -1.5563  0.2656  0.5575
 2812TIP3    H230000   3.712   6.946   6.672  2.0110  0.5412 -0.8522
 2813TIP3   OH230001   0.512   1.443   6.563 -0.4669  0.4340 -0.7655
 2813TIP3    H130002   0.468   1.528   6.573 -0.0362  0.6636 -0.8049
 2813TIP3    H230003   0.605   1.462   6.578 -0.2032  0.2088 -2.0011
 2814TIP3   OH230004   5.177   0.445   0.079  0.4988 -0.3207  0.0112
 2814TIP3    H130005   5.247   0.490   0.126 -1.2785  1.8023  0.7571
 2814TIP3    H230006   5.176   0.357   0.117 -0.3091  1.0223  3.4812
 2815TIP3   OH230007   4.322   4.882   1.733  0.0205 -0.3266 -0.4192
 2815TIP3    H130008   4.239   4.836   1.744  0.0491 -0.9553 -2.3786
 2815TIP3    H230009   4.332   4.933   1.813 -2.5669  0.2636 -0.3887
 2816TIP3   OH230010   3.469   5.454   1.225  0.6573  0.1430  0.2579
 2816TIP3    H130011   3.423   5.373   1.202 -0.5542  1.2614 -1.4985
 2816TIP3    H230012   3.527   5.472   1.151  2.6099 -0.2332  1.6129
 2817TIP3   OH230013   1.397   2.006   1.694 -0.2812 -0.2809 -0.1743
 2817TIP3    H130014   1.351   2.088   1.711  0.9946  0.3165  0.5453
 2817TIP3    H230015   1.328   1.939   1.694 -1.1471  0.5846  0.7614
 2818TIP3   OH230016   0.788   2.780   6.136 -0.5196 -0.0259 -0.1004
 2818TIP3    H130017   0.878   2.812   6.139 -0.9616  1.2778 -0.2668
 2818TIP3    H230018   0.738   2.853   6.100 -1.7612 -0.4666  0.6709
 2819TIP3   OH230019   6.255   2.173   8.075 -0.2184 -0.5005 -0.2547
 2819TIP3    H130020   6.224   2.082   8.073  0.6592 -0.8486  0.7848
 2819TIP3    H230021   6.350   2.166   8.061  0.2647 -0.0119  2.2568
 2820TIP3   OH230022   5.259   3.127   7.585 -0.3580 -0.7695  0.5966
 2820TIP3    H130023   5.345   3.100   7.552  0.1649  0.1284  1.1804
 2820TIP3    H230024   5.198   3.101   7.516  0.6781  0.9195 -1.0513
 2821TIP3   OH230025   4.296   3.559   6.599 -0.0586 -1.0345 -0.0609
 2821TIP3    H130026   4.202   3.538   6.600 -0.3378  0.1272 -0.1859
 2821TIP3    H230027   4.324   3.546   6.690 -0.6657 -0.0736  0.2791
 2822TIP3   OH230028   0.141   0.437   7.933 -0.0673  0.1373 -0.3040
 2822TIP3    H130029   0.166   0.453   7.842 -0.3082  0.8012 -0.2588
 2822TIP3    H230030   0.214   0.388   7.970 -0.4853 -1.1861 -1.1752
 2823TIP3   OH230031   2.154   5.114   0.082  0.2352 -0.1128  0.0164
 2823TIP3    H130032   2.091   5.058   0.128 -0.5076  0.1630 -0.6309
 2823TIP3    H230033   2.103   5.192   0.060  0.7903  0.0835 -0.5806
 2824TIP3   OH230034   6.297   1.749   8.323 -0.8419 -0.3062 -0.6115
 2824TIP3    H130035   6.317   1.729   8.415  0.8593  0.7611 -0.7084
 2824TIP3    H230036   6.207   1.780   8.324 -1.0370 -0.8417  0.6046
 2825TIP3   OH230037   5.858   5.448   7.592 -0.3951  0.1023  0.2761
 2825TIP3    H130038   5.859   5.450   7.496  2.0172  1.6897  0.2587
 2825TIP3    H230039   5.940   5.404   7.616 -0.3959  0.7600  1.5886
 2826TIP3   OH230040   5.097   4.691   6.877 -0.0472 -0.0701  0.5081
 2826TIP3    H130041   5.157   4.707   6.804 -0.3086  0.7581  0.4667
 2826TIP3    H230042   5.115   4.762   6.939  0.0568 -0.6696  1.1840
 2827TIP3   OH230043   5.980   4.478   6.263  0.1699  0.2704  0.0042
 2827TIP3    H130044   6.047   4.473   6.194 -0.2589 -0.8299 -0.3589
 2827TIP3    H230045   5.976   4.389   6.298 -1.6176  0.1287 -0.4848
 2828TIP3   OH230046   4.038   0.888   7.415 -0.0248 -0.1011 -0.1392
 2828TIP3    H130047   4.107   0.853   7.359  0.2421 -0.3610  0.3449
 2828TIP3    H230048   4.085   0.934   7.485 -0.3348 -0.4040  0.2732
 2829TIP3   OH230049   1.831   2.744   7.290  0.5735  0.2792 -0.1735
 2829TIP3    H130050   1.899   2.780   7.347  0.6856 -0.0641 -0.0875
 2829TIP3    H230051   1.864   2.757   7.201  1.8315 -1.9403 -0.0948
 2830TIP3   OH230052   3.573   0.237   6.685  0.9378 -0.1766 -0.8127
 2830TIP3    H130053   3.509   0.308   6.686 -0.1599 -1.1321 -1.1588
 2830TIP3    H230054   3.575   0.208   6.594  0.7442 -1.1429 -0.5195
 2831TIP3   OH230055   4.818   5.046   0.897 -0.2979  0.3429  0.1614
 2831TIP3    H130056   4.891   4.989   0.921 -0.8949  0.0282  1.3323
 2831TIP3    H230057   4.853   5.103   0.829  1.5233  1.2485  1.7515
 2832TIP3   OH230058   2.217   4.916   1.087 -0.1228 -0.2791 -0.0795
 2832TIP3    H130059   2.232   4.912   1.181  0.1321  0.5369 -0.0845
 2832TIP3    H230060   2.123   4.935   1.078 -0.1283 -0.2686  0.0028
 2833TIP3   OH230061   5.050   0.612   0.770  0.0607  0.5051  0.0792
 2833TIP3    H130062   5.042   0.518   0.752  0.2432  0.6902 -1.0127
 2833TIP3    H230063   4.968   0.649   0.739  0.1623  0.7722  0.1318
 2834TIP3   OH230064   5.545   1.685   6.186  0.5903  0.4538 -0.0942
 2834TIP3    H130065   5.461   1.697   6.141  1.2481  0.3990 -1.3641
 2834TIP3    H230066   5.605   1.746   6.142  2.1632 -2.1237 -1.7422
 2835TIP3   OH230067   4.719   4.356   0.104 -0.5550  0.0835 -0.0299
 2835TIP3    H130068   4.812   4.337   0.118 -0.4891 -0.5305 -1.1304
 2835TIP3    H230069   4.678   4.339   0.189 -0.0510 -2.3303 -0.1784
 2836TIP3   OH230070   5.818   6.730   0.793 -0.0044 -0.0791  0.0981
 2836TIP3    H130071   5.751   6.707   0.728 -0.4816 -0.5984  0.7612
 2836TIP3    H230072   5.894   6.757   0.740 -0.2401 -0.8904 -0.6921
 2837TIP3   OH230073   6.321   6.181   7.210 -0.3014 -0.1924 -0.1350
 2837TIP3    H130074   6.336   6.128   7.288  0.2414  0.5992  0.3198
 2837TIP3    H230075   6.357   6.130   7.138  0.7124 -0.2039  0.3720
 2838TIP3   OH230076   5.403   6.019   7.108  0.2774  0.3410 -0.3568
 2838TIP3    H130077   5.371   5.959   7.041  1.8117 -1.1115  0.1307
 2838TIP3    H230078   5.445   5.963   7.173  0.3513  1.8383  0.9623
 2839TIP3   OH230079   2.686   0.321   6.003 -0.3495 -0.3032 -0.5489
 2839TIP3    H130080   2.770   0.280   6.024  0.1252  0.4197 -0.9765
 2839TIP3    H230081   2.710   0.407   5.969 -1.2960  0.1084 -0.1937
 2840TIP3   OH230082   3.183   2.553   6.001 -0.1699 -0.2054 -0.1746
 2840TIP3    H130083   3.181   2.492   5.927 -1.5318  0.9491 -1.1382
 2840TIP3    H230084   3.105   2.607   5.990  0.2109  0.7497  1.4800
 2841TIP3   OH230085   3.472   0.350   1.115  0.1393  0.0715  0.4918
 2841TIP3    H130086   3.491   0.393   1.032  0.1747  1.1354  1.0217
 2841TIP3    H230087   3.532   0.277   1.120 -0.6934 -0.7528 -0.9677
 2842TIP3   OH230088   3.720   6.159   6.204  0.2800 -0.0142  0.0099
 2842TIP3    H130089   3.774   6.228   6.242 -0.7158  0.5847  0.3557
 2842TIP3    H230090   3.649   6.205   6.160 -0.1745 -0.8123 -0.1087
 2843TIP3   OH230091   0.140   0.748   2.150 -0.5749  0.4965 -1.2317
 2843TIP3    H130092   0.064   0.719   2.201 -0.7191  0.4005 -1.4999
 2843TIP3    H230093   0.214   0.738   2.209 -0.5635 -0.7731 -1.4391
 2844TIP3   OH230094   3.732   0.244   1.334  0.1731 -0.1782 -0.1469
 2844TIP3    H130095   3.668   0.188   1.377  0.2040 -0.6185 -0.6576
 2844TIP3    H230096   3.691   0.331   1.333 -0.1118 -0.3064  0.1538
 2845TIP3   OH230097   0.465   4.843   7.701 -0.2314  0.5140 -0.0421
 2845TIP3    H130098   0.396   4.877   7.644 -0.3201  0.3212 -0.0510
 2845TIP3    H230099   0.469   4.905   7.774 -1.9785 -0.6772  1.1340
 2846TIP3   OH230100   6.440   1.639   1.239 -0.4370  0.0714  0.4242
 2846TIP3    H130101   6.517   1.608   1.286  0.3518  1.3516  0.0274
 2846TIP3    H230102   6.432   1.580   1.164  0.7957  0.5432 -0.1022
 2847TIP3   OH230103   5.171   6.807   0.232  0.0595 -0.2488 -0.1650
 2847TIP3    H130104   5.146   6.769   0.148 -0.4130 -0.6775  0.1654
 2847TIP3    H230105   5.165   6.902   0.219  0.5928 -0.2993 -0.7946
 2848TIP3   OH230106   4.221   0.858   7.063  0.0240 -0.2123 -0.8394
 2848TIP3    H130107   4.180   0.779   7.099  4.2214 -1.4625  1.9103
 2848TIP3    H230108   4.229   0.840   6.969 -3.9278 -0.5105 -1.2618
 2849TIP3   OH230109   3.369   2.970   6.870 -0.1475 -0.7672 -0.0157
 2849TIP3    H130110   3.450   2.982   6.819  1.0326 -1.7354  1.5260
 2849TIP3    H230111   3.337   2.884   6.843  0.6150 -1.3935  0.9694
 2850TIP3   OH230112   6.105   0.583   7.411 -0.6157  0.2877  0.4413
 2850TIP3    H130113   6.040   0.625   7.467 -0.1358  1.8881 -0.1473
 2850TIP3    H230114   6.055   0.553   7.335 -1.0554 -0.7758  1.1197
 2851TIP3   OH230115   1.016   6.706   0.179  0.1428 -0.0891 -0.2339
 2851TIP3    H130116   1.083   6.641   0.157  0.0293  0.1429 -1.3500
 2851TIP3    H230117   0.957   6.660   0.238  0.3998 -0.8179 -0.5270
 2852TIP3   OH230118   3.019   4.603   1.605  0.1797  0.1408  0.3343
 2852TIP3    H130119   3.088   4.618   1.540  1.5424  0.5655  1.8132
 2852TIP3    H230120   3.025   4.509   1.624  1.6956  0.4792  1.8171
 2853TIP3   OH230121   4.994   5.794   8.146  0.0370  0.3918  0.5470
 2853TIP3    H130122   4.938   5.766   8.218 -0.0781 -0.0144  0.3069
 2853TIP3    H230123   5.062   5.726   8.141  1.2025  1.4380  1.5385
 2854TIP3   OH230124   2.805   5.018   7.401 -0.5282 -0.4537  1.0534
 2854TIP3    H130125   2.736   4.961   7.368  0.9316 -1.5475 -0.2290
 2854TIP3    H230126   2.771   5.050   7.485 -2.5759 -0.9356  0.4588
 2855TIP3   OH230127   6.171   0.319   7.008 -0.2074 -0.1640 -0.0235
 2855TIP3    H130128   6.154   0.226   6.991  0.2338 -0.4626  1.0969
 2855TIP3    H230129   6.110   0.341   7.078  1.1708 -0.1839  1.2188
 2856TIP3   OH230130   5.982   6.412   1.537 -0.6515  0.0861 -0.2491
 2856TIP3    H130131   5.917   6.350   1.571  0.0576  0.0963  1.1789
 2856TIP3    H230132   6.030   6.362   1.471 -0.8279 -0.5277  0.0774
 2857TIP3   OH230133   0.749   6.284   6.405  0.5514 -0.1902  0.0378
 2857TIP3    H130134   0.797   6.248   6.331  0.3196  2.6802 -1.6331
 2857TIP3    H230135   0.814   6.337   6.452  0.4452 -1.1977  1.4063
 2858TIP3   OH230136   2.173   3.260   0.735  0.4427 -0.3048 -0.3818
 2858TIP3    H130137   2.262   3.288   0.756  0.4854 -1.6838  1.5784
 2858TIP3    H230138   2.121   3.340   0.741  1.4763  0.4545 -1.2134
 2859TIP3   OH230139   6.758   3.144   8.333 -0.1320  0.0271  0.4781
 2859TIP3    H130140   6.759   3.237   8.353  1.3370  0.0085  0.6390
 2859TIP3    H230141   6.788   3.138   8.243  0.4747 -0.3249  0.6979
 2860TIP3   OH230142   3.920   6.069   6.874 -0.0161  0.3151 -0.0374
 2860TIP3    H130143   3.931   6.164   6.886  0.9062  0.2413 -0.1837
 2860TIP3    H230144   3.866   6.060   6.796  1.1278  0.7211 -0.9098
 2861TIP3   OH230145   1.264   5.750   1.438 -0.0420  0.3650  0.1185
 2861TIP3    H130146   1.302   5.833   1.409  0.9841  0.3828  1.4456
 2861TIP3    H230147   1.275   5.750   1.533  0.1880 -1.3925  0.1266
 2862TIP3   OH230148   0.354   1.412   0.741 -0.6182 -0.2886 -0.4843
 2862TIP3    H130149   0.390   1.328   0.770  2.2882  1.1130  0.3399
 2862TIP3    H230150   0.357   1.407   0.645  0.2048 -0.8896 -0.4419
 2863TIP3   OH230151   2.613   6.656   2.207 -0.1543  0.3411  0.4458
 2863TIP3    H130152   2.524   6.638   2.176 -0.6719  0.0245  2.0402
 2863TIP3    H230153   2.607   6.742   2.249 -0.6374 -1.1851  3.7714
 2864TIP3   OH230154   0.432   4.375   7.067  0.2466  0.2580  0.2797
 2864TIP3    H130155   0.358   4.418   7.024  0.0490  0.9755  1.3138
 2864TIP3    H230156   0.401   4.355   7.155  0.0074 -2.8775 -0.3925
 2865TIP3   OH230157   5.326   6.514   0.138 -0.0148 -0.1111  0.2033
 2865TIP3    H130158   5.375   6.512   0.220  0.4155 -1.3584 -0.0651
 2865TIP3    H230159   5.375   6.456   0.079 -0.8172  0.0480 -0.6465
 2866TIP3   OH230160   5.561   3.298   7.065  0.5773 -0.3508 -0.4341
 2866TIP3    H130161   5.632   3.247   7.026  1.0907  0.0369 -0.0098
 2866TIP3    H230162   5.517   3.237   7.124  1.9881  0.0320  1.0651
 2867TIP3   OH230163   2.484   1.730   2.145 -0.0552  0.7656 -0.3041
 2867TIP3    H130164   2.438   1.798   2.094  1.0226  1.6027 -0.2033
 2867TIP3    H230165   2.439   1.649   2.122 -2.5437  1.6902  0.9124
 2868TIP3   OH230166   7.017   0.440   6.248  0.1111 -0.3615  0.1376
 2868TIP3    H130167   7.046   0.400   6.167  1.0879 -0.0748  0.3297
 2868TIP3    H230168   6.932   0.480   6.227 -0.9388 -2.5602 -0.0340
 2869TIP3   OH230169   2.687   0.172   7.489  0.3955  0.5238  0.8514
 2869TIP3    H130170   2.591   0.180   7.487  0.3327  0.0855  1.6145
 2869TIP3    H230171   2.703   0.079   7.501  0.9726  0.3007 -1.3099
 2870TIP3   OH230172   0.864   5.259   8.043 -0.5159 -0.9776 -0.3256
 2870TIP3    H130173   0.943   5.298   8.080 -1.6578  2.4020 -1.1226
 2870TIP3    H230174   0.793   5.289   8.099 -1.3703 -3.9784  0.3932
 2871TIP3   OH230175   0.297   2.061   1.182 -0.6348  0.5670 -0.0284
 2871TIP3    H130176   0.369   2.052   1.119  0.2341  0.6283  0.9404
 2871TIP3    H230177   0.315   1.995   1.249 -0.0680  2.2831  1.5580
 2872TIP3   OH230178   4.244   4.797   1.302  0.2765  0.2367  0.3352
 2872TIP3    H130179   4.320   4.808   1.246 -0.1321  5.3561  0.3823
 2872TIP3    H230180   4.274   4.821   1.389 -0.7679 -0.7037  0.9919
 2873TIP3   OH230181   6.055   4.137   1.032  0.1908 -0.2228 -0.5180
 2873TIP3    H130182   5.982   4.077   1.051 -1.2915  0.0679 -4.4987
 2873TIP3    H230183   6.020   4.224   1.052  0.4939 -0.2709  0.2609
 2874TIP3   OH230184   4.123   5.917   0.511  0.3930 -0.4531  0.1958
 2874TIP3    H130185   4.189   5.871   0.458  1.5459  0.3627  0.8781
 2874TIP3    H230186   4.041   5.872   0.491  1.2651 -1.9798 -0.1273
 2875TIP3   OH230187   1.431   2.838   7.554 -0.5896 -0.3279 -0.3089
 2875TIP3    H130188   1.481   2.758   7.538 -1.3563 -0.9871  0.4863
 2875TIP3    H230189   1.470   2.903   7.496  0.9152 -0.9229  0.0015
 2876TIP3   OH230190   2.383   0.240   0.819  0.3545  0.0740  0.1067
 2876TIP3    H130191   2.435   0.175   0.773  2.3514  1.5526  0.1313
 2876TIP3    H230192   2.337   0.191   0.887 -0.5010 -1.7142 -1.6660
 2877TIP3   OH230193   0.868   2.095   6.318  0.0159 -0.2940 -0.5594
 2877TIP3    H130194   0.796   2.144   6.279  1.8801  1.7728 -1.6359
 2877TIP3    H230195   0.915   2.058   6.243  0.8960 -0.3671  0.0130
 2878TIP3   OH230196   3.898   3.399   0.552 -0.2870  0.2038 -0.1274
 2878TIP3    H130197   3.817   3.426   0.507  0.3959  0.6508 -1.1152
 2878TIP3    H230198   3.958   3.472   0.539  0.5925 -0.5252 -0.2279
 2879TIP3   OH230199   6.205   6.699   0.129  0.0882 -0.4083 -0.1241
 2879TIP3    H130200   6.214   6.631   0.196 -0.1159 -1.4406 -1.1059
 2879TIP3    H230201   6.117   6.685   0.093  0.1122  0.2693 -0.4581
 2880TIP3   OH230202   0.592   0.298   5.970  0.2822  0.7281  0.0484
 2880TIP3    H130203   0.504   0.265   5.988  0.2527  0.7986  0.0349
 2880TIP3    H230204   0.599   0.297   5.874  0.7013 -0.3279  0.0771
 2881TIP3   OH230205   3.331   1.930   1.193 -0.1467  0.6548  0.5242
 2881TIP3    H130206   3.265   1.938   1.262 -1.0993 -0.9415 -0.1360
 2881TIP3    H230207   3.280   1.907   1.115  1.0410  1.1221 -0.4106
 2882TIP3   OH230208   5.902   2.290   8.245 -0.2091  0.1298 -0.0400
 2882TIP3    H130209   5.886   2.249   8.160  0.2060  0.7981 -0.4407
 2882TIP3    H230210   5.859   2.231   8.307  1.0471 -1.3647 -0.5244
 2883TIP3   OH230211   5.629   1.387   2.012  0.0379  0.5044  0.5651
 2883TIP3    H130212   5.646   1.461   2.069 -1.4885  1.3382 -0.0092
 2883TIP3    H230213   5.688   1.399   1.938 -0.3914  1.2947  0.3465
 2884TIP3   OH230214   5.473   4.452   7.288  0.3669 -0.1162  0.4655
 2884TIP3    H130215   5.530   4.421   7.358  0.0448 -2.3012 -0.1729
 2884TIP3    H230216   5.392   4.403   7.299 -0.2054  0.5484 -0.6123
 2885TIP3   OH230217   0.824   2.429   6.515 -0.6174  0.4437  0.1788
 2885TIP3    H130218   0.736   2.413   6.548 -0.6264 -1.3889 -0.6253
 2885TIP3    H230219   0.811   2.468   6.429 -0.5918  2.5035  1.0472
 2886TIP3   OH230220   2.235   4.443   1.308  0.0566 -0.0668  0.7816
 2886TIP3    H130221   2.178   4.501   1.359 -3.2543 -1.2299 -1.2676
 2886TIP3    H230222   2.258   4.495   1.231  2.5183  0.6186  1.8695
 2887TIP3   OH230223   6.808   6.693   0.366 -0.1803  0.2462 -0.1503
 2887TIP3    H130224   6.740   6.635   0.333  1.2132 -0.0562 -2.7340
 2887TIP3    H230225   6.876   6.634   0.399 -0.0295  0.4714 -0.0549
 2888TIP3   OH230226   6.722   0.460   8.109 -0.2659 -0.0008  0.3037
 2888TIP3    H130227   6.685   0.375   8.087  0.4638  0.0900 -1.4385
 2888TIP3    H230228   6.754   0.495   8.026 -0.5861  2.0086  0.9684
 2889TIP3   OH230229   0.405   0.424   6.534  0.3518  0.5048  0.2033
 2889TIP3    H130230   0.348   0.354   6.566 -0.5166  1.2697  0.3628
 2889TIP3    H230231   0.480   0.423   6.593 -0.2927  0.5869  1.0402
 2890TIP3   OH230232   6.611   6.018   1.665 -0.0048 -0.4757 -0.0491
 2890TIP3    H130233   6.660   6.100   1.663 -1.3896  0.3962  0.3449
 2890TIP3    H230234   6.630   5.980   1.751 -0.7773  0.3546  0.5021
 2891TIP3   OH230235   5.142   0.444   7.964  0.0724  0.3031 -0.7625
 2891TIP3    H130236   5.104   0.445   7.876  0.9009  2.2510 -1.1334
 2891TIP3    H230237   5.071   0.476   8.020 -0.6797 -1.5592 -0.5597
 2892TIP3   OH230238   1.433   3.296   7.540 -0.1042  0.4517 -0.1443
 2892TIP3    H130239   1.424   3.240   7.617  0.1424  1.0636  0.3394
 2892TIP3    H230240   1.497   3.363   7.566  0.4450  0.3083 -1.0944
 2893TIP3   OH230241   0.911   0.088   1.082  0.1634 -0.6790  0.1439
 2893TIP3    H130242   0.876   0.147   1.016 -0.4841  0.1566  1.1934
 2893TIP3    H230243   0.983   0.137   1.123 -1.6200  0.3178  2.3740
 2894TIP3   OH230244   6.368   2.569   0.234  0.9501 -0.0730 -0.6972
 2894TIP3    H130245   6.362   2.601   0.324 -1.3095  0.8301 -1.0986
 2894TIP3    H230246   6.370   2.474   0.243  0.7475  0.0026  0.3034
 2895TIP3   OH230247   1.729   2.749   1.005  0.0024 -0.6058  0.4497
 2895TIP3    H130248   1.817   2.759   0.968 -0.1272 -2.0562 -0.3376
 2895TIP3    H230249   1.700   2.838   1.023  0.9173  0.0130 -0.9721
 2896TIP3   OH230250   3.152   4.214   6.911 -0.0226 -0.1311 -0.2751
 2896TIP3    H130251   3.230   4.165   6.940  0.6097  1.1993  0.4040
 2896TIP3    H230252   3.125   4.262   6.989 -0.4695  0.7696 -0.9687
 2897TIP3   OH230253   6.799   2.653   0.512  0.5950  0.1894 -0.2754
 2897TIP3    H130254   6.775   2.731   0.462 -2.0897  0.0454  0.6563
 2897TIP3    H230255   6.845   2.687   0.589  0.5196  0.7653 -0.4794
 2898TIP3   OH230256   2.905   2.223   0.172 -0.4298 -0.4934  0.1845
 2898TIP3    H130257   2.967   2.237   0.101 -0.7401 -0.1786 -0.0288
 2898TIP3    H230258   2.950   2.253   0.251  0.2517 -1.6619  0.2660
 2899TIP3   OH230259   5.364   0.820   1.464  0.7123 -0.0678 -0.6298
 2899TIP3    H130260   5.402   0.795   1.548 -0.6294  0.3571  0.1348
 2899TIP3    H230261   5.424   0.785   1.398  2.2273  0.3292  0.5086
 2900TIP3   OH230262   6.121   6.394   8.007 -0.2122 -0.1366 -0.0595
 2900TIP3    H130263   6.182   6.444   8.062 -0.1047 -0.1286 -0.1862
 2900TIP3    H230264   6.135   6.303   8.033 -1.6814  0.0271  1.4762
 2901TIP3   OH230265   4.843   1.881   6.903  0.1121  0.2891  0.1452
 2901TIP3    H130266   4.820   1.828   6.826 -2.1537 -0.6508  1.3669
 2901TIP3    H230267   4.798   1.965   6.888  0.5078  0.4779 -0.0031
 2902TIP3   OH230268   2.005   5.605   1.320 -0.8336 -0.4858  0.4343
 2902TIP3    H130269   1.978   5.613   1.228 -3.4832 -1.5204  1.0425
 2902TIP3    H230270   1.924   5.595   1.368  0.5113 -0.1454  2.9188
 2903TIP3   OH230271   0.448   5.205   1.024 -0.2488 -0.2328  0.1071
 2903TIP3    H130272   0.413   5.151   0.953 -0.3487 -1.2371  0.9037
 2903TIP3    H230273   0.371   5.240   1.069 -0.2165  2.0197 -1.4161
 2904TIP3   OH230274   0.820   5.500   6.627  0.1282 -1.1257  0.3815
 2904TIP3    H130275   0.745   5.559   6.636  1.5485  0.7617  0.5915
 2904TIP3    H230276   0.880   5.528   6.696  1.2615 -2.2053 -0.1369
 2905TIP3   OH230277   5.375   0.751   0.277 -0.5398  0.1314 -0.5320
 2905TIP3    H130278   5.441   0.807   0.319 -0.9795  0.5485 -0.3833
 2905TIP3    H230279   5.371   0.783   0.187  2.0636 -2.2452 -1.6279
 2906TIP3   OH230280   4.314   3.144   0.522 -0.2579 -0.0809  0.3840
 2906TIP3    H130281   4.279   3.192   0.597 -0.5908  0.8286 -0.3252
 2906TIP3    H230282   4.408   3.163   0.522 -0.3812  0.5578  0.1341
 2907TIP3   OH230283   2.245   3.578   6.573 -0.0690  0.1076  0.6432
 2907TIP3    H130284   2.283   3.565   6.660  0.3337 -1.8342  0.2061
 2907TIP3    H230285   2.284   3.510   6.518 -0.8912  0.8134 -0.8908
 2908TIP3   OH230286   1.317   0.817   1.428 -0.7306  0.3564 -0.1816
 2908TIP3    H130287   1.342   0.871   1.353 -0.9788 -0.0138 -0.5349
 2908TIP3    H230288   1.237   0.858   1.462 -1.9042 -0.7344 -1.4868
 2909TIP3   OH230289   4.954   5.437   6.645 -0.2723 -0.5589  0.7481
 2909TIP3    H130290   4.978   5.506   6.707 -1.2994 -0.4570  1.0500
 2909TIP3    H230291   5.037   5.408   6.607  0.3621 -0.5966  2.1379
 2910TIP3   OH230292   3.168   4.411   0.953 -0.6496 -0.7255 -0.2482
 2910TIP3    H130293   3.092   4.412   1.012 -0.7142 -0.1838 -0.3334
 2910TIP3    H230294   3.181   4.503   0.930 -1.2733 -1.0309 -1.9320
 2911TIP3   OH230295   4.820   6.763   7.766  0.2610  0.0326 -0.6365
 2911TIP3    H130296   4.880   6.837   7.752  0.3019  0.0054 -0.6061
 2911TIP3    H230297   4.736   6.804   7.786 -0.1871  0.0849 -2.5094
 2912TIP3   OH230298   6.530   5.667   2.300 -0.4373  0.2360 -0.1427
 2912TIP3    H130299   6.475   5.744   2.285 -2.3040 -1.0829 -0.5004
 2912TIP3    H230300   6.590   5.665   2.226 -1.2553  0.6421 -0.8376
 2913TIP3   OH230301   6.268   1.566   8.111 -0.0838  0.6400  0.6154
 2913TIP3    H130302   6.175   1.550   8.094  0.2367 -1.0217  0.1925
 2913TIP3    H230303   6.271   1.598   8.202 -1.0303  0.2096  0.8095
 2914TIP3   OH230304   3.225   3.613   1.366 -0.0020  0.0820 -0.4002
 2914TIP3    H130305   3.279   3.688   1.340 -0.5056  0.3732 -0.6135
 2914TIP3    H230306   3.249   3.598   1.458 -0.5514  1.0933 -0.0667
 2915TIP3   OH230307   6.692   6.521   5.630 -0.4128  0.2166 -0.4012
 2915TIP3    H130308   6.665   6.430   5.616 -1.0594 -0.2029  2.7104
 2915TIP3    H230309   6.611   6.569   5.645 -0.0080  1.0997 -0.9464
 2916TIP3   OH230310   2.535   3.669   1.022 -0.0124 -0.2871 -0.0914
 2916TIP3    H130311   2.449   3.697   0.992 -0.2817 -0.0645  0.8606
 2916TIP3    H230312   2.580   3.750   1.046  0.2259 -0.4506  0.0214
 2917TIP3   OH230313   5.956   4.034   6.987  0.8736 -0.4755  0.0747
 2917TIP3    H130314   6.045   3.998   6.994  0.9198 -0.4953 -0.5676
 2917TIP3    H230315   5.904   3.980   7.047  0.9784 -1.5281 -0.7476
 2918TIP3   OH230316   3.423   1.453   7.215 -0.2796 -0.0442 -0.2520
 2918TIP3    H130317   3.352   1.395   7.187 -0.8047  0.7925 -0.6855
 2918TIP3    H230318   3.392   1.541   7.196  1.3991  0.2985 -1.7243
 2919TIP3   OH230319   5.785   3.305   6.796 -0.3939  0.3360  0.1319
 2919TIP3    H130320   5.774   3.220   6.755  0.1913 -0.3610  1.3788
 2919TIP3    H230321   5.722   3.362   6.751  0.4444 -0.2887 -1.9286
 2920TIP3   OH230322   5.209   4.823   1.436  0.2703 -0.4485 -0.1280
 2920TIP3    H130323   5.276   4.776   1.386  0.3668 -1.1649  0.6610
 2920TIP3    H230324   5.238   4.915   1.434  0.7565 -0.6064 -0.6020
 2921TIP3   OH230325   3.905   2.959   1.247  0.0677  0.4205  0.4330
 2921TIP3    H130326   3.975   2.987   1.189 -0.0535  1.1414  0.6191
 2921TIP3    H230327   3.933   2.874   1.280 -0.0927 -0.2400 -1.0521
 2922TIP3   OH230328   0.979   3.566   0.435 -0.0449  0.3317 -0.0792
 2922TIP3    H130329   1.069   3.535   0.447  0.1905  1.3907  1.1399
 2922TIP3    H230330   0.985   3.630   0.365  0.8012  2.7120  2.0122
 2923TIP3   OH230331   3.408   1.773   0.606  0.9111 -0.5739  0.1637
 2923TIP3    H130332   3.377   1.688   0.573 -0.0124 -0.5097  0.7989
 2923TIP3    H230333   3.443   1.752   0.693  1.4552 -0.4302 -0.0197
 2924TIP3   OH230334   3.563   1.347   7.865  0.8131 -0.5843 -0.0060
 2924TIP3    H130335   3.642   1.305   7.900  0.4723 -1.2112  0.0329
 2924TIP3    H230336   3.522   1.279   7.812 -0.7122 -0.9176  1.5189
 2925TIP3   OH230337   2.941   4.606   0.900  0.1806  0.4059 -0.1272
 2925TIP3    H130338   2.879   4.590   0.971  1.0380 -0.1024  0.5422
 2925TIP3    H230339   2.989   4.684   0.928  1.6785 -0.7564  0.7377
 2926TIP3   OH230340   5.765   2.282   1.342 -0.2308 -0.7043 -0.3141
 2926TIP3    H130341   5.804   2.196   1.328 -1.6328 -1.2814 -0.8489
 2926TIP3    H230342   5.728   2.278   1.430  1.1680 -0.0374  0.3302
 2927TIP3   OH230343   1.037   4.958   0.362  0.2537 -0.2668 -0.7958
 2927TIP3    H130344   1.094   4.981   0.435  1.0295 -1.5521 -0.9640
 2927TIP3    H230345   0.948   4.960   0.399  0.7357 -2.3466  0.6000
 2928TIP3   OH230346   0.564   3.669   0.313 -0.0757  0.9320  0.2554
 2928TIP3    H130347   0.606   3.607   0.254 -0.3478  0.5920  0.4136
 2928TIP3    H230348   0.621   3.746   0.313 -0.5930  1.3453 -1.2519
 2929TIP3   OH230349   0.143   3.834   6.174 -0.4726 -0.8522 -0.1970
 2929TIP3    H130350   0.073   3.785   6.131 -1.1776 -1.3890  1.4732
 2929TIP3    H230351   0.124   3.825   6.268  2.3297 -1.7960  0.3601
 2930TIP3   OH230352   5.575   0.409   0.512 -0.6256 -0.6959  0.0895
 2930TIP3    H130353   5.563   0.319   0.482  0.6029 -1.2885  1.2477
 2930TIP3    H230354   5.561   0.404   0.607  0.7409  0.0455  0.3618
 2931TIP3   OH230355   0.856   2.932   6.868  0.0765  0.2085 -0.0410
 2931TIP3    H130356   0.817   2.992   6.804  0.1703 -0.6102 -0.8887
 2931TIP3    H230357   0.797   2.857   6.869  1.0481 -0.6002 -0.5803
 2932TIP3   OH230358   2.506   3.914   7.298 -0.2993  0.1194  0.2383
 2932TIP3    H130359   2.572   3.847   7.315 -0.7891 -0.2363  0.7527
 2932TIP3    H230360   2.486   3.951   7.384  0.1489  1.1119 -0.0636
 2933TIP3   OH230361   2.418   3.910   7.571  0.0780  0.1140 -0.2679
 2933TIP3    H130362   2.386   3.858   7.644  1.1921 -1.2260 -0.6893
 2933TIP3    H230363   2.464   3.983   7.613  0.7048 -0.6340  0.3824
 2934TIP3   OH230364   4.879   1.728   0.211  0.3909 -0.0494 -0.0707
 2934TIP3    H130365   4.824   1.806   0.221  0.3144  0.0073 -0.8559
 2934TIP3    H230366   4.969   1.762   0.209  0.4507 -0.1215  0.9969
 2935TIP3   OH230367   1.255   1.652   6.204  0.2665  0.6091  0.0915
 2935TIP3    H130368   1.263   1.583   6.269 -1.0237  1.0109  0.7257
 2935TIP3    H230369   1.335   1.704   6.213  0.4500  0.2084  0.8164
 2936TIP3   OH230370   6.461   2.779   0.086 -0.1305  0.1469 -0.4600
 2936TIP3    H130371   6.413   2.704   0.122  1.8339 -0.4708  1.0636
 2936TIP3    H230372   6.459   2.844   0.157  1.1956  0.1168 -0.3746
 2937TIP3   OH230373   4.387   0.654   0.223  0.2622 -0.3134  0.2518
 2937TIP3    H130374   4.307   0.606   0.200  0.1071  0.8805 -1.9632
 2937TIP3    H230375   4.457   0.604   0.181  0.2893  0.4416 -0.6158
 2938TIP3   OH230376   4.178   6.165   0.594 -0.8833 -0.2662  0.2572
 2938TIP3    H130377   4.267   6.133   0.606 -1.5817 -1.5680  2.4244
 2938TIP3    H230378   4.129   6.089   0.563 -1.2654  0.4767 -1.0662
 2939TIP3   OH230379   0.563   5.396   7.633  0.0437 -0.4260  0.3426
 2939TIP3    H130380   0.471   5.419   7.638  0.0900 -0.4101  1.2915
 2939TIP3    H230381   0.594   5.437   7.553 -0.3923  0.9440  0.8403
 2940TIP3   OH230382   0.682   2.252   6.208 -0.6996 -0.1167 -0.4395
 2940TIP3    H130383   0.588   2.238   6.196 -0.7308 -0.1571 -0.1625
 2940TIP3    H230384   0.690   2.343   6.235 -0.7015 -0.2423 -0.0106
 2941TIP3   OH230385   3.849   5.226   8.078 -0.0127 -0.0940 -0.2692
 2941TIP3    H130386   3.817   5.271   8.000 -1.6353 -0.4180  0.1647
 2941TIP3    H230387   3.838   5.290   8.149  0.7792 -0.0497 -0.1725
 2942TIP3   OH230388   6.467   0.363   7.029  0.0289  0.6736 -0.6870
 2942TIP3    H130389   6.371   0.358   7.023 -0.2385  2.8410  0.6336
 2942TIP3    H230390   6.489   0.306   7.103 -0.5434  1.9772  0.5346
 2943TIP3   OH230391   5.627   5.501   8.051  0.1861 -0.2859  0.3731
 2943TIP3    H130392   5.542   5.501   8.007 -0.3048 -1.7272  1.2429
 2943TIP3    H230393   5.687   5.540   7.987 -1.5915  3.8388  0.8526
 2944TIP3   OH230394   6.749   0.042   7.432  0.0511 -0.4953  0.0065
 2944TIP3    H130395   6.675   0.070   7.378  0.0527  0.4286  0.4565
 2944TIP3    H230396   6.822   0.095   7.402  0.8183 -2.1184 -1.1330
 2945TIP3   OH230397   2.053   6.145   1.465 -0.5062 -0.3826 -0.2745
 2945TIP3    H130398   1.971   6.112   1.427 -0.5590  3.1018 -3.8427
 2945TIP3    H230399   2.026   6.213   1.526 -0.2817  0.0179 -0.6208
 2946TIP3   OH230400   4.221   3.340   1.146  0.0674  0.1854 -0.0170
 2946TIP3    H130401   4.313   3.364   1.138  0.4320 -1.5239 -1.3457
 2946TIP3    H230402   4.187   3.398   1.215  2.6415 -0.6676  2.1028
 2947TIP3   OH230403   6.608   5.476   7.087 -0.2577 -0.1727  0.7290
 2947TIP3    H130404   6.585   5.568   7.070 -1.2816 -0.5556 -0.0565
 2947TIP3    H230405   6.524   5.433   7.102  0.3364 -0.4866  3.9536
 2948TIP3   OH230406   0.747   4.444   1.387  0.0477  0.1193  0.0138
 2948TIP3    H130407   0.757   4.522   1.442  0.0096  1.0425 -1.2592
 2948TIP3    H230408   0.778   4.470   1.301 -1.3759 -0.8146 -0.8269
 2949TIP3   OH230409   3.089   6.823   6.554  0.1352  0.3746 -0.1193
 2949TIP3    H130410   3.133   6.892   6.505 -0.8934  0.7116 -0.6097
 2949TIP3    H230411   2.997   6.833   6.530 -0.0966 -0.8275  0.2185
 2950TIP3   OH230412   0.695   5.363   0.928  0.0309 -0.3741 -0.1988
 2950TIP3    H130413   0.613   5.400   0.896  0.6855  0.3311 -1.0943
 2950TIP3    H230414   0.668   5.300   0.995 -1.1652  0.7693  0.4348
 2951TIP3   OH230415   6.162   0.076   1.048 -0.3301  0.1362  0.3018
 2951TIP3    H130416   6.126   0.039   1.129  1.1792 -0.1724  0.8667
 2951TIP3    H230417   6.086   0.096   0.995 -1.2825 -3.2870  0.1622
 2952TIP3   OH230418   3.934   0.200   8.290  0.1151 -0.1417 -0.2726
 2952TIP3    H130419   3.944   0.119   8.339  0.3277  0.4718  0.7307
 2952TIP3    H230420   3.890   0.259   8.351 -0.2760  0.4116 -1.0807
 2953TIP3   OH230421   4.454   6.378   7.876 -0.6205 -0.3475 -0.0681
 2953TIP3    H130422   4.398   6.365   7.799  0.7694 -1.6530 -0.9152
 2953TIP3    H230423   4.475   6.289   7.906  2.1706  0.0171 -0.7033
 2954TIP3   OH230424   6.690   3.675   1.405 -0.2230  0.3872 -0.2601
 2954TIP3    H130425   6.725   3.734   1.337 -0.8841  0.5955 -0.4247
 2954TIP3    H230426   6.667   3.595   1.359 -1.6221  0.8863 -0.4862
 2955TIP3   OH230427   4.882   5.183   8.347  0.1959  0.3273 -0.3384
 2955TIP3    H130428   4.958   5.207   8.400  0.6963 -0.0477 -0.8671
 2955TIP3    H230429   4.812   5.168   8.411  0.3432  1.4425  0.1078
 2956TIP3   OH230430   0.502   1.719   1.126  0.1866 -0.9038 -0.6836
 2956TIP3    H130431   0.574   1.782   1.117  0.6449 -1.1282  1.1443
 2956TIP3    H230432   0.458   1.721   1.041  0.2070  1.8680 -0.7233
 2957TIP3   OH230433   4.256   3.559   1.908  0.2749  0.2336 -0.6009
 2957TIP3    H130434   4.213   3.634   1.867 -0.2314  0.0903 -0.3291
 2957TIP3    H230435   4.310   3.597   1.977  0.5375  0.4031 -0.8924
 2958TIP3   OH230436   1.628   3.423   7.657 -0.4740 -0.4090  0.3264
 2958TIP3    H130437   1.648   3.514   7.676 -1.5369 -0.0206 -0.3461
 2958TIP3    H230438   1.705   3.375   7.687  0.7855  0.8667 -0.7339
 2959TIP3   OH230439   4.172   4.364   1.868 -0.8287  0.4091 -0.9842
 2959TIP3    H130440   4.108   4.318   1.923 -0.5771  0.0081 -1.0290
 2959TIP3    H230441   4.175   4.452   1.905  0.5600 -0.3004  0.7042
 2960TIP3   OH230442   0.440   2.050   6.423  0.1146 -0.7327  0.3016
 2960TIP3    H130443   0.513   2.056   6.485 -1.6635 -0.4450  2.5362
 2960TIP3    H230444   0.446   1.961   6.388  0.6845 -1.2280  1.5830
 2961TIP3   OH230445   2.251   5.284   7.006  0.7046 -0.4776  0.2500
 2961TIP3    H130446   2.272   5.373   6.977 -3.6278  0.7117  0.0889
 2961TIP3    H230447   2.284   5.228   6.936  0.2191  1.3907 -1.5907
 2962TIP3   OH230448   3.987   4.368   5.978  0.0838 -0.5998 -0.1952
 2962TIP3    H130449   3.995   4.330   6.065  0.8546 -0.6693 -0.2895
 2962TIP3    H230450   3.944   4.453   5.992  0.4513 -0.4911  0.2787
 2963TIP3   OH230451   4.793   2.626   7.298 -0.1994 -0.5605  0.6286
 2963TIP3    H130452   4.864   2.646   7.237 -1.1635 -0.7268 -0.5914
 2963TIP3    H230453   4.829   2.558   7.355  0.0861 -1.9702 -1.1257
 2964TIP3   OH230454   0.322   2.234   6.930  0.0121  0.2356 -0.6430
 2964TIP3    H130455   0.307   2.234   6.835  0.0180 -1.6378 -0.6875
 2964TIP3    H230456   0.417   2.228   6.940  0.0490  1.0046 -0.5046
 2965TIP3   OH230457   5.872   6.871   6.925  0.5927 -0.1140 -0.2872
 2965TIP3    H130458   5.957   6.844   6.961 -0.3486 -1.2675  1.1739
 2965TIP3    H230459   5.816   6.794   6.934 -0.2775  0.1987 -2.4678
 2966TIP3   OH230460   3.647   2.949   8.136 -0.6862  0.5477  0.2371
 2966TIP3    H130461   3.563   2.904   8.136 -0.2811 -0.2152 -0.2956
 2966TIP3    H230462   3.669   2.960   8.044  0.8364 -1.2319  0.3442
 2967TIP3   OH230463   4.121   3.176   2.438 -0.3282  0.1041 -0.8162
 2967TIP3    H130464   4.168   3.223   2.369  1.2147 -1.7854 -1.1518
 2967TIP3    H230465   4.190   3.127   2.484 -1.5187  0.1568  1.1147
 2968TIP3   OH230466   4.968   1.929   1.223 -0.4729 -0.1662  0.0115
 2968TIP3    H130467   4.943   2.018   1.247  1.2376  0.3939 -0.1541
 2968TIP3    H230468   4.892   1.876   1.247 -1.3694  1.2673  0.4992
 2969TIP3   OH230469   2.727   3.745   8.121  0.1102 -0.0489 -0.2296
 2969TIP3    H130470   2.736   3.726   8.027  1.3197  1.0056 -0.3520
 2969TIP3    H230471   2.759   3.835   8.130  0.3052 -0.2534  1.2563
 2970TIP3   OH230472   4.117   4.888   7.685  0.6098  0.2751  0.0210
 2970TIP3    H130473   4.125   4.962   7.624  0.6388  0.1427 -0.1363
 2970TIP3    H230474   4.028   4.854   7.669  0.2959  0.7789  0.6648
 2971TIP3   OH230475   4.197   3.684   8.344 -0.4095 -0.3597  0.3386
 2971TIP3    H130476   4.207   3.681   8.439  0.7351  0.2341  0.2590
 2971TIP3    H230477   4.103   3.677   8.329 -0.7345  0.9548  1.5857
 2972TIP3   OH230478   3.799   2.378   1.096  0.3182 -0.7528  0.0998
 2972TIP3    H130479   3.734   2.339   1.038  0.9629 -0.6979 -0.6784
 2972TIP3    H230480   3.843   2.444   1.043  0.2426  0.0187  0.9601
 2973TIP3   OH230481   6.103   5.918   6.983  0.5208 -0.4840 -0.0292
 2973TIP3    H130482   6.022   5.903   7.032  0.9069 -2.8625  0.0008
 2973TIP3    H230483   6.078   5.978   6.913 -0.6254  0.9782  1.5490
 2974TIP3   OH230484   3.444   4.281   1.898 -0.0240  0.4240  0.0634
 2974TIP3    H130485   3.414   4.297   1.988  0.4353  0.2557  0.2516
 2974TIP3    H230486   3.365   4.289   1.844 -0.8363 -2.0743  0.7556
 2975TIP3   OH230487   6.337   5.444   0.601  0.7218  0.5161 -0.2149
 2975TIP3    H130488   6.385   5.420   0.522 -1.5116 -0.0190 -1.4836
 2975TIP3    H230489   6.248   5.414   0.586  0.0484  1.0356  2.2372
 2976TIP3   OH230490   0.884   5.209   6.396  0.1379  0.2684 -0.4000
 2976TIP3    H130491   0.868   5.275   6.328 -1.9758 -1.0914 -1.3411
 2976TIP3    H230492   0.944   5.147   6.356 -1.3480 -0.7020 -1.2583
 2977TIP3   OH230493   3.714   1.084   8.291  0.2085  0.2227 -0.1915
 2977TIP3    H130494   3.800   1.067   8.252 -0.0098  0.5200 -0.8121
 2977TIP3    H230495   3.725   1.167   8.338  0.5554 -0.2877  0.6598
 2978TIP3   OH230496   1.618   0.104   0.168 -0.1675  0.0808 -0.1088
 2978TIP3    H130497   1.589   0.063   0.249  0.7726  1.8878  1.2190
 2978TIP3    H230498   1.637   0.195   0.193  0.4133  0.6145 -2.2989
 2979TIP3   OH230499   6.960   0.890   7.637  0.2243  0.5051 -0.7299
 2979TIP3    H130500   6.901   0.830   7.590  0.7035  1.3860 -2.5588
 2979TIP3    H230501   7.024   0.917   7.571 -0.0223  3.0928 -0.0257
 2980TIP3   OH230502   6.128   2.558   6.919  0.5037 -0.1553 -0.2946
 2980TIP3    H130503   6.080   2.497   6.974  1.7495 -0.6005  0.3426
 2980TIP3    H230504   6.137   2.637   6.973  0.9493 -0.2686 -0.2006
 2981TIP3   OH230505   3.630   4.725   1.894  0.1484  0.7911  0.0202
 2981TIP3    H130506   3.567   4.661   1.863 -1.4414  3.0662 -1.8356
 2981TIP3    H230507   3.704   4.719   1.833  0.1366  0.5322  0.0327
 2982TIP3   OH230508   3.195   1.538   0.835  0.7029  0.0527  0.4206
 2982TIP3    H130509   3.102   1.519   0.830  0.5001  0.1362  2.6187
 2982TIP3    H230510   3.237   1.453   0.849  0.8747  0.0978  0.1890
 2983TIP3   OH230511   5.055   0.592   1.377  0.0368  0.4355 -0.1408
 2983TIP3    H130512   4.968   0.552   1.377 -0.2392  1.0245 -0.4277
 2983TIP3    H230513   5.090   0.574   1.290  0.8765 -1.2041  0.4876
 2984TIP3   OH230514   5.615   4.353   7.509 -0.3995 -0.2024 -0.0567
 2984TIP3    H130515   5.637   4.411   7.582  1.7314 -0.8016 -0.1437
 2984TIP3    H230516   5.593   4.269   7.550  0.3582 -0.4104 -0.0542
 2985TIP3   OH230517   0.082   1.574   7.655  0.6527  0.3021 -0.7393
 2985TIP3    H130518   0.172   1.591   7.682 -0.1922  0.2693  2.4157
 2985TIP3    H230519   0.038   1.658   7.662 -0.0268 -0.0886 -0.2194
 2986TIP3   OH230520   2.486   5.651   1.418  0.1687  0.0938 -0.1723
 2986TIP3    H130521   2.428   5.656   1.342  0.8988  1.6238 -0.6821
 2986TIP3    H230522   2.513   5.559   1.422 -1.7040 -0.4928 -0.3395
 2987TIP3   OH230523   5.061   1.729   7.249  0.0921 -0.2627  0.2608
 2987TIP3    H130524   5.069   1.814   7.207  1.6898  0.5337  2.0327
 2987TIP3    H230525   4.967   1.718   7.263 -0.1782  0.9723 -0.4471
 2988TIP3   OH230526   6.622   1.216   6.496  0.2148  0.1696 -0.1765
 2988TIP3    H130527   6.587   1.295   6.536 -1.0921 -1.4536  2.1368
 2988TIP3    H230528   6.717   1.222   6.508 -0.0075  0.6160  1.5063
 2989TIP3   OH230529   5.341   6.502   7.817 -0.8815 -0.2626 -0.0419
 2989TIP3    H130530   5.275   6.523   7.751 -0.7785 -2.2681 -0.8516
 2989TIP3    H230531   5.320   6.413   7.844  0.7422 -0.4765  0.6239
 2990TIP3   OH230532   5.260   5.352   7.969  0.5755 -0.5519 -0.0601
 2990TIP3    H130533   5.186   5.292   7.965 -0.5357  0.6716  1.0078
 2990TIP3    H230534   5.319   5.314   8.034  0.6283 -1.2395 -0.4993
 2991TIP3   OH230535   4.393   1.825   1.666  0.0269  0.0093  0.4549
 2991TIP3    H130536   4.417   1.793   1.579  1.4204 -2.9653  1.8067
 2991TIP3    H230537   4.475   1.854   1.705  0.0547 -1.7982  1.8899
 2992TIP3   OH230538   4.823   1.465   7.150  0.1699  0.3554  0.6434
 2992TIP3    H130539   4.862   1.391   7.103  0.0739 -1.9352  3.8470
 2992TIP3    H230540   4.882   1.538   7.132 -0.0006 -0.2075 -3.0759
 2993TIP3   OH230541   6.578   2.518   0.596 -0.4148  0.3543 -0.4154
 2993TIP3    H130542   6.659   2.552   0.558 -0.9715  1.0966 -0.9487
 2993TIP3    H230543   6.601   2.500   0.687  0.5572 -0.1630 -0.7454
 2994TIP3   OH230544   5.048   4.827   0.639 -0.0872  0.2311  0.1616
 2994TIP3    H130545   5.057   4.793   0.728  0.8016  1.1006  0.4171
 2994TIP3    H230546   4.955   4.817   0.619 -0.0169 -1.6240  0.5056
 2995TIP3   OH230547   5.951   3.807   2.137 -0.0179  0.3249 -0.4203
 2995TIP3    H130548   6.003   3.859   2.076 -1.3364  1.9628 -0.2237
 2995TIP3    H230549   5.887   3.869   2.173 -0.5134 -1.0417  1.1817
 2996TIP3   OH230550   0.604   3.690   1.051  0.5490  0.5030 -0.0117
 2996TIP3    H130551   0.565   3.685   0.963  0.8729 -3.5034 -0.1297
 2996TIP3    H230552   0.687   3.643   1.042  1.0197  0.8148  2.2748
 2997TIP3   OH230553   5.604   0.540   6.896 -0.0324 -0.4091 -0.3278
 2997TIP3    H130554   5.539   0.597   6.936 -0.0602 -0.6939  0.0347
 2997TIP3    H230555   5.619   0.471   6.960  1.5660  0.3273  0.1529
 2998TIP3   OH230556   5.025   6.675   2.294 -0.5257 -0.0708 -0.1590
 2998TIP3    H130557   4.995   6.706   2.379  3.8000 -0.7744  1.8709
 2998TIP3    H230558   5.038   6.754   2.242 -0.2298  0.6433  0.9770
 2999TIP3   OH230559   0.929   2.635   8.245  0.3745 -0.2668  0.2908
 2999TIP3    H130560   0.907   2.582   8.322 -0.3893  0.0216  0.2824
 2999TIP3    H230561   1.006   2.685   8.271 -1.6612  2.2473  2.0817
 3000TIP3   OH230562   2.354   2.815   7.842  0.2552  0.2810  0.3667
 3000TIP3    H130563   2.446   2.802   7.865  0.4421  1.0087  0.0632
 3000TIP3    H230564   2.332   2.741   7.786  0.1414 -0.8668  1.8502
 3001TIP3   OH230565   0.001   4.835   1.107 -0.5753  0.6459 -0.8603
 3001TIP3    H130566  -0.050   4.895   1.162  0.1990  1.4614 -0.9973
 3001TIP3    H230567   0.078   4.815   1.160 -0.4549  0.3934 -1.1329
 3002TIP3   OH230568   1.170   6.855   7.448 -0.6308 -0.1788 -0.0759
 3002TIP3    H130569   1.220   6.929   7.484 -0.8877 -0.2887  0.5122
 3002TIP3    H230570   1.208   6.841   7.361 -1.0091  1.0683 -0.4731
 3003TIP3   OH230571   5.631   1.234   6.985  0.5900 -0.3561 -0.0659
 3003TIP3    H130572   5.673   1.177   7.050 -2.9736 -3.0437  0.1485
 3003TIP3    H230573   5.671   1.209   6.902  0.4686 -1.7611  0.2861
 3004TIP3   OH230574   4.456   3.988   0.080 -0.0901  0.7455 -0.4725
 3004TIP3    H130575   4.449   3.965  -0.013  0.3389 -0.9405 -0.1160
 3004TIP3    H230576   4.501   3.914   0.120 -1.1324  0.9922  1.2646
 3005TIP3   OH230577   4.679   7.015   1.500 -0.2289 -0.2750 -0.3097
 3005TIP3    H130578   4.622   7.056   1.434 -0.8923  1.9294  1.5006
 3005TIP3    H230579   4.623   7.005   1.577  0.8073 -1.8187  0.2939
 3006TIP3   OH230580   2.032   0.593   6.231 -0.3159 -0.4419  0.2509
 3006TIP3    H130581   2.053   0.512   6.277 -1.2843 -1.1898 -0.5787
 3006TIP3    H230582   2.100   0.601   6.164  0.3502 -0.0305  0.9593
 3007TIP3   OH230583   2.041   4.660   1.331  0.0465  0.0543  0.6120
 3007TIP3    H130584   2.024   4.650   1.238  1.9494  3.0288 -0.2136
 3007TIP3    H230585   1.957   4.687   1.369 -0.4000  0.3245 -0.5427
 3008TIP3   OH230586   3.231   1.071   0.834 -0.0713  0.1966  0.1918
 3008TIP3    H130587   3.198   1.159   0.848 -0.5875  0.0352  0.0242
 3008TIP3    H230588   3.153   1.019   0.814  0.3638 -0.0332 -0.9861
 3009TIP3   OH230589   4.105   3.253   6.301  0.6092  0.2536  0.1498
 3009TIP3    H130590   4.058   3.221   6.378 -0.2385  2.1979  0.5077
 3009TIP3    H230591   4.181   3.299   6.338  0.2957  1.0440 -0.1731
 3010TIP3   OH230592   4.053   4.490   0.754 -0.2102 -0.1881  0.1156
 3010TIP3    H130593   4.146   4.467   0.753  0.0230  0.5752 -2.1920
 3010TIP3    H230594   4.051   4.578   0.793  0.0221 -0.3083  0.3971
 3011TIP3   OH230595   5.335   5.619   1.616  0.4372  0.3507 -0.0239
 3011TIP3    H130596   5.424   5.640   1.646  0.4478 -0.6666  0.7136
 3011TIP3    H230597   5.287   5.701   1.627  0.4924  0.1243  2.6923
 3012TIP3   OH230598   5.067   1.196   7.906 -0.1677 -0.3001  0.0756
 3012TIP3    H130599   5.145   1.211   7.960  0.8997 -1.2152 -1.1463
 3012TIP3    H230600   5.088   1.117   7.856 -1.1459  0.4923 -1.6459
 3013TIP3   OH230601   0.785   5.259   7.259 -0.2477 -0.2972 -0.0508
 3013TIP3    H130602   0.696   5.286   7.281 -0.7727 -2.4499  0.7042
 3013TIP3    H230603   0.837   5.287   7.334  0.2310  2.9608 -1.4323
 3014TIP3   OH230604   3.800   2.380   0.745  0.2722  0.0200 -0.2276
 3014TIP3    H130605   3.785   2.460   0.795  0.0128  0.9056 -1.6829
 3014TIP3    H230606   3.740   2.386   0.671 -0.5127 -2.0260  0.1620
 3015TIP3   OH230607   1.027   3.962   7.428  0.1174 -0.0700  0.4042
 3015TIP3    H130608   0.940   3.959   7.388 -0.4068 -0.4778  1.5292
 3015TIP3    H230609   1.068   4.040   7.390 -0.1864 -0.6745 -1.2143
 3016TIP3   OH230610   4.124   4.999   5.955 -0.4509 -0.3201 -0.5272
 3016TIP3    H130611   4.179   5.060   5.907 -2.1616  0.2070 -1.9055
 3016TIP3    H230612   4.144   4.913   5.918  0.7468 -0.4199  0.2756
 3017TIP3   OH230613   3.664   5.733   8.231  0.3939  0.1313 -0.4804
 3017TIP3    H130614   3.759   5.720   8.233  0.6171  1.6241 -0.0590
 3017TIP3    H230615   3.628   5.654   8.269  1.5255 -0.0221  0.3219
 3018TIP3   OH230616   5.319   3.873   0.433 -0.2467 -0.3825  0.1118
 3018TIP3    H130617   5.306   3.833   0.519  1.0818  0.2726  0.6427
 3018TIP3    H230618   5.234   3.912   0.411 -0.8991 -1.4747  0.6244
 3019TIP3   OH230619   1.082   1.860   6.848  0.5549 -0.0649 -0.4629
 3019TIP3    H130620   1.102   1.878   6.940 -1.3264  0.4000 -0.0974
 3019TIP3    H230621   1.163   1.824   6.812  0.9548 -1.5950  1.7386
 3020TIP3   OH230622   0.653   5.749   6.586 -0.4661  0.0331 -0.2357
 3020TIP3    H130623   0.572   5.748   6.638  0.1167 -1.6404  0.7480
 3020TIP3    H230624   0.630   5.795   6.506 -1.1700  3.6881  1.8374
 3021TIP3   OH230625   1.373   6.233   6.097  0.0227  0.0927  0.5212
 3021TIP3    H130626   1.355   6.312   6.149  2.3173 -0.2993  2.0610
 3021TIP3    H230627   1.303   6.173   6.122 -0.1364  0.6748  1.5649
 3022TIP3   OH230628   0.791   4.768   0.322 -0.4791  0.1294 -0.1828
 3022TIP3    H130629   0.881   4.738   0.306  0.0237  1.2888  0.3230
 3022TIP3    H230630   0.768   4.818   0.243 -0.9788 -0.7976 -0.6393
 3023TIP3   OH230631   5.899   2.153   2.022 -0.2602  0.5012  0.1639
 3023TIP3    H130632   5.824   2.204   1.991 -1.6060 -2.0220 -1.0137
 3023TIP3    H230633   5.872   2.120   2.108 -0.0735  0.4434  0.2014
 3024TIP3   OH230634   5.984   3.323   1.402  0.0544  0.2340 -0.1779
 3024TIP3    H130635   6.067   3.278   1.386 -0.0715  0.3392 -1.1845
 3024TIP3    H230636   6.001   3.414   1.376 -0.4289  0.2170 -0.5577
 3025TIP3   OH230637   0.988   3.171   8.252 -0.1073 -0.0695 -0.3761
 3025TIP3    H130638   1.034   3.122   8.321  1.2107  1.8061  0.1557
 3025TIP3    H230639   1.051   3.238   8.225 -1.8537  1.3865 -1.0054
 3026TIP3   OH230640   2.236   0.352   1.337  0.2672 -0.4243  0.0709
 3026TIP3    H130641   2.267   0.310   1.417 -1.3827 -0.9174  0.4846
 3026TIP3    H230642   2.290   0.314   1.268  0.0804 -1.8348  0.6638
 3027TIP3   OH230643   1.719   4.503   6.874 -0.4450 -0.1728  0.2317
 3027TIP3    H130644   1.771   4.559   6.815 -0.8999  0.2514  0.2233
 3027TIP3    H230645   1.765   4.419   6.875 -0.4641 -0.2020 -0.7760
 3028TIP3   OH230646   3.191   2.003   7.612 -0.0122  0.4960  0.4688
 3028TIP3    H130647   3.193   2.024   7.705  0.1249 -0.2419  0.6370
 3028TIP3    H230648   3.282   2.010   7.583  0.0373  0.1255  0.5302
 3029TIP3   OH230649   6.229   3.891   7.014  0.6270 -0.2777  0.0736
 3029TIP3    H130650   6.248   3.840   7.092  1.2474 -0.1628  0.0009
 3029TIP3    H230651   6.309   3.886   6.961  0.6761  0.6989  0.0302
 3030TIP3   OH230652   4.721   5.802   1.198  0.5303  0.1686 -0.2211
 3030TIP3    H130653   4.740   5.871   1.262  0.7335 -1.0863  1.1106
 3030TIP3    H230654   4.677   5.734   1.248 -1.3178  0.0561 -1.8754
 3031TIP3   OH230655   2.527   6.848   7.973 -0.1575 -0.0761 -0.0815
 3031TIP3    H130656   2.496   6.768   8.015 -1.7046  0.9588  0.8446
 3031TIP3    H230657   2.452   6.880   7.924  0.7905  0.2288 -1.3851
 3032TIP3   OH230658   1.378   6.353   0.128  0.3386 -0.0366 -0.1015
 3032TIP3    H130659   1.416   6.436   0.155  0.0753  0.5119 -1.3576
 3032TIP3    H230660   1.418   6.334   0.043 -0.9396 -0.2699 -0.6788
 3033TIP3   OH230661   6.088   5.652   0.666  0.0252 -0.6701 -0.3613
 3033TIP3    H130662   6.056   5.561   0.669 -1.3552 -0.2170 -0.6778
 3033TIP3    H230663   6.021   5.702   0.712  1.6148  0.0026  1.3532
 3034TIP3   OH230664   2.839   5.137   1.988  0.7250  0.5648  0.2928
 3034TIP3    H130665   2.886   5.121   2.070  3.0560  0.7608 -0.9041
 3034TIP3    H230666   2.834   5.051   1.946  0.6056  0.6502  0.1280
 3035TIP3   OH230667   1.495   2.954   0.835 -0.3277  0.0467 -0.0001
 3035TIP3    H130668   1.472   3.040   0.870 -3.7958 -0.1891 -1.3187
 3035TIP3    H230669   1.563   2.973   0.770 -0.7608  1.7786 -0.0066
 3036TIP3   OH230670   6.673   5.303   6.331 -0.2330  0.3962 -0.5003
 3036TIP3    H130671   6.754   5.261   6.359 -1.4679 -0.1405  2.5442
 3036TIP3    H230672   6.656   5.266   6.244  1.5551 -1.2090 -0.2308
 3037TIP3   OH230673   5.202   6.997   6.351 -0.3298 -0.3150 -0.0057
 3037TIP3    H130674   5.191   6.979   6.257 -0.6411  2.2234 -0.5220
 3037TIP3    H230675   5.297   6.996   6.364 -0.2922 -3.4133  0.3450
 3038TIP3   OH230676   4.966   2.691   8.339 -0.2694  0.8642 -0.2671
 3038TIP3    H130677   5.050   2.707   8.296 -0.6482  1.5823 -0.7880
 3038TIP3    H230678   4.975   2.607   8.382  0.9298  1.2264  0.2175
 3039TIP3   OH230679   5.797   4.161   0.212 -0.2216 -0.1236 -0.1529
 3039TIP3    H130680   5.840   4.140   0.295 -2.1090  0.8662  1.1594
 3039TIP3    H230681   5.835   4.245   0.186  0.1798 -0.3049 -0.1588
 3040TIP3   OH230682   2.569   3.263   8.113  0.5804  0.3729  0.1397
 3040TIP3    H130683   2.531   3.180   8.140 -0.8384  0.8549 -0.2267
 3040TIP3    H230684   2.506   3.329   8.145  1.1285  1.2189 -0.4799
 3041TIP3   OH230685   5.321   6.222   0.372 -0.5797  0.0683 -0.2859
 3041TIP3    H130686   5.334   6.165   0.297 -0.3764 -1.5714  0.9480
 3041TIP3    H230687   5.409   6.246   0.400 -0.6541  0.6364 -0.5174
 3042TIP3   OH230688   6.804   0.254   6.323 -0.0689  0.2191 -0.0223
 3042TIP3    H130689   6.834   0.343   6.303  0.6528  0.5489  2.1836
 3042TIP3    H230690   6.719   0.267   6.367  0.0441 -0.1706  0.3192
 3043TIP3   OH230691   6.058   3.321   0.723  0.0892 -0.4540 -0.0472
 3043TIP3    H130692   6.073   3.235   0.684 -2.7856 -1.0930  0.0441
 3043TIP3    H230693   6.052   3.380   0.647  1.1586 -0.4482 -0.1513
 3044TIP3   OH230694   5.118   1.330   1.005 -0.1561  0.2387  0.2014
 3044TIP3    H130695   5.124   1.310   0.912 -1.3037  1.5523 -0.1900
 3044TIP3    H230696   5.062   1.260   1.041 -1.1362  0.6734 -0.4402
 3045TIP3   OH230697   4.508   0.576   0.496 -0.6692 -0.1007  0.3815
 3045TIP3    H130698   4.458   0.577   0.414 -1.6162 -0.5657  0.9221
 3045TIP3    H230699   4.502   0.666   0.529  1.0835  0.4912 -0.8268
 3046TIP3   OH230700   0.667   0.707   7.427  0.2083 -0.4445  0.1065
 3046TIP3    H130701   0.628   0.654   7.497  1.3566  0.3844  1.4131
 3046TIP3    H230702   0.759   0.681   7.425  0.5239  0.6287 -0.0341
 3047TIP3   OH230703   5.327   3.662   7.431 -0.0574  0.0858 -0.6856
 3047TIP3    H130704   5.349   3.575   7.400  0.9214  0.2077 -0.3674
 3047TIP3    H230705   5.306   3.650   7.524 -0.8180  0.0614 -0.8491
 3048TIP3   OH230706   0.451   4.464   6.186  0.0584  0.0271 -0.0691
 3048TIP3    H130707   0.475   4.371   6.186 -2.0734 -0.5855  0.2098
 3048TIP3    H230708   0.366   4.466   6.142 -0.4457  1.6877  0.9103
 3049TIP3   OH230709   2.372   6.056   6.145 -0.3152  0.5116 -0.6921
 3049TIP3    H130710   2.382   6.142   6.185 -0.5921  0.3776 -0.3310
 3049TIP3    H230711   2.462   6.025   6.132 -0.1617  1.4978 -2.2454
 3050TIP3   OH230712   0.498   0.656   8.334  0.2339  0.3157 -0.1888
 3050TIP3    H130713   0.467   0.710   8.407 -0.4387  0.5853 -0.6633
 3050TIP3    H230714   0.551   0.714   8.281 -0.2999  0.4596 -0.5748
 3051TIP3   OH230715   5.940   2.256   6.006  0.6782  0.3601 -0.2839
 3051TIP3    H130716   5.916   2.333   5.955 -0.7517  0.0950 -0.0404
 3051TIP3    H230717   5.857   2.212   6.025  1.4445 -1.1360 -0.2417
 3052TIP3   OH230718   1.878   6.257   0.375 -0.1568 -0.1526 -0.0788
 3052TIP3    H130719   1.904   6.345   0.349 -1.3489  0.1671 -0.2551
 3052TIP3    H230720   1.792   6.244   0.334  0.1774 -1.5535 -0.3994
 3053TIP3   OH230721   5.621   5.651   7.594  0.1654  0.6696 -0.1603
 3053TIP3    H130722   5.653   5.571   7.553  0.7867  1.1970 -0.7225
 3053TIP3    H230723   5.691   5.714   7.581 -0.7719  1.6311 -0.7145
 3054TIP3   OH230724   4.541   3.191   0.403 -0.0137 -0.3461 -0.6318
 3054TIP3    H130725   4.630   3.182   0.369 -0.3735 -1.8613 -1.2514
 3054TIP3    H230726   4.495   3.114   0.371 -1.2381 -0.2075  0.6897
 3055TIP3   OH230727   4.132   0.818   0.365 -0.0036  0.4830  0.8852
 3055TIP3    H130728   4.051   0.835   0.413 -0.6293  0.1827 -0.0322
 3055TIP3    H230729   4.156   0.903   0.328 -1.1364  0.1677 -0.6739
 3056TIP3   OH230730   4.818   3.862   0.272  0.5501  0.3544 -0.2487
 3056TIP3    H130731   4.822   3.947   0.316  0.3377  0.6239 -0.7290
 3056TIP3    H230732   4.731   3.861   0.232  1.1658  0.6612 -1.6855
 3057TIP3   OH230733   5.425   4.846   7.751  0.3321 -0.5650 -0.3217
 3057TIP3    H130734   5.367   4.889   7.813  0.6818 -0.4022 -0.1058
 3057TIP3    H230735   5.373   4.840   7.670  1.1526  2.7224 -1.2359
 3058TIP3   OH230736   1.280   3.723   7.220 -0.3172  0.1025 -0.5259
 3058TIP3    H130737   1.366   3.738   7.260 -0.6168 -1.5602  0.8554
 3058TIP3    H230738   1.297   3.663   7.147 -0.2779 -0.0297 -0.4076
 3059TIP3   OH230739   3.937   4.034   6.913 -0.1384  0.3718  0.1204
 3059TIP3    H130740   3.982   4.075   6.839  0.8021  1.0091  1.0250
 3059TIP3    H230741   3.933   3.941   6.890 -0.9074  0.7153 -1.2473
 3060TIP3   OH230742   1.317   1.332   7.350  0.7939 -0.2982 -0.1125
 3060TIP3    H130743   1.267   1.253   7.330 -0.5611  0.8942 -1.7531
 3060TIP3    H230744   1.377   1.342   7.276 -0.0435  0.9406 -0.6602
 3061TIP3   OH230745   3.368   4.772   6.847  0.2872 -0.1259 -0.0634
 3061TIP3    H130746   3.361   4.677   6.832  0.2456 -0.0993 -0.2115
 3061TIP3    H230747   3.277   4.803   6.848  0.2678 -0.1938  0.6802
 3062TIP3   OH230748   2.118   4.699   0.578  0.0557 -0.5584  0.5187
 3062TIP3    H130749   2.065   4.757   0.523  0.4399  0.4788  1.2115
 3062TIP3    H230750   2.054   4.654   0.633 -0.2155 -0.4280  0.3161
 3063TIP3   OH230751   4.084   1.245   7.378 -0.4247  0.0027  0.6076
 3063TIP3    H130752   4.098   1.166   7.431 -0.5973  0.3972  1.2405
 3063TIP3    H230753   4.135   1.313   7.422 -1.8539  0.7228  1.1995
 3064TIP3   OH230754   2.848   3.808   2.218 -0.4489  0.1052  0.6848
 3064TIP3    H130755   2.839   3.892   2.263 -1.4478  0.1519  0.4126
 3064TIP3    H230756   2.791   3.748   2.266  1.2562 -0.7944  1.7092
 3065TIP3   OH230757   5.027   0.359   6.089 -0.5497 -0.0613 -0.2322
 3065TIP3    H130758   5.106   0.307   6.075  0.3951  1.2292  0.0675
 3065TIP3    H230759   4.960   0.317   6.035  0.0665 -1.7772  0.2954
 3066TIP3   OH230760   2.765   4.518   1.694 -0.0789 -0.3569 -0.1806
 3066TIP3    H130761   2.828   4.537   1.624  0.4954  1.9748  0.8563
 3066TIP3    H230762   2.705   4.593   1.692 -0.3499 -0.4975  1.4869
 3067TIP3   OH230763   0.248   2.014   0.427 -0.2452  0.2509 -0.1986
 3067TIP3    H130764   0.193   1.936   0.429  0.7897 -0.5002  1.3792
 3067TIP3    H230765   0.216   2.068   0.499  0.1001  0.5309 -0.2521
 3068TIP3   OH230766   5.848   5.135   6.774  0.0537  0.5467  0.5903
 3068TIP3    H130767   5.908   5.203   6.746  0.1118 -0.3593 -1.6865
 3068TIP3    H230768   5.761   5.171   6.756  0.0733 -0.8347 -3.3553
 3069TIP3   OH230769   5.983   5.533   6.298  0.0288 -0.0837 -0.2809
 3069TIP3    H130770   5.998   5.539   6.393  0.4927  1.9988 -0.4428
 3069TIP3    H230771   6.014   5.446   6.275  1.1080 -0.1598  1.2801
 3070TIP3   OH230772   4.302   2.463   6.736  0.2684  0.1136  0.3869
 3070TIP3    H130773   4.254   2.380   6.743 -0.1392  0.4147  1.3521
 3070TIP3    H230774   4.386   2.445   6.779 -0.1290  0.4084  1.3255
 3071TIP3   OH230775   0.076   2.845   1.747  0.3006 -0.5259 -0.5542
 3071TIP3    H130776   0.004   2.906   1.738 -0.7093 -1.5004  0.5018
 3071TIP3    H230777   0.151   2.899   1.773 -0.5581  0.2734  0.3450
 3072TIP3   OH230778   5.307   4.038   1.790  0.1237  1.0000  0.3558
 3072TIP3    H130779   5.271   3.998   1.869 -0.6525  1.7269  0.3744
 3072TIP3    H230780   5.252   4.115   1.774 -0.0471  0.5955 -1.1655
 3073TIP3   OH230781   2.194   0.976   0.801  0.2538  0.4703 -0.2763
 3073TIP3    H130782   2.212   0.891   0.841  0.1709  0.9428  0.8097
 3073TIP3    H230783   2.115   0.961   0.748  1.4305 -0.6192 -1.8327
 3074TIP3   OH230784   6.429   2.231   7.440  0.1332  0.3283 -0.7684
 3074TIP3    H130785   6.403   2.167   7.374 -1.3866 -0.9142  0.9612
 3074TIP3    H230786   6.371   2.214   7.515  0.8768  2.5674  0.4047
 3075TIP3   OH230787   6.306   2.333   6.993 -0.4285 -0.4296  0.3322
 3075TIP3    H130788   6.218   2.360   7.021 -1.4220  0.8068 -3.4643
 3075TIP3    H230789   6.314   2.242   7.023 -3.2485 -0.7683  0.2798
 3076TIP3   OH230790   6.364   2.672   0.486 -0.2244  0.3445 -0.2209
 3076TIP3    H130791   6.395   2.755   0.521 -1.3522 -0.2423  2.4146
 3076TIP3    H230792   6.422   2.607   0.525  2.2521 -0.1084 -4.1721
 3077TIP3   OH230793   4.037   0.438   6.088  0.1247  0.3069 -0.1334
 3077TIP3    H130794   3.950   0.430   6.048  0.0481  0.7354 -0.0575
 3077TIP3    H230795   4.029   0.395   6.173  0.1920 -0.3034 -0.4321
 3078TIP3   OH230796   5.004   2.158   6.769 -0.3780  0.4395 -0.4140
 3078TIP3    H130797   4.970   2.212   6.840  1.2056  0.2605  0.5193
 3078TIP3    H230798   5.093   2.192   6.754 -0.1512 -0.4964 -1.2907
 3079TIP3   OH230799   5.178   5.174   7.634 -0.4970 -0.6488  0.2174
 3079TIP3    H130800   5.126   5.177   7.714 -0.2198 -1.6851  0.4399
 3079TIP3    H230801   5.197   5.266   7.615 -0.7123 -0.3805  1.2466
 3080TIP3   OH230802   3.707   1.985   1.550 -0.1985  0.2810  0.3922
 3080TIP3    H130803   3.648   2.023   1.615 -0.6500 -0.7451  0.5907
 3080TIP3    H230804   3.762   1.924   1.599  2.5097  2.6491  0.6335
 3081TIP3   OH230805   5.961   5.828   1.200  0.0354 -0.3711  0.6157
 3081TIP3    H130806   5.915   5.890   1.143  0.4689 -0.2934  0.3436
 3081TIP3    H230807   6.042   5.808   1.153  0.3732 -0.3512  1.1786
 3082TIP3   OH230808   4.410   4.629   7.027  0.3725 -0.2755 -1.0343
 3082TIP3    H130809   4.431   4.537   7.043 -1.3226 -0.7016 -1.0529
 3082TIP3    H230810   4.471   4.657   6.959  0.7814 -1.4389 -1.1575
 3083TIP3   OH230811   2.988   1.816   0.019 -0.0790 -0.5824 -0.7039
 3083TIP3    H130812   3.022   1.805   0.108 -0.8510 -0.8715 -0.4298
 3083TIP3    H230813   3.042   1.759  -0.035  0.0542 -0.8159 -0.3280
 3084TIP3   OH230814   0.798   1.436   7.808 -0.0054  0.0594 -0.6602
 3084TIP3    H130815   0.851   1.488   7.747  0.5180  1.8233  1.1724
 3084TIP3    H230816   0.842   1.352   7.812  1.0797  0.5763 -1.2227
 3085TIP3   OH230817   1.920   2.644   0.226  0.3679 -0.0965  0.2467
 3085TIP3    H130818   1.955   2.578   0.286 -0.8691 -1.0962 -0.0911
 3085TIP3    H230819   1.836   2.669   0.263  0.7319  1.1894  0.2658
 3086TIP3   OH230820   1.563   1.873   7.674  0.0837  0.0767 -0.3082
 3086TIP3    H130821   1.659   1.870   7.675  0.0585 -1.0747 -0.3688
 3086TIP3    H230822   1.538   1.814   7.603 -0.6989 -0.4805  0.4149
 3087TIP3   OH230823   6.523   6.740   6.582 -0.5549 -0.0119 -0.2020
 3087TIP3    H130824   6.577   6.673   6.539  0.7376  0.5815  0.4349
 3087TIP3    H230825   6.511   6.808   6.516 -3.4157 -1.5878 -1.4840
 3088TIP3   OH230826   3.105   0.727   7.875  0.3683 -0.3906  0.3114
 3088TIP3    H130827   3.028   0.708   7.929 -1.3408 -1.2653 -2.2409
 3088TIP3    H230828   3.095   0.819   7.852  1.5319  0.2035  2.0566
 3089TIP3   OH230829   6.077   2.340   0.163 -0.3604 -0.1028  0.0033
 3089TIP3    H130830   6.127   2.312   0.086 -0.2763 -0.9740  0.3621
 3089TIP3    H230831   6.134   2.404   0.205  1.1468 -2.0732  1.1535
 3090TIP3   OH230832   2.542   5.832   0.078 -0.9218  0.0966  0.1052
 3090TIP3    H130833   2.590   5.913   0.096 -0.9453  0.1186  0.0689
 3090TIP3    H230834   2.473   5.858   0.017 -1.2143  0.1389  0.4532
 3091TIP3   OH230835   5.103   4.973   0.149  0.0200  0.5404  0.5182
 3091TIP3    H130836   5.144   5.060   0.143 -0.0472  0.5795  0.6242
 3091TIP3    H230837   5.122   4.932   0.064 -4.3464  2.6084 -1.7871
 3092TIP3   OH230838   5.515   1.137   0.490  0.1121 -0.4122  0.0028
 3092TIP3    H130839   5.583   1.204   0.498 -0.0833  0.1721 -2.5626
 3092TIP3    H230840   5.493   1.136   0.397 -1.3050 -2.6824  0.3037
 3093TIP3   OH230841   6.665   5.800   1.485  0.4686  0.1538 -0.0489
 3093TIP3    H130842   6.666   5.851   1.566  2.1523 -0.7597  0.5614
 3093TIP3    H230843   6.572   5.791   1.464 -0.1733 -1.1411  2.8002
 3094TIP3   OH230844   2.975   0.390   2.137 -0.0332  0.4808  0.3633
 3094TIP3    H130845   3.042   0.444   2.180  1.4759 -2.0798  1.4920
 3094TIP3    H230846   2.899   0.396   2.194  0.6221  0.2947  1.2929
 3095TIP3   OH230847   1.971   4.798   2.038 -0.0029 -0.4578  0.1434
 3095TIP3    H130848   1.953   4.889   2.058  0.6034 -0.4843  0.8586
 3095TIP3    H230849   1.970   4.794   1.942 -0.9358  0.0986  0.1214
 3096TIP3   OH230850   4.651   5.962   1.549 -0.1596  0.4516 -0.6495
 3096TIP3    H130851   4.654   5.910   1.630  1.8121 -0.0975 -1.0209
 3096TIP3    H230852   4.567   6.007   1.553  0.2703  1.2101  2.1827
 3097TIP3   OH230853   1.705   6.591   7.081 -0.0718 -0.6102 -0.0669
 3097TIP3    H130854   1.752   6.508   7.088 -0.3908 -0.6608  4.2166
 3097TIP3    H230855   1.624   6.577   7.129 -1.4862  1.4204 -1.6725
 3098TIP3   OH230856   4.728   2.955   0.320  0.3020 -0.2144  0.0594
 3098TIP3    H130857   4.811   2.961   0.273  0.5636 -0.4094  0.4975
 3098TIP3    H230858   4.666   2.922   0.255  0.2740  1.1195 -0.6300
 3099TIP3   OH230859   3.769   3.847   7.859  0.1178 -0.1284 -0.0640
 3099TIP3    H130860   3.858   3.814   7.874 -0.1682 -0.3424  1.3053
 3099TIP3    H230861   3.712   3.772   7.875 -0.3945  0.3921  0.6271
 3100TIP3   OH230862   2.940   4.435   7.792 -0.5891 -0.0658  0.1001
 3100TIP3    H130863   2.870   4.405   7.733 -1.7028  3.3883 -0.5587
 3100TIP3    H230864   2.900   4.431   7.879 -1.9316  2.2971 -0.3112
 3101TIP3   OH230865   6.151   1.470   0.563 -0.2245  0.2137 -0.3675
 3101TIP3    H130866   6.216   1.466   0.633  0.2448 -0.6762 -0.8316
 3101TIP3    H230867   6.152   1.382   0.524  2.2597  1.6135 -3.9239
 3102TIP3   OH230868   3.198   4.689   0.711  0.4588  0.3364 -0.2290
 3102TIP3    H130869   3.133   4.628   0.678 -0.2118  1.7199 -1.5518
 3102TIP3    H230870   3.149   4.749   0.767  1.0579 -0.1118  0.8052
 3103TIP3   OH230871   6.824   6.212   1.635 -0.5058  0.1082  0.1062
 3103TIP3    H130872   6.865   6.167   1.561  0.8747  1.2524  0.1179
 3103TIP3    H230873   6.851   6.304   1.624 -1.6314  0.5905  1.1377
 3104TIP3   OH230874   5.467   6.031   8.252 -0.1516  0.2210  0.1077
 3104TIP3    H130875   5.453   5.994   8.165  2.5938  1.2266 -0.8357
 3104TIP3    H230876   5.560   6.021   8.268 -0.2861  1.7156  2.1776
 3105TIP3   OH230877   4.772   4.107   0.401 -0.0738  0.2216  0.2949
 3105TIP3    H130878   4.706   4.086   0.467  0.8376 -0.4343  1.0240
 3105TIP3    H230879   4.847   4.138   0.452  0.5334 -0.0095 -0.4553
 3106TIP3   OH230880   4.497   4.830   0.041 -0.0227  0.0739 -0.2528
 3106TIP3    H130881   4.425   4.768   0.051  0.0100  0.3274  2.1775
 3106TIP3    H230882   4.570   4.776   0.011 -1.0815 -0.2357 -2.4594
 3107TIP3   OH230883   1.181   6.035   1.125  0.4103 -0.4078 -0.0221
 3107TIP3    H130884   1.136   5.953   1.146  2.7906 -1.0757  3.0948
 3107TIP3    H230885   1.266   6.008   1.091  1.2269  0.7268  1.0436
 3108TIP3   OH230886   6.600   1.246   6.893  0.2464 -0.0957 -0.2532
 3108TIP3    H130887   6.595   1.263   6.799 -0.2810  0.9987 -0.0505
 3108TIP3    H230888   6.669   1.181   6.903  2.6590  2.1659 -1.1355
 3109TIP3   OH230889   5.954   0.013   0.167 -0.1710  0.4134  0.5221
 3109TIP3    H130890   5.909   0.056   0.240 -0.9368 -1.1460  1.0323
 3109TIP3    H230891   5.925  -0.078   0.173 -0.3618  0.2781 -1.8357
 3110TIP3   OH230892   2.497   5.900   7.128  0.2354  0.0212 -0.0508
 3110TIP3    H130893   2.521   5.808   7.121  1.4751  0.2627  0.6921
 3110TIP3    H230894   2.575   5.943   7.163 -0.9081  1.0504  1.4035
 3111TIP3   OH230895   5.523   4.452   0.802  0.0344  0.1213 -0.2962
 3111TIP3    H130896   5.458   4.386   0.829 -0.7230  0.6788 -0.7110
 3111TIP3    H230897   5.607   4.415   0.828 -0.3157 -1.3117 -1.0898
 3112TIP3   OH230898   1.825   4.562   1.799 -0.2499 -0.3225  0.3653
 3112TIP3    H130899   1.890   4.492   1.803 -0.5767 -0.7938 -1.5808
 3112TIP3    H230900   1.871   4.635   1.759 -1.2238 -1.1328 -2.4197
 3113TIP3   OH230901   3.377   4.572   1.508  0.2450  0.1607  0.1785
 3113TIP3    H130902   3.447   4.607   1.453 -0.3320  1.0903  0.0134
 3113TIP3    H230903   3.321   4.522   1.448 -0.0287  0.6313  0.0425
 3114TIP3   OH230904   5.043   3.421   2.385  0.1741  0.2654  0.3119
 3114TIP3    H130905   4.995   3.484   2.332 -0.2928  0.9996  1.5759
 3114TIP3    H230906   5.120   3.469   2.416  0.6174 -0.2600  0.0476
 3115TIP3   OH230907   1.232   3.471   0.522  0.4292  0.3362  0.1079
 3115TIP3    H130908   1.268   3.559   0.529 -1.3749  0.9782  2.8454
 3115TIP3    H230909   1.267   3.424   0.597 -0.0977 -0.6983 -0.2683
 3116TIP3   OH230910   5.115   5.857   1.154 -0.0999  0.0373 -0.5337
 3116TIP3    H130911   5.077   5.938   1.119 -1.4709 -0.1989  0.3408
 3116TIP3    H230912   5.078   5.787   1.101 -2.1648 -0.3220  1.2385
 3117TIP3   OH230913   1.203   0.528   1.837 -0.2220 -0.2911 -0.0684
 3117TIP3    H130914   1.215   0.520   1.743  3.3749 -2.6067  0.3783
 3117TIP3    H230915   1.124   0.478   1.857 -1.1507  0.4147 -1.7939
 3118TIP3   OH230916   4.020   3.745   7.835 -0.0722  0.0404 -0.1314
 3118TIP3    H130917   4.041   3.669   7.889  2.1298  0.4889 -0.2602
 3118TIP3    H230918   4.084   3.742   7.764  0.5601  2.3746  0.2478
 3119TIP3   OH230919   0.461   1.768   1.589 -0.5569 -0.5827  0.5276
 3119TIP3    H130920   0.474   1.821   1.510  0.0122 -0.5064  0.6691
 3119TIP3    H230921   0.368   1.779   1.610 -0.3409  0.8362  0.8889
 3120TIP3   OH230922   1.077   5.978   0.778 -0.1560  0.9560 -0.0048
 3120TIP3    H130923   1.001   6.031   0.753 -1.2588 -1.8452 -3.3572
 3120TIP3    H230924   1.041   5.894   0.806  1.6309 -0.1912 -0.9201
 3121TIP3   OH230925   6.501   0.829   1.699  0.0106 -0.2314 -0.1523
 3121TIP3    H130926   6.534   0.804   1.786  1.6480 -0.2881 -0.7605
 3121TIP3    H230927   6.421   0.777   1.689 -0.4773  0.1280  1.5015
 3122TIP3   OH230928   2.519   1.335   0.272  0.6213  0.6404 -0.0877
 3122TIP3    H130929   2.430   1.336   0.308  1.8680  0.9776  3.3532
 3122TIP3    H230930   2.510   1.372   0.185 -3.2579 -3.4836 -1.8403
 3123TIP3   OH230931   2.509   6.537   0.866  0.6781 -0.4413 -0.1909
 3123TIP3    H130932   2.532   6.588   0.788  0.3972  0.6106  0.4015
 3123TIP3    H230933   2.428   6.577   0.898 -0.1734 -1.9667 -0.3267
 3124TIP3   OH230934   3.237   6.859   0.552 -0.0926  0.2802  0.1294
 3124TIP3    H130935   3.312   6.825   0.503  0.8108  2.2521  0.0688
 3124TIP3    H230936   3.250   6.827   0.641  1.3821  1.4051  0.3403
 3125TIP3   OH230937   4.417   0.300   7.006 -0.1494 -0.0635 -0.4864
 3125TIP3    H130938   4.366   0.284   7.085 -0.7036  0.6473 -0.6859
 3125TIP3    H230939   4.444   0.213   6.976 -0.2638 -0.3649  0.2613
 3126TIP3   OH230940   0.993   1.521   0.750 -0.5124  0.4021 -0.3434
 3126TIP3    H130941   0.947   1.438   0.752  0.7734 -0.3200  1.7275
 3126TIP3    H230942   1.048   1.521   0.828  1.4111  2.1257 -1.5777
 3127TIP3   OH230943   2.642   5.711   2.044 -0.5428  0.2285  0.2815
 3127TIP3    H130944   2.712   5.775   2.032 -0.4172  0.0907  0.2877
 3127TIP3    H230945   2.605   5.733   2.130  0.4729 -0.6418  0.9705
 3128TIP3   OH230946   0.362   6.341   8.144 -0.3581 -0.3397 -0.1652
 3128TIP3    H130947   0.332   6.295   8.222  1.1909 -2.0044 -0.4831
 3128TIP3    H230948   0.412   6.415   8.178 -0.5448 -0.4702  0.4021
 3129TIP3   OH230949   3.975   3.352   1.014 -0.2924  0.4679  0.1667
 3129TIP3    H130950   4.057   3.309   1.039 -0.7200 -1.0121 -0.8730
 3129TIP3    H230951   3.908   3.307   1.066 -0.7232 -0.0209 -0.7889
 3130TIP3   OH230952   3.325   4.114   1.565 -0.1500  0.0774  0.4433
 3130TIP3    H130953   3.329   4.043   1.501  0.5257 -0.0606  0.6289
 3130TIP3    H230954   3.305   4.070   1.648 -1.9595  0.3491  0.1998
 3131TIP3   OH230955   4.979   1.801   1.595  0.4483 -0.2975 -0.0071
 3131TIP3    H130956   5.042   1.764   1.656  1.4847  1.1338 -0.1439
 3131TIP3    H230957   5.033   1.848   1.531 -0.7138  0.0309 -0.7746
 3132TIP3   OH230958   1.128   6.460   0.129 -0.4182 -0.0321 -0.2259
 3132TIP3    H130959   1.214   6.421   0.137 -1.1468 -1.2192  3.8593
 3132TIP3    H230960   1.077   6.396   0.079  0.7373  0.3241 -1.9787
 3133TIP3   OH230961   0.800   5.250   6.656  0.1000  0.0104  0.6983
 3133TIP3    H130962   0.787   5.344   6.651 -0.1561  0.1251  2.6849
 3133TIP3    H230963   0.848   5.228   6.576  1.0162  1.9616  0.6595
 3134TIP3   OH230964   6.682   6.076   7.325  0.5807  0.6499  0.0188
 3134TIP3    H130965   6.765   6.030   7.310  0.2679  0.5725 -1.7126
 3134TIP3    H230966   6.635   6.020   7.386  0.1273 -1.5639 -2.1717
 3135TIP3   OH230967   2.292   2.216   8.056  0.3247 -0.2435 -0.2580
 3135TIP3    H130968   2.384   2.206   8.079 -0.0567  0.8323  2.0571
 3135TIP3    H230969   2.291   2.220   7.961  2.7017  0.0683 -0.3317
 3136TIP3   OH230970   4.754   6.425   1.854  0.1522  0.2229  0.2753
 3136TIP3    H130971   4.746   6.381   1.770 -2.5450  1.4546 -0.2550
 3136TIP3    H230972   4.829   6.384   1.897  1.9030 -0.1561 -2.8566
 3137TIP3   OH230973   1.130   3.365   1.148 -0.3068  0.3769  0.0727
 3137TIP3    H130974   1.104   3.455   1.168  0.0213  0.2301  1.1940
 3137TIP3    H230975   1.054   3.312   1.172 -0.9824  0.4387 -1.7561
 3138TIP3   OH230976   1.573   6.941   8.148  0.3692 -0.2684 -0.2470
 3138TIP3    H130977   1.601   6.950   8.057  2.0903 -1.7540  0.0840
 3138TIP3    H230978   1.542   7.029   8.172 -0.2217  0.1267 -2.2613
 3139TIP3   OH230979   0.542   6.061   2.096 -0.6336  0.0059  0.2320
 3139TIP3    H130980   0.486   6.070   2.173  0.6257 -0.3102  1.2122
 3139TIP3    H230981   0.621   6.111   2.117 -0.1999 -0.2344 -0.7733
 3140TIP3   OH230982   6.442   2.625   6.054  0.1781 -0.0624  0.1362
 3140TIP3    H130983   6.502   2.593   6.122 -0.4123 -0.7847  0.3239
 3140TIP3    H230984   6.479   2.593   5.972  0.4212  0.0830  0.1857
 3141TIP3   OH230985   4.448   0.769   1.476 -0.4972 -0.1858 -0.3501
 3141TIP3    H130986   4.364   0.740   1.441 -0.4690 -1.1146  0.3064
 3141TIP3    H230987   4.428   0.804   1.562 -0.1391 -0.9962  0.0703
 3142TIP3   OH230988   1.985   0.942   0.618 -0.3584 -1.0045 -0.1916
 3142TIP3    H130989   1.988   1.028   0.575  1.8039 -0.4191  0.9818
 3142TIP3    H230990   1.933   0.887   0.559 -1.2975  0.9269 -1.2665
 3143TIP3   OH230991   2.823   6.572   7.280 -0.3954 -0.2194  0.5512
 3143TIP3    H130992   2.862   6.632   7.343  0.9661 -0.4125 -0.0759
 3143TIP3    H230993   2.760   6.625   7.232  2.6953  1.5891 -1.8959
 3144TIP3   OH230994   2.580   5.382   1.414  0.4487 -0.3595 -0.6432
 3144TIP3    H130995   2.631   5.312   1.455 -0.3377 -1.7399 -1.9183
 3144TIP3    H230996   2.534   5.339   1.341  0.1127  1.5357 -1.6184
 3145TIP3   OH230997   6.691   6.455   7.050  0.4173 -0.2181 -0.4954
 3145TIP3    H130998   6.651   6.370   7.063 -2.6639  1.1192 -0.3419
 3145TIP3    H230999   6.784   6.441   7.067 -0.4539 -2.7309  3.4631
 3146TIP3   OH231000   2.923   6.182   1.642 -0.7529  0.3111  0.1111
 3146TIP3    H131001   3.004   6.137   1.666  0.0791  1.8097  0.2170
 3146TIP3    H231002   2.892   6.222   1.724  0.0312  2.2182 -0.4680
 3147TIP3   OH231003   1.369   3.323   6.829  0.1758  0.3624 -0.1721
 3147TIP3    H131004   1.286   3.279   6.848  1.3323 -1.7189  0.3845
 3147TIP3    H231005   1.396   3.289   6.744  0.7006  0.6327 -0.1219
 3148TIP3   OH231006   4.203   1.654   0.926  0.1854  0.0604  0.3232
 3148TIP3    H131007   4.254   1.617   0.853 -0.6124  1.3077 -0.9261
 3148TIP3    H231008   4.119   1.610   0.920  0.9880 -1.9147  2.3150
 3149TIP3   OH231009   1.073   2.012   1.619 -0.0386 -0.0186 -0.1457
 3149TIP3    H131010   1.092   1.929   1.662  0.0854 -0.7499 -1.5869
 3149TIP3    H231011   1.123   2.077   1.670  0.8735 -0.9888  0.2253
 3150TIP3   OH231012   5.013   6.751   7.174  0.1733 -0.1291  0.5113
 3150TIP3    H131013   5.055   6.836   7.178  0.2195 -0.1692  0.8828
 3150TIP3    H231014   4.945   6.754   7.241 -1.5891  0.5615 -1.1907
 3151TIP3   OH231015   5.723   3.015   1.940 -0.3206  0.3522 -0.0950
 3151TIP3    H131016   5.739   3.073   2.014  0.9811 -0.2354  0.1217
 3151TIP3    H231017   5.659   2.952   1.971 -0.1194  0.3791  0.3751
 3152TIP3   OH231018   1.335   5.389   0.370  0.7747 -0.5795 -0.2091
 3152TIP3    H131019   1.316   5.305   0.328 -3.1138  0.2543 -0.5126
 3152TIP3    H231020   1.348   5.450   0.298  2.5725 -0.6454  0.0085
 3153TIP3   OH231021   1.559   1.894   6.814 -0.2417 -0.2397 -0.2189
 3153TIP3    H131022   1.491   1.901   6.747 -1.3751 -1.3297  0.7810
 3153TIP3    H231023   1.536   1.962   6.878  0.2518  0.1192 -0.4178
 3154TIP3   OH231024   3.532   5.221   6.933  0.3264  0.8651  0.0741
 3154TIP3    H131025   3.550   5.137   6.975  0.0358 -0.5914 -2.5296
 3154TIP3    H231026   3.438   5.236   6.949  0.5052  1.0150  1.0351
 3155TIP3   OH231027   1.848   6.673   1.101  0.1333  0.8677  0.1443
 3155TIP3    H131028   1.883   6.637   1.182 -0.6818 -2.8434 -0.9418
 3155TIP3    H231029   1.924   6.674   1.041  0.1889  1.0848  0.2190
 3156TIP3   OH231030   2.551   5.301   7.691  0.0580  0.1420 -0.3312
 3156TIP3    H131031   2.592   5.290   7.777  0.1107  1.5835 -0.1565
 3156TIP3    H231032   2.458   5.291   7.707  0.0576  0.5315 -0.0762
 3157TIP3   OH231033   1.211   2.859   0.857  0.0944  0.3831 -0.3037
 3157TIP3    H131034   1.141   2.794   0.857  0.9713 -0.5864 -0.3935
 3157TIP3    H231035   1.196   2.911   0.935  0.2158 -0.8718  0.5850
 3158TIP3   OH231036   5.925   0.980   6.096 -0.4246  0.9655 -0.1173
 3158TIP3    H131037   5.889   1.068   6.086 -2.2571  0.0354 -2.7495
 3158TIP3    H231038   5.850   0.925   6.117  0.6885 -0.0340  1.4945
 3159TIP3   OH231039   3.359   5.057   1.777 -0.5931  0.2157  0.5190
 3159TIP3    H131040   3.283   5.080   1.831 -0.5265  0.3307  0.5636
 3159TIP3    H231041   3.422   5.020   1.839 -0.6005  0.1495  0.4870
 3160TIP3   OH231042   4.611   1.442   1.102  0.3254  0.3771 -1.1472
 3160TIP3    H131043   4.537   1.421   1.158  0.4113 -0.3903 -1.3030
 3160TIP3    H231044   4.578   1.508   1.041 -0.3291 -0.1819 -1.4168
 3161TIP3   OH231045   2.152   6.968   0.145  0.0511 -0.2550 -0.0336
 3161TIP3    H131046   2.064   6.955   0.181  0.8892 -2.6736  1.4128
 3161TIP3    H231047   2.190   7.037   0.200 -0.3098 -0.5549  0.6030
 3162TIP3   OH231048   6.056   4.404   8.098  0.4678 -0.1052 -0.6123
 3162TIP3    H131049   5.976   4.370   8.138  1.4046 -0.3891  1.1131
 3162TIP3    H231050   6.045   4.499   8.097 -0.1559 -0.1795 -0.9961
 3163TIP3   OH231051   2.304   5.499   8.227  0.4454  0.2967  0.0724
 3163TIP3    H131052   2.323   5.435   8.295  1.5064  2.0624  1.5225
 3163TIP3    H231053   2.208   5.507   8.228  0.0671 -2.5840 -1.5116
 3164TIP3   OH231054   2.870   2.861   7.931  0.0486  0.5796 -0.5160
 3164TIP3    H131055   2.818   2.931   7.970  0.0432  0.7961 -0.9128
 3164TIP3    H231056   2.911   2.901   7.854 -1.5375 -0.3760 -1.9278
 3165TIP3   OH231057   4.203   0.543   8.005  0.1836  0.2561  0.8919
 3165TIP3    H131058   4.252   0.519   8.084  0.3007  0.6982  0.9584
 3165TIP3    H231059   4.118   0.500   8.015  0.8732 -1.3112  0.3303
 3166TIP3   OH231060   4.867   3.048   7.700  0.2178  0.0957  0.8039
 3166TIP3    H131061   4.850   3.087   7.614 -0.6574 -0.9953  0.4606
 3166TIP3    H231062   4.873   3.123   7.760 -1.6628  0.7957  0.2059
 3167TIP3   OH231063   2.693   3.122   7.697 -0.1792  0.0769  0.6328
 3167TIP3    H131064   2.703   3.065   7.774  0.3061 -0.1428  0.4115
 3167TIP3    H231065   2.678   3.209   7.734 -1.2155 -0.2319  0.9779
 3168TIP3   OH231066   4.035   6.706   0.888 -0.3772  0.2023 -0.0324
 3168TIP3    H131067   3.976   6.717   0.963  1.3554 -0.9514  1.5878
 3168TIP3    H231068   4.018   6.616   0.858  0.5922 -0.1962  0.5447
 3169TIP3   OH231069   2.520   3.533   0.564 -0.3890  0.0756  0.4518
 3169TIP3    H131070   2.441   3.574   0.598 -1.1164 -0.6323 -0.3630
 3169TIP3    H231071   2.526   3.562   0.473  0.8471  0.9184  0.7731
 3170TIP3   OH231072   1.737   2.573   6.388 -0.5629  0.7432  0.5568
 3170TIP3    H131073   1.648   2.564   6.422 -0.9989  1.1381 -0.4165
 3170TIP3    H231074   1.761   2.485   6.360 -0.5349  0.5810  1.0888
 3171TIP3   OH231075   0.607   0.479   0.613  0.0822 -0.6581 -0.1330
 3171TIP3    H131076   0.605   0.538   0.688  0.9345 -0.3680 -0.3305
 3171TIP3    H231077   0.626   0.536   0.538  0.9263 -1.1694 -0.3255
 3172TIP3   OH231078   0.586   5.665   1.587  0.6355  0.0925 -0.4365
 3172TIP3    H131079   0.492   5.666   1.569  0.7089 -0.0644 -0.8589
 3172TIP3    H231080   0.613   5.756   1.582  0.1866  0.3654  1.5036
 3173TIP3   OH231081   5.745   1.470   6.246  0.2687  0.3569 -0.0082
 3173TIP3    H131082   5.792   1.538   6.198  0.3225  0.1100 -0.3043
 3173TIP3    H231083   5.661   1.462   6.201  1.1667 -1.4621 -1.4940
 3174TIP3   OH231084   4.622   3.707   7.640 -0.4234  0.3275 -0.4110
 3174TIP3    H131085   4.620   3.682   7.732 -2.2656  0.9139 -0.2512
 3174TIP3    H231086   4.567   3.643   7.595  0.7843 -0.1912 -1.1818
 3175TIP3   OH231087   6.632   4.689   7.407  0.8967 -0.0864 -0.1394
 3175TIP3    H131088   6.712   4.742   7.408  1.3213 -0.6877 -0.7265
 3175TIP3    H231089   6.561   4.752   7.409  1.3407  0.4405  2.5328
 3176TIP3   OH231090   3.123   1.301   6.125 -0.5427  0.9646  0.1620
 3176TIP3    H131091   3.117   1.368   6.192  0.8413 -0.0915  1.4063
 3176TIP3    H231092   3.217   1.290   6.110 -0.6286 -1.6003  0.9824
 3177TIP3   OH231093   4.710   2.871   8.230 -0.4642  0.0497  0.6183
 3177TIP3    H131094   4.737   2.877   8.139 -1.2298 -1.2811  0.2741
 3177TIP3    H231095   4.779   2.819   8.272  0.2516  1.2586  0.9760
 3178TIP3   OH231096   6.356   3.270   1.654  0.5818  0.1549  0.3155
 3178TIP3    H131097   6.421   3.291   1.587 -0.1247  0.1835 -0.3878
 3178TIP3    H231098   6.320   3.355   1.680  0.7384  0.1306  0.6109
 3179TIP3   OH231099   1.853   6.243   8.267 -0.0195  0.0546  0.2441
 3179TIP3    H131100   1.943   6.211   8.274 -0.1595 -0.4071 -0.0191
 3179TIP3    H231101   1.851   6.320   8.323  0.5418  0.0701  0.2534
 3180TIP3   OH231102   6.252   2.099   6.396 -0.3314  0.5176 -0.0700
 3180TIP3    H131103   6.207   2.183   6.389 -1.4914 -0.2011 -2.8159
 3180TIP3    H231104   6.271   2.074   6.306  1.4696 -1.4255  0.7554
 3181TIP3   OH231105   1.406   6.441   7.547  0.4274  0.0279  0.5812
 3181TIP3    H131106   1.368   6.528   7.560  0.9590  0.5215 -0.9820
 3181TIP3    H231107   1.403   6.401   7.634 -0.2208  1.4423  1.2468
 3182TIP3   OH231108   0.139   4.599   0.802  0.0687  0.1157  0.1179
 3182TIP3    H131109   0.231   4.621   0.789 -0.6529  2.4229 -1.5772
 3182TIP3    H231110   0.110   4.561   0.719 -0.7345  0.2224  0.3358
 3183TIP3   OH231111   2.779   5.853   0.312 -0.6809  0.1318 -0.7218
 3183TIP3    H131112   2.812   5.883   0.396 -1.6637 -1.6536  0.3540
 3183TIP3    H231113   2.786   5.929   0.255  0.6806  1.1713  0.7663
 3184TIP3   OH231114   4.473   3.705   6.468  0.9426 -0.1658 -0.5597
 3184TIP3    H131115   4.415   3.647   6.518  0.3649  0.5814 -0.3541
 3184TIP3    H231116   4.561   3.680   6.495  0.7026 -0.9106 -0.4361
 3185TIP3   OH231117   6.416   3.277   6.252 -0.4466  0.3949  0.1175
 3185TIP3    H131118   6.369   3.288   6.335  2.7008  1.4342  1.9057
 3185TIP3    H231119   6.436   3.366   6.224 -1.2182  0.0406 -1.6994
 3186TIP3   OH231120   0.645   2.017   8.151  0.3473  0.0251  0.2159
 3186TIP3    H131121   0.715   1.974   8.201  1.0531  1.4590  0.5079
 3186TIP3    H231122   0.692   2.070   8.086 -0.3810  2.3043  1.4621
 3187TIP3   OH231123   0.101   1.246   7.252  0.0988 -0.2119  0.4470
 3187TIP3    H131124   0.065   1.259   7.340  0.7223  0.2931  0.6338
 3187TIP3    H231125   0.196   1.257   7.262  0.5735 -3.1616  0.2966
 3188TIP3   OH231126   4.879   3.768   0.842  0.1856  0.0919 -0.2468
 3188TIP3    H131127   4.899   3.717   0.920  0.7913 -0.1019 -0.5232
 3188TIP3    H231128   4.961   3.813   0.820  1.3861 -3.0637 -3.1644
 3189TIP3   OH231129   2.176   0.450   0.395 -0.2815 -0.1465  0.1179
 3189TIP3    H131130   2.187   0.544   0.381  0.6216 -0.2664 -0.0913
 3189TIP3    H231131   2.210   0.434   0.483  0.0051 -0.3361 -0.0222
 3190TIP3   OH231132   0.131   2.055   7.349  0.4104 -0.1445 -0.1825
 3190TIP3    H131133   0.225   2.066   7.365  0.1754 -0.0902  1.2543
 3190TIP3    H231134   0.122   2.065   7.254  1.7740  0.4641 -0.2748
 3191TIP3   OH231135   0.078   5.278   8.060  0.5559 -0.4013 -0.0501
 3191TIP3    H131136   0.099   5.194   8.018  1.9268 -1.2237  2.1166
 3191TIP3    H231137   0.149   5.291   8.123 -1.4236  0.7171  2.0767
 3192TIP3   OH231138   1.265   5.057   6.752 -0.2017 -0.6166  0.0339
 3192TIP3    H131139   1.329   5.042   6.682 -0.4241  1.9336 -0.8127
 3192TIP3    H231140   1.210   5.128   6.719 -0.3441  0.6640  2.7770
 3193TIP3   OH231141   0.891   0.611   6.254  0.0400  0.5427  0.3810
 3193TIP3    H131142   0.854   0.543   6.197 -0.1027  0.9175  0.0202
 3193TIP3    H231143   0.985   0.609   6.235  0.1784 -0.2345  1.1091
 3194TIP3   OH231144   0.114   6.864   0.979 -0.2834 -0.5606 -0.5620
 3194TIP3    H131145   0.105   6.914   1.061 -0.8637 -2.7464  0.7971
 3194TIP3    H231146   0.145   6.928   0.915 -1.6758  1.6985  0.8716
 3195TIP3   OH231147   2.386   5.586   7.399 -0.9028 -0.1059 -0.2713
 3195TIP3    H131148   2.305   5.628   7.428 -0.0690  0.1756  1.8479
 3195TIP3    H231149   2.369   5.493   7.408 -0.7969 -0.0322  0.8223
 3196TIP3   OH231150   3.979   6.581   2.284 -0.1489 -0.5976 -0.4562
 3196TIP3    H131151   4.005   6.588   2.376 -0.1376 -0.7706 -0.4457
 3196TIP3    H231152   3.915   6.510   2.283 -1.0962  0.2177 -0.3803
 3197TIP3   OH231153   1.680   0.741   0.769  0.3294 -0.3468 -0.1373
 3197TIP3    H131154   1.747   0.697   0.821  0.7760  0.5584  0.0845
 3197TIP3    H231155   1.726   0.775   0.693  0.1477  0.3167  0.0368
 3198TIP3   OH231156   3.169   3.973   2.224  0.3403  0.2351  0.1127
 3198TIP3    H131157   3.114   4.051   2.219  0.8902  0.6706  0.6701
 3198TIP3    H231158   3.257   4.007   2.235  0.9115 -0.4224 -1.9725
 3199TIP3   OH231159   0.132   6.015   0.805  0.0167  0.5601  0.3526
 3199TIP3    H131160   0.071   6.043   0.737 -0.0836 -0.5172 -0.0122
 3199TIP3    H231161   0.077   6.000   0.882  0.2183  2.5198  0.9489
 3200TIP3   OH231162   5.367   3.817   0.896 -0.4151  0.3600 -0.2606
 3200TIP3    H131163   5.422   3.862   0.960  1.3852 -0.4374 -1.1742
 3200TIP3    H231164   5.352   3.731   0.934  0.4834 -0.0410 -0.7639
 3201TIP3   OH231165   6.247   2.865   7.531  0.0296 -0.0425 -0.3971
 3201TIP3    H131166   6.202   2.817   7.462 -1.0603  0.7609 -0.2644
 3201TIP3    H231167   6.327   2.814   7.548  0.3205 -0.2560 -2.2326
 3202TIP3   OH231168   2.865   0.561   6.883  0.0925 -0.1172 -0.4718
 3202TIP3    H131169   2.959   0.557   6.868  0.4012 -1.3442  1.5202
 3202TIP3    H231170   2.829   0.590   6.799  2.1538 -0.4414 -1.5238
 3203TIP3   OH231171   6.676   2.634   0.188 -0.0543 -0.2895 -0.2620
 3203TIP3    H131172   6.590   2.655   0.153 -0.0989 -1.7916 -1.1686
 3203TIP3    H231173   6.705   2.714   0.232 -2.2016  0.0353  0.7019
 3204TIP3   OH231174   1.946   5.058   6.825  0.4607 -0.3591 -0.0393
 3204TIP3    H131175   1.855   5.058   6.798  0.4844 -0.8378 -0.1306
 3204TIP3    H231176   1.983   4.979   6.785  0.9216 -0.1500 -0.0346
 3205TIP3   OH231177   3.817   0.747   7.407 -0.4463  0.2238  0.1269
 3205TIP3    H131178   3.799   0.746   7.313  1.3928  0.3382 -0.2770
 3205TIP3    H231179   3.905   0.785   7.414 -0.6708  0.5246  1.9270
 3206TIP3   OH231180   6.470   0.921   1.436 -0.1751 -0.3211  0.7739
 3206TIP3    H131181   6.489   0.896   1.526 -2.1921  0.6835  1.5402
 3206TIP3    H231182   6.374   0.930   1.433 -0.0746  0.7590 -1.1729
 3207TIP3   OH231183   4.487   5.905   1.107 -0.7686  0.5513 -0.1602
 3207TIP3    H131184   4.567   5.859   1.130 -0.2038  2.4146  1.9929
 3207TIP3    H231185   4.448   5.852   1.038  1.4213 -1.3412 -0.0764
 3208TIP3   OH231186   1.662   2.491   0.062  0.5355  0.7000 -0.4423
 3208TIP3    H131187   1.754   2.515   0.066  0.6127  0.3466 -0.0964
 3208TIP3    H231188   1.634   2.486   0.153 -0.0769  1.7462 -0.5482
 3209TIP3   OH231189   3.351   5.855   0.202  0.3215  0.5699  0.2392
 3209TIP3    H131190   3.321   5.927   0.256 -1.0435  0.8836 -0.8839
 3209TIP3    H231191   3.272   5.803   0.185  0.5104  0.9555 -2.1219
 3210TIP3   OH231192   3.379   0.156   7.665 -0.2418  0.1197 -1.0144
 3210TIP3    H131193   3.436   0.087   7.630  2.7455  1.8788  0.0539
 3210TIP3    H231194   3.294   0.113   7.676  1.8344 -3.9785  1.2832
 3211TIP3   OH231195   6.335   1.968   1.327 -0.3629 -0.1070  0.1197
 3211TIP3    H131196   6.325   1.996   1.418  1.8490  1.2830 -0.0037
 3211TIP3    H231197   6.391   1.890   1.332 -0.6468 -0.3247 -0.0369
 3212TIP3   OH231198   2.668   5.155   6.997 -0.3301  0.2232 -0.0633
 3212TIP3    H131199   2.698   5.240   7.030  1.6006 -0.8668  1.2028
 3212TIP3    H231200   2.578   5.148   7.028 -0.3847  1.6234  0.1647
 3213TIP3   OH231201   0.790   2.001   0.870 -0.2810 -1.2644 -0.4947
 3213TIP3    H131202   0.870   2.029   0.825  0.3617 -3.1692 -0.6477
 3213TIP3    H231203   0.720   2.052   0.829  0.8404  0.5588 -0.2477
 3214TIP3   OH231204   6.090   0.427   1.133 -0.5973 -0.3331 -0.6148
 3214TIP3    H131205   6.041   0.456   1.210 -1.1492  2.0149 -1.7673
 3214TIP3    H231206   6.041   0.351   1.101 -0.2404 -1.4722  1.3995
 3215TIP3   OH231207   5.199   5.232   6.203  0.4003 -0.5640 -0.0832
 3215TIP3    H131208   5.195   5.257   6.111 -0.9641  0.7826  0.3048
 3215TIP3    H231209   5.292   5.237   6.225  0.7528 -1.0047 -1.4016
 3216TIP3   OH231210   1.139   4.056   0.560 -0.0797 -0.2212  0.0590
 3216TIP3    H131211   1.077   4.094   0.498  0.3482  3.0592  1.4606
 3216TIP3    H231212   1.087   3.990   0.608 -1.7199  0.5392 -0.6078
 3217TIP3   OH231213   6.673   6.909   7.044 -0.6350  0.4498 -0.0957
 3217TIP3    H131214   6.768   6.916   7.052 -0.6796  2.1010 -0.5730
 3217TIP3    H231215   6.640   6.979   7.101 -1.4366  1.9024 -2.2084
 3218TIP3   OH231216   4.155   4.513   5.815  0.5214 -0.1371 -0.1370
 3218TIP3    H131217   4.100   4.448   5.859 -0.4341 -0.2318 -1.4366
 3218TIP3    H231218   4.224   4.461   5.772  0.5992 -0.1598  0.0129
 3219TIP3   OH231219   4.075   0.201   8.075  0.0793 -0.4167  0.5762
 3219TIP3    H131220   4.163   0.221   8.105 -0.1938 -1.1592  1.9608
 3219TIP3    H231221   4.019   0.216   8.152 -0.8973 -0.6409 -0.0711
 3220TIP3   OH231222   5.239   5.897   1.628  0.2101  0.4536  0.8311
 3220TIP3    H131223   5.308   5.963   1.635 -0.4081  0.9819  2.3752
 3220TIP3    H231224   5.173   5.924   1.692 -2.1851  0.8251 -1.5972
 3221TIP3   OH231225   5.568   4.864   6.408 -0.2555 -0.1602 -0.0427
 3221TIP3    H131226   5.564   4.814   6.489  0.6932 -2.1457 -1.1455
 3221TIP3    H231227   5.477   4.885   6.389 -0.8007 -2.1041  0.1433
 3222TIP3   OH231228   6.317   1.236   7.732 -0.1945  0.4563 -0.1751
 3222TIP3    H131229   6.322   1.330   7.716  2.1635  0.3550 -0.4251
 3222TIP3    H231230   6.315   1.227   7.827 -0.4935  0.7513 -0.1525
 3223TIP3   OH231231   4.263   0.601   1.944 -0.6283 -0.0263 -0.4287
 3223TIP3    H131232   4.311   0.650   2.010 -1.7130 -1.4254  1.5245
 3223TIP3    H231233   4.279   0.509   1.966 -1.6522 -0.5429 -1.6671
 3224TIP3   OH231234   2.138   5.980   6.309 -0.1399  0.6742  0.1271
 3224TIP3    H131235   2.194   5.977   6.231  3.0848  1.6738  2.1631
 3224TIP3    H231236   2.158   6.065   6.349 -0.8194 -0.2271  2.5420
 3225TIP3   OH231237   0.535   5.911   1.297 -0.2651  0.2318  0.0580
 3225TIP3    H131238   0.571   5.965   1.367 -2.6168  0.9277  0.8537
 3225TIP3    H231239   0.543   5.822   1.329  1.1969  0.3071 -0.0539
 3226TIP3   OH231240   0.818   4.202   7.270  0.1566 -0.2678  0.4900
 3226TIP3    H131241   0.764   4.216   7.348 -0.4992 -1.4171  0.2846
 3226TIP3    H231242   0.824   4.106   7.263 -1.2108 -0.2770 -1.7668
 3227TIP3   OH231243   2.481   5.104   1.038  0.0655 -0.5188 -0.2216
 3227TIP3    H131244   2.393   5.067   1.032  0.5189 -1.6992  0.1650
 3227TIP3    H231245   2.539   5.032   1.013  0.9806 -0.0683  0.5554
 3228TIP3   OH231246   5.174   1.582   1.116  0.1442  0.2228 -0.2908
 3228TIP3    H131247   5.091   1.629   1.108 -0.2479 -0.2772  0.6795
 3228TIP3    H231248   5.163   1.504   1.061  0.4274  0.7545 -1.1147
 3229TIP3   OH231249   1.861   0.373   6.870 -0.3889 -0.0714 -0.3132
 3229TIP3    H131250   1.909   0.454   6.856 -1.8501  0.8950  0.0051
 3229TIP3    H231251   1.861   0.361   6.965 -1.7061  0.5647 -0.2098
 3230TIP3   OH231252   4.574   0.231   7.599 -0.5294 -0.0163 -0.0672
 3230TIP3    H131253   4.614   0.169   7.659 -1.5081 -2.1171 -1.4617
 3230TIP3    H231254   4.480   0.215   7.607 -0.6490 -1.4874 -3.1886
 3231TIP3   OH231255   5.310   4.901   6.359 -0.4463  0.4580  0.0368
 3231TIP3    H131256   5.243   4.862   6.302 -0.8781  1.1271  0.0656
 3231TIP3    H231257   5.279   4.991   6.373  0.3602  0.7151  0.2166
 3232TIP3   OH231258   3.349   5.990   1.867 -0.2453  0.0895  0.6351
 3232TIP3    H131259   3.300   6.064   1.903  0.9877  0.1574  2.3331
 3232TIP3    H231260   3.438   6.024   1.855 -0.3510 -0.2903 -1.4823
 3233TIP3   OH231261   1.064   2.457   1.056  0.5207 -0.0170  0.2801
 3233TIP3    H131262   1.101   2.370   1.045  1.0583  0.3683 -1.2430
 3233TIP3    H231263   1.125   2.501   1.116  0.6764 -0.4413  0.4370
 3234TIP3   OH231264   1.083   0.827   0.495 -0.0099  0.4933 -0.1363
 3234TIP3    H131265   1.019   0.820   0.424  0.6335 -0.0346 -0.6900
 3234TIP3    H231266   1.044   0.781   0.568  0.2539 -0.9560 -0.8689
 3235TIP3   OH231267   2.615   3.866   7.848 -0.4661 -0.1426  0.3514
 3235TIP3    H131268   2.586   3.795   7.791 -1.3366  1.8162 -1.7803
 3235TIP3    H231269   2.709   3.875   7.830 -0.4632 -0.3897  0.2401
 3236TIP3   OH231270   5.049   2.332   8.042  0.2949  0.0675 -0.3220
 3236TIP3    H131271   5.023   2.241   8.028  0.7195  0.0577 -1.1140
 3236TIP3    H231272   5.054   2.342   8.137 -1.6238 -0.2040 -0.1545
 3237TIP3   OH231273   0.639   0.940   1.240  0.8244  0.0774  0.1072
 3237TIP3    H131274   0.731   0.940   1.268  0.8513 -0.3728  0.0207
 3237TIP3    H231275   0.630   1.019   1.188  1.5336 -0.6155 -1.0964
 3238TIP3   OH231276   0.332   6.233   6.161  0.1138  0.0639 -0.2134
 3238TIP3    H131277   0.295   6.187   6.086 -0.8530  0.1365  0.1990
 3238TIP3    H231278   0.279   6.204   6.235 -0.8605  2.1465 -0.0116
 3239TIP3   OH231279   3.326   2.559   7.035  0.0701 -0.0001 -0.3228
 3239TIP3    H131280   3.290   2.555   7.123 -2.5892 -1.2898 -1.3790
 3239TIP3    H231281   3.358   2.471   7.017  0.3939  0.1968 -0.7452
 3240TIP3   OH231282   4.383   2.277   1.490 -0.1727 -0.2356  0.6182
 3240TIP3    H131283   4.344   2.193   1.515  1.3031 -0.8928  0.8667
 3240TIP3    H231284   4.406   2.318   1.573 -1.5578  0.7767  0.5233
 3241TIP3   OH231285   5.617   6.447   0.073 -0.5597  0.1096 -0.0310
 3241TIP3    H131286   5.617   6.501   0.152 -0.9612 -0.1959  0.1829
 3241TIP3    H231287   5.667   6.498   0.009  0.7145 -0.1165  0.7348
 3242TIP3   OH231288   2.932   2.945   8.195  0.1925 -0.5100 -0.5989
 3242TIP3    H131289   2.940   2.881   8.124  0.0895 -0.4495 -0.6657
 3242TIP3    H231290   2.913   3.028   8.150  0.4950 -0.3981 -0.5246
 3243TIP3   OH231291   4.948   1.121   0.239  0.0760  0.0367  0.2707
 3243TIP3    H131292   4.873   1.178   0.258 -1.5105 -1.2901 -1.5253
 3243TIP3    H231293   4.945   1.054   0.308  0.0286  0.3690  0.5928
 3244TIP3   OH231294   2.884   3.681   1.158 -0.3608 -0.2641  0.2620
 3244TIP3    H131295   2.828   3.675   1.081  0.8542  3.2111 -1.1042
 3244TIP3    H231296   2.967   3.716   1.124  0.1022  1.7582  3.1510
 3245TIP3   OH231297   6.789   2.520   7.499  0.5573  0.1086  0.5958
 3245TIP3    H131298   6.711   2.492   7.546  0.0427  0.2926 -0.1339
 3245TIP3    H231299   6.770   2.501   7.407  1.2021  0.5428  0.3635
 3246TIP3   OH231300   5.941   4.378   0.247 -0.3706 -0.1602 -0.3528
 3246TIP3    H131301   6.027   4.339   0.232  0.6680  2.0593 -0.5749
 3246TIP3    H231302   5.936   4.389   0.342 -0.4814 -0.4323 -0.3266
 3247TIP3   OH231303   0.366   4.021   0.520  0.3376 -0.4185  0.4069
 3247TIP3    H131304   0.450   3.987   0.550 -1.0649 -1.0552  4.1100
 3247TIP3    H231305   0.347   4.094   0.578 -1.9530 -0.7069  0.1085
 3248TIP3   OH231306   6.549   6.771   1.015  0.6039  0.2495 -0.3148
 3248TIP3    H131307   6.525   6.695   0.962  0.9098 -0.8773  1.1081
 3248TIP3    H231308   6.496   6.842   0.980 -0.8254 -0.9634 -0.7194
 3249TIP3   OH231309   3.506   5.169   8.192  0.6237  0.0084  0.1576
 3249TIP3    H131310   3.481   5.258   8.219 -0.2097  0.9313 -3.1952
 3249TIP3    H231311   3.480   5.164   8.100  3.6169 -2.6003 -0.7153
 3250TIP3   OH231312   1.432   1.840   6.200  0.0886  0.3625 -0.6850
 3250TIP3    H131313   1.508   1.893   6.175  0.9775  0.1088  1.2967
 3250TIP3    H231314   1.378   1.900   6.251  0.2249 -0.1416  0.0608
 3251TIP3   OH231315   0.636   0.249   6.326 -0.0828  0.3027  0.3437
 3251TIP3    H131316   0.705   0.306   6.292  0.1423 -0.3353 -0.2796
 3251TIP3    H231317   0.555   0.295   6.307  0.0824  0.2859 -0.4078
 3252TIP3   OH231318   5.783   3.415   8.030  0.8558  0.1210  0.2898
 3252TIP3    H131319   5.759   3.472   7.956 -0.1694 -0.5315  0.1063
 3252TIP3    H231320   5.811   3.476   8.098  0.1343  0.8362 -0.0339
 3253TIP3   OH231321   0.425   4.482   1.226 -0.5912 -0.2608 -0.2025
 3253TIP3    H131322   0.352   4.480   1.164 -0.5633 -0.7263 -0.2264
 3253TIP3    H231323   0.392   4.531   1.301 -0.0089  2.0137 -1.3375
 3254TIP3   OH231324   3.544   5.427   7.338 -0.1640  0.3663  0.0514
 3254TIP3    H131325   3.588   5.343   7.326 -2.1982 -0.5043 -2.1144
 3254TIP3    H231326   3.579   5.482   7.268 -1.1556  0.2487 -0.5497
 3255TIP3   OH231327   5.839   0.379   7.480  0.6689  0.0924 -0.4494
 3255TIP3    H131328   5.923   0.346   7.510  0.3805  0.8523  1.3410
 3255TIP3    H231329   5.815   0.323   7.406  1.2611 -2.1887  1.0113
 3256TIP3   OH231330   3.216   1.892   6.955 -1.2850  0.3441 -0.6953
 3256TIP3    H131331   3.157   1.942   7.012 -0.3348  0.3008  0.3470
 3256TIP3    H231332   3.304   1.915   6.985 -0.7854 -0.2491 -1.6672
 3257TIP3   OH231333   3.561   0.344   8.299 -0.1679  0.4292  0.2501
 3257TIP3    H131334   3.466   0.341   8.285 -0.1386  0.9744 -0.0721
 3257TIP3    H231335   3.584   0.436   8.291  0.2436  0.4416  1.3145
 3258TIP3   OH231336   6.442   2.711   7.668 -0.3222 -0.0431 -0.4415
 3258TIP3    H131337   6.523   2.762   7.670 -0.1272 -0.2301 -1.9416
 3258TIP3    H231338   6.468   2.627   7.631 -1.1489 -0.1935 -0.7090
 3259TIP3   OH231339   1.361   6.031   0.607 -0.2850 -0.5261  0.5042
 3259TIP3    H131340   1.360   6.068   0.519 -1.1396 -1.9043 -0.0930
 3259TIP3    H231341   1.393   6.102   0.663  0.0939  0.4224 -0.8803
 3260TIP3   OH231342   6.387   4.546   6.931 -0.6059 -0.2200  0.0531
 3260TIP3    H131343   6.316   4.493   6.968 -0.4395 -0.2216  0.3723
 3260TIP3    H231344   6.426   4.490   6.864 -0.8166 -0.2704 -0.0304
 3261TIP3   OH231345   6.070   1.942   8.292 -0.4236  0.4905  0.1759
 3261TIP3    H131346   6.029   1.855   8.297  2.0856 -0.9493 -1.6641
 3261TIP3    H231347   6.015   1.990   8.230  0.9218 -1.6898 -2.9689
 3262TIP3   OH231348   2.297   1.299   1.896 -0.3264 -0.5007 -0.5123
 3262TIP3    H131349   2.223   1.296   1.835 -1.5112  0.5437  0.8234
 3262TIP3    H231350   2.279   1.228   1.958  1.1076 -1.8537 -1.5656
 3263TIP3   OH231351   4.101   6.913   1.938  0.5787  0.2850  0.3313
 3263TIP3    H131352   4.033   6.980   1.939  0.0480 -0.1454 -1.8486
 3263TIP3    H231353   4.117   6.894   2.031 -2.2985  0.3856  0.9507
 3264TIP3   OH231354   6.320   4.806   6.828 -0.5426 -0.4614  0.1542
 3264TIP3    H131355   6.359   4.734   6.877 -0.8921 -1.0176 -0.3792
 3264TIP3    H231356   6.392   4.867   6.812 -0.4199 -0.2708  1.3464
 3265TIP3   OH231357   0.197   1.905   2.625 -0.2803  0.1650  0.4808
 3265TIP3    H131358   0.137   1.951   2.685 -0.2630 -1.2148  1.6005
 3265TIP3    H231359   0.150   1.903   2.542 -1.6023 -0.4065  1.2017
 3266TIP3   OH231360   6.106   1.533   6.549  0.0572  0.1934  0.7071
 3266TIP3    H131361   6.195   1.549   6.580 -0.0744 -0.0096  1.1903
 3266TIP3    H231362   6.050   1.554   6.624 -0.4025  1.6175  0.0171
 3267TIP3   OH231363   0.802   6.092   6.204 -0.3708 -0.3024 -0.2909
 3267TIP3    H131364   0.722   6.117   6.157 -0.0788  1.9501  0.2788
 3267TIP3    H231365   0.815   6.000   6.182 -2.7583 -0.5618 -0.9056
 3268TIP3   OH231366   4.394   1.434   1.295  0.1818 -0.1032 -0.7410
 3268TIP3    H131367   4.361   1.433   1.385 -0.8697 -0.9772 -1.1000
 3268TIP3    H231368   4.334   1.492   1.248 -0.1142 -0.7126 -1.1420
 3269TIP3   OH231369   6.705   4.116   6.499 -0.3425  0.1094 -0.7267
 3269TIP3    H131370   6.615   4.084   6.496 -0.2121 -0.9467  2.3345
 3269TIP3    H231371   6.757   4.047   6.458 -0.6537 -0.9181  0.5432
 3270TIP3   OH231372   2.831   6.522   1.985  0.0603 -0.0721  0.3004
 3270TIP3    H131373   2.829   6.583   1.911 -0.0565  0.6839  0.9128
 3270TIP3    H231374   2.789   6.570   2.057 -0.5620 -1.0868  0.6388
 3271TIP3   OH231375   4.767   5.946   6.455 -0.5716 -0.3540  0.2371
 3271TIP3    H131376   4.839   5.945   6.393 -0.9393 -0.2538 -0.1917
 3271TIP3    H231377   4.773   5.861   6.499 -1.1010 -0.9707 -0.8510
 3272TIP3   OH231378   3.100   5.337   1.509  0.1785  0.8426  0.1589
 3272TIP3    H131379   3.152   5.319   1.587  0.9688 -1.2660 -0.8107
 3272TIP3    H231380   3.067   5.426   1.523  0.5205  0.6384  2.7513
 3273TIP3   OH231381   1.809   4.895   1.358  0.2663  0.0696 -0.4621
 3273TIP3    H131382   1.759   4.854   1.288  0.2290  0.1716 -0.4944
 3273TIP3    H231383   1.891   4.921   1.316  0.7118 -0.8761 -0.2183
 3274TIP3   OH231384   3.576   0.159   6.414  0.2212 -0.1334 -0.0094
 3274TIP3    H131385   3.565   0.112   6.331 -3.3641  0.1239  0.1682
 3274TIP3    H231386   3.599   0.248   6.388  0.0453 -0.2766 -0.6764
 3275TIP3   OH231387   2.637   1.155   0.985 -0.4119  0.7370  0.3270
 3275TIP3    H131388   2.646   1.168   0.890 -0.8559  0.1443  0.1978
 3275TIP3    H231389   2.554   1.199   1.007 -1.4815 -1.0631  0.0354
 3276TIP3   OH231390   2.783   2.360   8.125  0.3346  0.2409 -0.2855
 3276TIP3    H131391   2.872   2.327   8.135  0.1532  0.1076  1.1295
 3276TIP3    H231392   2.746   2.310   8.052  1.4875  0.4761 -1.0451
 3277TIP3   OH231393   0.202   2.880   0.846  0.5222 -0.0289 -0.1310
 3277TIP3    H131394   0.263   2.825   0.797  0.2401  0.0531 -0.5754
 3277TIP3    H231395   0.118   2.869   0.802  0.1135 -0.4701  0.7325
 3278TIP3   OH231396   3.596   6.383   7.694 -0.3920 -0.1646 -0.0172
 3278TIP3    H131397   3.636   6.470   7.705 -0.7005  0.0816 -0.8021
 3278TIP3    H231398   3.514   6.388   7.742 -1.2617  0.5846 -1.4885
 3279TIP3   OH231399   3.068   4.177   1.958 -0.3474  0.3009 -0.2324
 3279TIP3    H131400   3.036   4.088   1.949  0.0380  0.1286  0.1000
 3279TIP3    H231401   3.082   4.189   2.052  3.1969 -0.5885 -0.4760
 3280TIP3   OH231402   5.551   1.069   0.870  0.2176 -0.2774  0.5161
 3280TIP3    H131403   5.619   1.125   0.832 -1.2668 -0.6673 -3.1434
 3280TIP3    H231404   5.595   0.987   0.891  0.8570 -0.9849 -2.9649
 3281TIP3   OH231405   1.288   1.899   2.023  0.0433 -0.4379  0.5573
 3281TIP3    H131406   1.342   1.978   2.016 -0.0451 -0.4093  0.1916
 3281TIP3    H231407   1.251   1.903   2.111 -0.9876  0.6065  0.1127
 3282TIP3   OH231408   5.365   2.372   0.321  0.0623 -1.1391  0.1226
 3282TIP3    H131409   5.299   2.306   0.344  0.4489 -1.1130  1.3947
 3282TIP3    H231410   5.331   2.454   0.355  0.0689 -0.8512 -0.5441
 3283TIP3   OH231411   5.272   3.951   7.081  0.4787  0.1694  0.1781
 3283TIP3    H131412   5.303   3.971   6.993  1.0774  1.6572  0.7068
 3283TIP3    H231413   5.206   4.018   7.099 -0.2729 -0.6441  0.5556
 3284TIP3   OH231414   6.933   5.946   7.314  0.3941 -0.2998 -0.1114
 3284TIP3    H131415   6.971   5.860   7.297  0.0428 -0.7440  1.2472
 3284TIP3    H231416   6.982   6.005   7.257  2.5452 -0.9771  0.9556
 3285TIP3   OH231417   1.931   5.519   0.349 -0.3625  0.4900 -1.2294
 3285TIP3    H131418   1.901   5.480   0.431 -0.3393  2.0820 -0.4229
 3285TIP3    H231419   1.886   5.603   0.345 -0.1594  0.5572 -2.7405
 3286TIP3   OH231420   6.765   5.596   0.926  0.1840  0.1002 -0.4709
 3286TIP3    H131421   6.804   5.602   1.013  0.8160 -3.9226 -0.2700
 3286TIP3    H231422   6.682   5.549   0.940 -0.1843  0.2572 -1.9434
 3287TIP3   OH231423   3.010   5.896   7.066  0.0726  0.3362 -0.3899
 3287TIP3    H131424   2.935   5.840   7.044 -0.3469  1.1326 -1.0332
 3287TIP3    H231425   3.034   5.870   7.155 -1.3031  0.4035  0.0247
 3288TIP3   OH231426   3.241   1.631   7.064  0.4333 -0.6119 -0.1876
 3288TIP3    H131427   3.321   1.620   7.012  0.8435 -0.1355  0.3363
 3288TIP3    H231428   3.223   1.724   7.061 -0.3291 -0.7637 -0.6174
 3289TIP3   OH231429   6.193   0.876   7.176 -0.1872  0.7975 -0.2716
 3289TIP3    H131430   6.253   0.945   7.205 -0.0772  0.5506  0.0983
 3289TIP3    H231431   6.106   0.907   7.201  0.0469 -0.2621  2.1347
 3290TIP3   OH231432   5.843   0.280   6.244 -0.1363  0.4261  0.2327
 3290TIP3    H131433   5.895   0.209   6.282 -0.5276 -1.4573 -2.5011
 3290TIP3    H231434   5.757   0.273   6.286  0.4212  0.6301  1.4426
 3291TIP3   OH231435   4.324   4.164   0.954 -0.0711  0.2107 -0.3145
 3291TIP3    H131436   4.286   4.232   1.010  0.2353 -0.4455  0.7261
 3291TIP3    H231437   4.419   4.176   0.964  0.0139  1.0544 -1.9138
 3292TIP3   OH231438   2.672   4.897   7.156  0.3171 -0.2137 -0.2041
 3292TIP3    H131439   2.728   4.943   7.094  0.5247  0.3938  0.4107
 3292TIP3    H231440   2.714   4.812   7.168 -1.0360 -1.3580 -2.7226
 3293TIP3   OH231441   0.365   4.469   0.004  0.2247  0.7949  0.0604
 3293TIP3    H131442   0.419   4.446   0.080  0.5359  0.3778 -0.2834
 3293TIP3    H231443   0.428   4.483  -0.067 -0.1156  0.2373 -0.3606
 3294TIP3   OH231444   4.381   3.885   0.511 -0.7377 -0.1544  0.7546
 3294TIP3    H131445   4.323   3.810   0.490 -1.1948 -0.4982  2.9946
 3294TIP3    H231446   4.420   3.862   0.595 -0.7486  2.0513  1.4255
 3295TIP3   OH231447   4.336   3.973   6.883 -0.6223 -0.3284  0.2022
 3295TIP3    H131448   4.418   4.008   6.850 -0.5155 -0.6001  0.1779
 3295TIP3    H231449   4.276   4.047   6.882 -0.5774 -0.2917 -0.4612
 3296TIP3   OH231450   0.183   1.221   8.145 -0.1315 -0.0471 -0.5118
 3296TIP3    H131451   0.102   1.219   8.094  0.4450  0.3116 -1.4487
 3296TIP3    H231452   0.252   1.203   8.082  0.4875 -0.9734  0.3874
 3297TIP3   OH231453   6.250   0.669   1.298 -0.5319  0.2852 -0.0840
 3297TIP3    H131454   6.325   0.641   1.351  0.3198  1.9462 -0.3418
 3297TIP3    H231455   6.174   0.659   1.356  0.1067  0.1047  0.7367
 3298TIP3   OH231456   3.472   1.262   5.898  0.8166  0.1022  0.1151
 3298TIP3    H131457   3.443   1.231   5.984  1.1382  0.2501  0.2800
 3298TIP3    H231458   3.530   1.336   5.918  1.0746 -0.0079 -0.2172
 3299TIP3   OH231459   5.833   1.233   1.516 -0.4087 -0.4532 -0.5447
 3299TIP3    H131460   5.894   1.306   1.525  0.9248 -1.7800  2.5593
 3299TIP3    H231461   5.750   1.274   1.490  0.1068  2.2988  1.6313
 3300TIP3   OH231462   3.948   0.470   1.180  0.1295 -0.6001  0.3685
 3300TIP3    H131463   3.927   0.558   1.148  1.5839 -0.0172  0.9351
 3300TIP3    H231464   3.888   0.412   1.133 -0.5788  0.6515 -0.3120
 3301TIP3   OH231465   4.748   5.937   6.908  0.2634 -0.3286  0.5390
 3301TIP3    H131466   4.805   6.009   6.880  0.6991 -0.6646  0.5462
 3301TIP3    H231467   4.680   5.933   6.841  0.9169 -0.6857 -0.1268
 3302TIP3   OH231468   2.278   6.816   1.995  0.2655 -0.1094 -0.1991
 3302TIP3    H131469   2.337   6.860   2.056  1.0368 -2.2491  0.6893
 3302TIP3    H231470   2.308   6.725   1.994 -2.8939 -1.2743  0.1251
 3303TIP3   OH231471   6.939   4.994   1.686 -0.2469 -0.5762  0.0793
 3303TIP3    H131472   6.895   5.052   1.748 -0.0013 -1.4906  1.1391
 3303TIP3    H231473   7.032   5.007   1.703 -0.1551 -0.2996 -0.6067
 3304TIP3   OH231474   5.545   4.534   6.983  0.9183 -0.4192 -0.0240
 3304TIP3    H131475   5.522   4.528   7.076 -2.1779 -0.5004 -0.7083
 3304TIP3    H231476   5.565   4.444   6.957  0.4508 -0.5985  0.2365
 3305TIP3   OH231477   4.322   2.973   8.104 -0.2529 -0.9555 -0.0517
 3305TIP3    H131478   4.233   2.952   8.076 -0.0716 -0.7267 -0.8245
 3305TIP3    H231479   4.318   2.973   8.200 -1.4820  0.7428 -0.0641
 3306TIP3   OH231480   6.948   0.645   7.028 -0.2318  0.0707  0.2717
 3306TIP3    H131481   6.921   0.559   7.060  2.3962 -1.0338 -0.2008
 3306TIP3    H231482   7.026   0.667   7.079 -0.3226  1.7663 -0.2556
 3307TIP3   OH231483   5.671   5.737   6.880 -0.3325  0.3825  0.2614
 3307TIP3    H131484   5.608   5.797   6.919 -1.4653  1.4583 -2.9190
 3307TIP3    H231485   5.749   5.790   6.864 -0.2303  0.2091  0.1744
 3308TIP3   OH231486   3.980   4.194   7.494 -0.3882 -0.1594  0.2108
 3308TIP3    H131487   3.973   4.282   7.532  3.3495  0.5451 -0.3557
 3308TIP3    H231488   3.981   4.135   7.569 -1.1882  0.4083  0.6846
 3309TIP3   OH231489   6.598   1.962   0.040 -0.8216 -0.1122 -0.1338
 3309TIP3    H131490   6.652   2.007   0.105  0.3620 -1.2195 -0.3078
 3309TIP3    H231491   6.648   1.969  -0.041 -1.6157  0.0388 -0.6122
 3310TIP3   OH231492   0.656   0.787   8.023 -0.3257 -0.0048 -0.4266
 3310TIP3    H131493   0.706   0.842   7.963 -2.1012  0.5983 -1.4366
 3310TIP3    H231494   0.668   0.828   8.109 -0.5638  1.2164 -0.9517
 3311TIP3   OH231495   2.043   1.581   7.407 -0.1737 -0.6922 -0.2045
 3311TIP3    H131496   2.056   1.546   7.495 -0.1554 -1.9640 -0.7010
 3311TIP3    H231497   1.980   1.652   7.419  0.2810 -0.4548  0.9109
 3312TIP3   OH231498   3.082   2.323   6.190 -0.3969  0.2315  0.1484
 3312TIP3    H131499   3.056   2.414   6.175 -0.3633  0.4422  1.3297
 3312TIP3    H231500   3.008   2.272   6.156  0.1482  0.6158 -1.7576
 3313TIP3   OH231501   5.318   6.105   0.105 -0.2452  0.0652 -0.2702
 3313TIP3    H131502   5.334   6.109   0.011  0.5239  0.2758 -0.1294
 3313TIP3    H231503   5.253   6.035   0.115  0.5868 -0.8030 -0.8425
 3314TIP3   OH231504   0.877   1.139   7.800 -0.0477  0.1380 -0.0254
 3314TIP3    H131505   0.953   1.142   7.742 -0.9186  0.8788 -1.1650
 3314TIP3    H231506   0.880   1.051   7.839  0.2111 -0.6480 -1.7158
 3315TIP3   OH231507   3.249   2.739   6.815 -0.2082 -0.3643 -0.1288
 3315TIP3    H131508   3.260   2.701   6.728  0.6947  0.0039 -0.1853
 3315TIP3    H231509   3.258   2.664   6.875 -2.4978 -0.9148 -0.3874
 3316TIP3   OH231510   6.526   2.433   0.028 -0.0401 -0.5868  0.5867
 3316TIP3    H131511   6.613   2.432   0.068  0.3055 -0.8521 -0.1557
 3316TIP3    H231512   6.471   2.384   0.089  0.3753 -0.6004  0.9536
 3317TIP3   OH231513   6.531   0.969   6.589 -0.2649  0.0849  0.2279
 3317TIP3    H131514   6.543   1.060   6.561 -1.7217  1.3829  3.3354
 3317TIP3    H231515   6.439   0.950   6.570 -0.2588 -0.3407  0.6088
 3318TIP3   OH231516   4.605   2.873   0.553 -0.1955  0.1527 -0.0771
 3318TIP3    H131517   4.653   2.872   0.470  0.5916  0.2641  0.3756
 3318TIP3    H231518   4.653   2.934   0.608 -1.3489  0.9349  0.0987
 3319TIP3   OH231519   2.878   4.889   1.866 -0.5773  0.0504 -0.5027
 3319TIP3    H131520   2.915   4.951   1.803 -1.1087 -0.3545 -1.2323
 3319TIP3    H231521   2.844   4.817   1.812  3.0790 -2.6527  0.4503
 3320TIP3   OH231522   2.193   0.758   7.128 -0.5574  0.2070 -0.4752
 3320TIP3    H131523   2.211   0.675   7.083 -1.4540 -1.0906  1.4294
 3320TIP3    H231524   2.278   0.800   7.137  0.5098 -2.1492  1.5386
 3321TIP3   OH231525   0.135   2.768   2.075  0.5119  0.2000 -0.5165
 3321TIP3    H131526   0.158   2.861   2.072 -0.3543  0.4085 -0.9931
 3321TIP3    H231527   0.101   2.755   2.164  2.6522 -0.1774  0.2897
 3322TIP3   OH231528   5.867   3.195   2.461 -0.6734  0.3740 -0.2303
 3322TIP3    H131529   5.845   3.114   2.414  0.8256  0.5807 -1.3777
 3322TIP3    H231530   5.802   3.258   2.433 -2.0203 -0.4729  0.8781
 3323TIP3   OH231531   6.271   1.169   6.838 -0.5461 -0.1954  0.1872
 3323TIP3    H131532   6.320   1.173   6.756 -0.2478  1.7200  0.4213
 3323TIP3    H231533   6.331   1.203   6.904 -1.3251 -0.2102  0.9236
 3324TIP3   OH231534   1.353   2.527   8.300 -0.5754  0.3703 -0.1744
 3324TIP3    H131535   1.348   2.445   8.351  2.6886  1.4924  2.3130
 3324TIP3    H231536   1.408   2.505   8.225 -2.9085 -0.5403 -1.7349
 3325TIP3   OH231537   5.060   3.412   1.217  0.0576  0.2868 -0.0576
 3325TIP3    H131538   5.120   3.414   1.142  0.4667  1.8508  0.2620
 3325TIP3    H231539   4.993   3.349   1.193  0.6534  0.1264 -1.3767
 3326TIP3   OH231540   1.324   1.402   6.325 -0.1859  0.3496  0.2521
 3326TIP3    H131541   1.321   1.385   6.231 -0.6165  1.9937 -0.0598
 3326TIP3    H231542   1.279   1.327   6.364 -1.0389  0.2113 -0.9402
 3327TIP3   OH231543   3.541   3.661   7.588 -0.2397  0.2447  0.4743
 3327TIP3    H131544   3.498   3.673   7.673 -0.5013  0.3649  0.3257
 3327TIP3    H231545   3.535   3.746   7.545  2.0071  0.8779  1.2873
 3328TIP3   OH231546   6.510   3.568   0.535 -0.0490  0.2881 -0.0904
 3328TIP3    H131547   6.531   3.475   0.539  0.1120  0.2949 -0.6904
 3328TIP3    H231548   6.533   3.602   0.621 -1.3910 -0.4903  0.6073
 3329TIP3   OH231549   4.487   3.669   8.098  0.0019 -0.0722 -0.1851
 3329TIP3    H131550   4.489   3.737   8.165 -1.8312  0.1890 -0.3646
 3329TIP3    H231551   4.454   3.591   8.142 -0.2286 -0.1789 -0.5347
 3330TIP3   OH231552   3.396   1.218   6.163 -0.2426 -0.2212 -0.3685
 3330TIP3    H131553   3.334   1.159   6.204  1.8141 -2.3848 -0.1433
 3330TIP3    H231554   3.444   1.257   6.236  1.3004 -1.6732 -0.5340
 3331TIP3   OH231555   4.416   6.108   7.851  0.0390 -0.3444 -0.1413
 3331TIP3    H131556   4.377   6.049   7.787  1.7773 -0.5720 -1.0349
 3331TIP3    H231557   4.443   6.051   7.923  2.1005 -0.7575 -1.1893
 3332TIP3   OH231558   0.875   5.883   6.704  0.2243  0.0012 -0.1646
 3332TIP3    H131559   0.870   5.939   6.626 -1.1736  0.2217  0.0603
 3332TIP3    H231560   0.814   5.812   6.686  0.3434 -0.2658  0.4782
 3333TIP3   OH231561   3.056   2.114   1.139 -0.2552 -0.3461  0.4815
 3333TIP3    H131562   3.014   2.173   1.076 -0.2031 -1.9270 -1.1179
 3333TIP3    H231563   2.984   2.062   1.174 -0.2999  0.6013  1.8823
 3334TIP3   OH231564   3.300   2.255   6.026 -0.0290 -0.5083  0.0313
 3334TIP3    H131565   3.325   2.172   5.986  0.9400 -1.1999  1.9901
 3334TIP3    H231566   3.207   2.263   6.008 -0.5370 -2.8809  1.2648
 3335TIP3   OH231567   5.743   1.591   7.911  0.6743  0.1406 -0.2077
 3335TIP3    H131568   5.768   1.681   7.932 -0.1324  0.9130 -2.3181
 3335TIP3    H231569   5.654   1.598   7.876  0.2277 -1.6145  0.4754
 3336TIP3   OH231570   5.125   1.890   6.689  0.1300 -0.4831  0.3233
 3336TIP3    H131571   5.059   1.945   6.730 -1.6717 -2.6403  0.4850
 3336TIP3    H231572   5.089   1.868   6.603 -0.2575 -3.0716  1.0610
 3337TIP3   OH231573   3.394   0.227   0.275 -0.0187 -0.5756  0.2732
 3337TIP3    H131574   3.348   0.311   0.283 -0.3284 -0.3659 -2.5865
 3337TIP3    H231575   3.349   0.169   0.337 -0.7778  0.9435  1.2165
 3338TIP3   OH231576   2.035   4.236   6.691 -0.1083 -0.0530  0.4404
 3338TIP3    H131577   2.108   4.285   6.728 -0.7198 -0.2049  1.9284
 3338TIP3    H231578   1.977   4.303   6.654  1.1949  0.0088 -1.6329
 3339TIP3   OH231579   3.776   3.762   1.185  0.4281 -0.5754 -0.1210
 3339TIP3    H131580   3.865   3.797   1.181  1.3501 -2.6886  0.0480
 3339TIP3    H231581   3.787   3.673   1.218 -1.6451 -1.2565 -1.0611
 3340TIP3   OH231582   2.550   1.705   0.799 -0.1754  0.4445  0.1065
 3340TIP3    H131583   2.604   1.709   0.877  0.3055  2.2997 -0.2812
 3340TIP3    H231584   2.461   1.692   0.832  0.1312  0.3193  0.8993
 3341TIP3   OH231585   1.120   3.171   2.511  0.3774  0.6355 -0.2307
 3341TIP3    H131586   1.038   3.184   2.465 -0.3284 -0.5204  0.6526
 3341TIP3    H231587   1.151   3.260   2.532 -0.5829  1.0793 -0.6680
 3342TIP3   OH231588   2.608   4.317   8.258  0.2437  0.4011  0.2478
 3342TIP3    H131589   2.558   4.394   8.231 -1.2151 -0.2504  0.9766
 3342TIP3    H231590   2.686   4.318   8.203 -0.9340  1.0645 -1.4857
 3343TIP3   OH231591   1.384   4.761   0.568 -0.1849 -0.9436  0.0755
 3343TIP3    H131592   1.325   4.833   0.590  0.6088  0.1629 -1.2569
 3343TIP3    H231593   1.364   4.693   0.632  0.3591  1.1475  2.6192
 3344TIP3   OH231594   4.988   4.441   2.257 -0.7158  0.0786  0.1069
 3344TIP3    H131595   4.984   4.346   2.247  0.7690  0.1568 -1.6972
 3344TIP3    H231596   5.081   4.462   2.257 -0.9273  1.4146  2.4247
 3345TIP3   OH231597   0.618   1.246   1.872 -0.4236 -0.0637  0.2023
 3345TIP3    H131598   0.569   1.308   1.926 -0.8823 -0.4377  0.2189
 3345TIP3    H231599   0.560   1.170   1.863  0.9213 -1.3818  1.9109
 3346TIP3   OH231600   4.965   0.556   8.150 -0.5193 -0.1867 -0.1796
 3346TIP3    H131601   4.969   0.571   8.244 -1.1714  0.0833 -0.1859
 3346TIP3    H231602   4.897   0.489   8.139 -0.3040 -0.3641 -0.4429
 3347TIP3   OH231603   2.415   4.770   7.751  0.3309 -0.7906  0.0977
 3347TIP3    H131604   2.372   4.853   7.728  1.4934  0.1759  1.2219
 3347TIP3    H231605   2.346   4.705   7.746 -0.8421  0.4066  0.0832
 3348TIP3   OH231606   6.341   0.499   1.015 -0.2099 -0.2047  0.0489
 3348TIP3    H131607   6.254   0.464   1.032  0.7161 -2.4896  0.4975
 3348TIP3    H231608   6.364   0.464   0.928  0.0191  0.8986 -0.3454
 3349TIP3   OH231609   6.247   2.660   7.126  0.3112 -0.7322 -0.5468
 3349TIP3    H131610   6.266   2.752   7.105 -2.1162  0.2282  1.0546
 3349TIP3    H231611   6.331   2.616   7.116  1.5078  1.5817 -1.6601
 3350TIP3   OH231612   5.061   5.437   1.418  0.3815 -0.7746  0.1077
 3350TIP3    H131613   5.107   5.391   1.488  1.7398 -2.2115 -1.5933
 3350TIP3    H231614   5.099   5.524   1.417  1.5621 -1.2696  0.1193
 3351TIP3   OH231615   3.166   5.420   1.008  0.0343 -0.0160  0.1190
 3351TIP3    H131616   3.200   5.489   0.952 -0.9129  0.5737  0.2529
 3351TIP3    H231617   3.111   5.465   1.072  0.9859 -0.6803  1.4544
 3352TIP3   OH231618   6.878   5.222   6.943  0.1328  0.1096  0.4551
 3352TIP3    H131619   6.870   5.182   6.857  0.2852 -2.3818  1.4984
 3352TIP3    H231620   6.787   5.229   6.975  0.0248  1.6430 -0.1270
 3353TIP3   OH231621   3.662   6.418   6.139  0.6647 -0.0498  0.4971
 3353TIP3    H131622   3.585   6.472   6.153  1.3735  1.3012 -0.5132
 3353TIP3    H231623   3.730   6.480   6.113  2.0198 -1.2314  1.0885
 3354TIP3   OH231624   5.909   0.678   2.194 -0.0648  0.2740 -0.0266
 3354TIP3    H131625   5.841   0.738   2.164 -1.1170 -1.3514 -1.0069
 3354TIP3    H231626   5.988   0.732   2.200 -0.8725  1.6556 -1.2772
 3355TIP3   OH231627   1.701   5.296   1.071 -0.4701  0.3861 -0.2582
 3355TIP3    H131628   1.753   5.333   1.142 -0.0930 -1.2186  0.3297
 3355TIP3    H231629   1.762   5.241   1.022 -1.5832 -1.6502  0.5305
 3356TIP3   OH231630   0.499   2.003   1.396  0.5172  0.0774  0.5247
 3356TIP3    H131631   0.449   2.025   1.474 -1.3243  0.7232 -0.7890
 3356TIP3    H231632   0.543   2.085   1.372  1.5385 -0.2591  1.1445
 3357TIP3   OH231633   6.937   4.498   7.739  0.3804 -0.1982  0.3215
 3357TIP3    H131634   6.905   4.577   7.781 -0.5570 -0.0837 -0.5567
 3357TIP3    H231635   6.956   4.524   7.649  2.8256 -0.3181  0.7502
 3358TIP3   OH231636   6.956   3.834   8.338  0.8421 -0.0953 -0.4509
 3358TIP3    H131637   7.050   3.841   8.352  0.4799  1.6588  1.7385
 3358TIP3    H231638   6.926   3.925   8.332 -0.7897 -0.5901 -0.3531
 3359TIP3   OH231639   0.643   4.867   0.810  0.2588 -0.0083 -0.6616
 3359TIP3    H131640   0.709   4.902   0.871  0.5330 -1.9313  0.2272
 3359TIP3    H231641   0.692   4.807   0.754 -0.7793 -2.1172  0.5437
 3360TIP3   OH231642   0.213   6.088   7.274 -0.0917 -0.0680 -0.0192
 3360TIP3    H131643   0.198   6.020   7.208  0.2594  0.9590 -1.1947
 3360TIP3    H231644   0.212   6.170   7.224 -0.9225  0.8394  1.4193
 3361TIP3   OH231645   3.101   6.144   0.026 -0.9789 -0.3084  0.0118
 3361TIP3    H131646   3.079   6.172   0.115 -0.1234  2.3364 -0.5114
 3361TIP3    H231647   3.169   6.205  -0.002 -1.0172 -1.2606 -2.3618
 3362TIP3   OH231648   1.945   2.159   0.575 -0.3271 -0.5599 -0.3852
 3362TIP3    H131649   1.936   2.244   0.619  1.1618 -1.5174  1.9500
 3362TIP3    H231650   1.898   2.170   0.492 -0.2565  2.4987 -0.1318
 3363TIP3   OH231651   1.572   3.463   0.839 -0.6391  0.2165 -0.4938
 3363TIP3    H131652   1.616   3.397   0.893 -0.7322  0.8103  0.3321
 3363TIP3    H231653   1.510   3.413   0.786 -2.1111 -0.2121  1.5104
 3364TIP3   OH231654   6.223   7.000   1.653 -0.7534 -0.1234  0.3210
 3364TIP3    H131655   6.232   6.946   1.574  1.1771  1.5427 -0.7106
 3364TIP3    H231656   6.290   6.966   1.712  0.9041  1.3749 -0.5712
 3365TIP3   OH231657   4.901   1.138   6.600 -0.2107 -0.2029  0.3929
 3365TIP3    H131658   4.971   1.190   6.638 -0.3603  2.1057 -2.1832
 3365TIP3    H231659   4.825   1.196   6.599 -1.0071 -1.2032 -0.6315
 3366TIP3   OH231660   3.533   0.504   0.159 -0.0452  0.6827  0.0614
 3366TIP3    H131661   3.583   0.446   0.101 -0.2783  1.1510 -0.6153
 3366TIP3    H231662   3.495   0.445   0.225 -1.6651 -0.1840 -1.5749
 3367TIP3   OH231663   2.825   6.287   0.269 -0.1076 -0.3125 -0.0186
 3367TIP3    H131664   2.804   6.280   0.362 -0.0492  0.5521  0.0658
 3367TIP3    H231665   2.920   6.278   0.265 -0.0481  0.2652  0.0717
 3368TIP3   OH231666   1.753   1.211   1.224  0.5443  0.2425 -0.4320
 3368TIP3    H131667   1.694   1.281   1.253  1.5459  1.3265 -0.9533
 3368TIP3    H231668   1.817   1.202   1.295  0.9706  0.5152 -0.7769
 3369TIP3   OH231669   3.756   3.172   1.365 -0.4840 -0.5693  0.1971
 3369TIP3    H131670   3.774   3.081   1.341  2.2155  0.3903 -2.0213
 3369TIP3    H231671   3.729   3.213   1.283  0.9352  1.1452  0.5155
 3370TIP3   OH231672   3.624   0.538   8.063  0.2147  0.0781  0.2999
 3370TIP3    H131673   3.533   0.569   8.055 -0.0350 -0.9032 -0.7871
 3370TIP3    H231674   3.673   0.616   8.089 -0.7929  0.8321  0.0081
 3371TIP3   OH231675   3.541   1.817   6.728 -0.1439  0.0740 -0.6472
 3371TIP3    H131676   3.605   1.751   6.702  0.0222  0.1266 -0.3721
 3371TIP3    H231677   3.593   1.895   6.745 -0.4581  0.6564 -2.2089
 3372TIP3   OH231678   5.795   5.613   1.275  0.3650  0.4468  0.5621
 3372TIP3    H131679   5.849   5.692   1.263  1.0080  0.1977  1.6640
 3372TIP3    H231680   5.738   5.612   1.198  0.3553  1.9695  0.5079
 3373TIP3   OH231681   4.241   5.941   7.696  0.1028 -0.4339  0.4854
 3373TIP3    H131682   4.279   5.924   7.610  1.0263 -0.0632  0.8064
 3373TIP3    H231683   4.152   5.904   7.691  1.0729 -2.9634  0.2944
 3374TIP3   OH231684   0.832   6.126   0.819  0.3457 -0.6054 -0.1015
 3374TIP3    H131685   0.755   6.154   0.868  0.6509 -1.4187  0.8686
 3374TIP3    H231686   0.843   6.193   0.751 -1.0244 -0.3202 -0.0671
 3375TIP3   OH231687   0.801   0.427   1.180 -0.3124  0.3277  0.4827
 3375TIP3    H131688   0.884   0.472   1.188 -0.1506  0.1071  0.0793
 3375TIP3    H231689   0.735   0.496   1.179 -0.0626  0.5576 -0.2088
 3376TIP3   OH231690   1.620   3.318   8.006  0.7582 -0.1956  0.3480
 3376TIP3    H131691   1.612   3.330   7.911  1.5272  1.1029  0.4208
 3376TIP3    H231692   1.534   3.288   8.034  1.0450 -2.5345 -1.0089
 3377TIP3   OH231693   3.080   2.880   0.048  0.3108  0.3950  0.7376
 3377TIP3    H131694   3.114   2.967   0.067 -1.5537  1.0321  1.4445
 3377TIP3    H231695   3.031   2.891  -0.034  1.7948 -0.5152 -0.3128
 3378TIP3   OH231696   0.953   1.062   0.622 -0.3356 -0.2357  0.0216
 3378TIP3    H131697   1.036   1.084   0.580 -1.5716  3.2985 -0.8944
 3378TIP3    H231698   0.917   0.991   0.568  1.0964 -0.3255 -0.8650
 3379TIP3   OH231699   3.902   1.599   7.891 -0.1332 -0.1404 -0.1110
 3379TIP3    H131700   3.957   1.535   7.846  1.1188  0.6386  0.2562
 3379TIP3    H231701   3.824   1.606   7.837  0.1122 -1.2849 -0.6452
 3380TIP3   OH231702   5.897   1.438   7.187  0.3469 -0.5596  0.4911
 3380TIP3    H131703   5.806   1.465   7.196  0.0911 -1.7410  1.7053
 3380TIP3    H231704   5.895   1.364   7.127  0.6365  0.0080 -0.2301
 3381TIP3   OH231705   1.198   4.058   0.224 -0.3620 -0.3447 -0.0116
 3381TIP3    H131706   1.140   4.102   0.285 -1.4663 -1.6184 -0.0883
 3381TIP3    H231707   1.140   4.002   0.172  0.7877 -0.7254 -0.9334
 3382TIP3   OH231708   2.959   2.830   7.105  0.0337 -0.7192 -0.3288
 3382TIP3    H131709   2.955   2.914   7.058  1.8070 -0.2824  0.2069
 3382TIP3    H231710   2.967   2.765   7.035 -1.4275 -0.4795 -0.7537
 3383TIP3   OH231711   5.703   5.337   1.348  0.3428  0.0375  0.3304
 3383TIP3    H131712   5.635   5.284   1.306  0.5261  0.1427 -0.1031
 3383TIP3    H231713   5.702   5.419   1.300 -0.1099  0.5337  1.1507
 3384TIP3   OH231714   4.345   1.133   1.234  0.6418  0.4953  0.2162
 3384TIP3    H131715   4.399   1.209   1.260  1.2225 -0.0763  0.7093
 3384TIP3    H231716   4.398   1.057   1.258  0.7031 -0.0714 -1.6183
 3385TIP3   OH231717   6.968   3.932   0.862 -0.5231 -0.2712  0.2842
 3385TIP3    H131718   6.884   3.973   0.838 -0.8671 -1.6769 -1.0727
 3385TIP3    H231719   7.034   3.997   0.839 -1.2063  0.8551  1.3687
 3386TIP3   OH231720   1.865   6.557   1.354 -0.1070 -0.1499 -0.2918
 3386TIP3    H131721   1.872   6.473   1.400  0.2754  0.7799  1.4172
 3386TIP3    H231722   1.857   6.622   1.423  0.5202  1.3328 -1.5531
 3387TIP3   OH231723   1.672   2.552   6.766  0.6211  0.1744  0.2012
 3387TIP3    H131724   1.610   2.554   6.838  0.8024 -1.3158  0.4404
 3387TIP3    H231725   1.758   2.555   6.808  0.7325  1.4749 -0.0862
 3388TIP3   OH231726   4.668   4.753   1.187 -0.0005 -0.3929 -0.1418
 3388TIP3    H131727   4.627   4.697   1.253  1.0222 -0.3634  0.5367
 3388TIP3    H231728   4.725   4.811   1.237  0.4425 -0.0566 -1.0205
 3389TIP3   OH231729   3.505   3.600   7.306  0.4484  0.2612 -0.3495
 3389TIP3    H131730   3.460   3.573   7.386  0.1374  3.7826  0.8299
 3389TIP3    H231731   3.598   3.595   7.328  0.4050  0.0691 -0.2076
 3390TIP3   OH231732   3.570   1.616   8.356 -0.1049  0.1156  0.1659
 3390TIP3    H131733   3.493   1.672   8.346  2.0130  3.2258 -0.1222
 3390TIP3    H231734   3.620   1.630   8.275  0.8423 -1.7279  0.3848
 3391TIP3   OH231735   4.602   0.304   8.002 -0.0719 -0.3652 -0.4248
 3391TIP3    H131736   4.577   0.265   7.919 -0.9637  0.9456 -0.8034
 3391TIP3    H231737   4.643   0.387   7.979  0.7163 -0.4991  0.4074
 3392TIP3   OH231738   2.237   6.951   0.970  0.1057  0.2995  0.2427
 3392TIP3    H131739   2.331   6.940   0.953 -0.2672 -1.7677 -0.7794
 3392TIP3    H231740   2.232   6.965   1.065  1.5548  2.6154  0.0545
 3393TIP3   OH231741   4.860   4.169   2.255 -0.3756 -0.0242  0.7471
 3393TIP3    H131742   4.779   4.188   2.209 -1.2512 -2.1694  1.2880
 3393TIP3    H231743   4.836   4.167   2.347  0.0506 -1.5683  0.8592
 3394TIP3   OH231744   3.495   0.959   0.007  0.1282 -0.3314 -0.5048
 3394TIP3    H131745   3.582   0.995  -0.011  0.5630 -0.5549  0.9716
 3394TIP3    H231746   3.455   0.948  -0.079  1.1309  0.8281 -1.1518
 3395TIP3   OH231747   1.916   2.536   6.894 -0.2073  0.6954 -0.0666
 3395TIP3    H131748   1.923   2.625   6.929 -0.1445  0.5268  0.3646
 3395TIP3    H231749   2.003   2.516   6.860  0.8942 -0.5046  3.0850
 3396TIP3   OH231750   2.178   3.001   1.584  0.2289 -0.3338  0.2213
 3396TIP3    H131751   2.268   3.034   1.576  0.1816 -0.3556 -0.4782
 3396TIP3    H231752   2.126   3.063   1.534  0.0322 -1.0243 -0.4514
 3397TIP3   OH231753   3.645   4.322   0.364 -0.0185 -0.1710  0.2698
 3397TIP3    H131754   3.684   4.331   0.451  1.3237  1.0095 -0.4017
 3397TIP3    H231755   3.699   4.257   0.320 -0.3613 -0.3769  0.1537
 3398TIP3   OH231756   1.206   6.652   0.784  0.2740 -0.2053 -0.1373
 3398TIP3    H131757   1.190   6.746   0.791 -2.8087 -0.5887 -0.6079
 3398TIP3    H231758   1.246   6.628   0.868 -0.7246  1.2264  0.7896
 3399TIP3   OH231759   0.741   6.374   0.064 -0.0107 -0.2400  0.4211
 3399TIP3    H131760   0.741   6.430   0.141  2.1029 -2.2472  1.9964
 3399TIP3    H231761   0.832   6.346   0.054 -0.9575 -3.4345 -0.2205
 3400TIP3   OH231762   6.821   0.848   6.575  0.0718  0.3877  0.5790
 3400TIP3    H131763   6.827   0.940   6.551 -0.0449  0.7009  1.7259
 3400TIP3    H231764   6.795   0.804   6.494  0.2805  1.3335 -0.0141
 3401TIP3   OH231765   2.033   1.742   0.826  0.5980  0.1378 -0.3614
 3401TIP3    H131766   2.004   1.677   0.890  3.0788 -0.1794  0.5358
 3401TIP3    H231767   1.966   1.811   0.831  0.6472  0.1123  2.5905
 3402TIP3   OH231768   3.134   2.114   0.821  0.4436 -0.1711  0.5124
 3402TIP3    H131769   3.142   2.060   0.900 -1.2706 -1.0556  0.1298
 3402TIP3    H231770   3.177   2.064   0.752 -0.3007 -0.6343  0.3668
 3403TIP3   OH231771   2.553   4.700   1.686 -0.0871  0.0854  0.0891
 3403TIP3    H131772   2.497   4.741   1.752 -0.1504  1.6878 -0.8970
 3403TIP3    H231773   2.516   4.613   1.674 -0.3666 -0.0589  1.7986
 3404TIP3   OH231774   2.964   3.421   0.166  0.6221  0.1264 -0.0268
 3404TIP3    H131775   2.991   3.476   0.094 -0.7518  0.7472 -0.0982
 3404TIP3    H231776   2.910   3.478   0.222 -0.1217 -0.8893  0.3417
 3405TIP3   OH231777   5.106   3.546   0.634  0.1145  0.6061 -0.1658
 3405TIP3    H131778   5.026   3.505   0.602  0.9334  0.1617 -1.7119
 3405TIP3    H231779   5.147   3.583   0.556  2.8990 -1.7222  0.0648
 3406TIP3   OH231780   4.967   5.232   0.763  0.0573 -0.5168 -0.4901
 3406TIP3    H131781   4.947   5.309   0.817 -0.3024 -1.6623  1.0999
 3406TIP3    H231782   5.029   5.264   0.698  0.7578  0.9008  0.7940
 3407TIP3   OH231783   6.906   2.117   6.449 -0.4088 -0.3507  0.1565
 3407TIP3    H131784   6.933   2.105   6.358  0.1382  0.3918  0.2100
 3407TIP3    H231785   6.846   2.045   6.466 -1.7106  0.3501 -1.2668
 3408TIP3   OH231786   6.991   5.068   7.240  0.8112  0.1851  0.1024
 3408TIP3    H131787   7.014   4.982   7.204  0.4398 -0.5077  1.4712
 3408TIP3    H231788   6.940   5.110   7.170 -1.1518 -1.7050  0.3015
 3409TIP3   OH231789   4.497   2.483   0.066 -0.0135 -0.1101  0.5551
 3409TIP3    H131790   4.459   2.455   0.149  1.6946 -0.1056  1.3730
 3409TIP3    H231791   4.560   2.551   0.089  3.3625 -2.7053 -0.1628
 3410TIP3   OH231792   4.953   4.435   7.610 -0.6746 -0.1283  0.0152
 3410TIP3    H131793   5.029   4.482   7.575 -1.2406  1.1766  0.4820
 3410TIP3    H231794   4.988   4.382   7.681 -0.3281  1.2169  0.8746
 3411TIP3   OH231795   6.673   6.931   0.400  0.1164  0.3359  0.0782
 3411TIP3    H131796   6.737   6.861   0.388  0.1468  0.5130 -0.8257
 3411TIP3    H231797   6.665   6.940   0.495  1.5368  0.4050  0.2129
 3412TIP3   OH231798   1.141   3.859   7.636 -0.0044 -0.0363  0.0304
 3412TIP3    H131799   1.101   3.884   7.552 -3.4161 -0.8679  1.2211
 3412TIP3    H231800   1.109   3.924   7.698  2.2232  0.3939  0.8122
 3413TIP3   OH231801   4.899   4.477   0.553  0.3427 -0.6544 -0.2495
 3413TIP3    H131802   4.815   4.505   0.517  1.2464 -0.2791 -2.1458
 3413TIP3    H231803   4.924   4.548   0.614 -0.2856 -0.3448 -0.3509
 3414TIP3   OH231804   2.069   4.522   6.968 -0.4423  0.1920  0.1826
 3414TIP3    H131805   2.127   4.455   6.931 -2.0066 -0.2452 -1.6910
 3414TIP3    H231806   2.117   4.558   7.042  1.2231 -1.7360  0.1282
 3415TIP3   OH231807   4.130   4.215   7.272 -0.7704  0.2592  0.2614
 3415TIP3    H131808   4.064   4.179   7.331 -0.4759 -1.1186 -0.2047
 3415TIP3    H231809   4.160   4.139   7.221 -0.9096  1.3741 -1.5428
 3416TIP3   OH231810   3.931   1.019   8.144  0.4149  0.6389 -0.8043
 3416TIP3    H131811   3.959   1.099   8.098 -1.7661  0.3278 -2.8923
 3416TIP3    H231812   3.990   0.951   8.112  0.7675  0.9709 -0.8671
 3417TIP3   OH231813   6.018   1.037   1.701  0.4377 -0.5778 -0.1701
 3417TIP3    H131814   6.072   1.085   1.764  0.4220 -1.8242  0.8360
 3417TIP3    H231815   5.953   1.100   1.671  1.1629  0.3574  0.1933
 3418TIP3   OH231816   0.356   1.190   1.187 -0.0858 -0.5357  0.3046
 3418TIP3    H131817   0.397   1.250   1.124  0.5944  0.2843  1.4991
 3418TIP3    H231818   0.269   1.174   1.150  0.7969 -1.2589 -1.6022
 3419TIP3   OH231819   6.467   6.468   0.614  0.0193  0.5699 -0.2921
 3419TIP3    H131820   6.461   6.563   0.601 -1.1421  0.8023  1.5926
 3419TIP3    H231821   6.560   6.448   0.600  0.8568  2.4446  1.9227
 3420TIP3   OH231822   2.205   4.109   0.570 -0.3119 -0.5015  0.3292
 3420TIP3    H131823   2.274   4.163   0.610  0.6406 -0.0542 -1.7744
 3420TIP3    H231824   2.252   4.032   0.537 -0.7547 -0.1193 -1.2657
 3421TIP3   OH231825   6.207   4.914   0.777  0.6798  0.2697  0.2109
 3421TIP3    H131826   6.126   4.934   0.822 -0.2037  0.4360 -1.3948
 3421TIP3    H231827   6.239   4.998   0.744  0.8822  0.0533 -0.1620
 3422TIP3   OH231828   2.938   3.165   0.228 -0.0290 -0.0743  0.1089
 3422TIP3    H131829   3.028   3.132   0.230 -0.0003  0.0080  0.2190
 3422TIP3    H231830   2.947   3.257   0.203 -0.0907 -0.0904  0.0259
 3423TIP3   OH231831   1.911   3.625   0.724 -0.0662 -0.0981 -0.1354
 3423TIP3    H131832   1.937   3.535   0.744  0.7835  0.3237  0.7147
 3423TIP3    H231833   1.817   3.627   0.742 -0.1980 -0.9469 -0.6660
 3424TIP3   OH231834   3.006   1.247   5.810  0.1528 -0.0098  0.2656
 3424TIP3    H131835   3.084   1.302   5.815  0.8145 -1.0016  1.4035
 3424TIP3    H231836   2.963   1.273   5.728  2.1739 -0.1020 -0.8897
 3425TIP3   OH231837   6.719   5.592   8.234 -0.4576  0.1856  0.2286
 3425TIP3    H131838   6.657   5.557   8.169  1.2326 -0.3374 -1.1853
 3425TIP3    H231839   6.796   5.537   8.224  0.4372  1.1607  1.5685
 3426TIP3   OH231840   0.654   5.085   1.853  0.3425  0.7243 -0.1965
 3426TIP3    H131841   0.583   5.047   1.802  0.2323  0.8140 -0.1093
 3426TIP3    H231842   0.734   5.057   1.808  0.2504  0.6766 -0.3289
 3427TIP3   OH231843   5.309   0.084   0.828 -0.5303  1.1441 -0.1117
 3427TIP3    H131844   5.228   0.132   0.840 -0.5025  1.0888  0.3217
 3427TIP3    H231845   5.355   0.130   0.758 -0.2047  2.1499  0.7323
 3428TIP3   OH231846   4.226   2.023   0.515  0.3019  0.6640  0.8859
 3428TIP3    H131847   4.192   2.081   0.447  1.0044  0.9760  0.7924
 3428TIP3    H231848   4.149   1.975   0.546  0.0416  0.2408 -0.3896
 3429TIP3   OH231849   0.400   1.745   7.049 -0.4211  0.2196  0.3273
 3429TIP3    H131850   0.327   1.685   7.034 -0.3728  0.2936 -0.2226
 3429TIP3    H231851   0.395   1.766   7.143 -0.6533 -0.3598  0.4511
 3430TIP3   OH231852   4.284   6.974   7.952  0.6529 -0.2988  0.5726
 3430TIP3    H131853   4.245   6.900   8.000  0.3585  0.4206  1.4870
 3430TIP3    H231854   4.370   6.985   7.993  0.9683 -0.5521 -0.0172
 3431TIP3   OH231855   2.246   4.368   8.189 -0.2566  0.1265  0.2258
 3431TIP3    H131856   2.293   4.450   8.205  3.5647 -1.3146 -2.1986
 3431TIP3    H231857   2.177   4.392   8.128 -0.1986  1.7490  0.7344
 3432TIP3   OH231858   1.039   2.053   0.023  0.6469 -0.0055  0.2242
 3432TIP3    H131859   1.054   2.137  -0.021  0.4082  0.1748  0.4899
 3432TIP3    H231860   1.127   2.020   0.040  0.7478 -0.2032 -0.6255
 3433TIP3   OH231861   3.795   1.547   0.213  1.0080 -0.5694 -0.4228
 3433TIP3    H131862   3.817   1.453   0.213 -0.4752 -1.0637  2.9715
 3433TIP3    H231863   3.807   1.574   0.304 -1.9368  1.6739 -0.5781
 3434TIP3   OH231864   1.243   2.958   7.779  0.8151  0.0154  0.7634
 3434TIP3    H131865   1.312   2.892   7.771  1.3258  0.6499 -0.2098
 3434TIP3    H231866   1.185   2.942   7.705 -0.0919 -0.5000  1.5665
 3435TIP3   OH231867   5.355   6.042   6.325 -0.5787  0.5277  0.4273
 3435TIP3    H131868   5.310   5.990   6.259 -0.1274  1.9974 -1.0902
 3435TIP3    H231869   5.431   6.079   6.280 -0.8785  2.4929  1.4372
 3436TIP3   OH231870   4.132   0.333   0.978 -0.5190  0.2861 -0.3530
 3436TIP3    H131871   4.089   0.265   1.030  0.4161  0.9206  1.3170
 3436TIP3    H231872   4.076   0.410   0.988  0.0648  0.6226  0.3588
 3437TIP3   OH231873   4.237   1.044   0.234 -0.0030 -0.7275  0.3517
 3437TIP3    H131874   4.320   1.027   0.279 -0.0030 -0.4365  0.4661
 3437TIP3    H231875   4.261   1.061   0.144  0.1673  0.4200  0.6073
 3438TIP3   OH231876   3.909   4.766   7.205  0.8861 -0.4592  0.6786
 3438TIP3    H131877   3.858   4.811   7.138  0.7977 -0.7364  0.5609
 3438TIP3    H231878   3.974   4.715   7.157  1.0952 -0.3287  0.8190
 3439TIP3   OH231879   6.591   0.356   6.495 -0.3319 -0.3192 -0.2092
 3439TIP3    H131880   6.581   0.366   6.590 -2.6202  0.8400 -0.4902
 3439TIP3    H231881   6.599   0.446   6.463  0.9000 -0.7293 -1.1002
 3440TIP3   OH231882   0.695   3.366   1.285 -0.0098  0.0546 -0.6170
 3440TIP3    H131883   0.632   3.437   1.295 -0.8013 -0.6771 -0.2515
 3440TIP3    H231884   0.778   3.404   1.311  0.0616  1.5459 -2.7749
 3441TIP3   OH231885   4.545   4.073   6.741  0.4617 -0.2554  0.2300
 3441TIP3    H131886   4.619   4.015   6.721  0.6982 -0.4185  1.4703
 3441TIP3    H231887   4.585   4.160   6.750  0.4722 -0.3000  0.6428
 3442TIP3   OH231888   0.059   1.792   1.195  0.0882  0.0657  0.1176
 3442TIP3    H131889   0.109   1.713   1.214 -0.2153 -0.4364 -1.0443
 3442TIP3    H231890   0.016   1.815   1.278  1.1494 -0.2652  0.7748
 3443TIP3   OH231891   1.004   4.245   1.412  0.1331  1.2208 -0.5356
 3443TIP3    H131892   1.055   4.307   1.464 -1.9744  2.9439 -0.4074
 3443TIP3    H231893   0.976   4.294   1.335  1.6409 -0.7623 -2.4999
 3444TIP3   OH231894   1.807   1.081   8.349 -0.0897 -0.6837 -0.5422
 3444TIP3    H131895   1.723   1.110   8.313  0.1059 -0.7388 -1.0437
 3444TIP3    H231896   1.805   1.110   8.440 -0.3658 -0.0768 -0.7359
 3445TIP3   OH231897   0.482   4.972   0.446  0.4854 -0.8989 -0.3213
 3445TIP3    H131898   0.492   5.031   0.520  0.6511 -0.1796 -0.9116
 3445TIP3    H231899   0.391   4.943   0.450 -0.3637  1.4001 -1.4917
 3446TIP3   OH231900   1.430   5.476   7.330 -0.0227  0.2039  0.1418
 3446TIP3    H131901   1.468   5.514   7.251 -2.3637 -0.6787 -1.4769
 3446TIP3    H231902   1.410   5.552   7.385  0.8565  0.8746 -0.4288
 3447TIP3   OH231903   4.165   1.621   7.132  0.5584 -0.4166  0.5561
 3447TIP3    H131904   4.205   1.638   7.046  0.2078 -1.1914  0.2388
 3447TIP3    H231905   4.131   1.533   7.126  0.3080 -0.3863  1.4203
 3448TIP3   OH231906   0.448   4.014   7.823 -0.7058 -0.1001  0.4177
 3448TIP3    H131907   0.457   3.927   7.860  0.4839  0.1384  0.7455
 3448TIP3    H231908   0.527   4.026   7.771 -0.1081  1.3256  1.5741
 3449TIP3   OH231909   5.824   2.597   6.635  0.0502  0.2135  0.0468
 3449TIP3    H131910   5.809   2.573   6.544  0.4727 -0.6561  0.1956
 3449TIP3    H231911   5.914   2.628   6.637 -0.0463  0.4908  0.1206
 3450TIP3   OH231912   3.472   5.931   0.704 -0.3830  0.2040 -0.3190
 3450TIP3    H131913   3.431   6.017   0.709  0.4084  0.5296  1.8938
 3450TIP3    H231914   3.401   5.872   0.678 -1.7709  1.0555  1.3132
 3451TIP3   OH231915   3.593   3.238   1.612 -0.2203 -0.1219  0.0381
 3451TIP3    H131916   3.577   3.149   1.642  0.4134 -0.0216  0.7040
 3451TIP3    H231917   3.675   3.233   1.562  0.2311  0.2116  0.7245
 3452TIP3   OH231918   2.905   5.470   0.656  0.2846 -0.0322 -0.2068
 3452TIP3    H131919   2.901   5.385   0.700  0.4403  0.1429  0.1462
 3452TIP3    H231920   2.916   5.448   0.563 -0.6888 -0.4179 -0.2498
 3453TIP3   OH231921   3.596   6.668   1.254  0.2421 -0.1836 -0.6015
 3453TIP3    H131922   3.669   6.683   1.194 -0.7258 -1.1890 -2.1062
 3453TIP3    H231923   3.637   6.642   1.336  1.6218  1.6203 -0.6584
 3454TIP3   OH231924   2.816   4.405   2.223  0.2227  0.0079 -0.7508
 3454TIP3    H131925   2.897   4.448   2.247 -0.2796  0.1209  0.9022
 3454TIP3    H231926   2.819   4.397   2.128  1.8031  0.6944 -0.7777
 3455TIP3   OH231927   1.142   4.154   7.258 -0.0216  0.3944 -0.5081
 3455TIP3    H131928   1.226   4.147   7.214  0.0121  0.0199 -0.3841
 3455TIP3    H231929   1.133   4.247   7.279  1.7601  0.0679  2.2129
 3456TIP3   OH231930   5.618   0.744   7.663  0.0852  0.3576 -0.5621
 3456TIP3    H131931   5.563   0.823   7.674 -0.8839 -0.4979  1.2701
 3456TIP3    H231932   5.560   0.672   7.687  1.7771 -0.6576  0.6569
 3457TIP3   OH231933   1.581   5.134   0.540 -0.5646 -0.4601 -0.1245
 3457TIP3    H131934   1.580   5.171   0.452 -0.3571  0.4865  0.2630
 3457TIP3    H231935   1.507   5.175   0.584  0.9881  1.2908  1.0021
 3458TIP3   OH231936   3.546   2.975   1.707  0.7247  0.2314 -0.3805
 3458TIP3    H131937   3.509   2.936   1.786  0.1137  0.4127 -0.5702
 3458TIP3    H231938   3.500   2.933   1.635  0.1763  1.1587 -0.5910
 3459TIP3   OH231939   6.147   6.400   0.932 -0.1504  0.1422 -0.1258
 3459TIP3    H131940   6.173   6.386   1.023 -0.1797  0.2163 -0.1061
 3459TIP3    H231941   6.175   6.321   0.887  1.5984  0.9102 -0.4383
 3460TIP3   OH231942   6.116   2.328   6.734  0.2654  0.2309  0.5686
 3460TIP3    H131943   6.137   2.411   6.776  2.5562 -0.0591  0.1417
 3460TIP3    H231944   6.022   2.319   6.744  0.3088  1.6468  2.8517
 3461TIP3   OH231945   0.744   3.758   6.765  0.4906  0.3386 -0.4301
 3461TIP3    H131946   0.719   3.752   6.673  0.9183  0.8523 -0.5842
 3461TIP3    H231947   0.703   3.681   6.806 -1.0274  0.9506 -0.7248
 3462TIP3   OH231948   4.052   1.773   0.245  0.2666  0.6391  0.3651
 3462TIP3    H131949   3.981   1.759   0.182 -1.8890  2.8585  2.1010
 3462TIP3    H231950   4.112   1.700   0.229 -1.7613 -0.6982 -2.0210
 3463TIP3   OH231951   5.017   6.435   8.261 -0.1224 -0.9045  0.0164
 3463TIP3    H131952   4.979   6.347   8.258  0.5238 -1.1446 -1.4600
 3463TIP3    H231953   4.943   6.491   8.286 -1.0804 -1.5791 -1.1717
 3464TIP3   OH231954   4.982   0.176   2.257  0.7761 -0.0864 -0.1604
 3464TIP3    H131955   4.976   0.094   2.208  1.5395 -0.4641  0.3503
 3464TIP3    H231956   5.034   0.234   2.201  1.9832 -0.6486  0.3523
 3465TIP3   OH231957   5.847   6.764   0.244 -0.1511  0.0283  0.0860
 3465TIP3    H131958   5.877   6.735   0.158 -1.9648 -0.9868 -0.2634
 3465TIP3    H231959   5.924   6.757   0.300  0.3910 -2.0312 -0.8350
 3466TIP3   OH231960   2.462   2.997   1.699 -0.0248 -0.1285  0.2833
 3466TIP3    H131961   2.483   2.945   1.777  1.8299  0.7938  0.4591
 3466TIP3    H231962   2.482   2.939   1.625  1.6998  0.1588  0.4814
 3467TIP3   OH231963   6.274   2.690   1.544  0.1420 -0.2545  0.1668
 3467TIP3    H131964   6.323   2.657   1.620  0.2660 -0.2229  0.1012
 3467TIP3    H231965   6.232   2.612   1.508  0.6281 -0.3865 -0.1285
 3468TIP3   OH231966   6.439   0.343   8.356 -0.5188  0.7121  0.6196
 3468TIP3    H131967   6.355   0.381   8.381 -0.4486  1.1520  0.1993
 3468TIP3    H231968   6.500   0.416   8.356 -0.6320  0.8574 -1.3810
 3469TIP3   OH231969   4.314   4.271   7.490  0.3070 -0.4156 -0.4670
 3469TIP3    H131970   4.377   4.200   7.478 -0.7656 -1.0968 -2.3924
 3469TIP3    H231971   4.243   4.251   7.430 -1.2962  0.8799  0.9115
 3470TIP3   OH231972   1.858   6.667   0.386  0.2402  0.0054  0.2138
 3470TIP3    H131973   1.875   6.643   0.477 -0.9466 -2.0115 -0.0310
 3470TIP3    H231974   1.935   6.639   0.338  0.4734  0.2253  0.4587
 3471TIP3   OH231975   5.511   6.530   0.329 -0.6111  0.4408 -0.6508
 3471TIP3    H131976   5.527   6.443   0.365 -1.9063  1.4074  2.6125
 3471TIP3    H231977   5.516   6.589   0.404 -3.6840  2.6844 -1.9745
 3472TIP3   OH231978   5.410   5.864   1.327  0.1533 -0.2964  0.2786
 3472TIP3    H131979   5.430   5.925   1.256 -2.1988  0.5754  0.2567
 3472TIP3    H231980   5.489   5.861   1.380  0.4684  2.6479  0.1384
 3473TIP3   OH231981   0.047   3.877   1.486  0.1873 -0.3785 -0.3731
 3473TIP3    H131982   0.010   3.840   1.406 -1.2234  0.7475 -0.2820
 3473TIP3    H231983   0.059   3.802   1.544  0.6816 -1.1295 -1.4180
 3474TIP3   OH231984   2.056   1.163   8.204  0.4128  0.3215  0.0932
 3474TIP3    H131985   1.991   1.207   8.149  0.4254  1.1005  0.6819
 3474TIP3    H231986   2.004   1.105   8.260  0.0995  1.6054  1.1921
 3475TIP3   OH231987   6.437   3.898   6.829  0.0799  0.1465  0.1714
 3475TIP3    H131988   6.518   3.890   6.880  0.4411 -0.3482 -0.4684
 3475TIP3    H231989   6.458   3.858   6.745 -0.9996 -0.4645  0.1823
 3476TIP3   OH231990   3.602   4.013   1.362  0.0137  0.1587 -0.3402
 3476TIP3    H131991   3.675   4.036   1.305  0.5929 -0.9832 -0.0694
 3476TIP3    H231992   3.618   4.063   1.443  0.7639 -0.4544 -0.0996
 3477TIP3   OH231993   1.923   4.392   0.919  0.6847  0.3431  0.3642
 3477TIP3    H131994   1.928   4.333   0.994  2.1163  0.3154  0.2674
 3477TIP3    H231995   1.831   4.388   0.892 -0.3857  1.8671  3.3078
 3478TIP3   OH231996   5.320   5.622   8.110 -0.2696  0.3944 -0.1277
 3478TIP3    H131997   5.336   5.646   8.019  1.1824 -1.6015 -0.4692
 3478TIP3    H231998   5.297   5.529   8.106 -1.6795  0.6211  1.4349
 3479TIP3   OH231999   6.727   4.172   7.835  0.5150  0.3828  0.2143
 3479TIP3    H132000   6.772   4.197   7.916 -0.6832  0.4765  0.8840
 3479TIP3    H232001   6.769   4.091   7.808  0.7451  0.1993  1.0877
 3480TIP3   OH232002   3.775   4.342   6.872  0.5028  0.4558  0.0192
 3480TIP3    H132003   3.790   4.278   6.942 -1.3442  1.6775  1.6131
 3480TIP3    H232004   3.808   4.424   6.907  0.7430  0.8506 -1.0947
 3481TIP3   OH232005   4.681   2.436   5.865 -0.2828  0.0864  0.6226
 3481TIP3    H132006   4.765   2.428   5.822  2.1236  1.6534  4.5073
 3481TIP3    H232007   4.671   2.354   5.915 -0.7975  0.1296  0.5995
 3482TIP3   OH232008   0.192   6.644   0.770 -0.6586  0.4234  0.2240
 3482TIP3    H132009   0.172   6.709   0.703 -2.3742  0.4844  0.7530
 3482TIP3    H232010   0.285   6.658   0.791 -0.8113  2.1952 -0.1866
 3483TIP3   OH232011   5.403   4.974   8.216  0.2567  0.4505  0.1825
 3483TIP3    H132012   5.472   4.911   8.196 -0.8331 -0.8651  0.4932
 3483TIP3    H232013   5.403   4.982   8.311 -0.6977 -0.3533  0.2601
 3484TIP3   OH232014   5.979   1.982   7.580 -0.2328 -0.2155  0.0570
 3484TIP3    H132015   6.051   1.968   7.642 -1.5252 -0.7475  1.4907
 3484TIP3    H232016   5.945   1.894   7.563 -0.1714 -0.0284 -1.0842
 3485TIP3   OH232017   5.262   1.514   0.639 -0.5656  0.1521 -0.3383
 3485TIP3    H132018   5.246   1.555   0.554 -0.8012 -0.3148 -0.5208
 3485TIP3    H232019   5.278   1.588   0.698  0.0030  0.4630 -0.8646
 3486TIP3   OH232020   3.429   4.252   6.160 -0.8394 -0.2630 -0.7312
 3486TIP3    H132021   3.480   4.197   6.101 -1.3917 -0.3624 -1.1140
 3486TIP3    H232022   3.382   4.312   6.103  0.4989  1.2850 -0.3003
 3487TIP3   OH232023   3.916   6.753   7.715  0.1786  0.2542  0.0576
 3487TIP3    H132024   3.927   6.840   7.678  0.4004  0.6741  1.0839
 3487TIP3    H232025   3.823   6.733   7.704 -0.0273  0.9470  0.5173
 3488TIP3   OH232026   5.269   1.040   7.487 -0.6379 -0.3493  0.5045
 3488TIP3    H132027   5.187   1.068   7.445 -1.0299  1.1742  2.1571
 3488TIP3    H232028   5.304   0.973   7.429 -1.8599  0.6304 -1.4785
 3489TIP3   OH232029   6.256   4.082   7.284 -0.2501  0.3513 -0.1294
 3489TIP3    H132030   6.209   4.099   7.202 -0.1776 -0.0560 -0.2585
 3489TIP3    H232031   6.308   4.161   7.299 -3.6213  2.4517  1.9043
 3490TIP3   OH232032   0.209   5.174   6.755  0.1179 -0.0625  0.3082
 3490TIP3    H132033   0.167   5.089   6.745 -0.4342  0.2077  0.3134
 3490TIP3    H232034   0.168   5.229   6.687  0.4443  0.2070  0.3274
 3491TIP3   OH232035   1.302   4.594   7.533 -0.1631  0.2226 -0.1443
 3491TIP3    H132036   1.323   4.642   7.613 -0.0715 -0.0058 -0.0285
 3491TIP3    H232037   1.368   4.621   7.470  0.3838 -0.3544  0.1630
 3492TIP3   OH232038   1.567   5.655   7.972 -0.1209 -0.4741  0.1912
 3492TIP3    H132039   1.646   5.600   7.967 -0.2976 -0.6364 -1.3578
 3492TIP3    H232040   1.601   5.744   7.968  0.0688 -0.4956  1.1154
 3493TIP3   OH232041   2.775   0.937   6.816 -0.7342 -0.2187  0.2621
 3493TIP3    H132042   2.717   1.010   6.837  0.2294  0.3599  0.9920
 3493TIP3    H232043   2.780   0.937   6.721 -0.0843  1.2316  0.2636
 3494TIP3   OH232044   3.084   5.508   7.325 -0.4494  0.2325  0.1904
 3494TIP3    H132045   3.036   5.426   7.324 -1.7228  0.9457  0.4731
 3494TIP3    H232046   3.175   5.483   7.339 -0.5469 -1.2263 -1.5611
 3495TIP3   OH232047   0.113   3.572   0.285  0.0935 -0.3127  0.1835
 3495TIP3    H132048   0.137   3.563   0.193 -0.5291  0.3574 -0.0584
 3495TIP3    H232049   0.181   3.525   0.333  0.3666 -0.7533 -0.6238
 3496TIP3   OH232050   1.259   5.065   1.544 -0.3534  0.5726  0.2195
 3496TIP3    H132051   1.287   5.044   1.633 -0.8495  0.7318  0.4180
 3496TIP3    H232052   1.341   5.075   1.495 -0.0003  2.0917  1.0310
 3497TIP3   OH232053   0.222   5.506   7.416 -0.3177  0.7450  0.4340
 3497TIP3    H132054   0.226   5.461   7.500  1.2630 -1.9692 -0.9484
 3497TIP3    H232055   0.144   5.471   7.373  0.9100 -0.8469 -0.6432
 3498TIP3   OH232056   6.568   3.414   1.515 -0.0608  0.1991 -0.1122
 3498TIP3    H132057   6.552   3.507   1.533 -0.1843  0.5109 -1.6373
 3498TIP3    H232058   6.595   3.412   1.423 -0.9705 -1.3737 -0.3828
 3499TIP3   OH232059   2.347   6.618   0.124 -0.4648 -0.2452 -0.2688
 3499TIP3    H132060   2.354   6.618   0.220  1.8343 -2.6343 -0.3216
 3499TIP3    H232061   2.263   6.576   0.106 -0.4945 -0.6423  0.7104
 3500TIP3   OH232062   3.295   3.615   0.223  0.2323  0.0274 -0.6379
 3500TIP3    H132063   3.240   3.693   0.221 -0.7389 -0.5576  1.0220
 3500TIP3    H232064   3.238   3.546   0.257  1.8390 -0.7103  0.7253
 3501TIP3   OH232065   2.856   2.304   6.710  0.2529 -0.6276  0.6799
 3501TIP3    H132066   2.761   2.308   6.703  0.3583  0.0143 -0.7947
 3501TIP3    H232067   2.873   2.235   6.773 -1.2075 -0.0866  1.7289
 3502TIP3   OH232068   2.996   2.730   6.088 -0.0276  0.1653 -0.0441
 3502TIP3    H132069   2.974   2.788   6.162 -1.2954 -0.1393 -0.1558
 3502TIP3    H232070   2.918   2.731   6.033  0.1771 -1.1343 -0.3877
 3503TIP3   OH232071   5.577   4.160   1.191 -0.8049  0.1842 -0.2237
 3503TIP3    H132072   5.504   4.221   1.197 -0.1994  0.9579 -0.5080
 3503TIP3    H232073   5.625   4.172   1.273 -1.5472 -1.0594  0.4108
 3504TIP3   OH232074   6.704   5.498   1.453  0.1514 -0.2660 -0.2204
 3504TIP3    H132075   6.710   5.441   1.529 -0.1355  1.3605  1.0914
 3504TIP3    H232076   6.678   5.583   1.489 -1.6581  0.1652 -2.3232
 3505TIP3   OH232077   2.713   0.917   0.638 -0.4757  0.1759  0.1762
 3505TIP3    H132078   2.649   0.927   0.708  0.8259  1.0681  1.2860
 3505TIP3    H232079   2.760   0.837   0.661  0.4921  0.8998  0.8208
 3506TIP3   OH232080   2.167   4.222   1.425 -0.0177 -0.0505 -0.5602
 3506TIP3    H132081   2.165   4.299   1.367 -0.2232 -1.2337 -2.1772
 3506TIP3    H232082   2.251   4.180   1.405 -0.5469 -1.0300 -0.7569
 3507TIP3   OH232083   0.257   4.099   6.693  0.3995  0.2282  0.1015
 3507TIP3    H132084   0.329   4.036   6.695  0.2147  0.0300  1.0957
 3507TIP3    H232085   0.246   4.125   6.784 -1.6632 -0.7496  0.1934
 3508TIP3   OH232086   6.989   4.276   0.256  0.0642 -0.6332  0.8308
 3508TIP3    H132087   7.053   4.338   0.220 -1.5546  0.1209 -0.9280
 3508TIP3    H232088   6.904   4.310   0.228 -0.9262 -3.5383 -0.0651
 3509TIP3   OH232089   2.494   0.414   7.287 -0.7930  0.4832  0.5669
 3509TIP3    H132090   2.506   0.320   7.292  1.7531  0.7796  1.5747
 3509TIP3    H232091   2.534   0.439   7.203 -1.1313  0.7044  0.4704
 3510TIP3   OH232092   6.724   5.174   7.538 -0.2165  0.1033 -0.1263
 3510TIP3    H132093   6.656   5.140   7.480  0.4731  1.6822 -2.0130
 3510TIP3    H232094   6.704   5.268   7.545  1.4690  0.5203 -0.4015
 3511TIP3   OH232095   1.869   1.268   7.929 -0.5070 -0.5492  0.4979
 3511TIP3    H132096   1.854   1.340   7.868 -0.0441 -1.3264 -0.5698
 3511TIP3    H232097   1.792   1.269   7.986 -1.4776 -0.4401 -0.7608
 3512TIP3   OH232098   5.017   3.066   6.280 -0.0508  0.6897  0.0042
 3512TIP3    H132099   5.043   2.984   6.322 -1.3367  1.1998  1.9345
 3512TIP3    H232100   4.960   3.039   6.208 -0.3267 -0.1276  0.5185
 3513TIP3   OH232101   2.672   1.524   1.604 -0.0959 -0.6811  0.9538
 3513TIP3    H132102   2.749   1.579   1.588  0.1834 -1.1394  0.7064
 3513TIP3    H232103   2.611   1.582   1.650 -0.1838  0.1300 -0.1375
 3514TIP3   OH232104   6.878   4.723   6.413 -0.3111  0.0467 -0.1271
 3514TIP3    H132105   6.838   4.810   6.406 -1.3602 -0.3353  0.6871
 3514TIP3    H232106   6.832   4.671   6.348 -2.2757 -0.7591  1.7679
 3515TIP3   OH232107   5.971   2.136   8.020  0.4940  0.0442 -0.0476
 3515TIP3    H132108   5.930   2.097   7.942 -0.2461  0.1861  0.2586
 3515TIP3    H232109   6.056   2.168   7.989 -0.6750  2.1113 -1.3833
 3516TIP3   OH232110   2.673   3.508   0.860 -0.0316 -0.5904 -0.1619
 3516TIP3    H132111   2.754   3.560   0.860  0.4847 -1.3676  0.1706
 3516TIP3    H232112   2.609   3.563   0.905  0.0298  0.4399 -1.2956
 3517TIP3   OH232113   3.170   6.123   7.088  0.6101  0.1386 -0.0539
 3517TIP3    H132114   3.111   6.048   7.078  1.0863 -0.1186 -1.1062
 3517TIP3    H232115   3.258   6.085   7.092  0.7910  0.5883  0.3499
 3518TIP3   OH232116   3.801   0.485   0.009 -0.3519  0.2655 -0.4617
 3518TIP3    H132117   3.839   0.571   0.025 -2.3415  1.1160 -0.0095
 3518TIP3    H232118   3.790   0.447   0.096 -0.4574  0.0052 -0.5868
 3519TIP3   OH232119   3.363   2.001   1.591  0.3079 -0.7333  0.2969
 3519TIP3    H132120   3.438   2.048   1.627 -0.2437 -0.6036  1.3149
 3519TIP3    H232121   3.299   2.069   1.571  0.1686 -0.9027  0.1658
 3520TIP3   OH232122   0.183   3.531   2.152  0.2688  0.3844 -0.3728
 3520TIP3    H132123   0.166   3.440   2.127 -0.0395  0.3745 -0.1309
 3520TIP3    H232124   0.215   3.573   2.072 -2.3372  0.8062 -1.2982
 3521TIP3   OH232125   1.670   5.885   1.066  0.2687 -0.0308 -0.0173
 3521TIP3    H132126   1.620   5.844   1.137 -1.0362 -0.8141 -1.3233
 3521TIP3    H232127   1.695   5.812   1.009  1.3297  0.5716 -0.3605
 3522TIP3   OH232128   5.028   3.402   0.164  0.3067  0.0394  0.0296
 3522TIP3    H132129   4.989   3.323   0.128  1.1854 -0.1650 -0.5081
 3522TIP3    H232130   5.022   3.467   0.094 -1.2762  0.7665  0.7922
 3523TIP3   OH232131   6.724   5.047   8.113 -0.3914 -0.0349 -0.3859
 3523TIP3    H132132   6.680   4.967   8.143 -0.4290  0.0734 -0.1581
 3523TIP3    H232133   6.792   5.015   8.053  0.3394 -0.3135  0.5773
 3524TIP3   OH232134   2.451   0.601   0.589  0.1101  0.2177  0.3571
 3524TIP3    H132135   2.537   0.608   0.550  0.1979 -1.7501  0.0889
 3524TIP3    H232136   2.403   0.677   0.556  1.6009  1.1190  0.1964
 3525TIP3   OH232137   6.310   2.947   8.280  0.3590 -0.0905 -0.3748
 3525TIP3    H132138   6.346   2.927   8.366 -1.6612  0.9448  0.7805
 3525TIP3    H232139   6.236   2.888   8.270 -0.0778  0.5246 -0.9169
 3526TIP3   OH232140   6.487   6.276   1.930 -0.2241 -0.4958 -0.0919
 3526TIP3    H132141   6.501   6.346   1.993 -0.2950 -0.5902  0.0287
 3526TIP3    H232142   6.576   6.247   1.907 -0.1889 -0.2203 -0.3082
 3527TIP3   OH232143   5.090   6.008   1.431  0.3927 -0.1129  0.5843
 3527TIP3    H132144   5.140   5.933   1.463  1.8098  0.0462 -1.0892
 3527TIP3    H232145   5.153   6.080   1.429  0.8366 -0.3472 -3.4027
 3528TIP3   OH232146   5.848   0.135   0.390 -0.0019 -0.5345  0.0441
 3528TIP3    H132147   5.838   0.079   0.467 -1.7831  0.2228  0.4209
 3528TIP3    H232148   5.761   0.173   0.377  0.9847  1.6955 -0.5371
 3529TIP3   OH232149   2.969   6.974   0.748 -0.2736 -0.6241 -0.1512
 3529TIP3    H132150   2.905   6.904   0.743  0.0839 -0.8833 -1.2498
 3529TIP3    H232151   3.054   6.930   0.742 -0.0356 -0.1360 -0.4124
 3530TIP3   OH232152   5.259   4.823   6.650 -0.7812  0.2210  0.4379
 3530TIP3    H132153   5.220   4.861   6.571 -0.0402  0.4402  0.1659
 3530TIP3    H232154   5.279   4.732   6.626 -0.2328  0.3859  0.2458
 3531TIP3   OH232155   2.465   0.872   8.230  0.8193  0.0598  0.4494
 3531TIP3    H132156   2.395   0.824   8.275  0.4466  0.8785  0.7658
 3531TIP3    H232157   2.527   0.894   8.299  1.9827 -1.6256 -0.0024
 3532TIP3   OH232158   3.766   1.068   6.762  0.2089 -0.5563 -0.0350
 3532TIP3    H132159   3.727   1.149   6.729 -0.2199 -1.0618 -0.8082
 3532TIP3    H232160   3.809   1.094   6.844  0.3272  0.5082 -0.4068
 3533TIP3   OH232161   4.754   1.624   6.730 -0.0815 -0.5827 -0.1492
 3533TIP3    H132162   4.742   1.704   6.678  0.1068 -1.6498 -1.8967
 3533TIP3    H232163   4.848   1.606   6.725  0.7261  1.3759  3.8575
 3534TIP3   OH232164   5.645   6.720   5.975  0.6023  0.4421 -0.8038
 3534TIP3    H132165   5.619   6.793   5.918  0.6230  0.7811 -0.3898
 3534TIP3    H232166   5.634   6.642   5.921  2.2809  0.8788 -1.8635
 3535TIP3   OH232167   3.428   1.908   0.355 -0.3586  0.1421 -0.1939
 3535TIP3    H132168   3.512   1.882   0.320 -0.7351  1.6815 -2.3872
 3535TIP3    H232169   3.411   1.844   0.425  2.4966 -0.2946  0.2199
 3536TIP3   OH232170   1.327   0.230   6.857 -0.9052  0.3393 -0.2043
 3536TIP3    H132171   1.375   0.178   6.792  0.5339  1.0250  0.2685
 3536TIP3    H232172   1.274   0.167   6.904  1.2125 -0.8469  0.7206
 3537TIP3   OH232173   6.603   1.185   7.232 -0.1555  0.7327 -0.1073
 3537TIP3    H132174   6.594   1.224   7.319 -1.0988 -0.1840  0.2251
 3537TIP3    H232175   6.684   1.222   7.197  0.0771  1.3386  1.0384
 3538TIP3   OH232176   4.379   6.051   1.499 -0.1393 -0.6113 -0.0698
 3538TIP3    H132177   4.302   6.069   1.552  0.1550 -0.0806  0.1857
 3538TIP3    H232178   4.346   6.046   1.409 -0.2099  1.5902 -0.2055
 3539TIP3   OH232179   2.867   1.660   0.643 -0.3444  0.4563  0.1404
 3539TIP3    H132180   2.908   1.623   0.565 -1.6697 -2.1848  0.5897
 3539TIP3    H232181   2.792   1.710   0.610 -0.9071 -0.6593 -0.3131
 3540TIP3   OH232182   0.906   2.182   1.978  0.0887  0.2642  0.3712
 3540TIP3    H132183   0.859   2.225   1.906  1.1987 -0.3662 -0.7655
 3540TIP3    H232184   0.837   2.159   2.041 -1.0023  0.2471 -0.7803
 3541TIP3   OH232185   0.254   5.486   1.712  0.6597 -0.0042  0.1558
 3541TIP3    H132186   0.246   5.563   1.768 -0.9873  0.8506 -1.1615
 3541TIP3    H232187   0.259   5.413   1.773  0.0218  0.9734  1.4359
 3542TIP3   OH232188   6.661   3.428   0.130 -0.7019 -0.0757  0.3804
 3542TIP3    H132189   6.700   3.502   0.177 -1.6389  1.3930 -1.0091
 3542TIP3    H232190   6.594   3.469   0.074 -1.0157 -1.9502 -0.6907
 3543TIP3   OH232191   3.890   4.795   1.507  0.4052  0.0523  0.5277
 3543TIP3    H132192   3.873   4.863   1.573 -2.8473 -0.8846  0.8153
 3543TIP3    H232193   3.854   4.715   1.546  1.8349 -1.3245 -0.8682
 3544TIP3   OH232194   6.142   1.171   8.157 -0.3972 -0.5102  0.5744
 3544TIP3    H132195   6.119   1.101   8.219 -0.1222 -0.9209  0.2203
 3544TIP3    H232196   6.238   1.166   8.151 -0.3610  0.0280  0.6925
 3545TIP3   OH232197   4.066   4.866   0.662  0.7637 -0.3345  0.4047
 3545TIP3    H132198   4.068   4.839   0.570 -1.8803  1.8100 -0.4233
 3545TIP3    H232199   4.097   4.956   0.661  0.8235 -0.3277  1.6406
 3546TIP3   OH232200   0.932   4.596   1.684  0.3183 -0.1012  0.0240
 3546TIP3    H132201   0.916   4.539   1.759 -1.2006  2.3892  1.7109
 3546TIP3    H232202   1.000   4.550   1.634  0.4495 -2.4927  2.1803
 3547TIP3   OH232203   2.345   5.949   1.446 -0.1231 -0.8226 -0.4072
 3547TIP3    H132204   2.347   5.956   1.350  1.5303 -0.0940 -0.3581
 3547TIP3    H232205   2.435   5.965   1.473 -0.4061 -1.7997  1.2422
 3548TIP3   OH232206   2.439   3.668   7.715  0.6436 -0.1175  0.3902
 3548TIP3    H132207   2.430   3.589   7.767 -1.1292  0.2453  0.7090
 3548TIP3    H232208   2.387   3.651   7.636  2.3222 -0.2058 -0.7643
 3549TIP3   OH232209   1.123   0.858   1.647 -0.0936 -0.1823  0.4815
 3549TIP3    H132210   1.073   0.786   1.686 -0.1849 -1.1185 -1.2334
 3549TIP3    H232211   1.183   0.887   1.715 -1.3267 -0.6561  1.8038
 3550TIP3   OH232212   3.721   2.820   7.162  0.4338  0.1442 -0.5733
 3550TIP3    H132213   3.755   2.904   7.131 -0.0135  0.0564 -1.3335
 3550TIP3    H232214   3.737   2.760   7.089  0.6157 -0.3975 -0.0929
 3551TIP3   OH232215   4.615   4.523   0.500  0.2825 -0.7283 -0.1169
 3551TIP3    H132216   4.660   4.574   0.432  0.0936 -2.1678 -1.3826
 3551TIP3    H232217   4.565   4.458   0.451  0.3792 -2.0039  1.4173
 3552TIP3   OH232218   1.335   3.222   8.024 -0.3291  0.4472 -0.4542
 3552TIP3    H132219   1.338   3.199   8.117 -0.2497 -1.3858 -0.8821
 3552TIP3    H232220   1.248   3.193   7.995  0.9413 -2.4280 -1.7329
 3553TIP3   OH232221   6.407   5.748   1.404  0.0137 -0.3320  0.2933
 3553TIP3    H132222   6.312   5.754   1.409 -0.0899 -0.2563 -1.1403
 3553TIP3    H232223   6.423   5.706   1.319  1.2539 -0.4598  0.5749
 3554TIP3   OH232224   4.809   5.193   7.308 -0.1655  0.1707 -0.0815
 3554TIP3    H132225   4.799   5.283   7.340  0.8267  0.0381  0.6227
 3554TIP3    H232226   4.809   5.202   7.213 -2.3393  0.6596 -0.1030
 3555TIP3   OH232227   5.313   0.596   6.438  0.2059 -0.3098  0.2546
 3555TIP3    H132228   5.299   0.667   6.502  0.8903 -0.1945  0.2844
 3555TIP3    H232229   5.396   0.618   6.396  1.0963 -1.7634  1.1628
 3556TIP3   OH232230   4.878   5.378   6.963  0.2255  0.2902 -0.3190
 3556TIP3    H132231   4.876   5.461   6.916 -0.0123  1.1382  1.1509
 3556TIP3    H232232   4.968   5.347   6.951  0.6318  1.2929  0.0266
 3557TIP3   OH232233   2.962   4.098   6.458 -0.6860 -0.0942  0.1580
 3557TIP3    H132234   2.922   4.142   6.383 -1.7821 -0.1175  0.7180
 3557TIP3    H232235   2.897   4.033   6.485  0.8657 -2.0694 -0.6243
 3558TIP3   OH232236   3.069   6.500   6.805  0.5800 -0.0848 -0.4608
 3558TIP3    H132237   3.012   6.521   6.879 -2.0452 -0.4122 -2.2555
 3558TIP3    H232238   3.136   6.443   6.842 -1.9146 -2.0855  1.3727
 3559TIP3   OH232239   3.636   1.155   0.916  0.2555  0.2286 -0.3351
 3559TIP3    H132240   3.594   1.242   0.913  2.2369  1.2576  0.0916
 3559TIP3    H232241   3.602   1.111   0.838  0.0282  1.8097 -1.1941
 3560TIP3   OH232242   3.264   6.207   1.426  0.0294  0.4463  0.3066
 3560TIP3    H132243   3.172   6.202   1.400  0.1499  0.6405 -0.1654
 3560TIP3    H232244   3.267   6.278   1.489 -0.0745  0.7051  0.0219
 3561TIP3   OH232245   5.398   6.009   1.056  0.9656 -0.1407 -0.1634
 3561TIP3    H132246   5.475   6.052   1.093  1.0032 -0.0112 -0.3934
 3561TIP3    H232247   5.324   6.049   1.101  0.9383  0.8941 -1.1002
 3562TIP3   OH232248   2.583   0.086   6.514  0.2830  0.0931 -0.5709
 3562TIP3    H132249   2.603   0.121   6.427  0.4000  0.2902 -0.4673
 3562TIP3    H232250   2.522   0.014   6.498 -0.2866  0.6061 -0.7585
 3563TIP3   OH232251   5.885   6.471   0.458  1.0680  0.3120  0.5475
 3563TIP3    H132252   5.895   6.406   0.388  1.0779 -1.7617  2.3644
 3563TIP3    H232253   5.942   6.438   0.528 -0.9723  0.8264  2.5218
 3564TIP3   OH232254   4.459   1.891   8.276  0.4530 -0.6340  0.6444
 3564TIP3    H132255   4.512   1.888   8.196 -0.0127 -0.7833  0.3400
 3564TIP3    H232256   4.374   1.926   8.248  0.7044  0.5880  1.3126
 3565TIP3   OH232257   1.168   1.155   7.199  0.5887 -0.2146 -0.0824
 3565TIP3    H132258   1.213   1.099   7.136 -0.4288 -1.1069 -0.0374
 3565TIP3    H232259   1.099   1.100   7.235 -0.8293  1.2517 -0.4563
 3566TIP3   OH232260   5.109   5.331   2.123 -0.4414 -0.4590  0.3900
 3566TIP3    H132261   5.169   5.399   2.155 -0.6577 -0.1691  0.1955
 3566TIP3    H232262   5.159   5.250   2.128  0.3174 -0.0847 -0.6859
 3567TIP3   OH232263   6.279   5.330   6.617 -0.7289 -0.1368 -0.1376
 3567TIP3    H132264   6.257   5.377   6.537  0.1002 -0.3232 -0.4895
 3567TIP3    H232265   6.302   5.242   6.587  0.1181 -0.0518  0.2376
 3568TIP3   OH232266   3.610   3.841   0.966 -0.2515 -0.6920 -0.0889
 3568TIP3    H132267   3.661   3.775   0.920  0.1146 -1.0739  0.8417
 3568TIP3    H232268   3.662   3.863   1.043 -1.1685 -0.5947  0.5285
 3569TIP3   OH232269   3.696   5.451   1.071 -0.1836 -0.1382 -0.3793
 3569TIP3    H132270   3.759   5.459   1.143 -2.4103 -2.0275  1.9707
 3569TIP3    H232271   3.678   5.357   1.065 -1.8995  0.2168 -1.7360
 3570TIP3   OH232272   1.983   3.818   6.159  0.0488  0.0719 -0.0661
 3570TIP3    H132273   1.958   3.762   6.086 -0.8445 -0.4205  0.6007
 3570TIP3    H232274   1.904   3.825   6.213  0.7273  0.2935  0.9391
 3571TIP3   OH232275   6.967   5.678   0.502  0.3130 -0.0151 -0.4285
 3571TIP3    H132276   7.053   5.709   0.529  0.2286  0.2459 -0.4582
 3571TIP3    H232277   6.907   5.713   0.568  0.4900 -2.1426  0.9661
 3572TIP3   OH232278   1.692   4.009   2.071 -0.2795 -0.4922 -0.1208
 3572TIP3    H132279   1.739   4.090   2.090  2.6481 -1.8705 -0.9432
 3572TIP3    H232280   1.672   4.014   1.978 -0.7762 -0.4097 -0.0125
 3573TIP3   OH232281   5.605   1.909   7.882 -0.1550  0.7994  0.5568
 3573TIP3    H132282   5.694   1.933   7.855 -0.6172  1.2250 -0.7003
 3573TIP3    H232283   5.549   1.960   7.824 -1.2288  0.7049  1.4849
 3574TIP3   OH232284   3.010   6.863   1.403  0.5923 -0.1488 -0.6582
 3574TIP3    H132285   3.059   6.819   1.333  0.1509 -1.0547 -0.4018
 3574TIP3    H232286   2.940   6.802   1.426 -1.1174  1.4052 -1.4903
 3575TIP3   OH232287   6.743   5.738   7.031  0.6079 -0.2380 -0.2054
 3575TIP3    H132288   6.777   5.699   7.111  3.1681 -0.4618 -1.3000
 3575TIP3    H232289   6.745   5.667   6.967 -2.9842 -0.5458 -0.2064
 3576TIP3   OH232290   3.020   2.880   2.306 -0.4537 -0.5376  0.4036
 3576TIP3    H132291   2.946   2.856   2.250  0.2613  0.5706 -1.0717
 3576TIP3    H232292   3.015   2.975   2.313  0.6510 -0.4837  0.5637
 3577TIP3   OH232293   6.012   4.341   6.707 -0.4192 -0.1543 -0.1405
 3577TIP3    H132294   5.952   4.325   6.780 -0.2267 -0.3819 -0.0290
 3577TIP3    H232295   6.092   4.373   6.748 -0.0400 -1.0264 -0.1798
 3578TIP3   OH232296   1.281   4.692   1.641  0.4059  0.2089  0.3475
 3578TIP3    H132297   1.310   4.623   1.581  0.8987  0.6771  0.0437
 3578TIP3    H232298   1.360   4.742   1.660 -0.1721  1.4902 -0.4707
 3579TIP3   OH232299   6.233   4.913   7.141  0.2508  0.3341  0.9804
 3579TIP3    H132300   6.210   4.988   7.087 -2.0012 -0.9602 -0.0010
 3579TIP3    H232301   6.158   4.854   7.133  1.5940 -1.6828  2.3377
 3580TIP3   OH232302   5.124   2.329   0.833 -0.1981 -0.6046 -0.3039
 3580TIP3    H132303   5.040   2.336   0.878 -0.7062 -0.5140 -1.2221
 3580TIP3    H232304   5.190   2.334   0.902 -0.9678 -2.0413  0.5779
 3581TIP3   OH232305   1.969   0.850   6.281 -0.4439 -0.1614  0.0444
 3581TIP3    H132306   1.994   0.764   6.247 -1.5578 -0.6004  0.2710
 3581TIP3    H232307   1.977   0.909   6.206 -2.2858 -1.0013 -0.8929
 3582TIP3   OH232308   1.517   5.015   1.449  0.2239 -0.1504 -0.5891
 3582TIP3    H132309   1.513   5.064   1.367 -0.4960  0.0337 -0.4524
 3582TIP3    H232310   1.504   4.924   1.423 -0.6890 -0.0189 -0.6159
 3583TIP3   OH232311   2.661   0.979   2.029  0.3882 -0.2539 -0.4979
 3583TIP3    H132312   2.643   1.060   2.076 -2.1363 -0.2531 -1.2960
 3583TIP3    H232313   2.740   0.944   2.069  1.8324  2.8134 -0.4290
 3584TIP3   OH232314   1.339   4.809   7.340  0.2412  0.3407  0.3858
 3584TIP3    H132315   1.313   4.877   7.402  0.8545  0.4005  0.5872
 3584TIP3    H232316   1.268   4.806   7.276  1.7756  3.7643 -1.8048
 3585TIP3   OH232317   2.649   0.542   0.393  0.3391  0.1894 -0.2182
 3585TIP3    H132318   2.625   0.450   0.385  1.2059 -0.1078  0.4968
 3585TIP3    H232319   2.577   0.589   0.350 -0.3679 -0.7816 -0.1309
 3586TIP3   OH232320   1.443   0.961   7.942  0.0003  0.4081  0.5073
 3586TIP3    H132321   1.475   1.051   7.930 -0.2652  0.5232  0.6317
 3586TIP3    H232322   1.443   0.923   7.854 -1.4145  1.0604  0.1884
 3587TIP3   OH232323   0.332   0.247   8.033  0.0561 -0.1149 -0.2333
 3587TIP3    H132324   0.362   0.199   7.956  0.1151 -0.2835 -0.1051
 3587TIP3    H232325   0.274   0.186   8.079  3.4868 -1.7608  2.2999
 3588TIP3   OH232326   5.796   3.580   0.607 -0.9742  0.1071  0.4363
 3588TIP3    H132327   5.721   3.525   0.584 -1.3983  1.1149 -0.6712
 3588TIP3    H232328   5.869   3.542   0.559 -1.7182  1.7855 -2.2201
 3589TIP3   OH232329   3.844   5.309   1.401 -0.1224  0.2587  0.1407
 3589TIP3    H132330   3.775   5.367   1.433 -0.1371 -0.2324  1.0295
 3589TIP3    H232331   3.819   5.223   1.434  1.1588  0.1522  0.8801
 3590TIP3   OH232332   1.310   1.450   1.385 -0.2039  0.4738  0.0492
 3590TIP3    H132333   1.287   1.542   1.372 -0.6284  0.4321  0.4678
 3590TIP3    H232334   1.318   1.440   1.480 -0.8216 -0.0727  0.0510
 3591TIP3   OH232335   4.659   1.215   0.020  0.7489  0.1258 -0.1113
 3591TIP3    H132336   4.713   1.229   0.097 -1.2573  0.0975  1.3832
 3591TIP3    H232337   4.705   1.260  -0.051  2.2106  0.8989  1.2770
 3592TIP3   OH232338   4.383   6.292   7.345 -0.4399  0.0185  0.1611
 3592TIP3    H132339   4.398   6.221   7.284 -0.1873 -0.1602  0.4253
 3592TIP3    H232340   4.409   6.257   7.430 -0.7756  0.2672  0.3694
 3593TIP3   OH232341   3.792   3.393   0.816  0.0111 -0.3521  0.4899
 3593TIP3    H132342   3.849   3.359   0.885  0.5103 -0.7113 -0.0907
 3593TIP3    H232343   3.846   3.393   0.737 -0.4665  0.3168  0.1459
 3594TIP3   OH232344   6.257   5.081   7.567 -0.0827  0.4595 -0.0472
 3594TIP3    H132345   6.294   5.133   7.496 -1.1945  0.9594 -0.2820
 3594TIP3    H232346   6.189   5.136   7.605 -0.2210 -0.2163  0.7184
 3595TIP3   OH232347   0.637   3.688   6.509  0.2454 -0.0840 -0.1601
 3595TIP3    H132348   0.705   3.652   6.451  1.1618  0.2462  0.6797
 3595TIP3    H232349   0.575   3.730   6.450  0.8221 -0.3104 -0.9483
 3596TIP3   OH232350   6.317   0.278   7.677 -0.5750  0.4985  0.2752
 3596TIP3    H132351   6.399   0.278   7.628  0.3813  0.7996  1.7998
 3596TIP3    H232352   6.252   0.247   7.614  0.7920 -0.3036 -0.8215
 3597TIP3   OH232353   1.300   6.715   6.559  0.5457 -0.1675 -0.4371
 3597TIP3    H132354   1.231   6.688   6.499  1.6178 -0.9952 -1.3412
 3597TIP3    H232355   1.266   6.693   6.646 -0.6114  0.1123 -0.8023
 3598TIP3   OH232356   5.799   0.032   8.023 -0.2001  0.8227  0.0255
 3598TIP3    H132357   5.842  -0.024   8.087 -1.2775  2.8434  2.7252
 3598TIP3    H232358   5.867   0.094   7.997  0.5899 -0.7445 -1.8674
 3599TIP3   OH232359   0.547   2.657   7.261 -0.2907  0.0690 -0.2316
 3599TIP3    H132360   0.561   2.569   7.295  1.0028 -0.4925 -2.0226
 3599TIP3    H232361   0.520   2.643   7.170 -0.6602  1.5129 -0.3688
 3600TIP3   OH232362   4.165   3.203   7.058  0.0688  0.3847  0.3653
 3600TIP3    H132363   4.193   3.129   7.111 -0.8653  1.4232  2.4393
 3600TIP3    H232364   4.087   3.236   7.103  0.4471  2.6025 -0.4850
 3601TIP3   OH232365   1.389   4.538   0.106  0.0411  0.2222  0.2214
 3601TIP3    H132366   1.318   4.596   0.134  0.0603 -1.0095  3.1880
 3601TIP3    H232367   1.442   4.526   0.185  1.9116 -1.2075 -1.1762
 3602TIP3   OH232368   4.208   7.010   6.546 -0.2717 -0.3696 -0.4066
 3602TIP3    H132369   4.239   7.015   6.636  0.9375  2.2832 -0.8832
 3602TIP3    H232370   4.258   6.938   6.507 -0.2304 -1.0185  0.7814
 3603TIP3   OH232371   4.926   5.677   1.548 -0.3827 -0.0671 -0.3787
 3603TIP3    H132372   4.952   5.769   1.548  0.0344 -0.1850 -1.0691
 3603TIP3    H232373   4.982   5.635   1.483 -0.6813 -0.7829 -0.1889
 3604TIP3   OH232374   0.339   2.466   1.184 -0.2764  0.1805 -0.6693
 3604TIP3    H132375   0.367   2.376   1.203 -1.1221  0.1137  0.3852
 3604TIP3    H232376   0.266   2.481   1.245 -0.3297  1.4821 -1.0346
 3605TIP3   OH232377   6.730   6.763   7.345 -0.2411 -0.2679  0.3859
 3605TIP3    H132378   6.758   6.847   7.382  0.3066  0.3773 -1.3971
 3605TIP3    H232379   6.794   6.700   7.379 -0.1201  0.1858  1.0274
 3606TIP3   OH232380   3.751   0.671   6.768 -0.4370  0.7175 -0.3064
 3606TIP3    H132381   3.691   0.737   6.802 -1.3204 -0.1344 -0.1813
 3606TIP3    H232382   3.747   0.600   6.831  1.6015  1.1036  0.3200
 3607TIP3   OH232383   1.450   1.827   1.152 -0.5117  0.4426 -0.4780
 3607TIP3    H132384   1.472   1.851   1.242 -3.4887  2.2057 -0.0819
 3607TIP3    H232385   1.533   1.802   1.112  0.8411 -0.9276  2.8709
 3608TIP3   OH232386   4.094   5.540   1.039  0.1919 -0.5454 -0.1754
 3608TIP3    H132387   4.179   5.499   1.019 -0.0996 -0.1545 -2.4803
 3608TIP3    H232388   4.054   5.480   1.102  2.7826  0.0838  2.3150
 3609TIP3   OH232389   2.922   0.229   1.675  0.0104 -0.3232 -0.0137
 3609TIP3    H132390   2.970   0.287   1.733  1.2800  0.1679 -1.4904
 3609TIP3    H232391   2.830   0.245   1.696  0.4153  0.0045  1.6547
 3610TIP3   OH232392   3.203   3.136   0.802 -0.5350  0.4572  0.0641
 3610TIP3    H132393   3.190   3.057   0.855  0.2755  0.5996  0.5011
 3610TIP3    H232394   3.263   3.190   0.854 -0.5288  1.0545 -0.5445
 3611TIP3   OH232395   1.183   2.704   0.012 -0.6196 -0.2978 -0.0742
 3611TIP3    H132396   1.153   2.653   0.087 -1.0346 -0.3082 -0.2427
 3611TIP3    H232397   1.248   2.648  -0.031 -2.0415 -1.2835 -1.0364
 3612TIP3   OH232398   1.670   4.761   1.174  0.2882  0.6079  0.1661
 3612TIP3    H132399   1.590   4.774   1.225 -0.6606 -0.3337 -1.0372
 3612TIP3    H232400   1.668   4.669   1.149  1.1319  0.8605 -0.9060
 3613TIP3   OH232401   0.953   1.474   1.511 -0.3289  0.0490 -0.1422
 3613TIP3    H132402   0.871   1.520   1.494 -0.5286 -0.3859 -0.3726
 3613TIP3    H232403   0.990   1.517   1.588 -1.4815 -0.7090  0.8569
 3614TIP3   OH232404   2.121   5.482   6.713  0.4446  0.5923 -0.1203
 3614TIP3    H132405   2.127   5.520   6.625 -1.1798  0.2094 -0.4205
 3614TIP3    H232406   2.058   5.411   6.704  0.0604  0.7146  1.4078
 3615TIP3   OH232407   5.100   2.917   6.682 -0.1386  0.8162 -0.8709
 3615TIP3    H132408   5.043   2.994   6.691 -1.5000 -0.3789  2.6137
 3615TIP3    H232409   5.049   2.857   6.628 -0.7634  1.0230 -0.5338
 3616TIP3   OH232410   2.318   1.722   0.281  0.1712  0.1733  0.5390
 3616TIP3    H132411   2.397   1.768   0.250  1.5566 -1.5534  1.3236
 3616TIP3    H232412   2.340   1.694   0.369 -1.0634 -0.9717  0.5028
 3617TIP3   OH232413   5.812   0.066   6.570 -0.0680 -0.6276 -0.9881
 3617TIP3    H132414   5.857   0.060   6.485 -0.4672 -1.4860 -1.1516
 3617TIP3    H232415   5.776  -0.022   6.584  1.9840 -1.2223  1.1947
 3618TIP3   OH232416   2.065   3.467   0.064 -0.0807 -0.2690  0.0487
 3618TIP3    H132417   2.117   3.418   0.128  0.0157 -3.0405 -1.9638
 3618TIP3    H232418   1.979   3.425   0.067 -0.6611  0.8807 -0.2753
 3619TIP3   OH232419   6.770   6.192   0.086 -0.3424 -0.0882  0.2735
 3619TIP3    H132420   6.800   6.152   0.005 -2.1897 -2.7265  0.7461
 3619TIP3    H232421   6.675   6.202   0.075 -0.4466  0.7529  1.6270
 3620TIP3   OH232422   2.714   2.521   0.991  0.4147  0.0002  0.1857
 3620TIP3    H132423   2.717   2.426   0.983 -1.0586 -0.4388  3.2568
 3620TIP3    H232424   2.800   2.545   1.024  1.2227 -0.0301 -1.7539
 3621TIP3   OH232425   6.966   0.158   6.940  0.6102  0.8616 -0.1989
 3621TIP3    H132426   7.023   0.216   6.990  0.4974  0.4778  0.3788
 3621TIP3    H232427   6.952   0.083   6.997 -0.5800  1.0038 -0.2678
 3622TIP3   OH232428   5.328   3.684   1.281  0.6529 -0.2616 -0.4440
 3622TIP3    H132429   5.391   3.756   1.273  1.5912 -1.1415 -1.3093
 3622TIP3    H232430   5.266   3.713   1.347  1.3961  1.0639 -0.3019
 3623TIP3   OH232431   1.785   3.010   2.207  0.5664 -0.2378 -0.3212
 3623TIP3    H132432   1.791   2.951   2.133 -1.5718 -0.6799 -0.2197
 3623TIP3    H232433   1.780   3.098   2.168 -0.8822 -0.4893 -0.7625
 3624TIP3   OH232434   6.826   3.970   1.205  0.2651  0.1792  0.2949
 3624TIP3    H132435   6.895   4.036   1.195  0.6186 -0.3041 -0.5457
 3624TIP3    H232436   6.869   3.897   1.250 -0.0273  0.3653  0.8836
 3625TIP3   OH232437   1.701   0.007   6.613 -0.2086 -0.8426 -0.0174
 3625TIP3    H132438   1.769   0.067   6.644 -1.6646  1.4896 -1.0197
 3625TIP3    H232439   1.746  -0.076   6.600  1.7654 -0.2066  2.1718
 3626TIP3   OH232440   1.590   6.793   6.843 -0.2160  0.1639  0.2723
 3626TIP3    H132441   1.584   6.799   6.938 -0.3852 -0.5648  0.3190
 3626TIP3    H232442   1.674   6.750   6.827  0.1720  0.9922  0.0545
 3627TIP3   OH232443   5.083   3.534   1.647 -0.4268  0.2398  0.5621
 3627TIP3    H132444   5.061   3.451   1.689 -2.8190  0.1759 -0.5954
 3627TIP3    H232445   5.144   3.510   1.577  1.4865 -0.0156  2.2420
 3628TIP3   OH232446   0.657   5.799   0.022 -0.7691  0.4961 -0.2133
 3628TIP3    H132447   0.735   5.835   0.064  0.6772 -0.4851 -1.9133
 3628TIP3    H232448   0.588   5.808   0.088  1.3895 -1.2312  2.5159
 3629TIP3   OH232449   2.821   1.963   0.873 -0.2669  0.7625  0.3198
 3629TIP3    H132450   2.893   1.969   0.810 -0.6155  1.9619  0.0215
 3629TIP3    H232451   2.745   1.939   0.819 -0.0346 -1.0317  0.7026
 3630TIP3   OH232452   0.247   0.171   7.588  0.1231  0.5002  0.0584
 3630TIP3    H132453   0.244   0.097   7.526  1.0426 -0.0692  0.6596
 3630TIP3    H232454   0.156   0.188   7.609 -0.1908  0.4621 -1.1690
 3631TIP3   OH232455   2.651   6.119   0.109 -0.4345  0.0237  0.0659
 3631TIP3    H132456   2.705   6.132   0.031 -1.6319  1.5432 -0.5724
 3631TIP3    H232457   2.696   6.167   0.178 -0.9961  1.4170 -0.4984
 3632TIP3   OH232458   3.064   5.856   8.127  0.3459  0.4647  0.4073
 3632TIP3    H132459   3.053   5.893   8.039 -1.1385 -1.6983 -0.4035
 3632TIP3    H232460   3.137   5.794   8.118 -0.9871 -1.1342  0.1540
 3633TIP3   OH232461   2.208   3.809   2.257 -0.0794  0.0769  0.4350
 3633TIP3    H132462   2.269   3.835   2.326 -1.5607  0.9394  1.4790
 3633TIP3    H232463   2.168   3.891   2.229 -1.0346 -0.5048  0.0485
 3634TIP3   OH232464   3.709   0.716   5.988 -0.4439 -0.1859  0.3652
 3634TIP3    H132465   3.726   0.632   6.030  0.0919 -0.5880 -0.6418
 3634TIP3    H232466   3.620   0.707   5.952 -0.1116 -0.5926 -0.3709
 3635TIP3   OH232467   0.013   0.500   6.750 -0.5924 -0.3138  0.4961
 3635TIP3    H132468   0.076   0.453   6.804  1.6666 -0.5832 -2.1231
 3635TIP3    H232469   0.010   0.450   6.668 -1.8570  1.4154 -0.5806
 3636TIP3   OH232470   2.184   3.535   1.604  0.2888  0.2933  0.2670
 3636TIP3    H132471   2.119   3.562   1.670 -0.5438 -0.7404 -0.0795
 3636TIP3    H232472   2.210   3.447   1.633  0.1653 -0.0292 -0.5941
 3637TIP3   OH232473   3.438   3.621   5.918 -0.2960 -0.1484 -0.2851
 3637TIP3    H132474   3.401   3.703   5.951 -0.0125  0.8115 -2.2284
 3637TIP3    H232475   3.427   3.559   5.991 -2.8132  0.9155  0.3499
 3638TIP3   OH232476   2.270   6.494   7.254  0.1128 -0.4011  0.4879
 3638TIP3    H132477   2.182   6.491   7.293  1.3333 -0.1310  3.6198
 3638TIP3    H232478   2.262   6.555   7.182 -2.3134 -0.5531  0.5339
 3639TIP3   OH232479   6.121   5.292   7.690 -0.4898 -0.0436  0.0579
 3639TIP3    H132480   6.208   5.260   7.714 -0.2866  0.5856  0.1839
 3639TIP3    H232481   6.127   5.387   7.700 -0.7882  0.1346 -1.2605
 3640TIP3   OH232482   4.377   0.189   1.890 -0.0846 -0.7513 -0.2991
 3640TIP3    H132483   4.356   0.271   1.934  0.7521  0.5297 -2.1606
 3640TIP3    H232484   4.306   0.129   1.914 -0.4476  0.3376  1.4868
 3641TIP3   OH232485   3.266   3.693   1.617  0.5142  0.3706 -0.6585
 3641TIP3    H132486   3.261   3.612   1.668  1.0676 -0.1066 -1.3240
 3641TIP3    H232487   3.353   3.728   1.636  0.0661  1.1106  0.0551
 3642TIP3   OH232488   6.344   6.690   6.994 -0.2078  0.6184  0.2520
 3642TIP3    H132489   6.269   6.631   6.995  1.3994 -1.5215  0.5995
 3642TIP3    H232490   6.318   6.762   7.051 -2.4329  0.5798 -0.6051
 3643TIP3   OH232491   2.154   2.054   0.883  0.3864 -0.3649 -0.7032
 3643TIP3    H132492   2.191   2.106   0.812  1.5939 -0.4678 -0.1785
 3643TIP3    H232493   2.076   2.013   0.845  0.7224 -0.0155 -1.8038
 3644TIP3   OH232494   5.862   0.510   8.255  0.1116 -0.1154  0.3428
 3644TIP3    H132495   5.901   0.422   8.260  1.0862  0.1730 -1.2617
 3644TIP3    H232496   5.767   0.494   8.253  0.1914 -0.9796  2.0498
 3645TIP3   OH232497   4.786   0.312   1.451  0.7668 -0.7543  0.3245
 3645TIP3    H132498   4.789   0.341   1.360 -1.0351 -0.6425  0.2603
 3645TIP3    H232499   4.765   0.391   1.500  0.5583 -1.0451  0.7056
 3646TIP3   OH232500   0.172   0.348   8.362 -0.1863 -0.3320 -0.3285
 3646TIP3    H132501   0.210   0.417   8.307 -0.0856  0.0757  0.2412
 3646TIP3    H232502   0.103   0.393   8.412 -1.2236 -0.9922 -1.1151
 3647TIP3   OH232503   2.823   6.822   6.338 -0.4566 -0.8685  0.2323
 3647TIP3    H132504   2.769   6.777   6.273 -1.5225 -0.2453  0.6741
 3647TIP3    H232505   2.829   6.912   6.307 -0.7799 -0.6215  0.8615
 3648TIP3   OH232506   1.279   3.252   0.941 -0.3037 -0.1966 -0.5849
 3648TIP3    H132507   1.210   3.288   0.996 -0.0194  0.3811 -0.5947
 3648TIP3    H232508   1.359   3.296   0.970 -0.0181 -0.4843 -0.9096
 3649TIP3   OH232509   0.058   0.371   6.490  0.1784 -0.1756 -0.1032
 3649TIP3    H132510   0.052   0.396   6.398  0.8234  1.9425  0.3951
 3649TIP3    H232511   0.127   0.304   6.492  2.5347  2.0914 -0.7831
 3650TIP3   OH232512   3.422   0.424   7.565  0.1945 -0.2688 -0.5564
 3650TIP3    H132513   3.340   0.378   7.583  0.3021 -1.0039 -1.7910
 3650TIP3    H232514   3.488   0.375   7.614  0.2179 -1.1119 -1.3923
 3651TIP3   OH232515   0.848   0.675   7.141 -0.4223 -0.0801 -0.1615
 3651TIP3    H132516   0.770   0.684   7.085 -1.1573  1.4541  1.0347
 3651TIP3    H232517   0.882   0.764   7.149 -1.1311  0.0163  2.8941
 3652TIP3   OH232518   2.659   1.437   0.641  0.3297  0.5272 -0.2176
 3652TIP3    H132519   2.640   1.528   0.661  0.8737  0.8616 -1.1652
 3652TIP3    H232520   2.608   1.387   0.705 -0.9887  1.4587 -0.4945
 3653TIP3   OH232521   5.811   5.791   1.648  0.3539  0.0604 -0.0478
 3653TIP3    H132522   5.740   5.773   1.709  0.9962  2.5639  1.5477
 3653TIP3    H232523   5.769   5.839   1.576  0.2615  0.6865  0.4196
 3654TIP3   OH232524   6.882   0.179   6.620  0.1354  0.5567  1.3279
 3654TIP3    H132525   6.937   0.246   6.579  1.4893  1.0537  3.7414
 3654TIP3    H232526   6.894   0.193   6.714 -0.9596 -1.9437  1.9180
 3655TIP3   OH232527   5.515   6.416   6.895  0.6200 -0.3493  0.2908
 3655TIP3    H132528   5.479   6.502   6.919  0.1655 -0.1938 -0.8836
 3655TIP3    H232529   5.607   6.432   6.878  0.8871 -0.4039  1.5661
 3656TIP3   OH232530   2.122   2.209   7.248 -0.8016 -0.4164 -0.2528
 3656TIP3    H132531   2.118   2.305   7.249  0.0825 -0.3641  0.8341
 3656TIP3    H232532   2.069   2.182   7.323  2.1615 -0.5454  1.9662
 3657TIP3   OH232533   0.265   2.402   6.545 -0.1810  0.6606  0.0335
 3657TIP3    H132534   0.178   2.377   6.513  1.0058 -1.8813 -1.5487
 3657TIP3    H232535   0.291   2.475   6.490 -0.1846 -0.4650 -1.5222
 3658TIP3   OH232536   6.301   1.261   7.426 -0.4885 -0.4549 -0.0804
 3658TIP3    H132537   6.208   1.284   7.430 -0.6592 -1.0082 -0.5691
 3658TIP3    H232538   6.348   1.343   7.442 -1.0618  0.0878 -1.0726
 3659TIP3   OH232539   5.658   3.033   6.962  0.0368 -0.7232 -0.2498
 3659TIP3    H132540   5.705   3.021   7.045  0.5672 -1.1508 -0.6024
 3659TIP3    H232541   5.727   3.032   6.896  0.0455  2.7231 -0.5059
 3660TIP3   OH232542   2.521   2.989   2.315 -0.0574 -0.1445  0.4721
 3660TIP3    H132543   2.490   2.934   2.386 -0.4976  2.5727  2.5544
 3660TIP3    H232544   2.605   3.024   2.346  0.4761 -0.0576 -0.9963
 3661TIP3   OH232545   5.199   5.403   6.464 -0.2003  0.4809 -0.1685
 3661TIP3    H132546   5.274   5.367   6.511 -2.0233 -0.3589  2.2763
 3661TIP3    H232547   5.204   5.363   6.377  1.5037 -0.4525  0.3114
 3662TIP3   OH232548   1.432   3.126   7.765 -0.5206 -1.2637  0.7240
 3662TIP3    H132549   1.355   3.079   7.734 -0.6742 -2.1439  2.3389
 3662TIP3    H232550   1.407   3.159   7.852 -0.3623  1.7258 -0.2556
 3663TIP3   OH232551   5.323   2.101   0.992  0.5250  0.6861  0.2526
 3663TIP3    H132552   5.344   2.011   1.016 -2.9255 -0.5272 -0.6601
 3663TIP3    H232553   5.320   2.148   1.076 -1.6659 -1.1190  1.2970
 3664TIP3   OH232554   5.525   4.650   0.597  0.4154  0.2590  0.3187
 3664TIP3    H132555   5.562   4.603   0.523  0.4105 -0.6729  0.8926
 3664TIP3    H232556   5.519   4.584   0.667  1.6177  1.3977  1.5593
 3665TIP3   OH232557   6.837   2.562   0.813  0.0928  0.1884 -0.2761
 3665TIP3    H132558   6.834   2.510   0.894  0.7180  0.8599  0.1946
 3665TIP3    H232559   6.763   2.622   0.820  0.1314  0.2289 -0.2163
 3666TIP3   OH232560   1.752   1.914   0.525  0.2035  0.6141  0.5126
 3666TIP3    H132561   1.745   1.984   0.589 -0.2608  1.8992 -0.8841
 3666TIP3    H232562   1.830   1.866   0.551 -1.3185 -0.4715  3.4688
 3667TIP3   OH232563   4.629   0.160   8.340 -0.0693 -0.0137 -0.3895
 3667TIP3    H132564   4.661   0.150   8.430 -2.0087 -0.0845  0.3421
 3667TIP3    H232565   4.657   0.247   8.314  0.9694 -0.1962  0.0880
 3668TIP3   OH232566   4.580   1.342   7.130 -0.5015  0.2049 -0.5030
 3668TIP3    H132567   4.662   1.389   7.118  0.2498 -1.1368 -0.8958
 3668TIP3    H232568   4.570   1.291   7.049 -2.0805  0.8644 -0.7579
 3669TIP3   OH232569   0.940   0.658   0.709 -0.6849  0.0060  0.2151
 3669TIP3    H132570   0.966   0.591   0.645  1.3317  1.3649 -0.4489
 3669TIP3    H232571   0.946   0.614   0.793  0.2087 -0.7835 -0.2432
 3670TIP3   OH232572   0.591   4.298   0.543  0.3694  0.2466 -0.3880
 3670TIP3    H132573   0.518   4.322   0.486 -1.6852 -0.2625  1.8359
 3670TIP3    H232574   0.620   4.213   0.510 -0.7034 -0.0040 -0.7382
 3671TIP3   OH232575   3.713   1.205   8.028 -0.1763  0.4258 -0.1974
 3671TIP3    H132576   3.753   1.118   8.030 -0.8310  0.1307  0.3071
 3671TIP3    H232577   3.663   1.210   8.110 -2.7914  0.0141 -1.6638
 3672TIP3   OH232578   1.961   6.906   1.357 -0.1222  0.5803 -0.0499
 3672TIP3    H132579   1.950   6.866   1.443  2.2774 -0.4447 -0.1170
 3672TIP3    H232580   1.873   6.909   1.320 -0.8442 -1.6802  1.2923
 3673TIP3   OH232581   3.318   2.597   0.502 -0.0396 -0.2598  0.3184
 3673TIP3    H132582   3.282   2.530   0.560 -0.7422  0.4201  0.6941
 3673TIP3    H232583   3.394   2.556   0.461  1.1807 -0.3957  2.5908
 3674TIP3   OH232584   2.914   6.039   7.408  0.3829  0.9121 -0.3213
 3674TIP3    H132585   2.959   5.976   7.464 -1.0594 -0.9874 -1.1845
 3674TIP3    H232586   2.985   6.090   7.367  1.6998 -0.9320 -0.4770
 3675TIP3   OH232587   4.076   1.144   0.424 -0.3603  0.0756 -0.4533
 3675TIP3    H132588   4.017   1.069   0.431 -0.9383  0.4827 -0.9146
 3675TIP3    H232589   4.150   1.110   0.373 -0.8319 -0.0665 -1.0616
 3676TIP3   OH232590   6.516   6.291   1.224  0.1996  0.0720  0.1592
 3676TIP3    H132591   6.540   6.381   1.251 -1.0376 -0.1516  2.2474
 3676TIP3    H232592   6.600   6.245   1.221  0.7508  1.0281  0.2124
 3677TIP3   OH232593   1.694   1.837   1.950  0.8570  0.1856  0.3133
 3677TIP3    H132594   1.662   1.927   1.936 -4.0599 -1.0008  1.8936
 3677TIP3    H232595   1.707   1.831   2.045  1.3722 -0.7427  0.1912
 3678TIP3   OH232596   3.498   0.849   8.113 -0.1837 -0.1713  0.1173
 3678TIP3    H132597   3.593   0.851   8.124 -0.2886 -1.2066  1.3981
 3678TIP3    H232598   3.484   0.796   8.035  0.2442 -1.9501  1.1905
 3679TIP3   OH232599   3.043   4.009   1.140  0.2247 -0.4138  0.3999
 3679TIP3    H132600   3.113   4.071   1.159  0.6255 -0.3844 -1.0223
 3679TIP3    H232601   3.088   3.934   1.101 -0.5372 -0.2837 -0.7840
 3680TIP3   OH232602   5.720   2.479   0.865 -0.2957 -0.3897 -0.5076
 3680TIP3    H132603   5.677   2.438   0.940 -1.7260 -0.3311 -1.2666
 3680TIP3    H232604   5.674   2.562   0.852  2.4465  1.5051  0.9079
 3681TIP3   OH232605   0.153   3.320   7.073  0.1961 -0.0162 -0.0029
 3681TIP3    H132606   0.101   3.241   7.083 -0.3572  0.3335 -0.0910
 3681TIP3    H232607   0.206   3.304   6.994  1.1021 -0.8458  0.7348
 3682TIP3   OH232608   5.616   6.109   1.195 -0.1336  0.0375 -0.1522
 3682TIP3    H132609   5.707   6.104   1.167  0.5784 -1.6277  2.1435
 3682TIP3    H232610   5.618   6.158   1.277 -1.1065 -0.9589  0.5008
 3683TIP3   OH232611   6.906   0.721   7.318  0.8120  0.3419 -0.0926
 3683TIP3    H132612   6.996   0.750   7.304  0.3815  0.4302 -3.5466
 3683TIP3    H232613   6.852   0.795   7.293 -0.2137 -0.6415 -0.9159
 3684TIP3   OH232614   1.208   4.418   0.984  0.6138  0.2349  0.7151
 3684TIP3    H132615   1.183   4.418   1.076 -0.8011 -0.1661  0.3603
 3684TIP3    H232616   1.144   4.361   0.942  0.5893  1.2311 -0.6694
 3685TIP3   OH232617   2.508   2.458   1.820  0.0768  0.3959 -0.3578
 3685TIP3    H132618   2.485   2.530   1.878 -0.3816 -1.7660  2.3541
 3685TIP3    H232619   2.432   2.446   1.764  0.0405  1.7703 -0.6204
 3686TIP3   OH232620   4.170   2.396   7.487  0.4469  0.8132  0.2120
 3686TIP3    H132621   4.210   2.422   7.404  0.8734  2.1962  0.8190
 3686TIP3    H232622   4.125   2.314   7.468  0.1470  1.3461 -1.5000
 3687TIP3   OH232623   6.715   3.360   6.365  0.1814 -0.2723 -0.1740
 3687TIP3    H132624   6.687   3.367   6.457  0.9159 -0.7683  0.1017
 3687TIP3    H232625   6.646   3.403   6.315 -0.2205  0.0243  0.6183
 3688TIP3   OH232626   6.880   4.090   0.062 -0.1947  0.2637 -0.1992
 3688TIP3    H132627   6.846   4.160   0.006 -2.2811  0.2138  0.9238
 3688TIP3    H232628   6.911   4.135   0.141 -2.6443 -0.0523  1.0536
 3689TIP3   OH232629   1.869   2.805   6.998  0.7167 -0.6975 -0.0299
 3689TIP3    H132630   1.778   2.822   6.974  0.5803  0.3365  1.0773
 3689TIP3    H232631   1.883   2.860   7.075  2.5642 -0.0977 -0.7497
 3690TIP3   OH232632   5.141   4.570   7.462  0.0437  0.3217 -0.0664
 3690TIP3    H132633   5.142   4.501   7.395 -1.7026  0.2060 -0.0351
 3690TIP3    H232634   5.225   4.614   7.452  1.0278 -1.5239 -0.3795
 3691TIP3   OH232635   4.714   6.866   1.048  0.1195  0.3258 -0.0520
 3691TIP3    H132636   4.631   6.835   1.082 -0.6578  1.1835 -1.0963
 3691TIP3    H232637   4.761   6.899   1.125  0.1080 -1.4409  0.7491
 3692TIP3   OH232638   5.759   4.543   1.378 -0.0121  0.5138  0.0802
 3692TIP3    H132639   5.749   4.638   1.368 -0.0570  0.6791  1.4260
 3692TIP3    H232640   5.720   4.524   1.464 -0.5176 -0.8169 -0.4107
 3693TIP3   OH232641   0.475   0.077   1.874 -0.7274 -0.2140  0.7818
 3693TIP3    H132642   0.486   0.154   1.819 -2.6139  0.1581  0.8751
 3693TIP3    H232643   0.383   0.052   1.864 -0.5796 -1.4451  2.0745
 3694TIP3   OH232644   6.864   0.544   8.336  0.5793  0.1823 -0.5747
 3694TIP3    H132645   6.805   0.496   8.394  1.0610 -2.3750 -2.0474
 3694TIP3    H232646   6.826   0.532   8.249  2.8170 -0.9495 -1.4651
 3695TIP3   OH232647   4.901   3.309   7.850  0.6092 -0.3787 -0.2857
 3695TIP3    H132648   4.923   3.396   7.816  0.4130  0.5852  1.8726
 3695TIP3    H232649   4.824   3.324   7.906  0.5852 -1.9430  0.1491
 3696TIP3   OH232650   4.072   2.719   0.556 -0.2649  0.1660 -1.0806
 3696TIP3    H132651   4.047   2.690   0.469  1.5038  1.0330 -1.9214
 3696TIP3    H232652   4.148   2.776   0.542  2.0253 -2.0209  1.1829
 3697TIP3   OH232653   1.166   1.463   7.577 -0.2561  0.5818 -0.1779
 3697TIP3    H132654   1.207   1.429   7.656  1.8688  1.4447 -0.8456
 3697TIP3    H232655   1.203   1.410   7.506  0.9219  2.3369 -0.9448
 3698TIP3   OH232656   3.827   5.085   6.340  0.3953  0.2102  0.2580
 3698TIP3    H132657   3.754   5.088   6.277  1.3216 -0.4060 -0.8946
 3698TIP3    H232658   3.899   5.046   6.290  1.6367  1.1719  1.2479
 3699TIP3   OH232659   0.849   1.191   8.230  0.6917  0.1127 -0.3168
 3699TIP3    H132660   0.899   1.119   8.268 -1.6210 -1.4756 -0.0456
 3699TIP3    H232661   0.902   1.221   8.157  1.4633 -2.3986 -0.9138
 3700TIP3   OH232662   5.484   4.113   7.533 -0.0819  0.7131 -0.1993
 3700TIP3    H132663   5.462   4.040   7.591  0.5563  0.8902  0.2919
 3700TIP3    H232664   5.416   4.114   7.467  0.0998 -0.5516 -0.4189
 3701TIP3   OH232665   6.843   0.837   6.840 -0.4807  0.3134 -0.0460
 3701TIP3    H132666   6.846   0.815   6.746  0.7809 -0.5960  0.1810
 3701TIP3    H232667   6.891   0.765   6.882  1.5983  2.2064  1.0001
 3702TIP3   OH232668   5.150   1.693   2.223 -0.0833  0.3574 -0.5158
 3702TIP3    H132669   5.227   1.641   2.246 -1.0395 -0.4650  1.0045
 3702TIP3    H232670   5.086   1.628   2.193 -0.9535  0.7463  0.4562
 3703TIP3   OH232671   5.961   6.601   0.014  0.4337  0.4241  0.0632
 3703TIP3    H132672   5.964   6.506   0.028 -0.2961  0.3131 -0.4218
 3703TIP3    H232673   5.905   6.611  -0.064 -0.9534  1.3377  1.1203
 3704TIP3   OH232674   4.554   0.927   7.463 -0.5692  0.2833 -0.3084
 3704TIP3    H132675   4.559   0.944   7.369 -1.0873 -0.1441 -0.4189
 3704TIP3    H232676   4.472   0.878   7.474 -1.8311  2.4775  0.6812
 3705TIP3   OH232677   6.247   5.256   1.065 -0.3594  0.3971 -0.5315
 3705TIP3    H132678   6.243   5.314   1.141  1.7591 -0.3417  0.2240
 3705TIP3    H232679   6.166   5.273   1.017 -0.9562  2.1243  0.9811
 3706TIP3   OH232680   0.715   2.679   1.116 -0.4417 -0.0403 -0.5941
 3706TIP3    H132681   0.740   2.637   1.198 -3.2284  0.1639  0.4861
 3706TIP3    H232682   0.668   2.610   1.067  2.7557 -0.7528 -3.0110
 3707TIP3   OH232683   3.711   4.039   0.417  1.4372 -0.5657 -0.0921
 3707TIP3    H132684   3.766   4.022   0.493  1.1203  0.0158  0.2666
 3707TIP3    H232685   3.636   3.981   0.429  0.4080  0.9631  1.0801
 3708TIP3   OH232686   3.543   6.785   6.388  0.0998  0.2072  0.5909
 3708TIP3    H132687   3.463   6.742   6.417 -0.2138  0.5229  0.2114
 3708TIP3    H232688   3.611   6.717   6.393 -0.0117  0.1682  1.7180
 3709TIP3   OH232689   4.055   5.788   7.459  0.1742  0.1615 -0.4056
 3709TIP3    H132690   3.994   5.745   7.399 -0.8265  1.3060 -0.2379
 3709TIP3    H232691   4.120   5.829   7.401  0.6517 -0.8413 -0.5955
 3710TIP3   OH232692   4.003   2.969   2.198 -0.2077 -0.2828 -0.0460
 3710TIP3    H132693   3.939   2.917   2.247 -1.0677  1.1409  0.3848
 3710TIP3    H232694   4.070   2.990   2.263  1.3109 -2.6065 -0.7187
 3711TIP3   OH232695   1.252   2.492   1.751  0.0588  0.7067 -0.1071
 3711TIP3    H132696   1.198   2.521   1.677 -1.3578 -0.5163  0.4021
 3711TIP3    H232697   1.196   2.504   1.827  0.1396 -1.3668  0.3448
 3712TIP3   OH232698   3.856   5.575   5.892  0.2228  0.6935 -0.0712
 3712TIP3    H132699   3.774   5.539   5.926 -0.3025  1.0986 -0.8687
 3712TIP3    H232700   3.873   5.651   5.947  0.4802  0.1593  0.5926
 3713TIP3   OH232701   6.968   2.604   1.870 -0.0178  0.1788  0.2751
 3713TIP3    H132702   6.964   2.685   1.820  1.5491 -2.0826 -4.1103
 3713TIP3    H232703   7.062   2.591   1.887  0.0441 -1.5839 -1.0376
 3714TIP3   OH232704   6.414   4.849   7.343 -0.2191  0.1336  0.0789
 3714TIP3    H132705   6.357   4.801   7.402 -1.8414  1.5613 -0.2524
 3714TIP3    H232706   6.360   4.867   7.266  0.7426  1.2931 -0.3702
 3715TIP3   OH232707   3.113   3.821   0.211  0.5134 -0.2753 -0.6028
 3715TIP3    H132708   3.092   3.892   0.271 -0.0139 -1.4736  0.7054
 3715TIP3    H232709   3.029   3.794   0.174  0.8091  0.3134 -1.7484
 3716TIP3   OH232710   6.847   0.982   1.681 -0.1307  0.0703 -0.0815
 3716TIP3    H132711   6.805   0.900   1.654 -0.5529 -0.5572  2.2590
 3716TIP3    H232712   6.777   1.047   1.678 -0.3465 -0.1492  0.2044
 3717TIP3   OH232713   3.068   4.932   1.243 -0.3622  0.2569  0.0883
 3717TIP3    H132714   3.112   5.017   1.248  0.8290 -0.3055 -0.3571
 3717TIP3    H232715   2.990   4.948   1.192 -0.2999  1.1432  0.2541
 3718TIP3   OH232716   0.469   3.943   7.428 -0.2377 -0.0014  0.0739
 3718TIP3    H132717   0.380   3.918   7.451 -0.1302 -3.1799 -2.2275
 3718TIP3    H232718   0.486   3.898   7.345  4.0054 -0.8250  1.1049
 3719TIP3   OH232719   2.208   4.156   6.199 -0.1553  0.1628  0.1331
 3719TIP3    H132720   2.131   4.188   6.152 -0.2907  2.8115  1.9763
 3719TIP3    H232721   2.193   4.062   6.208 -3.6282  0.6734  1.0953
 3720TIP3   OH232722   0.362   0.921   7.578 -0.1062 -0.1223  0.1573
 3720TIP3    H132723   0.455   0.924   7.554 -0.3836 -0.6901 -1.0636
 3720TIP3    H232724   0.341   0.828   7.580 -0.6271 -0.0021  0.5673
 3721TIP3   OH232725   3.638   3.288   6.768  0.3776 -0.9188  0.1324
 3721TIP3    H132726   3.685   3.262   6.689 -0.5714 -0.4391 -0.6147
 3721TIP3    H232727   3.642   3.384   6.768 -0.5225 -0.8715  0.0958
 3722TIP3   OH232728   5.339   4.250   0.846 -0.0455  0.4213  0.0457
 3722TIP3    H132729   5.298   4.208   0.922 -2.0218 -1.4415 -1.8940
 3722TIP3    H232730   5.391   4.181   0.806 -0.6721  0.7429 -1.3878
 3723TIP3   OH232731   2.607   2.155   2.237 -0.0864 -0.0335  0.3367
 3723TIP3    H132732   2.607   2.216   2.312  0.1253  0.2948  0.0709
 3723TIP3    H232733   2.683   2.181   2.185 -0.5528  0.0952 -0.2865
 3724TIP3   OH232734   5.495   0.428   7.480  0.6440 -0.1849  0.2560
 3724TIP3    H132735   5.568   0.427   7.542  0.7290 -2.3481  0.1987
 3724TIP3    H232736   5.440   0.355   7.508 -1.7789  1.6632  0.5682
 3725TIP3   OH232737   5.716   4.832   1.659  1.1512  0.6169 -0.2285
 3725TIP3    H132738   5.722   4.876   1.743  1.4803  0.1206  0.0117
 3725TIP3    H232739   5.622   4.827   1.641  1.0665  0.4758  0.2418
 3726TIP3   OH232740   4.658   4.304   1.227 -0.3945 -0.2243  0.2025
 3726TIP3    H132741   4.608   4.385   1.241 -0.1593 -0.2803  1.4779
 3726TIP3    H232742   4.732   4.332   1.173  0.2042  0.6431  1.4103
 3727TIP3   OH232743   1.781   4.299   0.186  0.8137 -0.3839 -0.2779
 3727TIP3    H132744   1.817   4.346   0.262 -3.3519  1.4415  0.8382
 3727TIP3    H232745   1.754   4.215   0.221  0.3380 -0.1638 -0.1106
 3728TIP3   OH232746   1.745   6.654   0.144  0.1056 -0.3567 -0.1996
 3728TIP3    H132747   1.763   6.736   0.097 -2.4623  1.6991  2.0318
 3728TIP3    H232748   1.791   6.665   0.227  0.5149 -1.6409 -0.2469
 3729TIP3   OH232749   6.252   4.346   6.169  0.3949 -0.1880  0.2137
 3729TIP3    H132750   6.294   4.325   6.086 -1.2306 -2.2258 -0.1693
 3729TIP3    H232751   6.231   4.261   6.208 -2.4569  0.6595  0.7866
 3730TIP3   OH232752   1.175   6.063   1.638 -0.1012 -0.1629 -0.0646
 3730TIP3    H132753   1.211   5.976   1.653  0.2486  0.0736  0.4591
 3730TIP3    H232754   1.250   6.121   1.637 -0.0868 -0.1015 -2.4636
 3731TIP3   OH232755   5.836   1.332   7.607 -0.1195 -0.6153 -0.1462
 3731TIP3    H132756   5.822   1.334   7.702 -0.5855 -1.2135 -0.2040
 3731TIP3    H232757   5.926   1.300   7.597  0.9099  1.9217  0.1673
 3732TIP3   OH232758   1.673   6.391   0.702 -0.6806 -0.1494 -0.1066
 3732TIP3    H132759   1.697   6.322   0.641  0.5208  0.2166 -0.0633
 3732TIP3    H232760   1.656   6.346   0.785 -2.2590 -0.6423 -0.6497
 3733TIP3   OH232761   6.483   0.768   7.564  0.1569  0.2292 -0.1897
 3733TIP3    H132762   6.470   0.791   7.656 -1.9590  0.5961 -0.5253
 3733TIP3    H232763   6.498   0.852   7.520  1.4735  0.0270 -0.1642
 3734TIP3   OH232764   4.727   6.505   8.207  0.5519 -0.5235 -0.2156
 3734TIP3    H132765   4.656   6.443   8.190  0.4820  0.0800 -2.3094
 3734TIP3    H232766   4.761   6.529   8.121  0.4719  2.4630  0.4546
 3735TIP3   OH232767   5.706   5.551   6.229  0.4853  0.4107  0.2790
 3735TIP3    H132768   5.697   5.457   6.212  1.5660 -0.1338  2.3362
 3735TIP3    H232769   5.800   5.563   6.244  0.3795  1.8579 -0.1047
 3736TIP3   OH232770   6.029   6.325   0.047  0.0056 -0.1205  0.1481
 3736TIP3    H132771   5.981   6.243   0.056  0.8361 -0.4856  1.5143
 3736TIP3    H232772   6.080   6.332   0.128  2.1963  0.2881 -1.1886
 3737TIP3   OH232773   0.516   5.991   6.775  0.5336 -0.1452  0.3995
 3737TIP3    H132774   0.489   5.910   6.732  3.4890 -1.6970  1.1456
 3737TIP3    H232775   0.533   6.052   6.703 -2.9129  0.3688 -0.1366
 3738TIP3   OH232776   5.118   4.213   0.181 -0.1533 -0.0182  0.0119
 3738TIP3    H132777   5.186   4.241   0.242  1.1334 -0.3762 -1.1895
 3738TIP3    H232778   5.081   4.294   0.147 -0.4502  0.1808  0.7953
 3739TIP3   OH232779   2.751   3.492   8.251 -0.1528 -0.1593  0.2354
 3739TIP3    H132780   2.721   3.578   8.221 -3.6079 -1.5804 -0.8479
 3739TIP3    H232781   2.797   3.455   8.176  2.3567  1.0402  1.0646
 3740TIP3   OH232782   0.563   6.609   7.506 -0.3611  0.1110 -0.5051
 3740TIP3    H132783   0.591   6.596   7.415 -2.0249 -0.5599 -0.9662
 3740TIP3    H232784   0.628   6.562   7.558 -0.8389 -1.7989 -1.5406
 3741TIP3   OH232785   3.508   0.967   6.754 -0.9042  0.3233  0.1379
 3741TIP3    H132786   3.599   0.989   6.771 -0.9698  0.7316 -0.0327
 3741TIP3    H232787   3.494   0.991   6.662 -0.7323 -1.2526 -0.3299
 3742TIP3   OH232788   0.813   2.214   0.179  0.3094 -0.1201  0.0773
 3742TIP3    H132789   0.765   2.134   0.158 -1.4683 -0.0423  3.1018
 3742TIP3    H232790   0.898   2.184   0.211 -0.4578 -0.9102  1.4808
 3743TIP3   OH232791   1.274   0.679   8.189 -0.7780  0.2392 -0.7304
 3743TIP3    H132792   1.244   0.660   8.277 -0.3638  1.4608 -0.3028
 3743TIP3    H232793   1.194   0.693   8.138 -1.0147 -0.3663 -0.5312
 3744TIP3   OH232794   5.360   4.292   0.275 -0.2274  0.4078  0.0685
 3744TIP3    H132795   5.380   4.338   0.193  1.7056 -0.3373  0.0678
 3744TIP3    H232796   5.444   4.256   0.303 -0.6964  1.2370  2.7797
 3745TIP3   OH232797   1.356   5.758   0.608  0.3322 -0.1385  0.3418
 3745TIP3    H132798   1.353   5.854   0.599  1.2165 -0.1547 -0.2282
 3745TIP3    H232799   1.372   5.744   0.702 -3.3613  0.1619  1.1528
 3746TIP3   OH232800   5.371   5.716   1.062  0.2073 -0.0108 -0.2672
 3746TIP3    H132801   5.323   5.779   1.116  0.2719 -0.1406 -0.0561
 3746TIP3    H232802   5.325   5.634   1.074  0.9304 -0.3118  0.5509
 3747TIP3   OH232803   5.902   2.720   0.517 -0.3081  0.3783 -0.0803
 3747TIP3    H132804   5.812   2.745   0.537 -1.1709 -0.1267 -2.9415
 3747TIP3    H232805   5.947   2.803   0.500 -0.1726  0.6301  1.3519
 3748TIP3   OH232806   3.250   6.168   0.700 -0.1405  0.3353 -0.1720
 3748TIP3    H132807   3.316   6.235   0.680 -0.9213  0.8178 -1.2749
 3748TIP3    H232808   3.267   6.099   0.635  1.9836 -1.5944  2.2265
 3749TIP3   OH232809   6.360   3.764   1.134 -0.3680  0.7129  0.0409
 3749TIP3    H132810   6.374   3.678   1.095  0.0193  0.5504  0.5332
 3749TIP3    H232811   6.448   3.801   1.143 -0.2614  0.0348  2.3662
 3750TIP3   OH232812   1.858   4.368   8.300 -0.0472  0.2546 -0.4514
 3750TIP3    H132813   1.840   4.366   8.394  0.0652  2.4192 -0.3371
 3750TIP3    H232814   1.831   4.282   8.268  0.6212 -0.8084  1.6768
 3751TIP3   OH232815   1.601   2.856   6.966  0.2484 -0.5225  0.0529
 3751TIP3    H132816   1.516   2.865   7.010 -0.0617 -0.1294 -0.6229
 3751TIP3    H232817   1.602   2.927   6.902  0.9529 -0.7308 -0.1643
 3752TIP3   OH232818   2.103   5.418   7.539  0.1495  0.3834 -0.2118
 3752TIP3    H132819   2.074   5.349   7.481  1.0189  0.0947 -0.3220
 3752TIP3    H232820   2.182   5.383   7.581  0.8284  1.4391 -0.5562
 3753TIP3   OH232821   4.181   1.382   0.066 -0.2635 -0.2833 -0.4333
 3753TIP3    H132822   4.266   1.362   0.104  0.4743  2.0589 -0.7280
 3753TIP3    H232823   4.177   1.478   0.064 -3.1186 -0.3017  0.0472
 3754TIP3   OH232824   1.523   6.215   0.927  0.0045  1.1554  0.0183
 3754TIP3    H132825   1.473   6.256   0.857 -1.1492  0.7398  0.5699
 3754TIP3    H232826   1.483   6.129   0.938 -0.2360  1.4336  1.5713
 3755TIP3   OH232827   0.943   5.264   7.469  0.3184 -0.1358 -0.2644
 3755TIP3    H132828   0.880   5.265   7.541  0.1924  0.1231 -0.3748
 3755TIP3    H232829   1.028   5.252   7.512  0.3560  1.0523  0.0229
 3756TIP3   OH232830   1.215   4.754   7.844  0.6246  0.6866  0.1670
 3756TIP3    H132831   1.308   4.753   7.826  0.6286 -1.4599 -0.0360
 3756TIP3    H232832   1.195   4.663   7.869 -1.3547  1.1457  0.4322
 3757TIP3   OH232833   5.846   1.067   8.345  0.3572  0.5781 -0.2126
 3757TIP3    H132834   5.778   1.022   8.395  0.1541  0.4273 -0.6271
 3757TIP3    H232835   5.816   1.063   8.254 -1.1364  3.9970 -0.0369
 3758TIP3   OH232836   0.415   6.231   1.429 -0.9649  0.0105 -0.8734
 3758TIP3    H132837   0.453   6.313   1.460 -0.3804  0.0661 -1.7133
 3758TIP3    H232838   0.482   6.165   1.446 -1.3397 -0.2714 -0.4232
 3759TIP3   OH232839   6.008   4.324   1.234 -0.4915 -0.2272 -0.1386
 3759TIP3    H132840   5.947   4.397   1.247  1.8498  1.5566  1.8285
 3759TIP3    H232841   6.012   4.282   1.320  2.2628  0.8205  0.3379
 3760TIP3   OH232842   3.870   0.197   7.453 -0.1361 -0.0023 -0.0908
 3760TIP3    H132843   3.775   0.186   7.452 -0.0791 -0.4948 -0.3577
 3760TIP3    H232844   3.902   0.125   7.507  0.1017  0.0251 -0.1919
 3761TIP3   OH232845   6.525   4.364   6.232  1.1781  0.2482  0.5100
 3761TIP3    H132846   6.527   4.324   6.145  0.4755 -0.2154  0.6989
 3761TIP3    H232847   6.434   4.358   6.260  1.2391  1.1619  0.9327
 3762TIP3   OH232848   3.373   4.892   1.339 -0.3161  0.0669  0.4198
 3762TIP3    H132849   3.442   4.825   1.333 -1.8617 -1.7144  1.5496
 3762TIP3    H232850   3.421   4.975   1.347  1.6802 -0.7836 -1.4736
 3763TIP3   OH232851   3.495   0.298   0.590 -0.9543 -0.1529 -0.1245
 3763TIP3    H132852   3.454   0.232   0.645 -0.9448  1.0052  1.3395
 3763TIP3    H232853   3.427   0.321   0.526 -1.6720 -0.1178  0.6349
 3764TIP3   OH232854   1.855   1.899   7.019  0.1868  0.0903 -0.0595
 3764TIP3    H132855   1.779   1.930   7.069  0.3175 -0.0051  0.2020
 3764TIP3    H232856   1.905   1.978   7.000 -0.4314  0.2720 -1.0153
 3765TIP3   OH232857   6.410   5.046   0.193  0.2534  0.0355 -0.4786
 3765TIP3    H132858   6.347   5.004   0.135  0.8209  0.1254 -1.1877
 3765TIP3    H232859   6.431   5.128   0.148  1.8626 -0.5937 -0.9556
 3766TIP3   OH232860   7.008   4.856   0.708  0.0298 -0.5570 -0.0029
 3766TIP3    H132861   7.058   4.933   0.733  1.1160 -1.5154  0.8595
 3766TIP3    H232862   7.036   4.788   0.769 -1.6345 -1.3855 -0.0961
 3767TIP3   OH232863   1.869   2.658   7.751  0.7674  0.2207 -0.0439
 3767TIP3    H132864   1.836   2.732   7.801  2.4221 -0.6225  2.5092
 3767TIP3    H232865   1.854   2.582   7.807  0.2368 -1.2565 -2.0432
 3768TIP3   OH232866   1.315   4.300   0.283  0.9062  0.2821 -0.4648
 3768TIP3    H132867   1.299   4.363   0.212  1.0714  1.5938  0.6317
 3768TIP3    H232868   1.298   4.215   0.243 -0.2538  1.0636 -1.7395
 3769TIP3   OH232869   6.585   3.626   7.288  0.3369 -0.4616  0.7675
 3769TIP3    H132870   6.678   3.637   7.268  0.3429 -0.0511  1.0052
 3769TIP3    H232871   6.580   3.638   7.383  0.0516 -0.5534  0.7638
 3770TIP3   OH232872   1.200   5.060   7.171  0.2750 -0.5389 -0.1043
 3770TIP3    H132873   1.198   5.143   7.219 -1.0997 -0.7654  0.2732
 3770TIP3    H232874   1.267   5.072   7.104  0.4389  0.6969  0.2662
 3771TIP3   OH232875   3.695   1.686   0.462 -0.5278 -0.4254 -0.5893
 3771TIP3    H132876   3.675   1.592   0.460  1.3036 -0.8435 -2.3555
 3771TIP3    H232877   3.702   1.706   0.555 -2.6831 -1.5968 -0.1018
 3772TIP3   OH232878   1.202   2.073   7.123  0.0717  0.1941  0.0171
 3772TIP3    H132879   1.205   2.089   7.218 -0.1586 -0.4766  0.1419
 3772TIP3    H232880   1.254   1.994   7.111 -0.6950 -0.2775 -0.2885
 3773TIP3   OH232881   5.378   4.282   1.518  0.0914  0.1585 -0.0207
 3773TIP3    H132882   5.312   4.242   1.574 -0.0458  0.1505 -0.1890
 3773TIP3    H232883   5.453   4.222   1.524  0.1205  0.2224  0.2515
 3774TIP3   OH232884   6.993   4.230   0.595  0.4835 -0.0459 -0.3742
 3774TIP3    H132885   6.910   4.252   0.554  0.9639 -2.1541 -2.7078
 3774TIP3    H232886   6.970   4.202   0.683 -1.0039  1.3341 -0.2892
 3775TIP3   OH232887   4.919   1.114   1.761  0.3118  0.7689 -0.0219
 3775TIP3    H132888   4.994   1.088   1.814 -0.1977  1.3725  1.0295
 3775TIP3    H232889   4.954   1.126   1.672  1.5511  1.5243  0.5492
 3776TIP3   OH232890   2.410   5.763   6.359  0.4857 -0.1494  0.3299
 3776TIP3    H132891   2.416   5.686   6.303  0.7705  0.8918 -1.1461
 3776TIP3    H232892   2.426   5.837   6.300 -2.1833  1.2180  1.1442
 3777TIP3   OH232893   3.226   1.634   1.126 -0.4206 -0.5111 -0.4957
 3777TIP3    H132894   3.237   1.612   1.033  1.2367 -0.8568 -0.2565
 3777TIP3    H232895   3.315   1.646   1.158 -0.8605 -1.7909  1.3795
 3778TIP3   OH232896   5.813   6.103   0.103 -0.2301 -0.7349 -0.2711
 3778TIP3    H132897   5.805   6.072   0.013 -1.9660 -2.4091  0.3828
 3778TIP3    H232898   5.725   6.135   0.125 -0.0546 -1.1216  1.0803
 3779TIP3   OH232899   0.490   3.575   7.489  0.1993  0.2381  0.4269
 3779TIP3    H132900   0.443   3.494   7.472  1.4617  0.1070 -3.0953
 3779TIP3    H232901   0.538   3.558   7.570 -1.5079 -1.5575  1.1440
 3780TIP3   OH232902   6.842   3.654   7.103  0.0668 -0.3702 -0.2426
 3780TIP3    H132903   6.843   3.559   7.098 -1.6199 -0.5090  0.9750
 3780TIP3    H232904   6.879   3.674   7.190 -2.3864 -0.1485  0.8254
 3781TIP3   OH232905   3.296   3.221   7.213  0.1728 -0.0910 -0.2480
 3781TIP3    H132906   3.207   3.186   7.208  0.2296 -0.5968  1.4694
 3781TIP3    H232907   3.352   3.151   7.181  0.0439 -0.3738  0.1321
 3782TIP3   OH232908   2.897   0.046   6.488  0.7590  0.2559 -0.3085
 3782TIP3    H132909   2.906   0.042   6.392  0.8392  0.7016 -0.3218
 3782TIP3    H232910   2.803   0.047   6.503  0.7036 -1.5354 -0.2975
 3783TIP3   OH232911   2.870   0.319   6.582  0.4318  0.1294  0.4490
 3783TIP3    H132912   2.821   0.321   6.664  1.4348  0.9411  1.0667
 3783TIP3    H232913   2.901   0.228   6.574  0.9678  0.2134  1.3907
 3784TIP3   OH232914   5.528   4.978   1.103  0.2471  0.0793 -0.6382
 3784TIP3    H132915   5.578   4.929   1.168 -0.1210 -0.2380 -0.5910
 3784TIP3    H232916   5.551   4.938   1.019 -1.0863 -1.0948 -0.4783
 3785TIP3   OH232917   5.444   3.892   7.737 -0.4675 -0.3725 -0.2046
 3785TIP3    H132918   5.397   3.876   7.819  0.0518  1.3397  0.4699
 3785TIP3    H232919   5.536   3.896   7.762 -0.0563 -2.1086 -1.2709
 3786TIP3   OH232920   5.037   4.139   7.115 -0.0287  0.1586 -0.4659
 3786TIP3    H132921   5.016   4.233   7.115 -3.0795 -0.4191 -0.2938
 3786TIP3    H232922   4.958   4.097   7.148  0.8974 -2.5631 -1.4419
 3787TIP3   OH232923   2.412   1.819   8.067 -0.4964  0.1509  0.0725
 3787TIP3    H132924   2.320   1.845   8.069  0.0455  2.2996 -0.2872
 3787TIP3    H232925   2.435   1.819   7.974 -0.2833 -1.0451  0.1095
 3788TIP3   OH232926   0.908   1.711   6.168 -0.3725  0.2142 -0.1591
 3788TIP3    H132927   0.953   1.676   6.245 -0.1197  2.0244  0.5660
 3788TIP3    H232928   0.933   1.803   6.165 -1.7128  0.5860 -1.4506
 3789TIP3   OH232929   2.733   2.342   7.011 -0.3137  0.0949 -0.1019
 3789TIP3    H132930   2.777   2.265   6.975  0.4989  0.4410  0.1274
 3789TIP3    H232931   2.684   2.378   6.937  1.4280  0.8710 -0.9302
 3790TIP3   OH232932   2.170   2.401   0.155 -0.3276  0.0898  0.0919
 3790TIP3    H132933   2.205   2.320   0.119 -2.4835 -0.2961 -1.2944
 3790TIP3    H232934   2.246   2.446   0.192  1.1078 -1.9695 -0.2293
 3791TIP3   OH232935   2.881   2.839   7.545 -0.3683  0.2830 -0.3384
 3791TIP3    H132936   2.838   2.915   7.507  0.4659  0.6784 -0.5135
 3791TIP3    H232937   2.901   2.782   7.471 -1.5836 -0.4455 -0.1477
 3792TIP3   OH232938   5.323   2.268   6.802  0.5999 -0.0200 -0.0025
 3792TIP3    H132939   5.403   2.294   6.755  0.8546 -1.3127 -0.3151
 3792TIP3    H232940   5.280   2.351   6.823  2.0871  0.7152  0.2813
 3793TIP3   OH232941   4.463   5.372   0.875 -0.7686 -0.7467  0.0125
 3793TIP3    H132942   4.517   5.312   0.824 -0.1605 -0.6701  0.5578
 3793TIP3    H232943   4.417   5.316   0.937 -1.7490 -0.8779 -0.8025
 3794TIP3   OH232944   0.413   4.173   6.898 -0.3717  0.1053  0.3101
 3794TIP3    H132945   0.381   4.103   6.956 -0.2261  0.4673  0.8359
 3794TIP3    H232946   0.436   4.244   6.958 -2.0369  1.2257 -0.3064
 3795TIP3   OH232947   0.870   0.662   6.535 -0.2293 -0.3254  0.2915
 3795TIP3    H132948   0.888   0.624   6.449  0.7614  0.5190  0.1086
 3795TIP3    H232949   0.843   0.752   6.516 -0.9188 -0.4061  0.8250
 3796TIP3   OH232950   0.757   0.307   1.659  0.0499 -0.0781  0.0570
 3796TIP3    H132951   0.699   0.382   1.675 -1.3613 -1.1146 -0.0465
 3796TIP3    H232952   0.779   0.313   1.566 -1.1778 -0.5429 -0.2799
 3797TIP3   OH232953   0.079   1.966   0.130  0.2817  0.4270  0.1190
 3797TIP3    H132954   0.079   1.875   0.099  0.7087  0.3310  0.3884
 3797TIP3    H232955   0.102   2.017   0.053 -0.2570  0.3390 -0.1084
 3798TIP3   OH232956   4.031   3.341   8.141 -0.3653  0.3485 -0.1949
 3798TIP3    H132957   4.046   3.333   8.046 -1.6535 -0.6851 -0.3446
 3798TIP3    H232958   4.103   3.293   8.180 -0.1439  0.2789 -0.6751
 3799TIP3   OH232959   2.677   6.023   1.624  0.7923 -0.2402 -0.1165
 3799TIP3    H132960   2.744   6.090   1.640  1.3971  0.2431 -3.7980
 3799TIP3    H232961   2.714   5.942   1.659  2.4726  0.3789 -0.3821
 3800TIP3   OH232962   3.724   6.165   6.696  0.0112  0.2016  0.2238
 3800TIP3    H132963   3.774   6.214   6.631 -1.2866 -0.5104 -1.3912
 3800TIP3    H232964   3.641   6.212   6.703 -0.2500 -0.3041  0.6221
 3801TIP3   OH232965   4.488   5.640   6.808 -0.0251 -0.6670 -0.3108
 3801TIP3    H132966   4.419   5.589   6.766 -0.2141 -0.1998 -0.5728
 3801TIP3    H232967   4.478   5.728   6.772 -0.9271  0.0396  1.5836
 3802TIP3   OH232968   6.233   1.940   2.110  0.3237 -0.5147  0.4999
 3802TIP3    H132969   6.254   1.847   2.117 -0.9941 -0.7049  2.6340
 3802TIP3    H232970   6.314   1.985   2.137  0.3412 -1.0884  1.4312
 3803TIP3   OH232971   0.909   0.488   6.743 -0.0784  0.3655 -0.3253
 3803TIP3    H132972   1.003   0.501   6.761  0.0213 -0.4137 -0.2599
 3803TIP3    H232973   0.890   0.548   6.671 -0.1167  2.3732  1.2847
 3804TIP3   OH232974   2.008   4.341   1.827  0.0250  0.4804  0.5338
 3804TIP3    H132975   2.029   4.357   1.919  0.9685  0.3365  0.3455
 3804TIP3    H232976   1.973   4.252   1.825  2.4073 -0.5048  0.3990
 3805TIP3   OH232977   6.396   4.712   0.042 -0.3166 -0.4691  0.6236
 3805TIP3    H132978   6.347   4.639   0.080  0.4840 -0.5676  1.5225
 3805TIP3    H232979   6.337   4.787   0.051 -0.7069 -0.7838  0.7368
 3806TIP3   OH232980   3.275   4.424   7.303  0.3618  0.5197  0.1255
 3806TIP3    H132981   3.314   4.395   7.385 -0.6477  0.4856  0.6043
 3806TIP3    H232982   3.350   4.450   7.249  0.9656  1.9837  1.5986
 3807TIP3   OH232983   4.125   3.418   0.071 -0.4627  0.0677 -0.2492
 3807TIP3    H132984   4.051   3.374   0.113 -0.2079 -0.7963 -0.6646
 3807TIP3    H232985   4.088   3.500   0.037 -0.2310  1.8806  3.4071
 3808TIP3   OH232986   1.541   6.275   5.880 -0.0573 -0.1215  0.5971
 3808TIP3    H132987   1.539   6.341   5.810 -0.0049  1.4720  2.0273
 3808TIP3    H232988   1.448   6.262   5.902 -0.0401 -0.1279  0.6653
 3809TIP3   OH232989   4.872   4.365   8.200  0.1446 -0.1610 -0.1857
 3809TIP3    H132990   4.844   4.455   8.217 -0.0321 -0.6372  2.4592
 3809TIP3    H232991   4.926   4.342   8.276 -0.7317 -2.6495 -0.2278
 3810TIP3   OH232992   6.453   0.788   7.839  0.2500  0.0861  0.7527
 3810TIP3    H132993   6.359   0.776   7.850  0.4828 -0.6649  2.1848
 3810TIP3    H232994   6.488   0.699   7.837  0.7034  0.2060 -2.6482
 3811TIP3   OH232995   2.624   2.722   7.592 -0.5166  0.7118 -0.3156
 3811TIP3    H132996   2.716   2.742   7.602 -0.5747  1.1996 -0.7271
 3811TIP3    H232997   2.608   2.649   7.653 -0.1917  1.5503  0.8000
 3812TIP3   OH232998   3.729   0.168   0.804  0.7470 -0.0369  0.0714
 3812TIP3    H132999   3.637   0.151   0.825  0.6727 -0.5462 -0.6335
 3812TIP3    H233000   3.758   0.089   0.758  1.6126  0.0094  0.5020
 3813TIP3   OH233001   6.567   2.039   0.515  0.2041 -0.6565  0.1823
 3813TIP3    H133002   6.512   2.117   0.503  0.8602 -0.3225 -0.8093
 3813TIP3    H233003   6.640   2.069   0.569  0.5865 -0.5001 -0.4051
 3814TIP3   OH233004   0.088   1.262   0.199 -0.4601  0.7909  0.1576
 3814TIP3    H133005   0.037   1.331   0.241 -0.6441  1.3649 -0.9614
 3814TIP3    H233006   0.136   1.307   0.130 -0.3891 -0.1645 -0.4337
 3815TIP3   OH233007   3.394   6.184   7.415 -0.7763  0.5402 -0.1941
 3815TIP3    H133008   3.428   6.272   7.401 -0.1753  0.1164 -1.6260
 3815TIP3    H233009   3.455   6.144   7.478  0.2751  0.4521 -1.2186
 3816TIP3   OH233010   2.810   2.834   2.148 -0.1885  0.2639 -0.0523
 3816TIP3    H133011   2.786   2.880   2.067 -0.7102 -1.2379 -0.7857
 3816TIP3    H233012   2.730   2.787   2.173 -0.0637  0.7784  1.4105
 3817TIP3   OH233013   2.255   1.021   8.075 -0.8835 -0.5933 -0.2635
 3817TIP3    H133014   2.341   1.011   8.117 -0.5229  1.0624 -0.5487
 3817TIP3    H233015   2.220   1.102   8.112 -1.4495 -0.1843 -1.6616
 3818TIP3   OH233016   5.489   0.708   1.713  0.9735  0.1311 -0.1072
 3818TIP3    H133017   5.495   0.623   1.757 -1.6851 -0.1942 -0.2115
 3818TIP3    H233018   5.557   0.761   1.755  2.0885 -1.7476  0.5978
 3819TIP3   OH233019   0.456   6.348   2.291 -0.2798 -0.2081  0.2484
 3819TIP3    H133020   0.458   6.386   2.203 -1.7721  0.2428  0.3899
 3819TIP3    H233021   0.365   6.358   2.320  0.0568 -0.8724  1.6201
 3820TIP3   OH233022   6.051   6.677   7.661  0.0270 -0.0543  0.0368
 3820TIP3    H133023   6.016   6.639   7.742  0.6799 -0.7698 -0.0030
 3820TIP3    H233024   6.061   6.770   7.681 -0.2569 -0.1408  0.6190
 3821TIP3   OH233025   0.713   3.091   7.296  0.0046 -0.0308  0.0566
 3821TIP3    H133026   0.618   3.082   7.289  0.0424 -0.7625  0.4538
 3821TIP3    H233027   0.739   3.134   7.214 -0.5866 -0.4508 -0.3553
 3822TIP3   OH233028   0.343   1.384   7.300 -0.3295 -0.1635 -0.1578
 3822TIP3    H133029   0.431   1.352   7.279 -1.3649 -2.6041 -1.1315
 3822TIP3    H233030   0.331   1.362   7.392  0.6372  1.7590  0.4953
 3823TIP3   OH233031   2.738   5.000   0.411 -0.1144 -0.1915 -0.1280
 3823TIP3    H133032   2.822   4.966   0.381  0.5047  0.8812  0.3314
 3823TIP3    H233033   2.699   5.039   0.334  0.4000  0.4441 -0.0793
 3824TIP3   OH233034   1.397   1.420   1.641 -0.3280  0.1378  0.1158
 3824TIP3    H133035   1.371   1.371   1.719 -0.5912  1.0598  0.6256
 3824TIP3    H233036   1.468   1.477   1.672 -0.8948  1.0041 -0.1461
 3825TIP3   OH233037   2.629   5.367   0.159  0.4796 -0.0325 -0.1730
 3825TIP3    H133038   2.631   5.373   0.063  1.1717  0.2682 -0.1441
 3825TIP3    H233039   2.589   5.449   0.188 -1.1654 -0.7567 -0.2463
 3826TIP3   OH233040   6.773   5.381   0.240 -0.7389  0.0942  0.1136
 3826TIP3    H133041   6.832   5.454   0.222  0.9942 -0.3645  3.2698
 3826TIP3    H233042   6.744   5.352   0.153  2.6911  1.1441 -1.5632
 3827TIP3   OH233043   3.170   0.191   6.667  0.4854 -0.4003 -0.5218
 3827TIP3    H133044   3.200   0.125   6.604  3.3712 -0.6020  0.9340
 3827TIP3    H233045   3.170   0.146   6.751 -0.5695  0.6268  0.0514
 3828TIP3   OH233046   3.306   3.834   6.057  0.3859 -0.4313 -0.8357
 3828TIP3    H133047   3.270   3.910   6.010  0.3867  0.2563  0.2259
 3828TIP3    H233048   3.344   3.872   6.136 -2.4462 -1.7968  1.3784
 3829TIP3   OH233049   0.747   5.012   6.531  0.0377 -0.6257  0.4350
 3829TIP3    H133050   0.734   5.062   6.612 -0.4426  0.1640 -0.1156
 3829TIP3    H233051   0.775   5.077   6.467 -3.5108 -0.4143 -1.1191
 3830TIP3   OH233052   0.929   6.121   7.814  0.1887  0.0549  1.0514
 3830TIP3    H133053   0.901   6.135   7.723 -0.1502  2.5154  1.4477
 3830TIP3    H233054   0.862   6.065   7.852  0.3776 -1.0720 -0.2033
 3831TIP3   OH233055   5.121   2.181   0.376  0.4062  0.2048 -0.4721
 3831TIP3    H133056   5.109   2.167   0.470 -1.2743 -0.4599 -0.7566
 3831TIP3    H233057   5.183   2.113   0.349 -0.2537 -0.5481 -0.1111
 3832TIP3   OH233058   2.949   1.363   7.539  0.2588 -0.9121 -0.3665
 3832TIP3    H133059   2.919   1.273   7.523 -1.7476 -0.5225  0.8333
 3832TIP3    H233060   2.960   1.400   7.451 -3.2781 -1.0243 -0.9888
 3833TIP3   OH233061   1.614   6.495   1.180 -0.4115  0.2876  0.1714
 3833TIP3    H133062   1.567   6.444   1.245  0.9191 -1.0503  0.1342
 3833TIP3    H233063   1.699   6.515   1.221  0.1996 -0.0378 -0.8899
 3834TIP3   OH233064   4.918   3.259   8.188  0.6516  0.0781 -0.0063
 3834TIP3    H133065   4.984   3.298   8.245  0.1694  0.3847  0.3436
 3834TIP3    H233066   4.966   3.237   8.108  1.2945 -0.1976  0.4433
 3835TIP3   OH233067   4.217   4.881   6.792 -0.2870  0.0677 -0.2766
 3835TIP3    H133068   4.217   4.830   6.872  0.2557 -0.9845 -0.9159
 3835TIP3    H233069   4.211   4.972   6.821  0.2702 -0.2684  0.9679
 3836TIP3   OH233070   0.371   1.138   7.987  0.0092 -0.4979  0.2673
 3836TIP3    H133071   0.448   1.124   7.933 -0.1991 -1.7373  0.2616
 3836TIP3    H233072   0.313   1.065   7.966 -1.1867  0.4261  0.2469
 3837TIP3   OH233073   4.379   6.107   0.195 -0.7505  0.0917 -0.3057
 3837TIP3    H133074   4.457   6.110   0.140  0.1196 -2.0154  0.6676
 3837TIP3    H233075   4.406   6.148   0.277 -1.5673  1.8375 -0.8673
 3838TIP3   OH233076   6.411   6.651   8.120  0.3316  0.5459 -0.4337
 3838TIP3    H133077   6.341   6.658   8.056 -0.7155  3.4147  0.8376
 3838TIP3    H233078   6.366   6.637   8.203  1.4507 -0.0516  0.1025
 3839TIP3   OH233079   5.091   2.502   6.698  0.1903 -0.3697 -0.0718
 3839TIP3    H133080   5.057   2.440   6.633  2.1248 -0.2912 -1.2348
 3839TIP3    H233081   5.121   2.577   6.647  2.3218 -0.5591  0.8089
 3840TIP3   OH233082   0.257   6.136   5.926 -0.1772  0.2966  0.0517
 3840TIP3    H133083   0.328   6.098   5.874 -1.1604 -0.5221 -0.7395
 3840TIP3    H233084   0.210   6.193   5.866 -0.3609  0.6114  0.4857
 3841TIP3   OH233085   4.772   1.718   1.928 -0.4648 -0.2884 -0.6217
 3841TIP3    H133086   4.786   1.673   1.844  0.2545  0.4142 -0.8930
 3841TIP3    H233087   4.855   1.762   1.946 -1.0851  0.7932 -0.2898
 3842TIP3   OH233088   1.747   0.648   2.162 -0.6181  0.1425  0.1659
 3842TIP3    H133089   1.716   0.594   2.235 -0.0539 -1.0100 -0.4173
 3842TIP3    H233090   1.829   0.686   2.193  1.2455 -2.7274 -0.8130
 3843TIP3   OH233091   2.051   1.065   6.486 -0.3582  0.1093 -0.0137
 3843TIP3    H133092   2.142   1.038   6.476  0.2575  1.6035  1.1746
 3843TIP3    H233093   2.027   1.100   6.400  0.9284  1.7477  0.2584
 3844TIP3   OH233094   6.150   6.094   8.025  0.3709  0.6042  0.4030
 3844TIP3    H133095   6.240   6.081   7.994 -0.4929  0.6848 -2.4103
 3844TIP3    H233096   6.096   6.071   7.950 -1.9998  0.4849  2.0562
 3845TIP3   OH233097   5.669   4.213   0.921  0.4078 -0.4890  0.2423
 3845TIP3    H133098   5.749   4.264   0.930 -0.1367  0.3845  0.1863
 3845TIP3    H233099   5.635   4.206   1.011 -0.3196  0.5770  0.0693
 3846TIP3   OH233100   6.357   2.096   8.369  0.0484 -0.6059  0.4803
 3846TIP3    H133101   6.283   2.055   8.324 -1.3575  1.3378  0.9197
 3846TIP3    H233102   6.429   2.034   8.355 -0.6858 -0.9262 -3.0172
 3847TIP3   OH233103   5.695   1.004   1.582 -0.0927  0.7628 -0.4614
 3847TIP3    H133104   5.686   0.982   1.489 -1.8014  2.9916 -0.9079
 3847TIP3    H233105   5.743   1.087   1.582 -0.1885  0.8253  0.6451
 3848TIP3   OH233106   2.726   6.647   6.807 -0.2396  0.1360  0.3515
 3848TIP3    H133107   2.746   6.669   6.715  2.9030  0.9116  1.0957
 3848TIP3    H233108   2.772   6.714   6.857  0.1575 -1.6677  2.5336
 3849TIP3   OH233109   2.860   0.636   1.211 -0.0261  0.5154  0.4199
 3849TIP3    H133110   2.775   0.628   1.256 -0.3289 -0.1043 -0.2378
 3849TIP3    H233111   2.917   0.577   1.260  0.0244  0.9075  0.8445
 3850TIP3   OH233112   4.461   5.478   0.240  0.6638 -0.4251  0.5687
 3850TIP3    H133113   4.524   5.528   0.189 -1.1490  1.8316  0.3557
 3850TIP3    H233114   4.418   5.421   0.176 -0.6053  1.3516 -0.2376
 3851TIP3   OH233115   5.999   6.414   1.231  0.5843 -0.0876  0.0709
 3851TIP3    H133116   5.957   6.341   1.186 -0.7018  0.6271  0.0767
 3851TIP3    H233117   6.093   6.394   1.225  0.4698 -0.1743 -2.7008
 3852TIP3   OH233118   2.925   3.836   6.698  0.2142  0.6843  0.2361
 3852TIP3    H133119   2.892   3.761   6.749 -0.3263 -0.3320 -1.5322
 3852TIP3    H233120   3.015   3.813   6.677 -0.1467  0.2291 -0.8386
 3853TIP3   OH233121   4.735   0.939   6.476  0.1282 -0.1424  0.1854
 3853TIP3    H133122   4.795   1.012   6.489 -2.5547  2.2854  0.0757
 3853TIP3    H233123   4.730   0.929   6.381  1.0185 -0.9952  0.2146
 3854TIP3   OH233124   4.635   6.647   1.721 -0.0954  0.2178 -0.6178
 3854TIP3    H133125   4.717   6.690   1.694 -0.1969  0.2838 -0.8171
 3854TIP3    H233126   4.664   6.570   1.770  0.0872  0.3608 -0.4988
 3855TIP3   OH233127   2.418   3.020   8.190  0.6255 -0.3212  0.1137
 3855TIP3    H133128   2.329   3.010   8.156  0.6703 -0.1180 -0.0603
 3855TIP3    H233129   2.405   3.050   8.280  0.5065 -0.9079  0.2965
 3856TIP3   OH233130   3.327   2.260   1.098 -0.2180  0.1469 -0.1812
 3856TIP3    H133131   3.273   2.336   1.076 -1.0375 -0.0089  1.1589
 3856TIP3    H233132   3.263   2.190   1.116  0.3964 -0.0384  1.4403
 3857TIP3   OH233133   6.650   1.065   2.277  0.1719  0.1712 -0.5212
 3857TIP3    H133134   6.619   1.005   2.210  2.1887 -2.8299  0.9993
 3857TIP3    H233135   6.740   1.085   2.252  1.4869 -2.1790  1.8153
 3858TIP3   OH233136   1.008   5.050   1.142 -0.4293  0.2957 -0.8074
 3858TIP3    H133137   1.045   5.059   1.054  2.5909 -0.1679  0.2840
 3858TIP3    H233138   1.067   5.101   1.198 -1.3313 -0.6884  1.1330
 3859TIP3   OH233139   2.933   3.061   1.251 -0.0498  0.1437  0.3089
 3859TIP3    H133140   2.937   3.150   1.286 -0.2839  0.7224 -1.0796
 3859TIP3    H233141   2.879   3.069   1.172 -0.2249 -1.2654  0.2736
 3860TIP3   OH233142   4.541   1.167   0.390 -0.3134 -0.0515  0.0124
 3860TIP3    H133143   4.512   1.076   0.403 -1.3038  0.2554  0.0156
 3860TIP3    H233144   4.533   1.207   0.476  1.5448 -0.3280  0.3568
 3861TIP3   OH233145   2.142   2.368   6.964 -0.2540  0.7742  0.1704
 3861TIP3    H133146   2.092   2.421   7.027 -0.4044  0.1213  0.6056
 3861TIP3    H233147   2.232   2.373   6.994 -0.2128  1.0887 -0.0051
 3862TIP3   OH233148   3.027   0.490   1.382 -0.1663 -0.0214  0.1503
 3862TIP3    H133149   3.001   0.456   1.468  1.7246  0.1293  0.8081
 3862TIP3    H233150   3.094   0.429   1.352 -0.7211 -0.0014 -1.1942
 3863TIP3   OH233151   1.404   1.036   7.116 -0.0590  0.4547  0.8203
 3863TIP3    H133152   1.476   1.090   7.147  1.0429 -0.8062  0.5529
 3863TIP3    H233153   1.400   0.964   7.178  1.0704 -1.1991 -0.9014
 3864TIP3   OH233154   4.863   3.579   1.424 -0.0047  0.5210 -0.0678
 3864TIP3    H133155   4.927   3.576   1.495  1.7402 -0.4415 -1.6040
 3864TIP3    H233156   4.858   3.672   1.401  0.5411  0.6578  0.3429
 3865TIP3   OH233157   4.276   3.781   7.062 -0.0449 -0.0661  0.0128
 3865TIP3    H133158   4.313   3.832   6.991 -1.6931 -1.2075 -1.7433
 3865TIP3    H233159   4.250   3.698   7.022 -2.2546 -0.2522  1.6506
 3866TIP3   OH233160   1.876   2.305   8.225  0.1298 -0.0069  0.0410
 3866TIP3    H133161   1.919   2.299   8.139  1.5463  2.9135  0.4147
 3866TIP3    H233162   1.921   2.377   8.269 -1.6814 -0.3139  2.6211
 3867TIP3   OH233163   3.917   5.710   6.974  0.1622 -0.1353  0.1793
 3867TIP3    H133164   3.830   5.751   6.974 -0.0021 -0.4745  0.4073
 3867TIP3    H233165   3.913   5.647   6.902  0.4330  0.2842 -0.2070
 3868TIP3   OH233166   3.311   3.058   7.675  1.0490  0.2851  0.1036
 3868TIP3    H133167   3.330   3.152   7.684 -0.0101  0.4044  1.2784
 3868TIP3    H233168   3.244   3.040   7.741  1.8078 -1.4742  0.4544
 3869TIP3   OH233169   3.369   0.675   7.918 -0.0098 -0.2646  0.0844
 3869TIP3    H133170   3.273   0.684   7.916  0.1555  2.0524 -1.0130
 3869TIP3    H233171   3.387   0.604   7.857 -0.9691  0.8033 -1.5363
 3870TIP3   OH233172   1.630   6.649   0.497  0.1264  0.2594 -0.4308
 3870TIP3    H133173   1.694   6.641   0.426  1.2138  0.6988  0.4639
 3870TIP3    H233174   1.627   6.562   0.537  0.8626  0.4563  0.0821
 3871TIP3   OH233175   2.730   4.154   6.656 -0.3053  0.3043 -0.4853
 3871TIP3    H133176   2.673   4.122   6.727 -0.4105 -1.0697 -1.1650
 3871TIP3    H233177   2.816   4.162   6.697 -0.5312  0.3190  0.0014
 3872TIP3   OH233178   5.498   3.219   0.929  0.1902  0.3001 -0.6055
 3872TIP3    H133179   5.579   3.270   0.935 -0.1262  0.6695  0.6310
 3872TIP3    H233180   5.517   3.139   0.978 -1.2379  1.8110  2.7270
 3873TIP3   OH233181   4.590   2.232   8.352 -0.0232  0.5374  0.0487
 3873TIP3    H133182   4.580   2.322   8.384 -0.8619  0.2009  0.7566
 3873TIP3    H233183   4.616   2.182   8.429 -1.5694 -0.1942  0.1190
 3874TIP3   OH233184   5.649   3.562   1.330 -0.3740  0.6247 -0.2466
 3874TIP3    H133185   5.713   3.592   1.266 -0.7695  2.9904  0.3434
 3874TIP3    H233186   5.682   3.478   1.361  2.9326  2.1199  0.6370
 3875TIP3   OH233187   2.389   4.698   0.352 -0.3154 -0.3877 -0.0114
 3875TIP3    H133188   2.321   4.660   0.297  0.0793 -0.8644 -0.1805
 3875TIP3    H233189   2.465   4.707   0.294 -0.8430  2.2202 -0.4541
 3876TIP3   OH233190   1.626   3.999   0.729  0.3549  0.3143  0.2714
 3876TIP3    H133191   1.625   3.966   0.640  1.5797  0.9490  0.0090
 3876TIP3    H233192   1.632   4.094   0.720  2.3742  0.2918  1.0102
 3877TIP3   OH233193   4.965   2.852   0.208  0.3381  0.3494  0.3635
 3877TIP3    H133194   4.955   2.837   0.114  1.4888 -3.3573  0.6898
 3877TIP3    H233195   5.044   2.905   0.215  0.4189  0.4035 -0.7450
 3878TIP3   OH233196   6.184   1.882   7.734 -0.3286  0.7936  0.2719
 3878TIP3    H133197   6.268   1.843   7.708 -1.1846 -0.9249 -0.0562
 3878TIP3    H233198   6.170   1.850   7.823 -0.7913  0.7902  0.1991
 3879TIP3   OH233199   6.268   0.910   6.567  0.6808 -0.0662  0.0058
 3879TIP3    H133200   6.234   0.993   6.534  0.4144  1.0505  2.7954
 3879TIP3    H233201   6.190   0.858   6.587  0.7506  0.1164  0.7942
 3880TIP3   OH233202   2.853   5.020   1.102  0.1875  0.1129 -0.4426
 3880TIP3    H133203   2.810   5.094   1.144 -0.8718 -1.4658  1.4278
 3880TIP3    H233204   2.793   4.995   1.031 -0.8399 -0.5583  0.6154
 3881TIP3   OH233205   5.485   5.625   0.318  0.2041  0.2610  0.0741
 3881TIP3    H133206   5.457   5.672   0.240  0.9252  0.1036 -0.2852
 3881TIP3    H233207   5.478   5.690   0.388  1.3013  0.9515 -0.4339
 3882TIP3   OH233208   2.200   0.726   0.550 -0.0798  0.2496 -0.0193
 3882TIP3    H133209   2.137   0.746   0.620  0.7821  1.2636  0.5085
 3882TIP3    H233210   2.164   0.769   0.473 -0.4274  0.1687  0.0967
 3883TIP3   OH233211   2.556   5.141   2.142 -0.4896 -0.2381 -0.7267
 3883TIP3    H133212   2.567   5.165   2.234 -0.4381 -0.1196 -0.7640
 3883TIP3    H233213   2.616   5.198   2.095 -0.3568 -0.4499 -0.8134
 3884TIP3   OH233214   4.444   0.222   0.196 -0.6427  0.2506  0.2346
 3884TIP3    H133215   4.514   0.205   0.260 -0.8801  0.5496  0.5833
 3884TIP3    H233216   4.424   0.136   0.159 -1.0603 -0.0650  1.1550
 3885TIP3   OH233217   6.577   6.868   8.233 -0.0941 -0.4608  0.3231
 3885TIP3    H133218   6.600   6.780   8.263 -0.8971 -0.1826  1.8895
 3885TIP3    H233219   6.498   6.856   8.181 -2.0221 -0.4541  3.0083
 3886TIP3   OH233220   0.180   1.944   1.613 -0.1749 -0.3222 -0.3405
 3886TIP3    H133221   0.188   2.004   1.687 -0.8934 -1.4583  0.7050
 3886TIP3    H233222   0.205   1.996   1.537 -1.3272  1.4595  0.4370
 3887TIP3   OH233223   5.208   5.305   7.288  0.3454  0.0853 -0.1231
 3887TIP3    H133224   5.147   5.378   7.282 -0.1119 -0.1743  1.0583
 3887TIP3    H233225   5.168   5.236   7.234  0.4535  0.4755 -0.7127
 3888TIP3   OH233226   5.147   5.657   6.207  0.7119  0.1330  0.3294
 3888TIP3    H133227   5.219   5.613   6.162 -0.1029  0.0203 -0.9266
 3888TIP3    H233228   5.087   5.586   6.231  0.2553  0.3668 -0.0903
 3889TIP3   OH233229   1.546   4.487   1.057  0.1206  0.3185  0.0119
 3889TIP3    H133230   1.570   4.446   0.975  1.1962  0.4818  0.2344
 3889TIP3    H233231   1.527   4.414   1.117 -0.0387  0.1927 -0.1916
 3890TIP3   OH233232   2.649   2.276   1.672 -0.1413 -0.0310 -0.2920
 3890TIP3    H133233   2.604   2.343   1.723 -1.5058 -1.3540  0.3212
 3890TIP3    H233234   2.726   2.253   1.725 -1.4140 -1.2213  1.1222
 3891TIP3   OH233235   0.564   3.300   6.564 -0.0728  0.4164  0.1065
 3891TIP3    H133236   0.648   3.329   6.529 -0.0958 -0.6750 -0.8889
 3891TIP3    H233237   0.515   3.269   6.488 -0.5629 -0.9603  0.9415
 3892TIP3   OH233238   5.715   2.192   1.597  0.0582  0.4940 -0.5583
 3892TIP3    H133239   5.714   2.116   1.538  0.0303  0.1198 -0.0757
 3892TIP3    H233240   5.702   2.156   1.684 -0.0340  1.0638 -0.3298
 3893TIP3   OH233241   5.631   4.447   7.828  0.3448 -0.1869 -0.0360
 3893TIP3    H133242   5.582   4.367   7.847  0.5157 -0.0714  0.9718
 3893TIP3    H233243   5.722   4.423   7.845  0.2359  0.6977  2.1029
 3894TIP3   OH233244   0.553   1.701   0.241  0.7987  0.1454 -0.0211
 3894TIP3    H133245   0.520   1.725   0.327 -1.5155 -3.2956  0.2191
 3894TIP3    H233246   0.598   1.618   0.255 -1.3028 -1.5070 -2.3120
 3895TIP3   OH233247   4.898   5.996   0.945 -0.3420  0.0223 -0.4259
 3895TIP3    H133248   4.942   6.032   0.868 -0.6358  2.4145  0.4625
 3895TIP3    H233249   4.840   5.928   0.909  1.0840 -0.4072 -2.0356
 3896TIP3   OH233250   5.566   3.449   0.530 -0.0752  0.0574 -0.1306
 3896TIP3    H133251   5.556   3.542   0.551 -1.4735  0.3280 -1.8180
 3896TIP3    H233252   5.480   3.411   0.547  0.4961 -0.9584  0.5732
 3897TIP3   OH233253   4.347   0.372   2.074 -0.2061  0.2040  0.1055
 3897TIP3    H133254   4.362   0.411   2.161  2.1124 -2.1945  0.9351
 3897TIP3    H233255   4.268   0.320   2.084 -0.0868  0.1314  0.7304
 3898TIP3   OH233256   1.940   0.310   8.280  0.4316  0.5156  0.0500
 3898TIP3    H133257   2.007   0.326   8.346 -0.8892  0.6852  1.4022
 3898TIP3    H233258   1.898   0.395   8.268 -0.8058  0.0179  0.6781
 3899TIP3   OH233259   0.658   3.390   1.666  0.0279 -0.1426 -0.0214
 3899TIP3    H133260   0.729   3.326   1.656  0.0610 -0.6171  2.5603
 3899TIP3    H233261   0.703   3.472   1.685 -0.0873 -0.2510  0.7300
 3900TIP3   OH233262   0.145   2.109   0.966  0.0774  0.5404  0.4966
 3900TIP3    H133263   0.056   2.082   0.990  1.0278 -0.1341  3.7032
 3900TIP3    H233264   0.198   2.089   1.043  2.7052  2.6453 -0.6002
 3901TIP3   OH233265   1.990   6.393   1.582  0.7849 -0.0547 -0.1150
 3901TIP3    H133266   2.064   6.454   1.586  1.3324 -0.6982 -0.2001
 3901TIP3    H233267   1.927   6.428   1.645  0.9364  0.7839 -0.4135
 3902TIP3   OH233268   2.491   4.869   2.362 -0.2390 -0.2763 -0.3433
 3902TIP3    H133269   2.421   4.911   2.312 -1.3077  0.2518  1.5025
 3902TIP3    H233270   2.470   4.888   2.453  2.9111  0.8942  0.2834
 3903TIP3   OH233271   0.240   1.723   0.594  0.1806 -0.1255 -0.3606
 3903TIP3    H133272   0.206   1.738   0.505 -0.2902 -2.3297 -0.6072
 3903TIP3    H233273   0.334   1.710   0.582 -0.0274 -1.4565 -0.7188
 3904TIP3   OH233274   5.663   0.388   7.096 -0.1951  0.0577  0.7611
 3904TIP3    H133275   5.738   0.354   7.146  0.2471 -1.8268 -1.0637
 3904TIP3    H233276   5.604   0.424   7.163  1.5497  0.0694  2.3846
 3905TIP3   OH233277   4.862   2.322   6.945 -0.5678  0.1173 -0.4252
 3905TIP3    H133278   4.829   2.411   6.961 -0.1587  0.3903 -1.0455
 3905TIP3    H233279   4.867   2.282   7.032  2.3715  1.8158  0.2960
 3906TIP3   OH233280   4.965   5.091   6.286  0.9933  0.3938 -0.4789
 3906TIP3    H133281   5.030   5.149   6.245  0.4486  1.2482 -0.1556
 3906TIP3    H233282   4.888   5.099   6.231  0.7692  0.3288 -0.1763
 3907TIP3   OH233283   1.018   6.564   1.212  0.2709  0.7621 -0.2559
 3907TIP3    H133284   0.970   6.486   1.182 -1.3101  1.3192  0.6825
 3907TIP3    H233285   1.070   6.533   1.286 -1.8790  0.9117  1.4207
 3908TIP3   OH233286   0.666   1.171   1.055 -0.2647  0.0291  0.1987
 3908TIP3    H133287   0.759   1.183   1.074  0.1002 -0.3865 -1.2529
 3908TIP3    H233288   0.628   1.258   1.069  0.4108  0.3045  0.3840
 3909TIP3   OH233289   6.715   4.590   6.214  0.1147 -0.0253 -0.7788
 3909TIP3    H133290   6.801   4.572   6.175 -0.6858  1.2754 -3.4072
 3909TIP3    H233291   6.671   4.505   6.213  0.5019 -0.2373 -1.8492
 3910TIP3   OH233292   2.066   0.710   8.151  0.8153  0.0842  0.6911
 3910TIP3    H133293   1.978   0.674   8.143  1.6603 -2.5754  1.9545
 3910TIP3    H233294   2.083   0.753   8.067 -1.8613  1.2410  0.6609
 3911TIP3   OH233295   6.627   4.764   1.334 -0.2936 -0.4310  0.5390
 3911TIP3    H133296   6.588   4.681   1.308  0.0633 -1.1397  2.1793
 3911TIP3    H233297   6.719   4.757   1.309 -0.4272 -0.1943 -0.0432
 3912TIP3   OH233298   4.305   2.174   1.874 -0.3407 -0.2697 -0.0569
 3912TIP3    H133299   4.362   2.155   1.949  1.7778 -2.1261 -1.9970
 3912TIP3    H233300   4.349   2.245   1.828 -1.4467  0.6231  0.2288
 3913TIP3   OH233301   1.267   5.677   8.266  0.2949  0.0557  0.2820
 3913TIP3    H133302   1.300   5.766   8.250  1.5995 -0.4718 -0.1532
 3913TIP3    H233303   1.188   5.689   8.318  0.7973  1.4517  0.7742
 3914TIP3   OH233304   3.195   1.841   1.413  0.3660  0.2955  0.0414
 3914TIP3    H133305   3.242   1.878   1.488  0.5618  0.0463  0.0419
 3914TIP3    H233306   3.214   1.747   1.416 -1.3933 -0.0733  0.9665
 3915TIP3   OH233307   4.770   3.546   8.161  0.1929  0.1258  0.0670
 3915TIP3    H133308   4.823   3.469   8.139  2.0841  0.6485  2.2668
 3915TIP3    H233309   4.827   3.620   8.141 -0.8627  0.8717 -0.2348
 3916TIP3   OH233310   3.983   4.780   6.681 -0.0612 -0.0202  0.3838
 3916TIP3    H133311   4.015   4.728   6.607 -0.4318  0.4711 -0.1303
 3916TIP3    H233312   4.060   4.824   6.715 -0.2828  1.9424 -1.4636
 3917TIP3   OH233313   0.880   3.613   1.382  0.0939  0.1623  0.1374
 3917TIP3    H133314   0.843   3.700   1.366 -1.5422 -0.6568 -0.7784
 3917TIP3    H233315   0.914   3.618   1.471 -2.1079  1.0603  1.0079
 3918TIP3   OH233316   3.628   6.110   7.577  0.3137  0.1802 -0.0986
 3918TIP3    H133317   3.608   6.049   7.648 -0.8413  1.9563  1.2008
 3918TIP3    H233318   3.630   6.196   7.620  3.6321  0.9733 -1.4918
 3919TIP3   OH233319   5.937   4.664   7.687  0.3840 -0.2454 -0.1753
 3919TIP3    H133320   5.919   4.690   7.597  0.3843  0.2843 -0.0260
 3919TIP3    H233321   6.012   4.718   7.712 -0.1130  0.1813  0.4041
 3920TIP3   OH233322   2.146   1.805   7.930  0.3818 -0.0556  0.8547
 3920TIP3    H133323   2.219   1.766   7.882 -0.1546  0.0268 -0.0530
 3920TIP3    H233324   2.114   1.735   7.987 -0.0092 -0.6698 -0.1119
 3921TIP3   OH233325   6.954   0.772   1.258 -0.1275 -0.4808 -0.4168
 3921TIP3    H133326   6.988   0.717   1.187  2.5338 -0.1082  0.4646
 3921TIP3    H233327   6.859   0.760   1.253  0.0864 -2.0190 -2.7535
 3922TIP3   OH233328   0.580   0.110   1.022 -0.3820 -0.6747  0.9911
 3922TIP3    H133329   0.522   0.158   0.963  0.8662  0.0608  0.3153
 3922TIP3    H233330   0.534   0.109   1.106 -0.2883  2.1599  1.1650
 3923TIP3   OH233331   1.559   1.360   6.995  0.3923 -0.8200  0.2405
 3923TIP3    H133332   1.631   1.419   7.020  0.5123 -0.8894  0.0611
 3923TIP3    H233333   1.480   1.407   7.022  0.4151 -0.0285 -0.9592
 3924TIP3   OH233334   3.611   5.346   2.044  0.0299  0.5432  0.4168
 3924TIP3    H133335   3.663   5.292   2.103 -1.3236 -0.0508  1.1204
 3924TIP3    H233336   3.614   5.434   2.082  0.6097  0.5375  0.3820
 3925TIP3   OH233337   0.046   1.363   1.274 -0.3323  0.2519  0.1637
 3925TIP3    H133338   0.099   1.429   1.231  2.4240 -1.2474  1.0121
 3925TIP3    H233339  -0.022   1.341   1.210  1.8260  0.1941 -2.2756
 3926TIP3   OH233340   0.160   4.706   7.845 -0.4687  0.1467  0.0086
 3926TIP3    H133341   0.096   4.640   7.821  1.0854 -0.5537 -2.6387
 3926TIP3    H233342   0.135   4.783   7.794 -1.1423  1.0428  1.6088
 3927TIP3   OH233343   4.383   2.471   6.092  0.2843 -0.5535 -0.0811
 3927TIP3    H133344   4.304   2.464   6.039  1.2230  1.5978 -1.9251
 3927TIP3    H233345   4.366   2.546   6.149  1.0914  0.1565 -0.7492
 3928TIP3   OH233346   0.168   4.622   7.541 -0.4278 -0.1841 -0.3027
 3928TIP3    H133347   0.198   4.654   7.626  2.4206 -1.5071 -0.6854
 3928TIP3    H233348   0.216   4.675   7.477  0.0819 -1.4314 -0.9866
 3929TIP3   OH233349   0.899   4.308   7.857  0.5642  0.2689 -0.0121
 3929TIP3    H133350   0.821   4.317   7.803 -0.0784 -0.4134  0.7825
 3929TIP3    H233351   0.900   4.215   7.882  0.9429  0.5354  1.0039
 3930TIP3   OH233352   3.164   6.412   1.864 -0.1638 -0.4649  0.5728
 3930TIP3    H133353   3.167   6.483   1.799  0.9966  0.5003  1.6269
 3930TIP3    H233354   3.086   6.432   1.917 -0.4952 -0.6460  0.1628
 3931TIP3   OH233355   3.321   2.085   8.035  0.0480  0.2351 -0.4737
 3931TIP3    H133356   3.359   2.044   8.113 -1.5530 -0.2017  0.1284
 3931TIP3    H233357   3.268   2.157   8.070 -2.6349 -1.4225 -0.8406
 3932TIP3   OH233358   0.103   0.989   7.413  0.3404  0.2775 -0.3546
 3932TIP3    H133359   0.093   0.998   7.319  0.9021 -0.1004 -0.4534
 3932TIP3    H233360   0.185   1.033   7.433 -0.2752  1.2585  0.1124
 3933TIP3   OH233361   6.183   0.789   1.951  0.0920  0.5227  0.0863
 3933TIP3    H133362   6.179   0.744   2.035  1.3565 -1.1901 -0.7210
 3933TIP3    H233363   6.270   0.829   1.949  1.2892 -1.9500 -1.5582
 3934TIP3   OH233364   2.294   2.318   1.724  0.3491  0.1940 -0.7407
 3934TIP3    H133365   2.245   2.375   1.664 -1.4103 -1.7675 -1.2623
 3934TIP3    H233366   2.279   2.230   1.691  0.5253 -0.8401  1.7560
 3935TIP3   OH233367   6.834   2.090   1.135 -0.2495 -0.4991  0.2687
 3935TIP3    H133368   6.907   2.117   1.190  0.0022 -1.8538  0.6291
 3935TIP3    H233369   6.866   2.012   1.089 -1.8118 -1.8013  1.2864
 3936TIP3   OH233370   6.115   4.703   0.600  0.2134  0.2150 -0.8198
 3936TIP3    H133371   6.195   4.668   0.562  1.5577  0.4774  1.5792
 3936TIP3    H233372   6.145   4.765   0.667 -1.9500 -0.1049  0.5474
 3937TIP3   OH233373   5.587   1.393   7.448  0.4941  0.0427 -0.3541
 3937TIP3    H133374   5.652   1.386   7.518 -1.3146  0.5596  1.4621
 3937TIP3    H233375   5.505   1.365   7.488 -0.4482 -0.6097 -2.5747
 3938TIP3   OH233376   3.798   2.728   1.606  0.5475 -0.4161  0.6258
 3938TIP3    H133377   3.710   2.707   1.637  0.5812 -0.5123  0.6586
 3938TIP3    H233378   3.800   2.823   1.601  0.4607 -0.4112  0.6814
 3939TIP3   OH233379   1.685   0.083   6.885  0.6831  0.2698 -0.0888
 3939TIP3    H133380   1.632   0.075   6.965  2.0287 -2.5020  0.6614
 3939TIP3    H233381   1.677  -0.003   6.843  2.9625  0.4347 -0.9668
 3940TIP3   OH233382   5.795   3.524   7.120 -0.0817 -0.2833 -0.1159
 3940TIP3    H133383   5.887   3.546   7.106 -0.5418  1.0366 -1.2507
 3940TIP3    H233384   5.772   3.468   7.045 -0.3156 -0.2641 -0.0589
 3941TIP3   OH233385   4.001   3.953   1.455 -0.5627  0.7116  0.8661
 3941TIP3    H133386   4.085   3.983   1.422 -0.5344  0.0848  0.3524
 3941TIP3    H233387   3.957   3.915   1.379 -1.2268  0.8510  1.1704
 3942TIP3   OH233388   2.347   4.745   1.878  0.0802  0.4560 -0.4287
 3942TIP3    H133389   2.298   4.733   1.796  2.3962 -1.0153 -1.7029
 3942TIP3    H233390   2.288   4.712   1.946 -0.1705 -2.9990 -2.0860
 3943TIP3   OH233391   0.980   1.276   1.232 -0.0073  0.3112  0.0542
 3943TIP3    H133392   0.943   1.326   1.305  1.1713  0.4423  0.5748
 3943TIP3    H233393   0.936   1.312   1.154 -1.9191 -0.4196  0.7424
 3944TIP3   OH233394   3.105   3.847   7.066  0.0176  0.3565 -0.1049
 3944TIP3    H133395   3.171   3.797   7.114  1.1856  1.9395  0.0232
 3944TIP3    H233396   3.066   3.904   7.132 -0.2368  0.6696 -0.5227
 3945TIP3   OH233397   5.072   5.109   1.559  0.1313  0.0904  0.2314
 3945TIP3    H133398   5.146   5.120   1.619 -1.1147 -0.6424  1.9749
 3945TIP3    H233399   5.013   5.181   1.580  0.4304  0.8442 -1.3589
 3946TIP3   OH233400   4.861   2.558   0.965 -0.0711 -0.4483 -0.0234
 3946TIP3    H133401   4.802   2.583   1.036 -0.8175 -2.0520 -0.0336
 3946TIP3    H233402   4.896   2.473   0.991  0.9645 -0.2858 -0.8036
 3947TIP3   OH233403   3.701   3.906   8.243 -0.7777 -0.6853  0.6841
 3947TIP3    H133404   3.644   3.979   8.219  0.1459  0.0032  0.4895
 3947TIP3    H233405   3.648   3.828   8.229 -1.6118 -0.0734  0.3570
 3948TIP3   OH233406   5.875   5.315   6.538  0.7526  0.1619  0.2589
 3948TIP3    H133407   5.923   5.340   6.459 -0.9113  1.9347 -0.2752
 3948TIP3    H233408   5.827   5.236   6.512  0.8173  0.2894 -0.2605
 3949TIP3   OH233409   0.460   5.797   0.601  0.1814  0.0309  0.4429
 3949TIP3    H133410   0.544   5.812   0.557 -0.5698  0.8234 -0.8043
 3949TIP3    H233411   0.481   5.797   0.694  1.8725 -1.8566  0.1356
 3950TIP3   OH233412   6.855   1.470   1.663 -0.2378  0.2762  0.1236
 3950TIP3    H133413   6.938   1.424   1.675 -1.4478 -2.7831 -1.9084
 3950TIP3    H233414   6.869   1.527   1.588  0.4973  1.2031  0.9401
 3951TIP3   OH233415   1.071   6.376   6.260  0.3263 -0.2068 -0.8534
 3951TIP3    H133416   1.139   6.436   6.230  1.0624 -0.0614  0.9790
 3951TIP3    H233417   1.006   6.432   6.303  0.1005 -0.5488 -0.7433
 3952TIP3   OH233418   4.142   3.417   7.308  0.4446 -0.0107  0.3951
 3952TIP3    H133419   4.174   3.483   7.369  1.6599  0.4830 -0.7428
 3952TIP3    H233420   4.220   3.372   7.277 -0.0694  0.1988 -1.3166
 3953TIP3   OH233421   4.568   4.815   7.661 -0.1328  0.2453 -0.1760
 3953TIP3    H133422   4.538   4.867   7.735  2.7228  0.2458  1.1383
 3953TIP3    H233423   4.496   4.756   7.641 -0.7725 -0.2517  3.1114
 3954TIP3   OH233424   3.933   2.670   6.845  0.6303  0.0090  0.9435
 3954TIP3    H133425   3.897   2.601   6.900 -0.5341 -0.5072 -0.3787
 3954TIP3    H233426   3.949   2.627   6.761  0.1838  1.2578  0.1909
 3955TIP3   OH233427   2.442   6.151   7.015  0.3426  0.3022 -0.1809
 3955TIP3    H133428   2.349   6.169   7.008  0.6488  2.2730  0.3407
 3955TIP3    H233429   2.447   6.067   7.061 -1.1477 -0.0517 -0.5996
 3956TIP3   OH233430   5.356   5.082   1.448  0.3087 -0.3500  0.3042
 3956TIP3    H133431   5.423   5.119   1.504  0.6199  1.0487 -0.9330
 3956TIP3    H233432   5.279   5.137   1.462  0.3979  0.0298 -0.6389
 3957TIP3   OH233433   3.644   2.876   7.829 -0.1654  0.0276 -0.4505
 3957TIP3    H133434   3.664   2.936   7.758 -0.2327 -1.1141 -1.4770
 3957TIP3    H233435   3.549   2.861   7.823 -0.2936  0.4443  0.3218
 3958TIP3   OH233436   3.654   0.273   7.989  0.2893 -0.1009  0.2691
 3958TIP3    H133437   3.709   0.274   7.911 -2.5579  0.0961 -1.8816
 3958TIP3    H233438   3.647   0.365   8.015 -0.6496  0.1190 -0.7140
 3959TIP3   OH233439   1.070   6.144   6.957 -0.3006  0.3537 -0.2605
 3959TIP3    H133440   1.084   6.202   7.032 -1.9183  1.5778 -0.8423
 3959TIP3    H233441   1.140   6.079   6.963  1.6351  2.3751  0.3898
 3960TIP3   OH233442   5.552   5.400   7.377  0.6841 -0.2904 -0.3526
 3960TIP3    H133443   5.513   5.328   7.427  1.4461  1.1717  2.5360
 3960TIP3    H233444   5.479   5.460   7.362  0.5754 -0.4665 -0.5493
 3961TIP3   OH233445   3.079   3.301   1.876  0.0517 -0.2063  0.8832
 3961TIP3    H133446   3.021   3.347   1.815 -0.0195  1.4144  2.1034
 3961TIP3    H233447   3.158   3.354   1.879  0.3810 -0.7179  1.5614
 3962TIP3   OH233448   4.842   4.866   7.801  0.6765 -0.1737  0.5100
 3962TIP3    H133449   4.825   4.922   7.877  0.5669 -0.6545  0.8398
 3962TIP3    H233450   4.755   4.846   7.766  0.7593  2.7066 -1.7236
 3963TIP3   OH233451   6.905   2.623   7.824 -0.6286 -0.5315 -0.1132
 3963TIP3    H133452   6.889   2.694   7.761 -0.2745  1.0374  1.4596
 3963TIP3    H233453   6.998   2.603   7.815 -0.5364 -0.1777  0.0025
 3964TIP3   OH233454   2.321   6.713   8.036 -0.1494 -0.3173 -0.1584
 3964TIP3    H133455   2.267   6.780   8.078 -0.3914  2.0341 -3.7592
 3964TIP3    H233456   2.281   6.630   8.063 -2.7980  1.1484  0.8656
 3965TIP3   OH233457   6.654   1.048   0.046  0.1596 -0.7434 -0.3230
 3965TIP3    H133458   6.745   1.067   0.022  0.3455 -0.0968  0.7937
 3965TIP3    H233459   6.656   1.040   0.142 -1.0024 -0.4200 -0.2531
 3966TIP3   OH233460   3.457   3.668   1.977  0.5586  0.1083  0.0380
 3966TIP3    H133461   3.403   3.747   1.982  0.8899  0.3651 -0.4286
 3966TIP3    H233462   3.471   3.643   2.068  0.2441  0.4415  0.1802
 3967TIP3   OH233463   5.204   6.482   6.868 -0.5977 -0.3947  0.3752
 3967TIP3    H133464   5.222   6.425   6.793  0.4187  1.7507 -1.1273
 3967TIP3    H233465   5.283   6.536   6.876 -1.8507  1.4479  1.0689
 3968TIP3   OH233466   4.364   0.040   0.853  0.1445 -0.0424 -0.0584
 3968TIP3    H133467   4.408  -0.038   0.818 -1.4990  0.0417 -2.5566
 3968TIP3    H233468   4.271   0.020   0.845 -0.3229  1.2946  1.4918
 3969TIP3   OH233469   5.838   1.896   0.147  0.3645  0.0909 -0.1111
 3969TIP3    H133470   5.828   1.907   0.053 -1.4269  2.8488  0.2847
 3969TIP3    H233471   5.923   1.936   0.166 -0.8870  3.1449 -0.2362
 3970TIP3   OH233472   0.146   3.006   7.358 -0.3530  0.4858 -0.1388
 3970TIP3    H133473   0.116   3.096   7.346 -0.1495  0.7424  1.0895
 3970TIP3    H233474   0.095   2.954   7.295 -2.7747  1.0046  1.2749
 3971TIP3   OH233475   0.782   4.953   5.745  0.0473  0.6794 -0.5001
 3971TIP3    H133476   0.740   4.939   5.830 -1.8499  1.3553 -1.2977
 3971TIP3    H233477   0.778   4.867   5.702  1.4454  0.2077  0.2191
 3972TIP3   OH233478   0.636   2.126   2.151 -0.4268 -0.4701  0.1079
 3972TIP3    H133479   0.626   2.098   2.242 -0.5843 -1.8301 -0.3036
 3972TIP3    H233480   0.596   2.212   2.147 -1.9049 -1.0818  0.9794
 3973TIP3   OH233481   5.581   5.173   1.657 -0.0824 -0.0697  0.6136
 3973TIP3    H133482   5.575   5.263   1.689  0.9185  0.1316  0.2801
 3973TIP3    H233483   5.621   5.124   1.729  2.3722  0.4267 -0.3226
 3974TIP3   OH233484   6.894   6.856   6.526 -0.0945  0.3201 -0.2874
 3974TIP3    H133485   6.871   6.764   6.544  1.1120 -0.0370 -0.5025
 3974TIP3    H233486   6.865   6.903   6.604  0.4201 -0.4378  0.3757
 3975TIP3   OH233487   0.239   6.053   6.790 -0.3808 -0.3253  0.1596
 3975TIP3    H133488   0.275   6.137   6.762  1.1087 -0.6076  1.1132
 3975TIP3    H233489   0.309   5.990   6.772 -1.5911 -1.4427 -0.8354
 3976TIP3   OH233490   4.167   1.171   0.693 -0.5171  0.5235 -0.0581
 3976TIP3    H133491   4.137   1.169   0.603 -1.3995  1.2002  0.1987
 3976TIP3    H233492   4.229   1.244   0.696  1.2091 -0.8532 -0.5808
 3977TIP3   OH233493   3.889   2.525   6.578 -0.1524  0.2547 -0.2141
 3977TIP3    H133494   3.833   2.579   6.522  0.9722 -0.1909 -1.8138
 3977TIP3    H233495   3.978   2.541   6.547  0.4641 -0.4703  1.0757
 3978TIP3   OH233496   2.754   1.810   1.705 -0.5018  0.0774 -0.3525
 3978TIP3    H133497   2.824   1.799   1.770  0.1848 -1.5354 -1.3253
 3978TIP3    H233498   2.795   1.790   1.621 -2.1875 -1.2071 -0.9193
 3979TIP3   OH233499   5.558   5.853   7.277 -0.3675  0.2961 -0.3253
 3979TIP3    H133500   5.531   5.765   7.303  0.9639  0.0751  0.3864
 3979TIP3    H233501   5.633   5.873   7.332 -1.1090  2.2105  0.0934
 3980TIP3   OH233502   3.568   2.110   0.463  0.1280  0.0402 -0.2073
 3980TIP3    H133503   3.491   2.055   0.475 -0.9982  1.8025  1.1301
 3980TIP3    H233504   3.596   2.093   0.373  0.2621 -3.1539  0.3156
 3981TIP3   OH233505   2.225   2.975   8.011 -0.4079 -0.1959  0.0109
 3981TIP3    H133506   2.180   2.909   8.065  0.0070 -1.1533 -0.7966
 3981TIP3    H233507   2.267   2.925   7.942 -0.2055  0.9433 -0.7108
 3982TIP3   OH233508   0.444   4.380   7.672  0.4406 -0.1509 -0.0290
 3982TIP3    H133509   0.464   4.462   7.627  1.5282  0.9667  2.3322
 3982TIP3    H233510   0.351   4.366   7.656  0.0997  1.8770 -0.0032
 3983TIP3   OH233511   0.080   1.750   7.344  0.1076 -0.0579 -0.1809
 3983TIP3    H133512   0.109   1.687   7.277  1.4431 -0.2625  0.5458
 3983TIP3    H233513  -0.005   1.781   7.313  0.5905 -0.3163 -1.8531
 3984TIP3   OH233514   5.829   4.751   8.355  0.4731 -0.1265  0.1003
 3984TIP3    H133515   5.876   4.676   8.392 -1.3568 -1.5937 -0.3532
 3984TIP3    H233516   5.886   4.785   8.287  1.4354 -1.0016  0.4480
 3985TIP3   OH233517   2.698   1.347   7.877  0.1900 -0.4378 -0.2255
 3985TIP3    H133518   2.608   1.351   7.909  0.7738  1.2965  1.3203
 3985TIP3    H233519   2.701   1.411   7.806  0.4263  0.2259  0.3719
 3986TIP3   OH233520   3.794   3.154   7.713 -0.3746  0.3786  0.3311
 3986TIP3    H133521   3.722   3.157   7.776  0.3070  0.4204  1.1180
 3986TIP3    H233522   3.757   3.189   7.633 -1.6625 -0.9392  0.2989
 3987TIP3   OH233523   1.467   2.661   1.773 -0.4531  0.7696  0.0826
 3987TIP3    H133524   1.405   2.591   1.754  0.0074  0.3196  0.2177
 3987TIP3    H233525   1.487   2.651   1.866 -0.0997  0.8447  0.0165
 3988TIP3   OH233526   4.936   6.115   6.230  0.2471  0.7244  0.6644
 3988TIP3    H133527   4.965   6.033   6.270  0.8391  1.1167  1.0543
 3988TIP3    H233528   5.015   6.168   6.226  0.0105  1.0134 -0.2399
 3989TIP3   OH233529   3.144   3.310   7.713 -0.0958 -0.0402 -0.0929
 3989TIP3    H133530   3.226   3.349   7.681  0.8977 -1.4944  0.5727
 3989TIP3    H233531   3.099   3.383   7.756  2.2044  0.2501  2.1068
 3990TIP3   OH233532   5.754   3.317   1.227  0.1517 -0.2993 -0.4570
 3990TIP3    H133533   5.827   3.304   1.287 -1.2751 -2.2248  0.9727
 3990TIP3    H233534   5.795   3.319   1.140  2.1342  1.3245  0.4194
 3991TIP3   OH233535   6.454   1.881   0.819 -0.0362 -0.5582 -0.1094
 3991TIP3    H133536   6.493   1.866   0.905 -1.2023 -0.7350  0.3995
 3991TIP3    H233537   6.399   1.805   0.803  0.9622 -1.0298 -1.4932
 3992TIP3   OH233538   4.657   1.222   0.918 -0.0019 -0.3394  0.1736
 3992TIP3    H133539   4.643   1.317   0.914  0.2943 -0.2962  0.0971
 3992TIP3    H233540   4.735   1.208   0.865 -2.1674 -1.1023 -3.0360
 3993TIP3   OH233541   3.717   1.494   1.829  0.2959  0.2259  0.4738
 3993TIP3    H133542   3.648   1.448   1.877 -0.7642  1.1437 -0.1136
 3993TIP3    H233543   3.756   1.552   1.893  0.8033 -0.5693  0.9066
 3994TIP3   OH233544   6.669   6.486   0.294 -0.7562 -0.4412 -0.6353
 3994TIP3    H133545   6.690   6.426   0.366 -1.7825  0.6690  0.6635
 3994TIP3    H233546   6.742   6.477   0.233  0.6898 -0.7049  1.0305
 3995TIP3   OH233547   4.299   1.083   1.662  0.3925  0.0223 -0.3673
 3995TIP3    H133548   4.377   1.029   1.651  2.4189  1.9485  2.8196
 3995TIP3    H233549   4.321   1.166   1.618 -0.4086  0.1363 -0.5630
 3996TIP3   OH233550   0.162   0.744   6.689  0.1968  0.4289 -0.7006
 3996TIP3    H133551   0.152   0.753   6.594 -1.9091  0.6958 -0.5041
 3996TIP3    H233552   0.107   0.669   6.711  0.8528  0.2262  0.2971
 3997TIP3   OH233553   4.123   2.383   6.036  0.1110  0.5056  0.3472
 3997TIP3    H133554   4.035   2.346   6.031  0.7785 -1.1667  0.3457
 3997TIP3    H233555   4.124   2.430   6.119 -0.5035 -0.2614  0.8039
 3998TIP3   OH233556   4.141   3.554   6.965 -0.4313 -0.1786  0.3472
 3998TIP3    H133557   4.091   3.586   7.040 -2.1100  0.3036 -0.9138
 3998TIP3    H233558   4.096   3.474   6.939 -0.8079  0.4710 -1.0640
 3999TIP3   OH233559   3.128   3.762   1.026  0.0260 -0.0040 -1.1480
 3999TIP3    H133560   3.104   3.784   0.936  0.3762  0.5679 -1.1025
 3999TIP3    H233561   3.218   3.792   1.035  0.2494 -0.7358 -0.8343
 4000TIP3   OH233562   2.988   0.779   0.283 -0.0905 -0.7411  0.4089
 4000TIP3    H133563   2.988   0.820   0.369 -1.1335 -0.0107  0.0772
 4000TIP3    H233564   3.031   0.842   0.226 -1.0258 -0.4137  0.0468
 4001TIP3   OH233565   0.012   6.360   6.239 -0.0724 -0.9446 -0.1489
 4001TIP3    H133566  -0.018   6.270   6.251 -0.9864 -0.9452 -2.0851
 4001TIP3    H233567  -0.068   6.412   6.236  0.4315 -0.0883  0.5590
 4002TIP3   OH233568   6.491   6.509   0.086 -0.3179  0.4859 -0.5234
 4002TIP3    H133569   6.557   6.555   0.033 -1.6661  3.3195  0.1067
 4002TIP3    H233570   6.529   6.506   0.173 -1.6612  4.0597  0.3748
 4003TIP3   OH233571   5.724   3.366   0.890  0.4444  0.4995  0.9646
 4003TIP3    H133572   5.751   3.299   0.828  1.2556 -0.4646  2.3006
 4003TIP3    H233573   5.785   3.438   0.874 -0.9781  1.3583 -1.0735
 4004TIP3   OH233574   4.523   1.235   7.875  0.2403 -0.2445 -0.3451
 4004TIP3    H133575   4.618   1.242   7.875  0.4463 -2.2879 -0.7546
 4004TIP3    H233576   4.505   1.150   7.834 -1.7380 -0.1606  0.2290
 4005TIP3   OH233577   2.815   0.109   0.569  0.0047  0.0208 -0.3515
 4005TIP3    H133578   2.884   0.073   0.625  0.6154  0.5270 -0.7633
 4005TIP3    H233579   2.861   0.140   0.491 -0.8451 -0.8107 -1.2141
 4006TIP3   OH233580   2.272   1.641   7.276 -0.1772  0.4887  0.5970
 4006TIP3    H133581   2.295   1.719   7.326  1.1494 -0.1820  1.0921
 4006TIP3    H233582   2.212   1.593   7.333 -0.1889  0.6660  0.7351
 4007TIP3   OH233583   3.568   4.692   1.378 -0.1365  0.2459  0.8439
 4007TIP3    H133584   3.609   4.765   1.424  0.5210 -0.6039  1.6434
 4007TIP3    H233585   3.639   4.628   1.366 -0.0384  0.7648 -2.1519
 4008TIP3   OH233586   3.549   5.922   6.718 -0.5013  0.5886 -0.1744
 4008TIP3    H133587   3.548   5.838   6.673 -1.7681 -0.3463  1.4873
 4008TIP3    H233588   3.635   5.959   6.699  1.0130 -2.1217  0.8849
 4009TIP3   OH233589   1.407   3.270   6.334  0.0044  0.6385 -0.1960
 4009TIP3    H133590   1.457   3.350   6.321  0.1365  0.4993 -0.5699
 4009TIP3    H233591   1.465   3.200   6.301 -0.6655  0.5385 -1.2082
 4010TIP3   OH233592   6.937   1.284   0.868 -0.2433  0.5255 -0.0412
 4010TIP3    H133593   6.964   1.316   0.782 -1.9499 -0.4171 -0.9980
 4010TIP3    H233594   6.926   1.362   0.922  3.4898  1.0084  0.2391
 4011TIP3   OH233595   1.037   5.673   1.006 -0.7774  0.0611  0.1364
 4011TIP3    H133596   0.969   5.726   1.047 -0.6735 -0.9822  1.7289
 4011TIP3    H233597   1.108   5.670   1.071  0.9023  1.2384 -1.5128
 4012TIP3   OH233598   2.293   4.977   1.665  0.1739  0.0951  0.4830
 4012TIP3    H133599   2.298   4.882   1.662  0.9077  0.0399  2.2456
 4012TIP3    H233600   2.199   4.996   1.674 -0.2068 -0.3188 -1.9532
 4013TIP3   OH233601   0.281   5.327   8.243  0.1462  0.6846 -0.1115
 4013TIP3    H133602   0.253   5.247   8.286 -1.1195  0.5017 -1.2358
 4013TIP3    H233603   0.341   5.368   8.306  1.9320 -1.7846 -0.0583
 4014TIP3   OH233604   2.351   3.528   7.173 -0.1258 -1.3714  0.0464
 4014TIP3    H133605   2.307   3.497   7.094 -2.4904  2.3009 -0.3260
 4014TIP3    H233606   2.290   3.509   7.244 -1.3488  1.3890 -0.1128
 4015TIP3   OH233607   0.449   1.207   6.466  0.1274 -0.4040 -0.5778
 4015TIP3    H133608   0.464   1.151   6.542  2.6122  0.5843 -0.2716
 4015TIP3    H233609   0.478   1.294   6.493 -2.8854  0.9695 -1.3023
 4016TIP3   OH233610   2.495   3.240   1.597  0.4255  0.3554  0.2561
 4016TIP3    H133611   2.480   3.153   1.633  0.3545  1.0249  1.9343
 4016TIP3    H233612   2.438   3.298   1.648 -0.4180  1.2709 -1.5921
 4017TIP3   OH233613   4.087   3.087   0.334  0.0494  0.5914  0.5015
 4017TIP3    H133614   4.136   3.131   0.404 -0.9391  1.6819  0.5320
 4017TIP3    H233615   4.053   3.158   0.280  0.6129 -0.2330 -0.9778
 4018TIP3   OH233616   2.498   0.431   6.830  0.0360  0.5638 -0.0247
 4018TIP3    H133617   2.481   0.441   6.737 -0.2056 -1.2373 -0.2069
 4018TIP3    H233618   2.522   0.339   6.841  0.0100  0.7181  1.6999
 4019TIP3   OH233619   5.960   0.103   1.713  0.0318  0.4196 -0.0827
 4019TIP3    H133620   6.018   0.179   1.710  0.7864 -0.0256  1.8183
 4019TIP3    H233621   6.009   0.034   1.669 -0.1359  0.6910 -0.7092
 4020TIP3   OH233622   2.635   0.632   1.360 -0.2611 -0.1733  0.0988
 4020TIP3    H133623   2.568   0.644   1.292  1.1701  0.7362 -1.2050
 4020TIP3    H233624   2.591   0.580   1.428 -1.6776 -1.3389 -1.6188
 4021TIP3   OH233625   2.664   4.307   2.415 -0.0732  0.2385 -0.2335
 4021TIP3    H133626   2.700   4.345   2.496 -0.7522  0.3043  0.0444
 4021TIP3    H233627   2.713   4.350   2.345 -0.7362  1.5667  0.0796
 4022TIP3   OH233628   5.909   6.508   6.735 -0.0484 -0.0120 -0.1941
 4022TIP3    H133629   5.881   6.457   6.658  3.6369 -0.2366 -1.5882
 4022TIP3    H233630   5.915   6.598   6.703 -0.5273  0.2680  0.4782
 4023TIP3   OH233631   0.405   2.578   0.357 -0.0030 -0.1506 -0.5870
 4023TIP3    H133632   0.354   2.659   0.360 -0.3812 -0.3933  1.8289
 4023TIP3    H233633   0.496   2.606   0.370  0.0154 -0.0416 -0.9298
 4024TIP3   OH233634   1.710   3.597   1.985  0.0430  0.1248  0.2256
 4024TIP3    H133635   1.655   3.534   2.031  0.6971  0.2044  1.1581
 4024TIP3    H233636   1.650   3.667   1.959 -1.3677 -2.2461 -3.7133
 4025TIP3   OH233637   6.094   5.445   8.074 -0.0609  0.1535  0.5563
 4025TIP3    H133638   6.116   5.359   8.112 -2.5759 -0.3177  1.1091
 4025TIP3    H233639   6.018   5.474   8.123  0.1393  2.2931 -0.2971
 4026TIP3   OH233640   0.766   2.753   6.548 -0.3226  0.2928 -0.1103
 4026TIP3    H133641   0.806   2.808   6.480  0.3096 -0.8308 -0.6768
 4026TIP3    H233642   0.672   2.759   6.531 -0.2019  0.4170 -0.7836
 4027TIP3   OH233643   6.441   6.674   6.191  0.0302  0.1806 -0.0975
 4027TIP3    H133644   6.415   6.762   6.165  1.4702  0.7866  0.4246
 4027TIP3    H233645   6.519   6.687   6.245  0.9532 -1.4898 -0.9610
 4028TIP3   OH233646   5.214   0.695   7.032 -0.1661 -0.0374  0.5574
 4028TIP3    H133647   5.171   0.611   7.013 -1.2879  0.7827 -0.7203
 4028TIP3    H233648   5.148   0.744   7.081  0.2367  0.3477  0.7167
 4029TIP3   OH233649   6.011   2.137   1.372  0.4066  0.2236 -0.0085
 4029TIP3    H133650   6.091   2.189   1.378  2.1322 -2.3928  2.0701
 4029TIP3    H233651   6.029   2.074   1.302 -0.5382  0.6729 -0.6689
 4030TIP3   OH233652   2.352   2.094   6.026  0.1498  0.2584 -0.1323
 4030TIP3    H133653   2.284   2.081   5.959  0.5219 -1.8208 -0.1529
 4030TIP3    H233654   2.421   2.032   6.002  1.3766  1.2215  0.8034
 4031TIP3   OH233655   3.607   2.301   6.953 -0.1544 -0.0415  0.5387
 4031TIP3    H133656   3.531   2.309   7.011 -0.8735 -0.6354 -0.2820
 4031TIP3    H233657   3.579   2.341   6.871 -0.0228 -1.3190 -0.1584
 4032TIP3   OH233658   6.958   3.064   8.110 -0.7722  0.3636  0.2799
 4032TIP3    H133659   6.998   3.124   8.173 -2.0019  2.0881 -0.4853
 4032TIP3    H233660   6.982   3.099   8.025 -0.8182 -0.7589 -0.2096
 4033TIP3   OH233661   3.805   5.783   1.277 -0.5917 -0.3107  0.1470
 4033TIP3    H133662   3.899   5.797   1.293 -0.7601  0.0903  0.8185
 4033TIP3    H233663   3.791   5.813   1.188 -0.2420  0.4370  0.3388
 4034TIP3   OH233664   3.460   1.335   8.148  0.5572 -0.9260  0.2857
 4034TIP3    H133665   3.492   1.418   8.114  1.0364 -0.6226  1.4085
 4034TIP3    H233666   3.441   1.282   8.071 -1.9100  0.9908 -0.5526
 4035TIP3   OH233667   3.357   4.456   8.341  0.2180 -0.3830 -0.1402
 4035TIP3    H133668   3.403   4.490   8.418  0.0608  0.8366 -0.5736
 4035TIP3    H233669   3.315   4.532   8.302 -1.3155 -1.2981 -0.3549
 4036TIP3   OH233670   3.884   1.306   0.550 -0.0263 -0.2065 -0.0098
 4036TIP3    H133671   3.868   1.228   0.603  0.0797  1.2405  2.3494
 4036TIP3    H233672   3.967   1.288   0.506 -0.3309 -1.6623 -0.0332
 4037TIP3   OH233673   2.361   5.176   6.426 -0.5705  0.0877  0.3254
 4037TIP3    H133674   2.285   5.138   6.470  0.6969 -0.3295  2.3056
 4037TIP3    H233675   2.388   5.110   6.362 -1.0726 -0.3639  0.5748
 4038TIP3   OH233676   6.193   0.859   7.912 -0.2342  0.0821  0.0240
 4038TIP3    H133677   6.171   0.930   7.851  0.1760  1.2860  1.2439
 4038TIP3    H233678   6.116   0.851   7.968  0.2966  0.5730  0.8254
 4039TIP3   OH233679   6.860   4.642   1.246 -0.4999 -0.7330 -0.2228
 4039TIP3    H133680   6.911   4.705   1.196 -3.5925  0.5507 -2.0671
 4039TIP3    H233681   6.895   4.557   1.219  0.7610  0.0698 -1.2411
 4040TIP3   OH233682   5.245   6.933   1.250 -0.1174 -0.0862 -0.0974
 4040TIP3    H133683   5.225   7.000   1.316  0.9596  1.1355 -0.9535
 4040TIP3    H233684   5.161   6.892   1.230 -0.6322  0.3061  1.1965
 4041TIP3   OH233685   1.059   5.739   0.431  0.0778  0.0522  0.1356
 4041TIP3    H133686   1.106   5.687   0.497  1.3098  0.3929 -0.4448
 4041TIP3    H233687   1.061   5.828   0.464 -0.4663  0.0255  0.2591
 4042TIP3   OH233688   2.552   0.988   5.761 -0.9169 -0.4346  1.1971
 4042TIP3    H133689   2.539   0.902   5.721 -0.5619 -0.2889  0.7602
 4042TIP3    H233690   2.610   0.971   5.836 -0.9445 -0.5909  1.1834
 4043TIP3   OH233691   1.007   3.989   0.045  0.0746  0.3242 -0.1523
 4043TIP3    H133692   1.020   4.079   0.015 -0.0191 -0.0774 -1.4445
 4043TIP3    H233693   0.971   3.943  -0.031 -1.4070 -0.4401  0.9463
 4044TIP3   OH233694   2.688   2.523   7.406 -0.4885 -0.8148  0.9475
 4044TIP3    H133695   2.759   2.539   7.344 -1.6308 -1.0310 -0.4788
 4044TIP3    H233696   2.688   2.600   7.463  0.8122 -0.7767  0.9261
 4045TIP3   OH233697   7.003   1.797   0.688 -0.2794 -0.5722 -0.4605
 4045TIP3    H133698   7.092   1.805   0.653 -0.0487 -0.9874  0.0162
 4045TIP3    H233699   6.967   1.886   0.681  0.4402 -0.2246  0.0432
 4046TIP3   OH233700   0.226   5.302   1.959 -0.2089  0.0061 -0.4592
 4046TIP3    H133701   0.193   5.389   1.981  1.1292  0.7200 -1.0942
 4046TIP3    H233702   0.260   5.267   2.041  2.0934  1.4349 -0.6901
 4047TIP3   OH233703   1.867   0.188   0.446 -0.3255  0.2763  0.3114
 4047TIP3    H133704   1.869   0.177   0.541  1.1454  0.1669  0.2958
 4047TIP3    H233705   1.802   0.256   0.430  0.5835  1.4788  1.5315
 4048TIP3   OH233706   0.713   1.858   1.944  0.2986  0.1839 -0.5026
 4048TIP3    H133707   0.690   1.808   1.866  1.5239  0.6463 -1.1856
 4048TIP3    H233708   0.808   1.850   1.951  0.1169 -0.9703  1.7260
 4049TIP3   OH233709   6.408   5.454   8.045  0.3557 -0.1246  0.4622
 4049TIP3    H133710   6.426   5.363   8.069  1.2110  0.1940  1.0871
 4049TIP3    H233711   6.318   5.469   8.072 -0.7506 -1.5774 -2.1131
 4050TIP3   OH233712   2.346   2.062   7.167  0.0716  0.3452 -0.0991
 4050TIP3    H133713   2.269   2.100   7.208 -0.0044 -1.0586  1.1327
 4050TIP3    H233714   2.416   2.125   7.185 -0.9003  2.1856 -2.1670
 4051TIP3   OH233715   0.388   2.128   7.608 -0.3732  0.5177 -0.0158
 4051TIP3    H133716   0.452   2.124   7.679  1.0327 -1.2904 -1.2687
 4051TIP3    H233717   0.320   2.188   7.639  0.4749  0.2460  2.5655
 4052TIP3   OH233718   0.011   1.522   0.235  0.2051 -0.1235 -0.0283
 4052TIP3    H133719   0.094   1.552   0.273 -0.1655  2.0200 -0.7605
 4052TIP3    H233720  -0.052   1.590   0.260 -0.3330  0.7268 -3.2801
 4053TIP3   OH233721   4.841   0.843   8.337 -0.0058  0.3200 -0.0899
 4053TIP3    H133722   4.859   0.749   8.342  0.1067  0.3351 -0.2066
 4053TIP3    H233723   4.919   0.880   8.296  0.8709  0.7600  1.8795
 4054TIP3   OH233724   5.604   1.478   1.721  0.2238 -0.3539  0.3355
 4054TIP3    H133725   5.689   1.479   1.763  0.9691  4.4042 -0.6812
 4054TIP3    H233726   5.604   1.399   1.668  3.5747 -1.0522  1.1644
 4055TIP3   OH233727   3.375   6.325   0.478  0.1179  0.2246  0.2229
 4055TIP3    H133728   3.432   6.333   0.555  0.2004 -0.0763  0.1935
 4055TIP3    H233729   3.420   6.263   0.421 -0.8043 -0.9367  0.7185
 4056TIP3   OH233730   4.726   0.414   0.408 -0.3213  0.0370 -0.0300
 4056TIP3    H133731   4.718   0.319   0.404 -0.2742  0.0694 -2.1674
 4056TIP3    H233732   4.641   0.444   0.441 -0.4031 -0.7206  0.4704
 4057TIP3   OH233733   5.074   6.473   7.420 -0.2052 -0.1026 -0.1346
 4057TIP3    H133734   5.097   6.467   7.327  0.0510  2.1451 -0.2768
 4057TIP3    H233735   5.158   6.472   7.465 -0.0617  2.1774 -0.2272
 4058TIP3   OH233736   2.024   0.866   7.625  0.3810  0.0075  0.2634
 4058TIP3    H133737   2.029   0.798   7.692 -0.9977  0.9923  1.4461
 4058TIP3    H233738   1.990   0.821   7.547  0.7165 -0.8969  0.6353
 4059TIP3   OH233739   6.983   4.397   1.163  0.7352 -0.3285  0.4449
 4059TIP3    H133740   6.971   4.310   1.201 -0.1530  0.3801  1.8949
 4059TIP3    H233741   6.952   4.389   1.073 -1.9411 -0.9173  1.3100
 4060TIP3   OH233742   6.942   2.356   7.167 -0.7123 -0.1731  0.7022
 4060TIP3    H133743   6.878   2.421   7.196 -0.1029  0.5554  0.4248
 4060TIP3    H233744   6.894   2.273   7.171 -1.3584  0.2163  1.5077
 4061TIP3   OH233745   1.687   6.875   1.250 -0.6108 -0.0251  0.1061
 4061TIP3    H133746   1.734   6.851   1.170  1.1527  1.4189  0.6522
 4061TIP3    H233747   1.633   6.949   1.224 -1.7203 -0.9218 -0.2285
 4062TIP3   OH233748   0.352   1.288   1.708  0.2151 -0.6648 -0.1097
 4062TIP3    H133749   0.415   1.329   1.768  0.0377  0.7560 -0.8517
 4062TIP3    H233750   0.389   1.201   1.691  0.3554 -1.0450  1.8970
 4063TIP3   OH233751   6.064   7.017   1.295  0.2852 -0.5285 -0.5113
 4063TIP3    H133752   6.135   6.975   1.344  0.4128 -0.3016 -0.4981
 4063TIP3    H233753   5.984   6.977   1.330  0.3373  0.0411  0.3045
 4064TIP3   OH233754   1.420   5.285   7.852 -0.3341 -0.1392  0.7311
 4064TIP3    H133755   1.418   5.272   7.757 -0.7070 -1.7887  0.9201
 4064TIP3    H233756   1.405   5.378   7.864  1.4815  0.4415 -0.8870
 4065TIP3   OH233757   4.822   3.409   7.316  0.4418  0.4782 -0.0997
 4065TIP3    H133758   4.877   3.481   7.349  0.9877  0.8754 -1.7959
 4065TIP3    H233759   4.753   3.452   7.266 -1.2651 -0.0425  1.6564
 4066TIP3   OH233760   4.568   3.695   1.598  0.3423 -0.4521 -0.1301
 4066TIP3    H133761   4.597   3.605   1.614  0.1379 -0.4961  0.0080
 4066TIP3    H233762   4.532   3.723   1.682  0.9405 -0.0331 -0.0119
 4067TIP3   OH233763   2.344   3.930   2.462  0.5412  0.4426 -0.2863
 4067TIP3    H133764   2.410   3.999   2.463 -0.2788  1.3470  2.6708
 4067TIP3    H233765   2.266   3.972   2.498 -0.3504 -1.7244  0.4518
 4068TIP3   OH233766   3.671   1.081   2.231 -0.3908  0.2817  0.4978
 4068TIP3    H133767   3.675   1.106   2.138  0.1131 -1.5421 -0.0135
 4068TIP3    H233768   3.733   1.140   2.274  0.8519 -0.1040 -0.6642
 4069TIP3   OH233769   5.033   5.167   7.898 -0.4683 -0.1464 -0.2029
 4069TIP3    H133770   4.942   5.185   7.874 -0.8176 -2.8072 -1.1674
 4069TIP3    H233771   5.028   5.130   7.986 -0.2466  0.1385 -0.0663
 4070TIP3   OH233772   2.961   1.134   6.448 -1.0387 -0.0956 -0.6451
 4070TIP3    H133773   2.872   1.126   6.413 -2.2956  0.5954  2.1109
 4070TIP3    H233774   2.965   1.223   6.482  0.6460 -0.2186 -0.4656
 4071TIP3   OH233775   5.882   1.329   8.250  0.0707  0.2964 -0.1077
 4071TIP3    H133776   5.867   1.254   8.307  0.4355  0.1009 -0.2604
 4071TIP3    H233777   5.978   1.336   8.245  0.0396  0.6017 -0.3139
 4072TIP3   OH233778   2.698   1.710   1.981 -0.2935 -0.5958 -0.7805
 4072TIP3    H133779   2.713   1.620   1.951 -1.2464 -0.2086 -2.5737
 4072TIP3    H233780   2.635   1.700   2.053 -0.9196 -1.3499 -1.4009
 4073TIP3   OH233781   0.270   3.121   7.573 -0.6302 -0.2908 -0.6702
 4073TIP3    H133782   0.245   3.201   7.527 -0.8858 -1.5052 -2.7608
 4073TIP3    H233783   0.265   3.052   7.507  1.5048 -1.7480  0.5610
 4074TIP3   OH233784   0.559   1.133   6.712  0.1681  0.8160  0.0092
 4074TIP3    H133785   0.651   1.160   6.704 -0.0894  1.7729  0.1855
 4074TIP3    H233786   0.560   1.039   6.694  1.1493  0.8640 -0.2316
 4075TIP3   OH233787   6.876   3.979   7.252 -0.3456  0.1451  0.1815
 4075TIP3    H133788   6.949   3.918   7.250 -2.3030 -2.3749 -1.1116
 4075TIP3    H233789   6.894   4.040   7.181 -0.1571 -1.3755 -1.1520
 4076TIP3   OH233790   4.359   0.561   0.947  0.2313  0.3559  0.4650
 4076TIP3    H133791   4.346   0.481   0.896  0.1583  0.7029 -0.0651
 4076TIP3    H233792   4.324   0.540   1.034 -1.5628  0.4500 -0.2084
 4077TIP3   OH233793   3.359   4.170   0.763 -0.1864  0.5364 -0.0729
 4077TIP3    H133794   3.324   4.208   0.843  0.3899 -0.5476  0.7002
 4077TIP3    H233795   3.301   4.203   0.694 -0.9426  1.1293  0.8264
 4078TIP3   OH233796   3.402   5.958   8.194  0.1586  0.1036  0.0238
 4078TIP3    H133797   3.337   6.017   8.157 -1.3862 -1.4183  0.1653
 4078TIP3    H233798   3.399   5.975   8.288 -0.4823 -0.3370  0.0959
 4079TIP3   OH233799   5.296   6.693   6.370  0.5161  0.1687 -0.0474
 4079TIP3    H133800   5.368   6.722   6.314 -0.4356  1.0895 -0.8192
 4079TIP3    H233801   5.228   6.664   6.309  0.9999 -2.7463  0.6704
 4080TIP3   OH233802   6.517   5.028   6.781 -0.6628  0.3019 -0.3054
 4080TIP3    H133803   6.577   4.983   6.722 -0.3922  0.8180 -0.4297
 4080TIP3    H233804   6.514   5.118   6.748 -0.5658  0.5761  0.4248
 4081TIP3   OH233805   6.123   3.912   1.924 -0.4559 -0.7242 -0.4182
 4081TIP3    H133806   6.173   3.968   1.984 -0.6435 -1.1075  0.1084
 4081TIP3    H233807   6.119   3.962   1.842  0.0261 -0.3044 -0.1932
 4082TIP3   OH233808   6.933   1.966   1.732 -0.7087 -0.3062 -0.5314
 4082TIP3    H133809   7.021   2.003   1.732 -0.3101 -1.2208 -0.1684
 4082TIP3    H233810   6.930   1.910   1.809 -2.3715  1.3879  0.7381
 4083TIP3   OH233811   5.250   6.457   8.152 -0.3604  0.0126 -0.1054
 4083TIP3    H133812   5.166   6.427   8.186 -0.8357  0.6376 -0.7090
 4083TIP3    H233813   5.269   6.398   8.078 -1.8065  1.7530 -1.9718
 4084TIP3   OH233814   6.996   6.093   1.445 -0.1864 -0.1298 -0.1762
 4084TIP3    H133815   7.060   6.148   1.402 -0.9829  0.7692 -0.2389
 4084TIP3    H233816   7.038   6.007   1.451  0.3208 -0.0293 -1.8393
 4085TIP3   OH233817   6.259   0.469   6.642 -0.3729  0.2711 -0.4877
 4085TIP3    H133818   6.293   0.537   6.700  1.7452 -0.3833 -0.8552
 4085TIP3    H233819   6.271   0.504   6.554 -1.3962  0.3207 -0.6182
 4086TIP3   OH233820   2.377   1.093   1.053 -0.1610 -0.5095 -0.0210
 4086TIP3    H133821   2.340   1.173   1.015 -0.7813 -0.6690  0.2280
 4086TIP3    H233822   2.300   1.040   1.075  0.2389 -1.0465  0.0887
 4087TIP3   OH233823   4.761   6.152   6.624 -0.3567  0.2214  0.0604
 4087TIP3    H133824   4.754   6.075   6.568 -0.8074  0.3689 -0.0890
 4087TIP3    H233825   4.853   6.155   6.650 -0.4273 -0.6365  0.4441
 4088TIP3   OH233826   3.716   4.407   1.371 -0.0318 -0.6931 -0.0802
 4088TIP3    H133827   3.719   4.347   1.297 -0.8384 -1.0663  0.1761
 4088TIP3    H233828   3.800   4.395   1.415  1.1700  0.7385 -1.8314
 4089TIP3   OH233829   6.959   6.440   1.506  0.3008 -0.2000 -0.6655
 4089TIP3    H133830   6.973   6.506   1.438  1.7371  0.9267  0.6420
 4089TIP3    H233831   7.039   6.387   1.505 -0.3671 -1.2388 -0.9369
 4090TIP3   OH233832   2.008   1.984   8.059  0.4574 -0.4950  0.0573
 4090TIP3    H133833   1.918   1.964   8.034  0.1581 -2.6460  2.4550
 4090TIP3    H233834   2.061   1.931   8.000 -0.0280 -1.8149  0.7611
 4091TIP3   OH233835   2.300   5.395   1.447 -0.4783  0.8449  0.0959
 4091TIP3    H133836   2.286   5.467   1.386  0.2221  0.8605 -0.0535
 4091TIP3    H233837   2.390   5.407   1.478 -0.4248  0.1576  0.2205
 4092TIP3   OH233838   4.271   2.051   1.562  0.6658 -0.1152  0.8373
 4092TIP3    H133839   4.186   2.031   1.523  1.5766  1.4911 -2.3518
 4092TIP3    H233840   4.301   1.968   1.598 -1.8905 -0.8809  1.3694
 4093TIP3   OH233841   4.093   6.742   6.772 -0.2111  0.4629  0.6742
 4093TIP3    H133842   4.153   6.690   6.719  1.3381  1.5250  1.3039
 4093TIP3    H233843   4.079   6.690   6.851 -2.8263 -1.3009 -0.8031
 4094TIP3   OH233844   4.710   0.237   7.233  0.1291  0.3925 -0.7170
 4094TIP3    H133845   4.751   0.186   7.163 -1.7185 -1.1936 -0.7084
 4094TIP3    H233846   4.686   0.320   7.192  2.6225  1.1042 -0.8950
 4095TIP3   OH233847   0.857   6.404   7.162 -0.4372  0.2027  0.2194
 4095TIP3    H133848   0.814   6.318   7.171  0.3940 -0.4641 -1.6212
 4095TIP3    H233849   0.948   6.383   7.143  0.6278  1.5889  3.2219
 4096TIP3   OH233850   3.832   6.641   7.010  0.6411 -0.4087  0.3092
 4096TIP3    H133851   3.822   6.734   6.991  1.6922  0.1214  2.0425
 4096TIP3    H233852   3.926   6.631   7.029  0.3463 -1.5616  1.2796
 4097TIP3   OH233853   0.796   3.038   7.699 -0.5067 -0.4685  0.1035
 4097TIP3    H133854   0.740   2.964   7.723 -0.2941  0.0419  2.5169
 4097TIP3    H233855   0.766   3.109   7.756  0.3993  0.7947 -0.9526
 4098TIP3   OH233856   3.742   1.692   6.623 -0.0643 -0.0965 -0.3648
 4098TIP3    H133857   3.790   1.693   6.541 -0.3204 -1.0569 -0.5368
 4098TIP3    H233858   3.797   1.643   6.683 -0.4303 -0.4631 -0.3208
 4099TIP3   OH233859   2.067   5.239   7.350 -0.7914 -0.0267 -0.0279
 4099TIP3    H133860   2.029   5.226   7.264 -0.0477 -0.8783 -0.2447
 4099TIP3    H233861   2.157   5.267   7.333  0.3164 -2.9598  0.3948
 4100TIP3   OH233862   5.497   0.145   7.213 -0.0493  0.0215  0.1442
 4100TIP3    H133863   5.423   0.116   7.266  0.9249  0.3732  1.7509
 4100TIP3    H233864   5.476   0.115   7.124 -0.5066 -2.9637  1.1400
 4101TIP3   OH233865   4.987   4.208   0.586 -0.2473  0.0061 -0.5205
 4101TIP3    H133866   4.950   4.292   0.560 -0.7147 -0.0141  0.0538
 4101TIP3    H233867   5.079   4.212   0.558 -0.2817  0.6831 -0.5508
 4102TIP3   OH233868   2.060   1.606   6.031  0.1710 -0.6183  0.1490
 4102TIP3    H133869   2.111   1.528   6.051 -2.4851 -2.5187 -0.0456
 4102TIP3    H233870   2.042   1.600   5.937 -0.1465  0.1947  0.1441
 4103TIP3   OH233871   0.862   3.687   7.582  0.1614  0.4978 -0.1323
 4103TIP3    H133872   0.882   3.595   7.566  0.8852  0.4086  1.1174
 4103TIP3    H233873   0.918   3.736   7.522 -0.7614  0.1382 -1.3311
 4104TIP3   OH233874   3.034   6.519   7.154  0.9623  0.4362 -0.3280
 4104TIP3    H133875   3.102   6.512   7.222  0.0531 -0.7689  0.4824
 4104TIP3    H233876   2.952   6.509   7.201  0.3317 -2.8797 -1.8270
 4105TIP3   OH233877   6.510   2.395   7.163 -0.1665 -0.2658  0.3844
 4105TIP3    H133878   6.482   2.320   7.216  2.1103 -0.8812  0.8114
 4105TIP3    H233879   6.454   2.391   7.086  0.0984 -2.6597  0.2136
 4106TIP3   OH233880   5.305   1.724   6.084 -0.1628  0.2596  0.0102
 4106TIP3    H133881   5.243   1.771   6.140 -1.1014 -0.4419 -0.4159
 4106TIP3    H233882   5.314   1.780   6.007 -0.5164  0.2234 -0.0624
 4107TIP3   OH233883   2.463   0.463   6.558  0.2939  0.3282 -0.1485
 4107TIP3    H133884   2.395   0.518   6.520  1.1741  1.1855 -0.5224
 4107TIP3    H233885   2.426   0.375   6.558 -0.1578  0.4892 -1.9383
 4108TIP3   OH233886   6.084   0.907   0.843  0.2535  0.3902  0.1028
 4108TIP3    H133887   6.146   0.851   0.796  1.5144  1.2436  0.7146
 4108TIP3    H233888   6.066   0.861   0.925  0.4752  0.3847  0.1481
 4109TIP3   OH233889   0.584   2.991   1.602 -0.5732  0.5416  0.3266
 4109TIP3    H133890   0.550   3.051   1.669 -0.0211  2.1085 -0.7262
 4109TIP3    H233891   0.650   3.043   1.556  2.5226 -1.9566  1.5552
 4110TIP3   OH233892   5.396   2.777   7.575  0.6872 -0.1241  0.2885
 4110TIP3    H133893   5.385   2.700   7.518 -0.9278  0.6836 -0.5613
 4110TIP3    H233894   5.314   2.781   7.625  0.0058  1.9850 -0.9041
 4111TIP3   OH233895   2.570   3.839   0.719 -0.2349 -0.2287 -0.8128
 4111TIP3    H133896   2.474   3.833   0.720 -0.3186  0.8478 -0.0826
 4111TIP3    H233897   2.589   3.919   0.671  0.0096  2.2945  2.9818
 4112TIP3   OH233898   6.965   6.033   0.279 -0.0758  0.0376  0.4368
 4112TIP3    H133899   7.007   5.956   0.240  0.9451  0.8912 -0.2126
 4112TIP3    H233900   6.903   6.063   0.213  0.2357  0.3400  0.2793
 4113TIP3   OH233901   0.621   6.187   0.385 -0.2409 -0.5975  0.2318
 4113TIP3    H133902   0.584   6.174   0.472 -2.4675  1.3377 -0.3177
 4113TIP3    H233903   0.687   6.256   0.398 -0.9546  0.0825  0.3340
 4114TIP3   OH233904   3.174   6.150   0.997  0.5113 -0.1939  0.2657
 4114TIP3    H133905   3.200   6.155   0.905 -0.3962 -0.6503 -0.0269
 4114TIP3    H233906   3.084   6.116   0.995 -0.2822  1.6778  1.1911
 4115TIP3   OH233907   0.805   4.589   7.746 -0.0438 -0.2214  0.2855
 4115TIP3    H133908   0.793   4.502   7.709 -2.7211  0.7670 -1.5215
 4115TIP3    H233909   0.867   4.632   7.687 -2.4635  0.5561 -1.9048
 4116TIP3   OH233910   2.008   2.405   1.185 -0.2033 -0.6129 -0.0523
 4116TIP3    H133911   2.045   2.492   1.200 -1.9480  0.3067 -0.8385
 4116TIP3    H233912   1.973   2.379   1.271 -1.8668  0.5766 -0.3238
 4117TIP3   OH233913   0.354   2.277   0.814  0.1221  0.1364 -0.6310
 4117TIP3    H133914   0.279   2.259   0.870  1.0255  0.9160  0.9011
 4117TIP3    H233915   0.381   2.366   0.838  2.5494 -0.7096  0.1089
 4118TIP3   OH233916   4.563   4.664   6.797  0.3880  0.7644 -0.0426
 4118TIP3    H133917   4.653   4.639   6.778  0.3294  1.2486 -1.0208
 4118TIP3    H233918   4.533   4.709   6.718 -0.8525  0.2342  0.0944
 4119TIP3   OH233919   2.347   3.607   6.225 -0.1894  0.8298  0.0466
 4119TIP3    H133920   2.298   3.687   6.246  0.6466  1.1606  0.7686
 4119TIP3    H233921   2.419   3.637   6.170  0.1980  0.5889  0.4205
 4120TIP3   OH233922   3.370   0.809   6.356  0.1545 -1.0264  0.1173
 4120TIP3    H133923   3.447   0.829   6.302 -1.2306  0.6709 -1.3790
 4120TIP3    H233924   3.330   0.895   6.373 -1.6129 -1.8752  0.4825
 4121TIP3   OH233925   2.010   1.708   0.223 -0.3657 -0.1682  0.1756
 4121TIP3    H133926   2.093   1.679   0.260  0.1434  0.2704 -0.5862
 4121TIP3    H233927   2.015   1.683   0.130 -0.3053  1.4762 -0.2856
 4122TIP3   OH233928   1.530   3.762   0.197 -0.8723 -0.5301 -0.5001
 4122TIP3    H133929   1.522   3.722   0.111  0.2635 -0.7184 -0.5311
 4122TIP3    H233930   1.591   3.706   0.244 -0.7197  0.1228  0.0934
 4123TIP3   OH233931   3.235   3.849   7.670  0.4728 -0.0985  0.0103
 4123TIP3    H133932   3.141   3.860   7.685  0.2154 -0.6408 -1.0807
 4123TIP3    H233933   3.241   3.781   7.603  1.6230  0.3694 -0.3890
 4124TIP3   OH233934   3.656   4.843   6.493 -0.0161 -0.2694  0.3162
 4124TIP3    H133935   3.731   4.885   6.535  0.1912  0.1684 -0.4718
 4124TIP3    H233936   3.665   4.865   6.401 -0.1784 -1.6445 -0.0467
 4125TIP3   OH233937   6.154   2.140   1.949  0.0885  0.1693 -0.4491
 4125TIP3    H133938   6.175   2.069   2.009  0.6876  0.2261 -0.5780
 4125TIP3    H233939   6.064   2.165   1.971  0.5808  0.7589  0.9974
 4126TIP3   OH233940   2.115   6.828   6.590  0.3962 -0.4671  0.7010
 4126TIP3    H133941   2.177   6.768   6.547  0.3788  0.1518 -0.2228
 4126TIP3    H233942   2.030   6.808   6.549  0.0782 -0.9347  1.5685
 4127TIP3   OH233943   0.372   1.805   7.342  0.4060  0.4506  0.4434
 4127TIP3    H133944   0.434   1.781   7.410 -0.6707  1.7379  1.9391
 4127TIP3    H233945   0.286   1.788   7.380 -0.2442 -1.1109 -1.5183
 4128TIP3   OH233946   1.695   1.589   2.255  0.0248  0.1846  0.6144
 4128TIP3    H133947   1.780   1.632   2.266  0.1070 -0.2532  1.7672
 4128TIP3    H233948   1.711   1.498   2.277  0.0080 -0.6702 -2.4867
 4129TIP3   OH233949   3.687   2.325   7.851  0.5996  0.1923  0.3291
 4129TIP3    H133950   3.685   2.238   7.892  2.9277 -0.3580 -0.5550
 4129TIP3    H233951   3.682   2.386   7.924  0.0047 -0.7033  1.0595
 4130TIP3   OH233952   6.376   1.880   1.823 -0.0486 -0.1715  0.3578
 4130TIP3    H133953   6.408   1.929   1.899  2.0008 -0.6514 -0.1485
 4130TIP3    H233954   6.361   1.791   1.856 -1.3500  0.1458  0.6882
 4131TIP3   OH233955   6.510   5.841   7.838  0.1379 -0.4136  0.0802
 4131TIP3    H133956   6.515   5.748   7.818 -1.2260 -0.4407 -0.2034
 4131TIP3    H233957   6.599   5.874   7.821  0.3818 -1.4639 -0.7901
 4132TIP3   OH233958   6.338   5.374   6.882 -0.6593 -0.0862  0.0155
 4132TIP3    H133959   6.317   5.370   6.789 -0.3872 -0.0637 -0.0458
 4132TIP3    H233960   6.276   5.438   6.917 -1.1006 -0.4693 -0.0548
 4133TIP3   OH233961   0.725   2.719   8.061 -0.2629 -0.3490 -0.2803
 4133TIP3    H133962   0.769   2.671   8.131  2.1311  0.9079 -0.8123
 4133TIP3    H233963   0.721   2.809   8.094 -1.7667 -0.2544 -0.6207
 4134TIP3   OH233964   5.768   0.184   7.282 -0.0315  0.3252 -0.2201
 4134TIP3    H133965   5.789   0.121   7.212 -1.1982 -0.4208  0.0704
 4134TIP3    H233966   5.673   0.195   7.276 -0.0263  0.9252  0.7007
 4135TIP3   OH233967   4.077   4.214   6.200  0.1987  0.2671 -0.1237
 4135TIP3    H133968   4.153   4.246   6.151 -1.5929  1.6297 -2.2338
 4135TIP3    H233969   4.101   4.125   6.226  3.1496  1.2216  0.8449
 4136TIP3   OH233970   5.621   4.993   7.669 -0.0084 -0.2473 -0.3792
 4136TIP3    H133971   5.557   4.948   7.723  1.1624 -2.1072 -0.4514
 4136TIP3    H233972   5.643   5.072   7.718  0.1881 -1.3165  1.3158
 4137TIP3   OH233973   6.880   2.956   1.168  0.2557 -0.3397 -0.1884
 4137TIP3    H133974   6.870   3.001   1.252 -1.0827  1.6917 -1.3499
 4137TIP3    H233975   6.808   2.892   1.168 -0.7946  0.7978 -0.4269
 4138TIP3   OH233976   4.509   2.969   1.388 -0.2367  0.2804 -0.5555
 4138TIP3    H133977   4.436   2.913   1.362  0.1493  0.4715 -2.1649
 4138TIP3    H233978   4.549   2.996   1.306  0.7434  1.3980  0.2484
 4139TIP3   OH233979   3.349   3.366   0.874 -0.5351 -0.3230  0.2089
 4139TIP3    H133980   3.313   3.403   0.955  0.2473  1.4693 -0.2242
 4139TIP3    H233981   3.327   3.430   0.806  0.7205 -0.7169 -0.6087
 4140TIP3   OH233982   1.542   0.428   7.468  0.3058  0.0769 -0.0463
 4140TIP3    H133983   1.569   0.506   7.420 -1.5609  0.1926 -0.9775
 4140TIP3    H233984   1.454   0.409   7.437  0.1957 -1.6348  1.1443
 4141TIP3   OH233985   0.405   5.074   1.625 -0.1452  0.1049  0.1586
 4141TIP3    H133986   0.486   5.126   1.626 -0.2968  0.3936 -0.8504
 4141TIP3    H233987   0.398   5.043   1.534 -1.9583  1.3493 -0.1747
 4142TIP3   OH233988   2.407   4.225   1.779 -0.0787 -0.2170  0.0233
 4142TIP3    H133989   2.356   4.164   1.726 -0.3574  0.1083 -0.0789
 4142TIP3    H233990   2.374   4.212   1.868 -0.3947  0.0454 -0.0531
 4143TIP3   OH233991   3.922   2.316   6.317 -0.1494  0.2914 -0.6859
 4143TIP3    H133992   3.989   2.385   6.314  0.7680 -0.4201  1.4061
 4143TIP3    H233993   3.856   2.344   6.254 -0.7787  4.1252  1.3366
 4144TIP3   OH233994   3.331   6.064   6.290  0.4183 -0.0781  0.3800
 4144TIP3    H133995   3.260   6.120   6.321  0.3725  0.0750  0.0041
 4144TIP3    H233996   3.291   6.006   6.227  1.0151  1.5503 -1.6296
 4145TIP3   OH233997   5.824   3.167   1.755  0.0120 -1.2252  0.5344
 4145TIP3    H133998   5.874   3.218   1.819 -0.0827 -1.3909  0.7400
 4145TIP3    H233999   5.783   3.097   1.806 -0.9299 -0.7377  0.4698
 4146TIP3   OH234000   0.072   4.202   1.563  0.1763 -0.0329  0.5610
 4146TIP3    H134001   0.000   4.148   1.529 -1.2912  1.2957  1.3859
 4146TIP3    H234002   0.035   4.242   1.642  1.2228  2.0877  0.0207
 4147TIP3   OH234003   3.526   3.244   2.054 -0.3580 -0.3580 -0.2486
 4147TIP3    H134004   3.553   3.155   2.031  2.5575  0.6528 -1.2022
 4147TIP3    H234005   3.587   3.300   2.007 -0.0351  2.0975  2.7907
 4148TIP3   OH234006   5.231   6.874   6.634  0.1579 -0.0890  0.2220
 4148TIP3    H134007   5.323   6.879   6.607  0.2307  0.1815  0.5267
 4148TIP3    H234008   5.182   6.888   6.553  0.3749  1.0790  0.2834
 4149TIP3   OH234009   4.813   4.656   0.962  0.7207 -0.3753 -0.0721
 4149TIP3    H134010   4.769   4.684   1.043  0.2131  2.6474 -1.2510
 4149TIP3    H234011   4.892   4.709   0.959  0.3013  0.2190 -1.9356
 4150TIP3   OH234012   0.962   6.314   0.561 -0.1598  0.1369 -0.0519
 4150TIP3    H134013   1.022   6.274   0.624  1.0932  0.3710 -1.0559
 4150TIP3    H234014   0.940   6.398   0.600  1.7016  0.8866 -0.4994
 4151TIP3   OH234015   4.272   1.690   0.440  0.2543  0.2276 -0.5609
 4151TIP3    H134016   4.286   1.628   0.512 -2.4508 -0.1833 -0.3017
 4151TIP3    H234017   4.239   1.769   0.482 -0.8228  0.1817 -1.2944
 4152TIP3   OH234018   1.378   3.117   8.272 -0.5371 -0.0849 -0.1464
 4152TIP3    H134019   1.341   3.055   8.335  2.2485 -0.8953  0.8459
 4152TIP3    H234020   1.427   3.179   8.326  2.5671 -1.2489 -1.4151
 4153TIP3   OH234021   5.833   1.257   6.755 -0.1788  0.9437  0.0558
 4153TIP3    H134022   5.887   1.334   6.776 -1.1486  1.4938  0.6096
 4153TIP3    H234023   5.757   1.294   6.710 -0.5948  0.2882  0.2186
 4154TIP3   OH234024   0.675   0.349   7.745  0.7025  0.1127  0.4494
 4154TIP3    H134025   0.696   0.325   7.835  1.6290 -1.4725 -0.1482
 4154TIP3    H234026   0.759   0.347   7.699 -0.1315 -2.7392 -1.2136
 4155TIP3   OH234027   0.063   5.620   8.209 -0.0356 -0.2577 -0.1511
 4155TIP3    H134028   0.021   5.691   8.159 -1.8789  0.8317  2.7305
 4155TIP3    H234029   0.157   5.631   8.190 -0.3555  2.2895 -0.6562
 4156TIP3   OH234030   1.795   0.626   6.402  0.0405  0.8155 -0.0557
 4156TIP3    H134031   1.864   0.614   6.336 -1.4738  1.4399 -1.8225
 4156TIP3    H234032   1.714   0.635   6.352 -1.5019 -0.6682  1.9775
 4157TIP3   OH234033   5.695   5.246   8.073  0.7609  0.3508  0.3684
 4157TIP3    H134034   5.679   5.338   8.094  1.6720  0.0984  2.3647
 4157TIP3    H234035   5.780   5.245   8.030  0.6587  0.4656  0.1644
 4158TIP3   OH234036   0.600   3.869   8.273 -0.2540  0.3535  0.2949
 4158TIP3    H134037   0.640   3.939   8.325  1.1641  0.1124 -0.4541
 4158TIP3    H234038   0.588   3.907   8.186  1.7425 -0.7021 -0.4953
 4159TIP3   OH234039   1.741   4.546   7.686  0.4915  0.4868 -0.4904
 4159TIP3    H134040   1.770   4.629   7.724 -1.1169  1.0355 -0.3727
 4159TIP3    H234041   1.744   4.483   7.758 -1.3795  1.2376  0.3075
 4160TIP3   OH234042   6.036   0.668   1.478 -0.2591 -0.1722  0.1594
 4160TIP3    H134043   5.949   0.708   1.478 -0.2068 -0.0274 -1.0008
 4160TIP3    H234044   6.025   0.585   1.524 -0.4359  1.0003  2.3650
 4161TIP3   OH234045   2.402   4.057   1.392 -0.3346  0.1587  0.0704
 4161TIP3    H134046   2.405   3.989   1.325 -3.4718  0.5186 -0.6273
 4161TIP3    H234047   2.353   4.018   1.464  2.0822  0.1369  1.8023
 4162TIP3   OH234048   1.765   5.726   7.706  0.1293 -0.3054  0.5840
 4162TIP3    H134049   1.695   5.674   7.666 -0.8456  2.0889 -1.0588
 4162TIP3    H234050   1.720   5.784   7.767  0.5795  1.2940 -0.5244
 4163TIP3   OH234051   5.184   2.022   7.715 -0.4279  0.0842  0.5309
 4163TIP3    H134052   5.090   2.011   7.726 -0.6855  0.6139 -0.9511
 4163TIP3    H234053   5.217   1.933   7.704 -0.9393 -0.0245 -0.1903
 4164TIP3   OH234054   2.232   3.803   1.467  0.1997  0.2573  0.1360
 4164TIP3    H134055   2.159   3.860   1.493  0.8608  0.3827  1.8258
 4164TIP3    H234056   2.237   3.738   1.537 -0.0386 -1.4518 -1.3769
 4165TIP3   OH234057   3.745   0.730   0.378  0.1630 -0.0345 -0.6336
 4165TIP3    H134058   3.680   0.788   0.340  0.1943  1.0970  0.9009
 4165TIP3    H234059   3.695   0.670   0.433  0.3139  0.1624 -0.2735
 4166TIP3   OH234060   6.624   1.844   1.378 -0.1791 -0.0824 -0.3867
 4166TIP3    H134061   6.718   1.863   1.381 -0.0645 -0.3470 -1.5273
 4166TIP3    H234062   6.610   1.777   1.444  0.1034  1.1950  1.0140
 4167TIP3   OH234063   4.151   4.693   6.057  0.9336  0.4108  0.0057
 4167TIP3    H134064   4.147   4.635   5.981  1.0596 -0.2074  0.4656
 4167TIP3    H234065   4.096   4.651   6.123 -0.0633  1.5094 -0.1106
 4168TIP3   OH234066   0.888   6.725   7.449 -0.3578  0.2278 -0.0105
 4168TIP3    H134067   0.957   6.781   7.413  0.3051 -1.2357 -1.1212
 4168TIP3    H234068   0.934   6.648   7.481 -1.5456 -2.0053 -3.1135
 4169TIP3   OH234069   1.161   2.296   8.260 -0.4942  0.0310  0.8735
 4169TIP3    H134070   1.115   2.368   8.217 -1.5843 -0.5511  1.0159
 4169TIP3    H234071   1.220   2.262   8.194 -1.4408 -0.2269  0.1338
 4170TIP3   OH234072   5.692   2.470   7.138  0.0711 -0.1037 -0.2767
 4170TIP3    H134073   5.715   2.532   7.068 -1.3986  1.0280  0.2119
 4170TIP3    H234074   5.699   2.384   7.096 -0.4607  0.5353 -1.7366
 4171TIP3   OH234075   4.280   5.986   1.761  0.1585  0.7169  0.1328
 4171TIP3    H134076   4.361   6.027   1.792  1.1863  0.2085 -1.7212
 4171TIP3    H234077   4.297   5.892   1.767 -0.6347  0.5961  0.5397
 4172TIP3   OH234078   6.761   6.374   8.184  0.0284  0.0423 -0.0135
 4172TIP3    H134079   6.823   6.415   8.125 -0.2272  0.6487  0.1225
 4172TIP3    H234080   6.793   6.285   8.197  0.1203 -0.0734 -1.0025
 4173TIP3   OH234081   4.861   0.191   0.132  0.1601 -0.2062 -0.1967
 4173TIP3    H134082   4.857   0.187   0.228 -0.0703  0.7819 -0.1475
 4173TIP3    H234083   4.955   0.191   0.112  0.4068  3.0705  0.2828
 4174TIP3   OH234084   5.062   4.778   0.916  0.5515  0.5188 -0.7708
 4174TIP3    H134085   5.106   4.693   0.918  1.1296  0.8052 -1.0986
 4174TIP3    H234086   5.117   4.836   0.968  0.1732  0.7008 -0.5670
 4175TIP3   OH234087   1.142   3.049   1.050 -0.4989 -0.2908 -0.5242
 4175TIP3    H134088   1.210   3.109   1.021 -0.6556 -0.8243 -2.0962
 4175TIP3    H234089   1.069   3.105   1.077 -0.1888  0.2423 -0.7887
 4176TIP3   OH234090   4.441   5.831   7.067  0.4806 -0.2245 -0.3507
 4176TIP3    H134091   4.531   5.803   7.056  0.6321  0.6917 -1.6630
 4176TIP3    H234092   4.393   5.785   6.998  0.2978  0.7893 -0.9109
 4177TIP3   OH234093   0.821   2.495   0.102 -0.5149 -0.6363 -0.2406
 4177TIP3    H134094   0.893   2.514   0.163  0.2609  0.6667 -1.5083
 4177TIP3    H234095   0.809   2.400   0.110 -0.6255 -0.4979  2.0921
 4178TIP3   OH234096   4.489   0.999   0.884 -0.0673  0.3073  0.2295
 4178TIP3    H134097   4.551   1.072   0.896  2.1453 -1.2134 -1.1846
 4178TIP3    H234098   4.505   0.942   0.959  2.6535 -1.6104 -1.6257
 4179TIP3   OH234099   6.802   2.322   1.547  0.1700  0.3884 -0.2067
 4179TIP3    H134100   6.753   2.241   1.533  0.6910  0.0966 -0.3419
 4179TIP3    H234101   6.754   2.388   1.496 -1.7322  0.7448  1.8596
 4180TIP3   OH234102   0.191   1.491   1.047  0.0237 -0.2504 -0.4361
 4180TIP3    H134103   0.135   1.537   0.985 -0.3088 -1.7205 -1.2829
 4180TIP3    H234104   0.235   1.424   0.994  0.0430 -1.2798  0.8334
 4181TIP3   OH234105   2.979   4.699   7.688  0.4886 -0.5512 -0.3235
 4181TIP3    H134106   2.961   4.622   7.743 -1.0689 -0.2158 -0.3274
 4181TIP3    H234107   2.984   4.664   7.599 -0.0161 -0.6789 -0.3039
 4182TIP3   OH234108   2.080   4.611   8.103  0.7560 -0.0002 -0.1490
 4182TIP3    H134109   2.107   4.703   8.097 -1.4555  0.6844 -0.3463
 4182TIP3    H234110   2.035   4.605   8.187  1.2075 -1.0146  0.0310
 4183TIP3   OH234111   2.712   0.920   6.542 -0.1100 -0.2787  0.6077
 4183TIP3    H134112   2.775   0.859   6.503  0.3423 -0.1909  1.1946
 4183TIP3    H234113   2.629   0.900   6.498  0.8619  1.6033 -2.4175
 4184TIP3   OH234114   3.165   0.093   1.912  0.1774 -1.0996 -0.2489
 4184TIP3    H134115   3.093   0.156   1.920  1.7308  0.5710  1.8365
 4184TIP3    H234116   3.123   0.008   1.916 -1.7112 -0.1862  0.9243
 4185TIP3   OH234117   6.393   2.658   5.787  0.0340  0.9702  0.2391
 4185TIP3    H134118   6.341   2.654   5.868  0.0024  0.4854  0.1971
 4185TIP3    H234119   6.356   2.732   5.739 -0.9215  0.3715  0.0132
 4186TIP3   OH234120   2.189   4.282   7.849  0.0812  0.4182 -0.6462
 4186TIP3    H134121   2.172   4.361   7.797 -1.2945  0.2203 -0.5280
 4186TIP3    H234122   2.132   4.291   7.926  0.2448 -0.4809 -0.4061
 4187TIP3   OH234123   2.793   5.206   8.240  0.1392 -0.3680  0.4778
 4187TIP3    H134124   2.804   5.161   8.324 -0.2083 -0.5168  0.4439
 4187TIP3    H234125   2.713   5.258   8.251  0.0085 -0.5075  0.1864
 4188TIP3   OH234126   2.386   1.159   0.070  0.0167  0.2424 -0.0722
 4188TIP3    H134127   2.343   1.097   0.129 -0.0898  0.4021  0.0186
 4188TIP3    H234128   2.479   1.140   0.079 -0.0550 -0.4353 -0.6371
 4189TIP3   OH234129   0.446   0.436   0.103  0.5883 -0.2752  0.2041
 4189TIP3    H134130   0.471   0.492   0.029  1.0371 -0.3615  0.2871
 4189TIP3    H234131   0.351   0.444   0.108  0.6464  0.4428  0.1851
 4190TIP3   OH234132   1.249   3.624   0.843  0.4323 -0.3676 -0.7741
 4190TIP3    H134133   1.289   3.707   0.815 -1.5537  0.8274 -0.2676
 4190TIP3    H234134   1.297   3.600   0.922 -0.2834  1.4628  0.2840
 4191TIP3   OH234135   1.273   2.309   7.025  0.2638 -0.2401 -0.4597
 4191TIP3    H134136   1.233   2.251   7.090 -1.3757 -1.4353 -2.4143
 4191TIP3    H234137   1.223   2.391   7.032  1.2596  0.2833  0.9276
 4192TIP3   OH234138   5.937   3.733   7.516  0.3270 -0.4321  0.0316
 4192TIP3    H134139   5.859   3.694   7.557  1.6739 -1.7887  1.4087
 4192TIP3    H234140   5.974   3.790   7.583  1.4133 -1.0703 -0.0034
 4193TIP3   OH234141   2.831   4.139   1.260  0.1915  0.0794 -0.0340
 4193TIP3    H134142   2.892   4.080   1.215  0.5756 -1.5236  2.4242
 4193TIP3    H234143   2.884   4.216   1.281  1.0938 -0.7816  0.9877
 4194TIP3   OH234144   6.462   1.273   0.109 -0.1241 -0.1273 -0.3666
 4194TIP3    H134145   6.437   1.258   0.018 -1.7432  0.7095 -0.0950
 4194TIP3    H234146   6.399   1.222   0.160 -0.8763  1.4171  0.3287
 4195TIP3   OH234147   1.666   0.930   7.367 -0.0386  0.0049 -0.2585
 4195TIP3    H134148   1.725   0.961   7.435  0.1389 -0.9998  0.0585
 4195TIP3    H234149   1.655   1.005   7.309  0.6029  0.5651  0.3261
 4196TIP3   OH234150   5.322   2.975   6.059 -0.3536  0.1078  0.0213
 4196TIP3    H134151   5.406   2.933   6.038  0.0249  1.4883 -1.3902
 4196TIP3    H234152   5.257   2.905   6.045  0.2425 -0.0583 -2.4286
 4197TIP3   OH234153   0.461   0.108   7.135 -0.1469  0.4047 -0.3818
 4197TIP3    H134154   0.484   0.062   7.216 -0.1215 -0.2130 -0.7268
 4197TIP3    H234155   0.535   0.165   7.117 -0.0020  0.2894 -0.1530
 4198TIP3   OH234156   3.262   4.856   7.707  0.1088  0.1081  0.0190
 4198TIP3    H134157   3.351   4.889   7.723  1.2949 -2.7119 -0.1081
 4198TIP3    H234158   3.267   4.818   7.619 -1.7082  1.1589 -0.6022
 4199TIP3   OH234159   3.557   3.202   0.673 -0.2004 -0.2090  0.4148
 4199TIP3    H134160   3.649   3.227   0.664  0.0945 -1.7242 -1.2312
 4199TIP3    H234161   3.520   3.268   0.732  2.0003  0.2475  1.3676
 4200TIP3   OH234162   6.654   0.659   0.322  0.5734  0.2933  0.8907
 4200TIP3    H134163   6.725   0.715   0.292  1.4576 -1.2396 -0.0129
 4200TIP3    H234164   6.664   0.578   0.271 -1.6815 -0.0605  0.9047
 4201TIP3   OH234165   1.904   0.023   7.638  0.4541  0.1436  0.0222
 4201TIP3    H134166   1.858   0.107   7.644  1.2255  0.5788 -0.0536
 4201TIP3    H234167   1.941   0.023   7.550  2.0190  0.5557  0.6548
 4202TIP3   OH234168   3.048   2.158   1.683 -0.2205  0.0529 -0.0973
 4202TIP3    H134169   3.017   2.217   1.752  0.5212  0.5839 -0.2001
 4202TIP3    H234170   3.124   2.203   1.646 -0.7556 -0.0896 -1.4461
 4203TIP3   OH234171   5.805   5.061   7.366  0.0897 -0.2361  0.1503
 4203TIP3    H134172   5.835   5.113   7.292 -0.9868  0.9725  0.5199
 4203TIP3    H234173   5.709   5.061   7.358  0.0339 -1.9321  0.3407
 4204TIP3   OH234174   3.056   2.516   6.965 -0.0979 -0.2194  0.7693
 4204TIP3    H134175   3.104   2.555   7.038  2.8213 -1.9196 -0.0907
 4204TIP3    H234176   3.032   2.429   6.995 -1.2284 -0.0017  0.5596
 4205TIP3   OH234177   0.811   5.547   0.238 -0.0683  0.2017  0.1088
 4205TIP3    H134178   0.843   5.607   0.305 -0.1590  0.2447  0.1145
 4205TIP3    H234179   0.718   5.537   0.259 -0.2420  0.7160 -0.3922
 4206TIP3   OH234180   2.876   1.641   6.517  0.0742  0.1844  0.2173
 4206TIP3    H134181   2.811   1.704   6.546  0.8797  0.7150  0.9328
 4206TIP3    H234182   2.935   1.690   6.460 -0.2237 -0.3219 -0.5396
 4207TIP3   OH234183   6.095   3.753   1.017  0.6502 -0.0717 -0.1459
 4207TIP3    H134184   6.085   3.658   1.025  2.3013 -0.1676  1.5753
 4207TIP3    H234185   6.189   3.768   1.030  0.5594  1.7431 -1.2360
 4208TIP3   OH234186   4.030   2.217   7.799  0.1741 -0.0564  0.0669
 4208TIP3    H134187   4.089   2.203   7.725  0.3330  0.6007  0.0623
 4208TIP3    H234188   4.001   2.129   7.823  1.3010 -0.4124  0.1934
 4209TIP3   OH234189   2.300   2.815   0.849 -0.3456  0.0476  0.0887
 4209TIP3    H134190   2.315   2.901   0.810 -1.2387  1.2596  2.2720
 4209TIP3    H234191   2.367   2.807   0.917 -1.8313  0.1761  1.6310
 4210TIP3   OH234192   3.653   1.583   2.077  0.0963  0.0052  0.2837
 4210TIP3    H134193   3.691   1.504   2.117 -1.2210 -1.6910 -1.6517
 4210TIP3    H234194   3.729   1.638   2.058  1.0814 -0.9004  1.3944
 4211TIP3   OH234195   3.976   1.103   1.630 -0.4840  0.3552 -0.2126
 4211TIP3    H134196   3.980   1.123   1.723 -0.7784 -1.0307  0.1200
 4211TIP3    H234197   4.067   1.100   1.602 -0.4069  1.5444 -0.1776
 4212TIP3   OH234198   1.878   1.389   8.230 -0.4632 -0.6588 -0.6100
 4212TIP3    H134199   1.794   1.356   8.260 -1.3324  1.5299 -0.4780
 4212TIP3    H234200   1.936   1.381   8.305 -0.8204 -1.2448 -0.3922
 4213TIP3   OH234201   6.933   6.467   0.104  0.6815  0.0372  0.1274
 4213TIP3    H134202   7.014   6.457   0.054 -0.2656  0.9317 -1.7112
 4213TIP3    H234203   6.884   6.387   0.087 -0.9161  1.5146 -3.0030
 4214TIP3   OH234204   2.345   0.334   8.157 -0.1641  0.2450 -0.4907
 4214TIP3    H134205   2.420   0.377   8.116  0.0025  0.0000 -0.4445
 4214TIP3    H234206   2.365   0.335   8.251 -0.0287 -0.1802 -0.5128
 4215TIP3   OH234207   1.189   5.989   6.365  0.7509 -0.5086  0.1909
 4215TIP3    H134208   1.198   5.908   6.414 -1.7901 -1.8442 -1.3425
 4215TIP3    H234209   1.263   5.989   6.304 -0.4536 -2.9887 -1.4232
 4216TIP3   OH234210   5.865   1.140   0.393  0.4930  0.1096  0.5971
 4216TIP3    H134211   5.804   1.208   0.421 -1.8097 -2.3385  1.8822
 4216TIP3    H234212   5.842   1.063   0.445  1.0664 -2.5317 -2.6990
 4217TIP3   OH234213   0.027   3.776   6.902  0.0385 -0.2948  0.2599
 4217TIP3    H134214  -0.040   3.708   6.908 -0.1040 -0.2186 -0.4074
 4217TIP3    H234215  -0.022   3.858   6.911  0.3173 -0.2752  2.0188
 4218TIP3   OH234216   0.927   4.698   8.159  0.5205 -0.1974  0.0377
 4218TIP3    H134217   0.911   4.748   8.079  1.0244 -0.6602 -0.3617
 4218TIP3    H234218   0.890   4.752   8.229  2.5090  1.5661 -0.1646
 4219TIP3   OH234219   6.529   1.538   7.988 -0.4845  0.5054 -0.6061
 4219TIP3    H134220   6.519   1.612   7.927 -0.0374  0.6369 -0.5169
 4219TIP3    H234221   6.443   1.530   8.029 -0.1011  2.0101  0.5751
 4220TIP3   OH234222   3.582   3.564   6.721  0.8241  0.1991 -0.0709
 4220TIP3    H134223   3.486   3.557   6.716  0.7670  0.6193  0.3935
 4220TIP3    H234224   3.598   3.627   6.791  1.4197  1.2148 -1.0915
 4221TIP3   OH234225   2.182   4.934   7.968 -0.0387 -0.0990 -0.3761
 4221TIP3    H134226   2.139   5.003   8.019  1.2380  0.1148  0.4649
 4221TIP3    H234227   2.177   4.964   7.878 -0.3820  0.6075 -0.1315
 4222TIP3   OH234228   0.561   5.811   6.351  0.3071 -0.4934 -0.0442
 4222TIP3    H134229   0.489   5.860   6.313 -0.9068 -2.1984 -0.0865
 4222TIP3    H234230   0.587   5.750   6.282  3.3145  1.4819 -0.8285
 4223TIP3   OH234231   2.265   2.954   7.283 -0.2438 -0.5562  0.2166
 4223TIP3    H134232   2.325   2.925   7.353 -1.0237 -0.4756  0.9399
 4223TIP3    H234233   2.205   3.014   7.327  0.5466  1.1902 -0.9898
 4224TIP3   OH234234   3.027   1.292   2.027 -0.1448  0.2158  0.2201
 4224TIP3    H134235   3.088   1.233   2.071  1.0487  0.8583 -0.4985
 4224TIP3    H234236   3.083   1.347   1.972 -1.4008  0.7631 -0.5534
 4225TIP3   OH234237   3.900   6.154   1.275 -0.1673 -0.1094 -0.2512
 4225TIP3    H134238   3.889   6.193   1.362 -0.2640  0.0655 -0.3414
 4225TIP3    H234239   3.900   6.229   1.215 -0.5931 -0.2680 -0.4463
 4226TIP3   OH234240   2.639   0.175   6.251 -0.6608  0.3315 -0.0300
 4226TIP3    H134241   2.730   0.149   6.266 -0.3350  1.5439  0.1469
 4226TIP3    H234242   2.639   0.217   6.165 -0.7166  1.8565  0.6940
 4227TIP3   OH234243   4.424   5.893   7.492  0.6074 -0.5778 -0.1451
 4227TIP3    H134244   4.498   5.831   7.489  2.3778  1.4537 -1.8620
 4227TIP3    H234245   4.360   5.856   7.432  1.0117 -1.4674 -0.0514
 4228TIP3   OH234246   3.527   3.703   1.716 -0.1079 -0.3461  0.6694
 4228TIP3    H134247   3.571   3.788   1.727  0.9797 -0.7468 -0.4853
 4228TIP3    H234248   3.505   3.677   1.806  2.2201 -0.2350  1.3423
 4229TIP3   OH234249   4.543   3.833   0.741  0.2392  0.9842  0.1307
 4229TIP3    H134250   4.555   3.755   0.794  1.7714 -0.3684 -2.0394
 4229TIP3    H234251   4.623   3.839   0.689  0.1449  3.9852  0.1633
 4230TIP3   OH234252   2.249   1.477   0.200  0.1013  0.1321  0.3847
 4230TIP3    H134253   2.302   1.460   0.122  1.8562  0.1148  1.5393
 4230TIP3    H234254   2.273   1.566   0.226  1.3755 -0.7102  2.2552
 4231TIP3   OH234255   1.111   0.214   0.882 -0.6874  0.2315 -0.0474
 4231TIP3    H134256   1.117   0.310   0.878  0.4167  0.1800  0.0801
 4231TIP3    H234257   1.143   0.192   0.970 -1.0935 -0.2554 -0.0159
 4232TIP3   OH234258   6.723   1.897   0.780 -0.0111  0.1334  0.3397
 4232TIP3    H134259   6.754   1.979   0.742  0.3594  0.6410  1.6983
 4232TIP3    H234260   6.627   1.906   0.781 -0.5166 -1.6137 -4.2573
 4233TIP3   OH234261   6.211   2.527   1.131 -0.1194 -0.0970 -0.1514
 4233TIP3    H134262   6.225   2.468   1.057  1.9595  0.4221 -0.2397
 4233TIP3    H234263   6.192   2.612   1.091 -0.2859 -0.0922 -0.0639
 4234TIP3   OH234264   5.669   0.872   1.818 -0.0002  0.2620 -0.3363
 4234TIP3    H134265   5.755   0.838   1.843 -0.2622 -0.5666 -0.5302
 4234TIP3    H234266   5.687   0.931   1.744  0.4460  0.4228 -0.1014
 4235TIP3   OH234267   6.849   1.209   8.158 -0.4661  0.0501  0.2624
 4235TIP3    H134268   6.868   1.293   8.201 -2.0665  0.8049 -0.4365
 4235TIP3    H234269   6.764   1.222   8.116 -0.7993 -1.9719  0.2163
 4236TIP3   OH234270   0.325   4.452   1.610  0.6172  0.0530 -0.2824
 4236TIP3    H134271   0.367   4.537   1.594 -0.1111  0.7820  1.4433
 4236TIP3    H234272   0.288   4.460   1.698  1.0266 -2.2750  0.1515
 4237TIP3   OH234273   6.673   4.175   1.267 -0.7100  0.0216  0.1773
 4237TIP3    H134274   6.679   4.191   1.361 -1.1481 -0.4800  0.2995
 4237TIP3    H234275   6.720   4.093   1.253  0.4844  0.7597 -0.2507
 4238TIP3   OH234276   3.006   3.183   1.592 -1.0695 -0.0396  0.1409
 4238TIP3    H134277   3.073   3.188   1.524 -0.7125  1.0011  0.5369
 4238TIP3    H234278   3.055   3.187   1.675 -1.4885 -1.3823  0.4762
 4239TIP3   OH234279   4.090   0.407   1.420  0.2045  0.2137  0.7131
 4239TIP3    H134280   4.071   0.459   1.342  2.7445  0.8103  0.3909
 4239TIP3    H234281   4.043   0.325   1.406  0.2430  0.4728 -1.2511
 4240TIP3   OH234282   1.074   6.664   6.384  0.1276  0.1537 -0.1672
 4240TIP3    H134283   1.017   6.597   6.345 -0.2121  0.6506 -0.5390
 4240TIP3    H234284   1.025   6.696   6.460  0.6931 -0.6582  0.5566
 4241TIP3   OH234285   0.494   4.284   1.414  0.3617  0.0563  0.0554
 4241TIP3    H134286   0.577   4.330   1.424  0.9753 -1.2775  1.5688
 4241TIP3    H234287   0.445   4.336   1.350  2.0175  1.3283 -0.2462
 4242TIP3   OH234288   2.437   0.162   7.324  0.2831 -0.1207 -0.8241
 4242TIP3    H134289   2.394   0.102   7.384 -0.5352 -0.7777 -2.0282
 4242TIP3    H234290   2.420   0.125   7.237 -0.5815  2.0598 -1.6345
 4243TIP3   OH234291   4.673   0.560   1.536  0.3806  0.1809 -0.0084
 4243TIP3    H134292   4.592   0.510   1.524  0.8907 -0.7154  0.1986
 4243TIP3    H234293   4.645   0.651   1.537 -0.9068 -0.1729  2.1398
 4244TIP3   OH234294   3.564   6.221   6.942  0.0152 -0.3898  0.4814
 4244TIP3    H134295   3.559   6.314   6.962 -2.4675 -0.2311 -0.5356
 4244TIP3    H234296   3.657   6.199   6.953  0.5176  1.9777  1.5734
 4245TIP3   OH234297   5.281   0.876   6.522  0.4104  0.0601 -0.0146
 4245TIP3    H134298   5.254   0.946   6.462  0.4790  1.2776  1.3271
 4245TIP3    H234299   5.336   0.919   6.587  1.0733 -1.3903  0.4333
 4246TIP3   OH234300   0.901   1.781   7.211 -0.0635 -0.0266 -0.3037
 4246TIP3    H134301   0.842   1.727   7.159 -0.2685  0.4280 -0.5426
 4246TIP3    H234302   0.985   1.736   7.206  0.3096  0.7790 -2.2672
 4247TIP3   OH234303   6.291   4.521   6.433 -0.0819  0.5024  0.0403
 4247TIP3    H134304   6.319   4.527   6.341  0.8742  0.2434  0.3013
 4247TIP3    H234305   6.240   4.440   6.436  1.7891 -0.7491  0.1735
 4248TIP3   OH234306   6.985   6.350   1.161 -0.3824 -0.5955  0.4565
 4248TIP3    H134307   7.031   6.421   1.116  0.4269 -0.9534  0.7093
 4248TIP3    H234308   7.054   6.298   1.202 -1.0954 -0.2658  2.1632
 4249TIP3   OH234309   2.752   5.902   7.254  0.0570 -0.1992  0.7109
 4249TIP3    H134310   2.808   5.975   7.229  1.0919 -1.6392 -1.5115
 4249TIP3    H234311   2.787   5.872   7.338  0.8531  0.6446  0.6902
 4250TIP3   OH234312   3.876   4.878   1.958  0.2035 -0.2459 -0.0868
 4250TIP3    H134313   3.786   4.848   1.976  0.3328  0.1786  1.4515
 4250TIP3    H234314   3.877   4.896   1.864 -1.0788 -1.0465 -0.2882
 4251TIP3   OH234315   6.133   1.795   0.672 -0.5447  0.7327 -0.4568
 4251TIP3    H134316   6.067   1.805   0.741 -0.5366  2.4801 -0.6543
 4251TIP3    H234317   6.194   1.731   0.707 -0.0163  2.2540  1.6340
 4252TIP3   OH234318   0.242   6.589   0.360  0.0698 -0.3267 -0.7375
 4252TIP3    H134319   0.161   6.539   0.351  0.0015  0.0904 -2.8831
 4252TIP3    H234320   0.214   6.677   0.382 -0.0777 -0.2186 -1.3292
 4253TIP3   OH234321   2.086   6.531   0.266  0.3985  0.4654 -0.7836
 4253TIP3    H134322   2.049   6.521   0.178 -0.1619 -0.6944 -0.4432
 4253TIP3    H234323   2.125   6.446   0.284 -2.4264 -0.5389  1.3881
 4254TIP3   OH234324   3.251   2.591   7.294  0.7008 -0.7711 -0.0266
 4254TIP3    H134325   3.267   2.542   7.375 -1.8300  0.3218  1.2427
 4254TIP3    H234326   3.286   2.678   7.312  1.5652 -0.9508 -0.7558
 4255TIP3   OH234327   5.116   0.313   7.472 -0.5992 -0.3248 -0.6023
 4255TIP3    H134328   5.163   0.288   7.551  0.6296  4.6547  0.5919
 4255TIP3    H234329   5.024   0.314   7.497 -0.1306  2.7900  1.5558
 4256TIP3   OH234330   5.533   6.142   6.772  0.0591  0.0801  0.4658
 4256TIP3    H134331   5.554   6.186   6.689  0.9418 -0.6346  0.2878
 4256TIP3    H234332   5.524   6.213   6.835  3.6329  0.5465  0.6812
 4257TIP3   OH234333   6.370   2.697   0.847 -0.2814 -0.3235 -0.3669
 4257TIP3    H134334   6.403   2.754   0.778  0.3669  1.3995  1.3041
 4257TIP3    H234335   6.441   2.635   0.864  1.6104  2.2703  1.9942
 4258TIP3   OH234336   5.251   6.705   8.254 -0.2765 -0.7781  0.0767
 4258TIP3    H134337   5.275   6.744   8.170  2.1177  0.8255  1.3818
 4258TIP3    H234338   5.241   6.612   8.236 -2.6389 -0.1571 -2.4770
 4259TIP3   OH234339   6.991   3.131   6.970 -0.1358  0.0161 -0.3008
 4259TIP3    H134340   7.058   3.069   6.941  1.2011  1.2978 -0.1036
 4259TIP3    H234341   6.937   3.082   7.031  1.2448 -0.8120  0.3079
 4260TIP3   OH234342   3.413   4.498   0.740 -0.1081  0.3146  0.2622
 4260TIP3    H134343   3.397   4.583   0.782  0.6863  0.3692  0.4824
 4260TIP3    H234344   3.396   4.514   0.647 -0.6866  0.5187  0.4013
 4261TIP3   OH234345   4.826   3.119   7.221 -0.1010 -1.0900  0.2568
 4261TIP3    H134346   4.801   3.029   7.238 -0.7816 -0.8713  0.4499
 4261TIP3    H234347   4.834   3.159   7.308  1.3965 -1.2620  0.2310
 4262TIP3   OH234348   3.295   0.472   0.390  0.2430 -0.0560  0.3315
 4262TIP3    H134349   3.199   0.476   0.396  0.2462  0.2291  0.2239
 4262TIP3    H234350   3.326   0.529   0.461  0.3679 -1.7456  1.6811
 4263TIP3   OH234351   4.802   2.381   1.452 -0.5361 -0.0722  0.0265
 4263TIP3    H134352   4.804   2.368   1.547  2.6806  0.2874  0.1077
 4263TIP3    H234353   4.836   2.299   1.416  0.2530  0.5420 -0.6657
 4264TIP3   OH234354   3.427   1.999   6.014 -0.0525 -0.5219  0.8495
 4264TIP3    H134355   3.482   2.028   6.087 -0.8299 -1.7644  1.9796
 4264TIP3    H234356   3.483   1.940   5.964 -0.0006 -0.9296  1.3757
 4265TIP3   OH234357   2.992   0.854   6.460  0.0908  0.9037 -0.5999
 4265TIP3    H134358   2.991   0.949   6.461  0.8493  0.9153 -0.5214
 4265TIP3    H234359   3.022   0.829   6.548  1.0274  0.6226 -0.9895
 4266TIP3   OH234360   4.357   0.551   1.230 -0.1232 -0.7006  0.6524
 4266TIP3    H134361   4.280   0.607   1.237  0.3696 -0.1637  2.2196
 4266TIP3    H234362   4.369   0.516   1.318  0.6832 -1.7985  0.1268
 4267TIP3   OH234363   1.027   6.908   6.195  0.8475  0.6328 -0.0911
 4267TIP3    H134364   1.035   6.816   6.223  1.6548  0.5770 -0.4888
 4267TIP3    H234365   1.091   6.955   6.248 -1.7120  1.5666  2.4862
 4268TIP3   OH234366   2.437   0.845   7.143 -0.6525 -0.3691  0.3733
 4268TIP3    H134367   2.458   0.796   7.063 -0.9208  1.3298 -0.8041
 4268TIP3    H234368   2.515   0.837   7.197  0.2062 -0.2214 -0.7854
 4269TIP3   OH234369   3.203   2.565   8.077  0.4475 -0.4272  0.0817
 4269TIP3    H134370   3.127   2.530   8.125  1.1965 -1.0918  0.8184
 4269TIP3    H234371   3.264   2.491   8.073  1.7618  0.5883  0.9868
 4270TIP3   OH234372   6.521   4.607   2.015  0.1653  0.1424  0.6297
 4270TIP3    H134373   6.596   4.641   2.064  0.8650 -0.3055 -0.1065
 4270TIP3    H234374   6.480   4.684   1.977 -0.1902  0.4642  1.6348
 4271TIP3   OH234375   0.732   4.151   6.996 -0.0113 -0.3346 -0.1184
 4271TIP3    H134376   0.826   4.135   7.002 -0.0546 -1.4541 -1.7419
 4271TIP3    H234377   0.710   4.195   7.078  1.4629 -2.2789  1.4026
 4272TIP3   OH234378   6.025   5.998   2.269  0.0257  0.4583 -0.2624
 4272TIP3    H134379   5.953   6.044   2.313 -1.4801  0.1380 -2.2516
 4272TIP3    H234380   6.050   5.928   2.329 -0.3748  1.4177  1.0533
 4273TIP3   OH234381   5.162   5.011   6.823  0.2407 -0.5030  0.0015
 4273TIP3    H134382   5.073   5.046   6.817  0.3550  0.0298  1.1377
 4273TIP3    H234383   5.168   4.948   6.752 -1.1820 -0.8396  0.1530
 4274TIP3   OH234384   0.539   2.742   8.317 -0.1083 -0.2155  0.2664
 4274TIP3    H134385   0.514   2.658   8.355  0.1491  0.0299  0.9943
 4274TIP3    H234386   0.472   2.760   8.252  1.5585 -2.5649 -2.3282
 4275TIP3   OH234387   6.825   2.838   8.251  0.4237 -0.0091 -0.0944
 4275TIP3    H134388   6.735   2.814   8.229 -0.2029  1.3870  0.8297
 4275TIP3    H234389   6.834   2.929   8.223  0.9559  0.4383  1.4393
 4276TIP3   OH234390   6.626   4.806   8.274 -0.4021  0.2473  0.6091
 4276TIP3    H134391   6.639   4.734   8.212 -0.0171  0.6206  0.2520
 4276TIP3    H234392   6.543   4.786   8.317  0.6519 -1.4940  1.9721
 4277TIP3   OH234393   7.004   5.301   2.379 -0.0991 -0.0766  0.0707
 4277TIP3    H134394   7.026   5.388   2.413  1.0530 -0.6863  0.9920
 4277TIP3    H234395   7.000   5.312   2.284 -0.1012  1.0054  0.1821
 4278TIP3   OH234396   3.553   3.973   6.727 -0.1944  0.3730 -0.0676
 4278TIP3    H134397   3.519   4.059   6.751  0.8178  0.9418 -0.5753
 4278TIP3    H234398   3.578   3.983   6.635 -0.3614 -0.5615 -0.2158
 4279TIP3   OH234399   1.053   6.555   1.558 -0.1766  0.2504 -0.2456
 4279TIP3    H134400   1.048   6.536   1.652  0.7696  0.6677 -0.1044
 4279TIP3    H234401   1.012   6.479   1.517 -2.0889  0.7953  0.5458
 4280TIP3   OH234402   6.373   2.553   1.775  0.0108 -0.1926  0.6209
 4280TIP3    H134403   6.325   2.481   1.816 -0.3853  0.8358  2.0223
 4280TIP3    H234404   6.430   2.587   1.844  0.0453  0.9723  0.0408
 4281TIP3   OH234405   2.266   2.514   7.808  0.2532  0.3127  0.4051
 4281TIP3    H134406   2.209   2.541   7.880  1.2804  2.6583  0.4281
 4281TIP3    H234407   2.207   2.472   7.745 -0.7699 -1.1846  2.2679
 4282TIP3   OH234408   4.649   2.605   0.573  0.2288  0.5240 -0.2339
 4282TIP3    H134409   4.606   2.690   0.574  2.1040  1.5214  1.0967
 4282TIP3    H234410   4.734   2.622   0.532  0.2129 -0.9562 -0.9377
 4283TIP3   OH234411   0.853   6.365   1.485 -0.1441 -0.9727  0.2684
 4283TIP3    H134412   0.905   6.287   1.466  0.5960 -0.2376 -0.8350
 4283TIP3    H234413   0.765   6.331   1.503  0.5534 -2.1901  1.6369
 4284TIP3   OH234414   6.220   6.230   1.986  0.0263  0.3249 -0.0894
 4284TIP3    H134415   6.306   6.237   1.943 -0.2813  3.1119 -0.4560
 4284TIP3    H234416   6.171   6.305   1.952 -1.6372  0.3327  2.1537
 4285TIP3   OH234417   3.071   3.685   1.867  0.0104 -0.2270  0.3968
 4285TIP3    H134418   3.031   3.759   1.914  2.1293  2.2839 -1.4491
 4285TIP3    H234419   3.102   3.626   1.935  0.9243  2.1123  2.1142
 4286TIP3   OH234420   0.634   2.884   0.798  0.3990 -0.4278 -0.4232
 4286TIP3    H134421   0.702   2.944   0.828 -1.1781  0.8090  0.9225
 4286TIP3    H234422   0.657   2.865   0.707  0.9471  2.3547 -0.9841
 4287TIP3   OH234423   0.629   4.803   1.385 -0.2368 -0.1214  0.1408
 4287TIP3    H134424   0.711   4.753   1.386 -0.5228 -0.6290 -0.6404
 4287TIP3    H234425   0.649   4.880   1.331  1.2008  2.4705  3.9249
 4288TIP3   OH234426   0.095   4.410   8.129 -0.3748 -0.3601 -0.0719
 4288TIP3    H134427   0.150   4.421   8.052  1.0995  1.1159  1.1127
 4288TIP3    H234428   0.125   4.328   8.169  0.1714 -0.1664 -0.0772
 4289TIP3   OH234429   3.576   4.442   0.964  0.2836  0.5271  0.3152
 4289TIP3    H134430   3.513   4.451   0.893 -0.8463 -0.9676  1.0817
 4289TIP3    H234431   3.626   4.363   0.943 -1.7737 -1.4425  2.3764
 4290TIP3   OH234432   2.867   1.140   0.647 -0.1101  0.5230 -0.2937
 4290TIP3    H134433   2.819   1.057   0.650 -2.2889  1.7121  0.1203
 4290TIP3    H234434   2.834   1.184   0.569  0.6512  1.2200 -0.2342
 4291TIP3   OH234435   0.352   4.221   0.718  0.0736 -0.6301  0.2582
 4291TIP3    H134436   0.281   4.224   0.782 -0.6760  2.4142 -0.5497
 4291TIP3    H234437   0.431   4.240   0.769 -0.4407  1.1771  0.4763
 4292TIP3   OH234438   1.289   2.241   0.237 -0.1525  0.5932 -0.5801
 4292TIP3    H134439   1.282   2.336   0.240  3.0268  0.9046  1.1344
 4292TIP3    H234440   1.333   2.223   0.154 -1.5061  0.4850 -1.3032
 4293TIP3   OH234441   3.421   0.703   6.600  0.1049 -0.2840  0.2897
 4293TIP3    H134442   3.434   0.767   6.671 -0.0939 -0.6848  0.6907
 4293TIP3    H234443   3.421   0.756   6.520  1.1791  0.0859  0.5120
 4294TIP3   OH234444   3.482   2.486   1.596 -0.1117  0.2603 -0.1513
 4294TIP3    H134445   3.541   2.519   1.664  0.6457  1.1549 -1.2149
 4294TIP3    H234446   3.528   2.502   1.514 -0.5583 -1.7209 -0.8542
 4295TIP3   OH234447   1.344   0.938   1.840 -0.0423 -0.0190 -0.2348
 4295TIP3    H134448   1.378   0.985   1.916 -2.3949  0.3790  0.6602
 4295TIP3    H234449   1.382   0.850   1.847  0.5170  0.2891  0.8737
 4296TIP3   OH234450   6.146   1.447   0.150  0.5776 -0.0853  0.1593
 4296TIP3    H134451   6.234   1.483   0.152  1.1736 -1.4493  2.6620
 4296TIP3    H234452   6.089   1.520   0.172  1.0944  0.6653 -0.8813
 4297TIP3   OH234453   4.239   4.405   8.226 -0.0844  0.2221 -0.2332
 4297TIP3    H134454   4.245   4.378   8.317 -0.2147  0.4308 -0.1619
 4297TIP3    H234455   4.158   4.365   8.194  0.8476 -1.3172 -0.7617
 4298TIP3   OH234456   0.546   2.308   1.341 -0.4997 -0.1569 -0.3478
 4298TIP3    H134457   0.608   2.321   1.413 -0.4698 -0.2719 -0.3523
 4298TIP3    H234458   0.601   2.283   1.267 -0.3585  1.5622 -0.8598
 4299TIP3   OH234459   0.538   4.667   7.886  0.4760 -0.9044 -0.3484
 4299TIP3    H134460   0.497   4.723   7.820 -0.6035  0.9097  1.7234
 4299TIP3    H234461   0.629   4.659   7.858  0.4900  1.3249 -1.1442
 4300TIP3   OH234462   0.032   6.375   7.919 -0.1123 -0.0371  0.2926
 4300TIP3    H134463  -0.034   6.433   7.957 -0.5110  2.4553 -3.5921
 4300TIP3    H234464  -0.012   6.291   7.909 -1.0380  0.1918  2.0424
 4301TIP3   OH234465   5.770   0.116   2.025 -0.0587  0.2100 -0.0435
 4301TIP3    H134466   5.856   0.074   2.022 -0.3305 -0.3174 -0.7803
 4301TIP3    H234467   5.789   0.208   2.044  0.6556  0.0630 -0.0184
 4302TIP3   OH234468   3.584   2.682   0.097 -0.1633 -0.8434  0.1472
 4302TIP3    H134469   3.489   2.678   0.089 -0.1238 -0.8347 -0.3506
 4302TIP3    H234470   3.616   2.603   0.053  0.1336  0.0022 -1.2201
 4303TIP3   OH234471   6.967   4.832   7.095 -0.0824  0.1372 -0.2862
 4303TIP3    H134472   6.993   4.744   7.122  2.0783  0.5621 -0.8337
 4303TIP3    H234473   6.872   4.833   7.107  0.0171 -1.7782  1.0905
 4304TIP3   OH234474   3.517   2.322   6.508  0.5706  0.1907 -0.0154
 4304TIP3    H134475   3.611   2.313   6.500  0.3579 -1.2906 -1.1924
 4304TIP3    H234476   3.487   2.240   6.546 -0.1127  1.2931  2.0004
 4305TIP3   OH234477   1.659   2.109   0.684  0.2644 -0.0230 -0.0556
 4305TIP3    H134478   1.668   2.172   0.755  0.4306 -1.7006  1.4987
 4305TIP3    H234479   1.576   2.064   0.702  0.3952 -0.6014 -0.8360
 4306TIP3   OH234480   4.762   0.406   1.202 -0.8007  0.1917  0.0489
 4306TIP3    H134481   4.706   0.472   1.162 -2.1556 -1.1263 -0.3402
 4306TIP3    H234482   4.813   0.370   1.129 -2.3618 -1.3342 -0.3695
 4307TIP3   OH234483   4.551   5.950   8.088 -0.2636 -0.4805 -0.1623
 4307TIP3    H134484   4.627   5.964   8.145 -0.4240  0.0468 -0.0817
 4307TIP3    H234485   4.476   5.950   8.147 -0.5048  0.7909 -0.4444
 4308TIP3   OH234486   1.666   0.176   7.429  0.5336  0.0298  0.1794
 4308TIP3    H134487   1.656   0.257   7.479 -0.7296  0.4007 -0.6331
 4308TIP3    H234488   1.739   0.194   7.370  0.7838  0.2855  0.5623
 4309TIP3   OH234489   6.325   1.650   0.451  0.0961  0.0092 -0.0592
 4309TIP3    H134490   6.354   1.658   0.542  1.2219 -0.0993 -0.3898
 4309TIP3    H234491   6.231   1.637   0.456 -0.0595  1.3616  1.0426
 4310TIP3   OH234492   6.407   1.378   0.377 -0.1487 -0.2242  0.5899
 4310TIP3    H134493   6.391   1.472   0.390  0.2932 -0.0436 -0.0996
 4310TIP3    H234494   6.416   1.368   0.282 -0.0531 -0.9469  0.6673
 4311TIP3   OH234495   4.879   2.130   7.816 -0.4979 -0.3018  0.1604
 4311TIP3    H134496   4.899   2.113   7.908 -0.8490 -0.5192  0.1978
 4311TIP3    H234497   4.805   2.190   7.819  0.7301  1.2787  0.0314
 4312TIP3   OH234498   0.557   6.885   1.336  0.5198 -0.0639 -0.0321
 4312TIP3    H134499   0.593   6.826   1.270  0.8355 -0.5754  0.5868
 4312TIP3    H234500   0.558   6.971   1.295  1.8653 -0.1664 -0.2665
 4313TIP3   OH234501   0.933   4.033   7.745  0.1893  0.0548  0.5210
 4313TIP3    H134502   0.884   4.020   7.664  0.3685  1.4640  0.1657
 4313TIP3    H234503   0.899   3.965   7.804 -0.6076 -0.3962 -0.4198
 4314TIP3   OH234504   6.697   0.679   1.151 -0.0599  0.5672  0.5903
 4314TIP3    H134505   6.642   0.635   1.215 -1.0841  2.2056  0.9053
 4314TIP3    H234506   6.676   0.637   1.068  0.7943 -1.1282  1.1875
 4315TIP3   OH234507   0.355   4.430   7.341 -0.2789 -0.3242  0.0679
 4315TIP3    H134508   0.376   4.507   7.393 -0.4455 -0.4881  0.3826
 4315TIP3    H234509   0.262   4.416   7.355  0.0843 -1.6234  1.4518
 4316TIP3   OH234510   4.247   3.853   7.597  0.1063 -0.2708 -0.1139
 4316TIP3    H134511   4.263   3.800   7.519  0.7141 -0.6805  0.2735
 4316TIP3    H234512   4.328   3.900   7.612 -0.7919  1.7083 -1.1094
 4317TIP3   OH234513   4.088   1.891   6.615  0.5367  0.4450  0.5336
 4317TIP3    H134514   4.061   1.982   6.602 -1.1659 -0.0757  0.2190
 4317TIP3    H234515   4.155   1.876   6.549 -1.5137  0.5446 -1.7158
 4318TIP3   OH234516   1.493   1.251   7.557  0.2826  0.0047  0.3805
 4318TIP3    H134517   1.434   1.308   7.509 -1.2045 -0.8578  1.0937
 4318TIP3    H234518   1.581   1.281   7.535 -0.4002  0.7545 -1.4211
 4319TIP3   OH234519   5.626   1.460   7.180  0.3471 -0.4987  0.0291
 4319TIP3    H134520   5.623   1.385   7.121 -0.6673  0.2765 -0.9390
 4319TIP3    H234521   5.591   1.427   7.263  0.0737 -1.1281 -0.3318
 4320TIP3   OH234522   3.738   4.841   0.965  0.2786  0.3376 -0.2435
 4320TIP3    H134523   3.688   4.849   1.047 -0.4001  0.0536 -0.6230
 4320TIP3    H234524   3.678   4.873   0.898 -0.2729 -2.1300 -1.0165
 4321TIP3   OH234525   1.985   5.643   0.615  0.6625 -0.1481  0.0554
 4321TIP3    H134526   2.054   5.659   0.550  1.8477 -0.4911  1.1924
 4321TIP3    H234527   2.024   5.668   0.698 -0.3321 -1.0593  0.8245
 4322TIP3   OH234528   5.699   4.518   0.428 -0.1671  0.1199 -0.0066
 4322TIP3    H134529   5.771   4.580   0.426  0.4686 -0.6014  0.0069
 4322TIP3    H234530   5.643   4.543   0.355 -0.0648  0.8722  0.1716
 4323TIP3   OH234531   0.201   1.593   7.154 -0.3685 -0.9592 -0.2832
 4323TIP3    H134532   0.118   1.546   7.157 -0.9032 -0.0083  0.8607
 4323TIP3    H234533   0.253   1.556   7.226 -0.4009 -0.5243 -0.0292
 4324TIP3   OH234534   2.545   4.104   0.603 -0.9585  0.1210 -0.4964
 4324TIP3    H134535   2.549   4.140   0.514 -0.1941  0.2991 -0.4001
 4324TIP3    H234536   2.490   4.166   0.651 -1.9189 -0.3231 -0.9896
 4325TIP3   OH234537   3.471   4.245   1.255 -0.3094 -0.5641  0.7751
 4325TIP3    H134538   3.520   4.318   1.217 -1.5129  1.2843  2.5670
 4325TIP3    H234539   3.538   4.181   1.280  0.7883 -0.0290 -0.6969
 4326TIP3   OH234540   4.804   3.948   6.690 -0.2114  0.7162  0.5665
 4326TIP3    H134541   4.795   3.893   6.612  1.4196 -3.6263  3.1019
 4326TIP3    H234542   4.873   4.011   6.668 -0.2004  0.0094 -1.6356
 4327TIP3   OH234543   1.553   0.834   0.498  0.7051 -0.0584 -0.2198
 4327TIP3    H134544   1.529   0.875   0.415 -0.5047 -0.6525 -0.1956
 4327TIP3    H234545   1.476   0.847   0.554  1.0998 -0.5614  0.4552
 4328TIP3   OH234546   0.540   3.641   0.794  0.5497 -0.2483 -0.2600
 4328TIP3    H134547   0.475   3.579   0.760  0.2974 -1.0064  1.4650
 4328TIP3    H234548   0.620   3.618   0.748 -0.6764  2.0280 -3.9539
 4329TIP3   OH234549   0.527   6.124   0.128  0.1791 -0.1154 -0.5176
 4329TIP3    H134550   0.600   6.177   0.097  0.6579 -0.7703 -0.5329
 4329TIP3    H234551   0.534   6.126   0.223  0.3289 -0.3286 -0.5235
 4330TIP3   OH234552   4.202   1.632   7.779 -0.4444  0.4929 -0.1011
 4330TIP3    H134553   4.201   1.696   7.850 -1.2184  0.4237 -0.0470
 4330TIP3    H234554   4.290   1.594   7.782 -1.1310 -1.1694  2.3377
 4331TIP3   OH234555   6.730   0.421   0.181  0.1558 -0.1181 -0.0297
 4331TIP3    H134556   6.681   0.339   0.187 -0.1302  0.1291  1.1430
 4331TIP3    H234557   6.809   0.407   0.233 -0.5571  0.7995  1.3664
 4332TIP3   OH234558   2.938   5.270   6.937 -0.3612 -0.6399 -0.6133
 4332TIP3    H134559   2.860   5.215   6.930  0.7939 -2.6245  0.8430
 4332TIP3    H234560   2.928   5.314   7.022  0.4082 -1.4785 -0.0729
 4333TIP3   OH234561   6.273   6.947   0.027 -0.2253  0.2559 -0.2859
 4333TIP3    H134562   6.246   6.861   0.059 -0.5463  0.4394 -0.0600
 4333TIP3    H234563   6.362   6.958   0.058 -0.4652  0.3476  0.3783
 4334TIP3   OH234564   0.673   6.629   1.244 -0.0489  0.5995 -0.1340
 4334TIP3    H134565   0.700   6.685   1.316  1.3540  0.7943 -0.7604
 4334TIP3    H234566   0.733   6.554   1.249  0.0224  0.5785 -1.0267
 4335TIP3   OH234567   4.224   4.229   6.942 -0.2945  0.3915 -0.5668
 4335TIP3    H134568   4.137   4.252   6.974  0.0823  2.0271 -0.6261
 4335TIP3    H234569   4.246   4.298   6.880  0.4850 -0.7619 -1.6430
 4336TIP3   OH234570   3.433   3.329   7.726 -0.1880  0.3690  0.0729
 4336TIP3    H134571   3.405   3.356   7.814  1.3033  0.5449  0.5119
 4336TIP3    H234572   3.528   3.336   7.727 -0.0861 -0.3863 -1.3217
 4337TIP3   OH234573   5.655   3.933   0.846 -0.2617  0.0796 -0.5933
 4337TIP3    H134574   5.678   4.026   0.851 -0.5601  0.0909  1.0859
 4337TIP3    H234575   5.729   3.888   0.887 -0.2499 -0.4050 -1.1396
 4338TIP3   OH234576   1.418   5.959   1.360 -0.2069  0.4587 -0.0657
 4338TIP3    H134577   1.389   5.975   1.270  1.0551  2.2952 -0.2031
 4338TIP3    H234578   1.489   5.895   1.352  0.6240  1.4136 -0.5200
 4339TIP3   OH234579   4.222   0.782   6.777  0.2509 -0.2369  0.4741
 4339TIP3    H134580   4.152   0.847   6.769  1.0198  0.4309 -1.2886
 4339TIP3    H234581   4.188   0.704   6.735  0.4615  0.0054 -0.1506
 4340TIP3   OH234582   0.690   1.954   6.765  0.2728  0.0751 -0.2261
 4340TIP3    H134583   0.740   1.973   6.844  1.3588 -0.2109 -0.8269
 4340TIP3    H234584   0.746   1.895   6.715 -0.3537  0.3327 -1.2594
 4341TIP3   OH234585   2.116   7.006   1.884  0.1300 -0.4254  0.2052
 4341TIP3    H134586   2.149   6.918   1.902  0.7939 -0.1410  0.4005
 4341TIP3    H234587   2.152   7.028   1.798 -0.5407 -0.5799 -0.1237
 4342TIP3   OH234588   2.386   4.997   0.772  0.6634  0.2805 -0.2538
 4342TIP3    H134589   2.446   4.976   0.844  0.6054  1.8240  0.2815
 4342TIP3    H234590   2.386   4.918   0.718  2.9639  0.1045 -0.1239
 4343TIP3   OH234591   6.374   1.428   1.050 -0.0949 -0.1194  0.1732
 4343TIP3    H134592   6.296   1.373   1.047 -0.0303 -0.2463  0.7650
 4343TIP3    H234593   6.394   1.446   0.958  0.6457 -2.1973 -0.1451
 4344TIP3   OH234594   1.184   3.148   1.994 -0.0043 -0.0091  0.0843
 4344TIP3    H134595   1.280   3.151   1.989 -0.0537  0.4425 -0.8137
 4344TIP3    H234596   1.165   3.084   2.062  0.9484  0.5544  0.9079
 4345TIP3   OH234597   6.598   0.022   0.645  0.1891  0.1617  0.3440
 4345TIP3    H134598   6.640   0.103   0.673 -0.9334  0.9851 -0.2992
 4345TIP3    H234599   6.505   0.041   0.645 -0.1127 -1.1692  0.2755
 4346TIP3   OH234600   4.869   6.774   5.870 -0.4785 -0.3408 -0.4720
 4346TIP3    H134601   4.914   6.706   5.920  1.1131  1.1142  0.1674
 4346TIP3    H234602   4.868   6.741   5.780  1.7601 -0.5406 -0.4841
 4347TIP3   OH234603   1.389   6.106   7.688 -0.1550 -0.3669 -0.1273
 4347TIP3    H134604   1.483   6.123   7.680  0.2992 -2.0924  0.8803
 4347TIP3    H234605   1.363   6.149   7.769 -0.4483  0.8707 -0.8674
 4348TIP3   OH234606   5.638   7.005   0.779  0.1656 -0.3191  0.5453
 4348TIP3    H134607   5.610   6.929   0.729 -1.1900  0.4639  0.0375
 4348TIP3    H234608   5.733   7.009   0.767  0.2319 -1.8185  0.4668
 4349TIP3   OH234609   6.630   2.904   1.411 -0.0801  0.0395  0.0217
 4349TIP3    H134610   6.539   2.915   1.384 -0.6270 -1.9469  0.8272
 4349TIP3    H234611   6.667   2.992   1.411 -1.9929  0.8784 -0.3563
 4350TIP3   OH234612   5.556   5.712   1.751 -0.5637 -0.1349  0.2522
 4350TIP3    H134613   5.504   5.789   1.772 -1.0458 -0.7140  1.2654
 4350TIP3    H234614   5.598   5.688   1.833  0.1220 -0.5519 -0.2137
 4351TIP3   OH234615   2.947   4.821   8.243  0.5545 -0.1094 -0.2118
 4351TIP3    H134616   3.016   4.887   8.231  0.1944  0.3984  0.4357
 4351TIP3    H234617   2.866   4.872   8.249  0.2026 -0.6536 -0.2393
 4352TIP3   OH234618   2.951   3.587   1.419 -0.3223  0.0032  0.0751
 4352TIP3    H134619   3.040   3.556   1.407 -0.7678 -1.3821  0.2276
 4352TIP3    H234620   2.924   3.616   1.331  0.9289  2.3868  0.3807
 4353TIP3   OH234621   6.524   2.222   0.844  0.2417 -0.0225 -0.0077
 4353TIP3    H134622   6.458   2.178   0.791  1.3476 -0.8925 -0.7254
 4353TIP3    H234623   6.554   2.155   0.906  1.6300 -0.1876 -0.8130
 4354TIP3   OH234624   3.509   1.693   1.154  0.1684 -0.5544  0.1499
 4354TIP3    H134625   3.603   1.678   1.143  0.0737  0.5236 -3.0829
 4354TIP3    H234626   3.503   1.752   1.229  2.5449  2.7242 -1.9404
 4355TIP3   OH234627   0.899   2.935   1.946 -0.1205 -0.5075  0.3173
 4355TIP3    H134628   0.988   2.945   1.912 -0.6639  1.0483 -0.7875
 4355TIP3    H234629   0.892   3.002   2.014 -0.3657 -0.8232  0.6044
 4356TIP3   OH234630   3.694   1.206   0.258  0.1981  0.3459 -0.1400
 4356TIP3    H134631   3.779   1.243   0.235  1.3161 -1.0110  1.5874
 4356TIP3    H234632   3.637   1.229   0.184  2.3098  0.3896 -1.8394
 4357TIP3   OH234633   5.897   5.857   0.208  0.6097  0.1495 -0.2181
 4357TIP3    H134634   5.825   5.808   0.170 -0.1084  0.4968  0.6558
 4357TIP3    H234635   5.879   5.948   0.185  1.3484  0.1347 -0.9005
 4358TIP3   OH234636   6.213   1.276   6.469  0.3900  0.4556  0.2952
 4358TIP3    H134637   6.145   1.343   6.475  0.4895  0.5316  0.5887
 4358TIP3    H234638   6.165   1.194   6.457  0.2560  0.5410  0.2487
 4359TIP3   OH234639   0.795   1.525   2.138 -0.5545  0.4885  0.0009
 4359TIP3    H134640   0.888   1.543   2.126 -0.3993 -1.2831 -2.3637
 4359TIP3    H234641   0.792   1.458   2.207 -0.1668  1.1536  0.6685
 4360TIP3   OH234642   0.836   0.706   1.056  0.2138 -0.5181  0.0035
 4360TIP3    H134643   0.922   0.741   1.077  0.6567 -1.2067 -0.6361
 4360TIP3    H234644   0.776   0.757   1.110  0.9268  0.5937 -0.2230
 4361TIP3   OH234645   2.165   1.547   0.506  0.3776 -0.0605  0.2708
 4361TIP3    H134646   2.173   1.456   0.478  0.3606 -0.0344  0.1791
 4361TIP3    H234647   2.256   1.579   0.509  0.2950  0.4622 -1.5361
 4362TIP3   OH234648   2.693   6.118   7.565  0.3049 -0.3378  0.2480
 4362TIP3    H134649   2.763   6.084   7.509 -1.2198 -2.7948 -0.2793
 4362TIP3    H234650   2.646   6.180   7.509 -0.0167 -1.2829 -0.5385
 4363TIP3   OH234651   0.464   2.936   2.179 -0.2540  0.0429  0.6358
 4363TIP3    H134652   0.529   2.925   2.110  1.9227  2.6687  2.0402
 4363TIP3    H234653   0.392   2.984   2.137  0.7082  0.9591 -0.0220
 4364TIP3   OH234654   6.370   3.913   0.130  0.2384  0.2589  0.1673
 4364TIP3    H134655   6.336   3.973   0.196  1.0689 -0.3480  1.1801
 4364TIP3    H234656   6.401   3.838   0.180  0.8557 -0.2312 -0.9229
 4365TIP3   OH234657   1.379   3.847   0.789  0.2025 -0.1534  0.1098
 4365TIP3    H134658   1.469   3.822   0.765 -0.0974  0.4160 -1.7940
 4365TIP3    H234659   1.387   3.939   0.817  0.1715  0.0146 -0.4209
 4366TIP3   OH234660   3.973   3.866   8.233 -0.5266  0.2735  0.0376
 4366TIP3    H134661   3.965   3.785   8.183  0.3071  0.3395 -0.2075
 4366TIP3    H234662   3.882   3.896   8.244 -0.7093  0.5981 -2.0039
 4367TIP3   OH234663   2.456   2.754   7.166  0.2674  0.0070 -0.2928
 4367TIP3    H134664   2.451   2.697   7.242 -0.4014  0.9225  0.3900
 4367TIP3    H234665   2.422   2.838   7.197  0.5506  0.5760 -1.4436
 4368TIP3   OH234666   0.128   3.832   6.457 -0.0568 -0.4455 -0.2481
 4368TIP3    H134667   0.083   3.864   6.535 -1.2058 -1.5899 -0.4125
 4368TIP3    H234668   0.204   3.889   6.449 -1.1520  1.1909  0.3756
 4369TIP3   OH234669   1.464   3.484   1.543 -0.1130 -0.3843 -0.5983
 4369TIP3    H134670   1.438   3.404   1.589 -0.8434 -0.4036 -1.0346
 4369TIP3    H234671   1.486   3.455   1.455  2.4128 -0.5279 -0.0203
 4370TIP3   OH234672   6.193   5.687   7.938 -0.0988 -0.1296 -0.3598
 4370TIP3    H134673   6.259   5.705   8.005 -1.8150  1.5820  0.9861
 4370TIP3    H234674   6.129   5.631   7.982 -2.2674  2.5890  0.2357
 4371TIP3   OH234675   1.314   0.610   0.492 -0.6933 -0.1020  0.4222
 4371TIP3    H134676   1.246   0.543   0.506 -0.5010 -0.7471 -1.4173
 4371TIP3    H234677   1.273   0.674   0.434 -0.0384  0.0060  0.0702
 4372TIP3   OH234678   0.448   2.715   1.411  0.4876 -0.6154 -0.4042
 4372TIP3    H134679   0.413   2.800   1.385  1.0689 -0.5110 -0.8745
 4372TIP3    H234680   0.508   2.691   1.340 -0.3728 -1.8558 -0.7578
 4373TIP3   OH234681   3.819   5.879   6.681 -0.4213 -0.9648 -0.4789
 4373TIP3    H134682   3.832   5.884   6.775 -1.4829  0.7550 -0.3701
 4373TIP3    H234683   3.906   5.865   6.645  0.1359 -0.6511  0.7015
 4374TIP3   OH234684   4.950   4.310   1.490  0.1217 -0.1390  0.3279
 4374TIP3    H134685   4.913   4.392   1.459 -0.5799 -0.7517 -0.5171
 4374TIP3    H234686   5.034   4.334   1.529  0.1885  0.8929 -0.4235
 4375TIP3   OH234687   0.803   2.053   1.612  0.2883  0.3560  0.3813
 4375TIP3    H134688   0.836   2.002   1.538  0.2457  1.4799 -0.4267
 4375TIP3    H234689   0.879   2.062   1.671  0.2433 -0.7907  0.6446
 4376TIP3   OH234690   6.828   2.084   8.267 -0.2623  0.4545  0.3432
 4376TIP3    H134691   6.802   2.171   8.236 -0.9474 -0.2679 -1.2205
 4376TIP3    H234692   6.914   2.098   8.307 -0.5442  1.9187  0.4889
 4377TIP3   OH234693   0.847   0.332   7.962 -0.3917  0.2450 -0.3634
 4377TIP3    H134694   0.931   0.363   7.928 -0.1143 -0.3912 -0.2677
 4377TIP3    H234695   0.851   0.237   7.953 -0.6088  0.1130  0.7509
 4378TIP3   OH234696   5.031   4.045   1.571  0.1614  0.5718  0.1454
 4378TIP3    H134697   5.001   4.090   1.492  2.0783  2.2447  0.2990
 4378TIP3    H234698   5.044   4.115   1.635  2.7961 -0.1802  0.5483
 4379TIP3   OH234699   3.385   6.737   7.778  0.4399 -0.1671 -0.3184
 4379TIP3    H134700   3.323   6.701   7.714 -1.0151 -1.1074  1.5273
 4379TIP3    H234701   3.440   6.662   7.802  2.7971  0.7691 -2.3384
 4380TIP3   OH234702   3.506   1.755   0.882 -0.2173  0.5667 -0.1406
 4380TIP3    H134703   3.479   1.719   0.966 -0.7566 -0.5570 -0.7771
 4380TIP3    H234704   3.480   1.847   0.885 -0.7450  0.3916  0.6992
 4381TIP3   OH234705   6.126   6.809   6.812 -0.2275 -0.2702 -0.4408
 4381TIP3    H134706   6.212   6.852   6.809 -0.2299  0.0747  2.0955
 4381TIP3    H234707   6.146   6.718   6.831 -0.4003  0.1506  2.0444
 4382TIP3   OH234708   5.656   0.355   8.088  0.1820 -0.0164  0.0610
 4382TIP3    H134709   5.589   0.384   8.026 -2.1921 -1.0800  1.9926
 4382TIP3    H234710   5.665   0.261   8.070  0.9805  0.0657  0.0105
 4383TIP3   OH234711   0.265   0.825   1.692 -0.3263  0.4160  0.6398
 4383TIP3    H134712   0.232   0.843   1.604  0.7373 -0.3353  0.0669
 4383TIP3    H234713   0.288   0.732   1.690 -0.0673  0.4482  1.6468
 4384TIP3   OH234714   3.609   2.077   1.113 -0.2477 -1.2310  0.2096
 4384TIP3    H134715   3.525   2.048   1.146 -0.8277  0.3563  0.2261
 4384TIP3    H234716   3.609   2.172   1.128  1.8327 -1.2746  0.8697
 4385TIP3   OH234717   6.951   0.157   0.826 -0.0738 -0.1584  0.1300
 4385TIP3    H134718   6.915   0.157   0.914  1.5770  2.3054  0.9141
 4385TIP3    H234719   7.046   0.151   0.838  0.2560  1.1502 -1.3749
 4386TIP3   OH234720   3.496   0.730   0.636  0.4861  0.3224 -0.2808
 4386TIP3    H134721   3.559   0.664   0.606  0.8553  0.3055  0.4971
 4386TIP3    H234722   3.423   0.680   0.672 -0.3214  0.3345 -1.8212
 4387TIP3   OH234723   1.363   4.071   7.522 -0.4546  0.2398 -0.3386
 4387TIP3    H134724   1.342   3.984   7.555  0.6796  0.7119  1.8383
 4387TIP3    H234725   1.342   4.130   7.594  1.5867  1.4251 -0.6185
 4388TIP3   OH234726   6.120   1.205   0.566  0.5953 -0.0472 -0.4607
 4388TIP3    H134727   6.070   1.148   0.508 -0.7243 -0.6571  1.2196
 4388TIP3    H234728   6.204   1.160   0.577 -0.0595 -1.1825  0.0502
 4389TIP3   OH234729   0.159   2.138   1.811  0.6519 -0.7741 -0.2936
 4389TIP3    H134730   0.131   2.228   1.796  0.2776 -1.1315 -1.9496
 4389TIP3    H234731   0.210   2.142   1.891 -1.3779  0.4818  1.0201
 4390TIP3   OH234732   1.753   6.163   0.595  0.1208  0.0827 -0.0597
 4390TIP3    H134733   1.755   6.068   0.603 -1.0340  0.0691  0.2355
 4390TIP3    H234734   1.811   6.183   0.521 -2.7936 -1.1655 -2.8800
 4391TIP3   OH234735   1.382   4.524   7.169 -0.2455  0.6656 -0.0500
 4391TIP3    H134736   1.297   4.501   7.204  0.5477 -1.4147  0.6542
 4391TIP3    H234737   1.440   4.451   7.194  1.5331  1.5620 -1.2667
 4392TIP3   OH234738   3.124   1.907   7.886  0.0822  0.0462 -0.1508
 4392TIP3    H134739   3.046   1.934   7.934  0.3131 -3.2677  2.4536
 4392TIP3    H234740   3.197   1.945   7.936  0.2226 -0.8084  0.3197
 4393TIP3   OH234741   4.517   6.333   8.188  0.1083  0.1017 -0.6216
 4393TIP3    H134742   4.466   6.253   8.203  1.1769 -0.8262 -1.6665
 4393TIP3    H234743   4.470   6.379   8.119 -0.9303  0.7935  0.5094
 4394TIP3   OH234744   4.860   2.134   7.543 -0.3767 -0.6400  0.3932
 4394TIP3    H134745   4.845   2.043   7.520  0.9067 -0.4797 -1.2414
 4394TIP3    H234746   4.868   2.134   7.639  1.7049 -2.5887  0.2844
 4395TIP3   OH234747   2.735   0.604   8.132 -0.4944 -0.3257 -0.2012
 4395TIP3    H134748   2.794   0.610   8.208 -0.2219  0.4282 -0.4655
 4395TIP3    H234749   2.654   0.646   8.161 -1.4664 -2.6102  0.6535
 4396TIP3   OH234750   3.565   2.113   1.733  0.2424  0.0228 -0.0275
 4396TIP3    H134751   3.572   2.209   1.725 -0.4380  0.0879  0.1008
 4396TIP3    H234752   3.593   2.096   1.823 -0.9052  0.2536  0.3957
 4397TIP3   OH234753   1.264   5.324   1.677  0.0080 -0.7763 -0.2151
 4397TIP3    H134754   1.239   5.364   1.594 -0.2174  0.8793  0.6132
 4397TIP3    H234755   1.182   5.298   1.717 -0.0381  0.1174  0.2933
 4398TIP3   OH234756   2.817   0.640   7.860  0.1202  0.3196  0.4460
 4398TIP3    H134757   2.752   0.707   7.836 -0.2630 -0.2320 -0.0811
 4398TIP3    H234758   2.817   0.641   7.956 -1.0054  0.0226  0.4707
 4399TIP3   OH234759   4.728   2.196   6.221 -0.6490 -0.0494 -0.6217
 4399TIP3    H134760   4.798   2.259   6.205  1.4104 -1.6393  1.3963
 4399TIP3    H234761   4.704   2.163   6.135  0.7762  0.8780 -1.4034
 4400TIP3   OH234762   6.010   0.472   2.408  0.0365  0.3089  0.0166
 4400TIP3    H134763   6.097   0.477   2.449  0.7336 -0.2240 -1.3088
 4400TIP3    H234764   6.000   0.556   2.364 -0.1917  0.4335  0.3088
 4401TIP3   OH234765   2.605   2.360   0.642 -0.2263 -0.1877 -0.1921
 4401TIP3    H134766   2.587   2.298   0.713 -1.9501  1.4719  0.8958
 4401TIP3    H234767   2.588   2.446   0.680 -1.6990  0.7351 -2.7520
 4402TIP3   OH234768   3.772   4.701   6.856 -0.4036  0.1112  0.4557
 4402TIP3    H134769   3.839   4.698   6.788 -1.8983  0.8968 -1.1193
 4402TIP3    H234770   3.790   4.781   6.905  0.8750 -0.6230  1.2775
 4403TIP3   OH234771   0.808   4.046   8.004  0.2903  0.2311  0.7559
 4403TIP3    H134772   0.890   4.008   8.035  0.0679 -0.9990 -0.0615
 4403TIP3    H234773   0.748   3.971   8.001 -0.0668  0.5582 -1.2760
 4404TIP3   OH234774   6.645   1.306   7.465 -0.5167  0.5772  0.4259
 4404TIP3    H134775   6.580   1.374   7.449  0.5420  1.7140  0.7858
 4404TIP3    H234776   6.679   1.326   7.553 -0.4479 -0.6487  0.6931
 4405TIP3   OH234777   1.242   3.423   2.528  0.3178 -0.0276  0.3965
 4405TIP3    H134778   1.321   3.415   2.582  0.6765  1.5100  0.1474
 4405TIP3    H234779   1.241   3.514   2.500  0.0358 -0.7159 -2.0523
 4406TIP3   OH234780   4.248   4.484   0.487  0.4638 -0.0882 -0.2685
 4406TIP3    H134781   4.270   4.414   0.548  0.6663 -0.0088 -0.2460
 4406TIP3    H234782   4.156   4.502   0.502  0.7799  0.7045  0.8223
 4407TIP3   OH234783   1.420   5.006   6.962  0.0391  0.5511  0.2801
 4407TIP3    H134784   1.499   5.059   6.951  0.7927 -0.3801  1.0529
 4407TIP3    H234785   1.370   5.021   6.882 -0.0766  2.8935  0.7120
 4408TIP3   OH234786   4.209   4.327   7.730  0.3483  0.7431  0.0005
 4408TIP3    H134787   4.264   4.292   7.660  0.1348 -0.4420  0.3933
 4408TIP3    H234788   4.185   4.250   7.782  0.6538  1.6155  1.4902
 4409TIP3   OH234789   4.115   6.596   7.826  0.3052 -0.1920 -0.0867
 4409TIP3    H134790   4.194   6.649   7.831  0.4258 -0.4795  1.6063
 4409TIP3    H234791   4.048   6.656   7.793  0.7521  0.6289  0.4860
 4410TIP3   OH234792   0.942   2.472   1.671 -0.0628  0.7012 -0.0762
 4410TIP3    H134793   0.929   2.484   1.766 -0.4374 -0.5357  0.0457
 4410TIP3    H234794   0.966   2.559   1.639 -2.8929  1.8750  0.6703
 4411TIP3   OH234795   0.981   2.090   7.401 -0.3729 -0.1512  0.2416
 4411TIP3    H134796   1.004   2.017   7.459  0.2757  1.1395  1.6906
 4411TIP3    H234797   1.036   2.162   7.431  0.3718  0.4612 -2.3550
 4412TIP3   OH234798   6.411   1.140   8.048 -0.0456 -0.5610  0.4098
 4412TIP3    H134799   6.451   1.076   8.106  0.1705 -0.9029 -0.1069
 4412TIP3    H234800   6.415   1.099   7.961 -0.5901 -0.1686  0.1944
 4413TIP3   OH234801   6.432   6.130   1.455  0.4572  0.2701 -0.0774
 4413TIP3    H134802   6.467   6.141   1.367 -0.0193 -1.3599 -0.5066
 4413TIP3    H234803   6.507   6.102   1.508  0.2083 -1.5684 -0.6281
 4414TIP3   OH234804   1.325   6.514   7.121 -0.2456  0.2758  0.0590
 4414TIP3    H134805   1.375   6.559   7.189 -2.1991  0.3393  1.5397
 4414TIP3    H234806   1.357   6.551   7.039  3.0008 -0.6009  0.7878
 4415TIP3   OH234807   5.487   0.105   0.571 -0.0474 -0.0641  0.7017
 4415TIP3    H134808   5.518   0.052   0.644  0.3728 -2.2179 -0.9356
 4415TIP3    H234809   5.526   0.065   0.493 -0.8383  1.8470 -0.7758
 4416TIP3   OH234810   5.248   3.385   1.013  1.0230 -0.1162 -0.3276
 4416TIP3    H134811   5.323   3.445   1.015  0.4397  0.6495 -0.8712
 4416TIP3    H234812   5.287   3.298   1.005  1.8533  0.3219 -1.3395
 4417TIP3   OH234813   1.423   6.950   2.093 -0.1136 -0.0429 -0.1203
 4417TIP3    H134814   1.500   6.998   2.124 -0.8628  1.7055 -0.8870
 4417TIP3    H234815   1.369   6.937   2.171  0.0007  0.5299  0.0525
 4418TIP3   OH234816   5.521   6.106   0.730 -0.6859  0.1573  1.1410
 4418TIP3    H134817   5.445   6.144   0.775 -2.2186 -1.4007  0.0276
 4418TIP3    H234818   5.572   6.181   0.702 -2.8010  1.3875  0.3018
 4419TIP3   OH234819   4.567   0.699   8.186  0.0450 -0.6456 -0.1060
 4419TIP3    H134820   4.485   0.675   8.228 -0.3813 -0.4762 -0.8202
 4419TIP3    H234821   4.587   0.787   8.219  0.4208 -1.0476  0.7609
 4420TIP3   OH234822   2.876   5.862   2.053 -0.2239  0.4953  0.0731
 4420TIP3    H134823   2.950   5.903   2.099  0.0262  0.8269 -0.5888
 4420TIP3    H234824   2.918   5.805   1.988 -0.5711 -0.2817  0.5262
 4421TIP3   OH234825   6.455   5.175   1.706  0.3241  0.0356 -0.1793
 4421TIP3    H134826   6.494   5.106   1.653  0.7365 -0.8900  1.2544
 4421TIP3    H234827   6.362   5.151   1.711  0.7888 -1.6928  2.0166
 4422TIP3   OH234828   1.770   0.915   6.966 -0.0485 -0.5978 -0.2730
 4422TIP3    H134829   1.747   0.980   6.900  2.5847 -0.4482 -1.1814
 4422TIP3    H234830   1.696   0.855   6.968  0.3900 -1.6621 -4.7588
 4423TIP3   OH234831   1.867   3.789   1.266 -0.0325  0.1974 -0.5417
 4423TIP3    H134832   1.773   3.790   1.250 -0.2006 -0.6301  0.3010
 4423TIP3    H234833   1.904   3.751   1.187 -0.5173 -0.5199 -0.4327
 4424TIP3   OH234834   6.760   5.734   0.294  0.1897  0.0471 -0.3195
 4424TIP3    H134835   6.839   5.726   0.348 -0.2445  1.5492  0.6107
 4424TIP3    H234836   6.692   5.687   0.342  0.3397 -0.6705 -0.7872
 4425TIP3   OH234837   5.737   4.878   0.964 -0.4113 -0.3133 -0.2773
 4425TIP3    H134838   5.734   4.868   0.868  0.1602 -1.2756 -0.1981
 4425TIP3    H234839   5.799   4.950   0.978 -0.3739 -0.2751 -0.6233
 4426TIP3   OH234840   0.872   4.524   0.875 -0.0242  0.0300 -0.3922
 4426TIP3    H134841   0.778   4.513   0.858  0.0121 -3.5416  0.9162
 4426TIP3    H234842   0.915   4.476   0.804  0.7257 -0.2268  0.2274
 4427TIP3   OH234843   6.618   1.002   0.326 -0.0831 -0.3636  0.1819
 4427TIP3    H134844   6.524   0.980   0.325 -0.0430 -0.5426 -0.6917
 4427TIP3    H234845   6.660   0.923   0.361 -0.3108 -0.0280  1.2363
 4428TIP3   OH234846   6.272   6.031   7.443  0.2271  0.2409 -0.2960
 4428TIP3    H134847   6.306   6.045   7.531  0.7600 -1.4193 -0.2036
 4428TIP3    H234848   6.185   6.070   7.444  0.4094  0.6468  0.8254
 4429TIP3   OH234849   0.065   2.411   7.404  0.0775  0.3888 -0.1739
 4429TIP3    H134850   0.037   2.373   7.320  0.5251 -0.5253  0.0755
 4429TIP3    H234851   0.044   2.343   7.468  1.5854  0.2308  0.1886
 4430TIP3   OH234852   2.242   0.426   0.664 -0.5492 -0.1533  0.4708
 4430TIP3    H134853   2.278   0.349   0.709  0.3391 -1.0702 -1.6645
 4430TIP3    H234854   2.317   0.484   0.652 -0.6055 -0.2437 -0.4033
 4431TIP3   OH234855   1.948   4.042   6.532 -0.0879 -0.3350  0.2378
 4431TIP3    H134856   2.014   4.107   6.557  0.4013 -0.3414 -0.9362
 4431TIP3    H234857   1.996   3.959   6.530 -0.3177 -0.4649  0.1242
 4432TIP3   OH234858   0.603   2.391   7.904  0.3166 -0.6363 -0.2732
 4432TIP3    H134859   0.546   2.316   7.914  0.2222 -1.0375 -3.1005
 4432TIP3    H234860   0.550   2.466   7.933  0.5626 -1.5871  2.9750
 4433TIP3   OH234861   2.376   4.779   0.600 -0.2545 -0.3937 -0.1192
 4433TIP3    H134862   2.284   4.754   0.609 -0.2961 -0.6829 -1.1819
 4433TIP3    H234863   2.406   4.732   0.522  0.5946  0.2657 -0.2097
 4434TIP3   OH234864   6.523   1.757   7.050 -0.0137  0.1502 -0.2569
 4434TIP3    H134865   6.495   1.849   7.045 -0.8503 -0.1547 -1.4292
 4434TIP3    H234866   6.538   1.732   6.959 -0.6874 -1.1580 -0.0187
 4435TIP3   OH234867   2.269   2.136   0.291 -0.2873 -0.3002  0.6724
 4435TIP3    H134868   2.312   2.165   0.211  0.0098 -0.7602  0.6639
 4435TIP3    H234869   2.335   2.145   0.359  0.4518 -2.6800  0.3688
 4436TIP3   OH234870   0.353   6.965   0.708  0.5036  0.5789  0.7345
 4436TIP3    H134871   0.419   6.908   0.749  1.1012  2.1652  2.1027
 4436TIP3    H234872   0.384   6.977   0.619  0.1980 -1.4460  0.3056
 4437TIP3   OH234873   2.620   4.789   1.451  0.4091 -0.5598  0.4516
 4437TIP3    H134874   2.699   4.841   1.465 -0.0567  0.2838  0.0483
 4437TIP3    H234875   2.580   4.783   1.538 -1.1276  2.4532  0.0888
 4438TIP3   OH234876   1.807   6.840   8.259  0.2839 -0.0661 -0.4618
 4438TIP3    H134877   1.730   6.877   8.215 -0.7025 -1.7601 -0.2630
 4438TIP3    H234878   1.842   6.912   8.311 -3.4619 -0.0823  2.5142
 4439TIP3   OH234879   3.986   1.361   1.193 -0.6347 -0.5430 -0.3041
 4439TIP3    H134880   3.906   1.310   1.208 -0.3584 -0.7683  0.4256
 4439TIP3    H234881   4.013   1.338   1.104 -1.1037 -0.8507 -0.3705
 4440TIP3   OH234882   4.968   6.378   7.777 -0.4853  0.2342  0.2122
 4440TIP3    H134883   5.035   6.320   7.813 -1.5160 -0.2250  1.4630
 4440TIP3    H234884   5.015   6.459   7.757  0.7010 -0.5408 -0.2673
 4441TIP3   OH234885   3.444   3.414   8.015  0.2959  0.1537 -0.0145
 4441TIP3    H134886   3.425   3.393   8.106 -1.2046  0.7863 -0.1468
 4441TIP3    H234887   3.387   3.488   7.995  0.5298 -0.0344 -1.4964
 4442TIP3   OH234888   2.345   5.301   7.415 -0.3098  0.6733 -0.0374
 4442TIP3    H134889   2.348   5.225   7.358 -0.4583  0.6511 -0.0141
 4442TIP3    H234890   2.371   5.267   7.501 -0.2259  0.6794 -0.0598
 4443TIP3   OH234891   5.339   2.719   1.388 -0.1860 -0.0715  0.7493
 4443TIP3    H134892   5.426   2.758   1.378 -0.0509 -0.4760  0.2846
 4443TIP3    H234893   5.286   2.788   1.425  0.2511  0.2958  0.7024
 4444TIP3   OH234894   6.784   3.456   2.130  0.2756  0.3863 -0.3253
 4444TIP3    H134895   6.827   3.485   2.210 -0.3135  0.9269 -0.1948
 4444TIP3    H234896   6.724   3.528   2.108  1.3465  0.8477 -1.9673
 4445TIP3   OH234897   1.303   4.223   8.196  0.5446  0.7344 -0.1659
 4445TIP3    H134898   1.217   4.229   8.239  1.0726 -1.8549  1.4680
 4445TIP3    H234899   1.366   4.235   8.267  1.4842 -0.2823 -0.7951
 4446TIP3   OH234900   2.496   3.096   6.453 -0.1720  0.0451  0.1928
 4446TIP3    H134901   2.540   3.014   6.432 -1.9849 -1.0796  0.5596
 4446TIP3    H234902   2.426   3.103   6.388  0.7755  2.0255 -0.6830
 4447TIP3   OH234903   5.867   1.104   2.288 -0.1102 -0.6560 -0.8196
 4447TIP3    H134904   5.911   1.133   2.368 -2.0111 -0.8280  0.3617
 4447TIP3    H234905   5.938   1.090   2.225  1.6841 -2.4379  1.4231
 4448TIP3   OH234906   1.258   2.620   1.150  0.0108 -0.2513 -0.2640
 4448TIP3    H134907   1.342   2.635   1.106  0.2004 -0.0032  0.1858
 4448TIP3    H234908   1.240   2.701   1.197 -1.1440  0.2083 -1.4364
 4449TIP3   OH234909   2.027   3.064   8.320 -0.1386 -0.7258  0.0461
 4449TIP3    H134910   1.966   3.036   8.389  0.6825 -2.4179  0.1337
 4449TIP3    H234911   2.029   2.990   8.259  1.8974 -0.7685  0.1071
 4450TIP3   OH234912   1.435   3.949   7.814  0.1643  0.3019  0.3590
 4450TIP3    H134913   1.372   4.007   7.856  1.0318  0.4916  1.4705
 4450TIP3    H234914   1.414   3.862   7.848  0.6304  0.3996  0.9138
 4451TIP3   OH234915   2.433   3.108   0.108 -0.1152  0.7918 -0.7171
 4451TIP3    H134916   2.458   3.016   0.122 -0.7081  0.3646 -2.2485
 4451TIP3    H234917   2.516   3.154   0.097  0.1494  0.1438 -1.5070
 4452TIP3   OH234918   5.147   0.330   0.933 -0.2232  0.5150 -0.1650
 4452TIP3    H134919   5.065   0.350   0.888 -0.5678  1.7360  0.9668
 4452TIP3    H234920   5.120   0.280   1.010 -0.0317  1.8599  0.7983
 4453TIP3   OH234921   0.815   5.772   7.336 -0.0344 -0.0362  0.2719
 4453TIP3    H134922   0.820   5.798   7.244  0.5348 -2.4680 -0.4826
 4453TIP3    H234923   0.859   5.842   7.384  0.1554  1.0117 -1.3656
 4454TIP3   OH234924   0.981   5.384   0.932  0.0808 -0.3965  0.1880
 4454TIP3    H134925   0.962   5.465   0.980  0.2429  0.4515 -1.1063
 4454TIP3    H234926   0.897   5.358   0.894  0.4280  0.4783 -1.2805
 4455TIP3   OH234927   1.160   0.204   1.432 -0.1044  0.1951  0.2053
 4455TIP3    H134928   1.250   0.233   1.419  0.1281 -1.0959 -1.3624
 4455TIP3    H234929   1.145   0.214   1.526  1.8995 -0.1910  0.6177
 4456TIP3   OH234930   2.673   5.317   0.863  0.1669 -0.0977 -0.5312
 4456TIP3    H134931   2.647   5.233   0.901 -1.8701  0.4588 -0.5936
 4456TIP3    H234932   2.701   5.295   0.774 -2.7348 -0.5086 -1.4591
 4457TIP3   OH234933   6.738   1.911   8.040  0.3666  0.2636  0.2995
 4457TIP3    H134934   6.754   1.824   8.076 -2.8708  0.0131  1.4651
 4457TIP3    H234935   6.777   1.971   8.105  2.1955 -0.2451 -0.2741
 4458TIP3   OH234936   2.177   3.488   7.421 -0.8101  0.0164 -0.1240
 4458TIP3    H134937   2.175   3.558   7.486  1.7147  1.0221 -0.9950
 4458TIP3    H234938   2.120   3.420   7.458  2.3938 -0.6281  4.5407
 4459TIP3   OH234939   1.977   4.882   0.411 -0.1228 -0.3368  0.1839
 4459TIP3    H134940   1.886   4.861   0.434 -0.0871 -0.0840  0.5607
 4459TIP3    H234941   1.988   4.972   0.440  0.3850 -0.5121  0.5330
 4460TIP3   OH234942   2.721   3.410   6.757 -0.0657 -0.3066 -0.2999
 4460TIP3    H134943   2.657   3.340   6.751 -1.7152  0.9001  1.8754
 4460TIP3    H234944   2.806   3.366   6.751 -1.0342 -2.0534 -2.3123
 4461TIP3   OH234945   3.148   1.165   6.738  0.1508 -0.1233  1.0094
 4461TIP3    H134946   3.196   1.191   6.659 -0.7707 -1.6250 -0.0972
 4461TIP3    H234947   3.067   1.217   6.735  0.0732 -0.2482  0.8965
 4462TIP3   OH234948   4.669   1.595   2.122 -0.0742 -0.0263  0.2913
 4462TIP3    H134949   4.721   1.629   2.049  2.8465 -2.5601  1.0248
 4462TIP3    H234950   4.619   1.523   2.084  0.3675 -0.4417  0.4928
 4463TIP3   OH234951   6.086   3.514   7.519 -0.8477  0.0648 -0.2579
 4463TIP3    H134952   6.028   3.586   7.497  0.3324  0.4975 -2.2448
 4463TIP3    H234953   6.171   3.555   7.535 -0.3357 -0.7867 -0.6719
 4464TIP3   OH234954   2.990   4.559   8.255 -0.1932  0.0590 -0.1746
 4464TIP3    H134955   2.956   4.648   8.249 -2.3630 -0.7298 -0.4544
 4464TIP3    H234956   3.084   4.568   8.243 -0.2931  2.3701  0.4263
 4465TIP3   OH234957   0.282   1.528   0.259 -0.2628  0.5385  0.0245
 4465TIP3    H134958   0.347   1.594   0.235 -1.2054  1.9669  1.2703
 4465TIP3    H234959   0.250   1.495   0.175 -1.9015  3.8084 -0.8041
 4466TIP3   OH234960   0.520   2.551   1.804  0.6457 -0.3644 -0.2853
 4466TIP3    H134961   0.558   2.624   1.756 -0.7955  1.2577  0.8965
 4466TIP3    H234962   0.535   2.572   1.896 -0.5389 -1.1131  0.1033
 4467TIP3   OH234963   3.429   0.962   5.955  0.3659  0.2226 -0.0391
 4467TIP3    H134964   3.463   1.045   5.920  1.1219 -0.0528  0.0260
 4467TIP3    H234965   3.475   0.895   5.905 -1.5613 -0.1911 -1.3908
 4468TIP3   OH234966   6.039   4.281   7.219 -0.5170 -0.5161  0.6138
 4468TIP3    H134967   6.068   4.223   7.289  0.7347 -0.8639 -0.1683
 4468TIP3    H234968   5.949   4.304   7.243 -0.5000 -1.5196  1.7385
 4469TIP3   OH234969   4.086   6.499   1.126  0.1865  0.0595 -0.1832
 4469TIP3    H134970   4.178   6.483   1.103  0.2973 -1.2145  0.9954
 4469TIP3    H234971   4.084   6.589   1.158  1.0977 -0.0028  0.0894
 4470TIP3   OH234972   0.160   0.146   0.991 -0.2383  1.0072  0.1966
 4470TIP3    H134973   0.254   0.165   0.991  0.3636 -1.5832 -0.1094
 4470TIP3    H234974   0.133   0.156   1.082  0.7472  0.0928  0.6102
 4471TIP3   OH234975   5.318   6.468   1.239  0.0931  0.2540  0.1813
 4471TIP3    H134976   5.234   6.427   1.257  0.0287  0.6016  0.6805
 4471TIP3    H234977   5.297   6.558   1.214  0.2695  0.1442 -0.3683
 4472TIP3   OH234978   4.176   2.422   1.769 -0.4671 -0.4473 -0.5320
 4472TIP3    H134979   4.271   2.430   1.759 -0.5728 -0.2316 -1.4785
 4472TIP3    H234980   4.142   2.507   1.741 -0.9099 -0.3263  0.3536
 4473TIP3   OH234981   4.174   5.633   1.388  0.2726  0.2304 -0.0283
 4473TIP3    H134982   4.175   5.578   1.309  0.1705 -0.8719  0.7148
 4473TIP3    H234983   4.138   5.717   1.358 -0.0359 -0.2612 -1.0963
 4474TIP3   OH234984   1.595   5.971   0.192 -0.4583  0.4626  0.4607
 4474TIP3    H134985   1.666   5.915   0.224  0.5395  0.3973 -1.6712
 4474TIP3    H234986   1.516   5.936   0.233  0.4934 -0.7033  1.3786
 4475TIP3   OH234987   5.310   0.094   7.411 -0.0526 -0.3344  0.2219
 4475TIP3    H134988   5.248   0.163   7.387  0.4442  0.8201  2.0824
 4475TIP3    H234989   5.270   0.051   7.486  0.9276 -0.2311  0.8158
 4476TIP3   OH234990   3.797   6.033   0.337  0.8097  0.0490  0.3784
 4476TIP3    H134991   3.786   5.950   0.383 -0.1952  0.1678  0.3890
 4476TIP3    H234992   3.872   6.019   0.280  2.9230  0.2890  2.8875
 4477TIP3   OH234993   2.972   1.584   1.290 -0.5298  0.0013  0.2515
 4477TIP3    H134994   2.908   1.622   1.231 -0.6495  0.9331  0.9527
 4477TIP3    H234995   3.055   1.590   1.243 -0.6865  0.3793  0.0208
 4478TIP3   OH234996   4.541   2.853   6.681 -0.4875 -0.2061 -0.2234
 4478TIP3    H134997   4.494   2.820   6.604 -0.9167 -0.1021 -0.0069
 4478TIP3    H234998   4.491   2.820   6.756  0.9777 -1.9328  0.0775
 4479TIP3   OH234999   3.456   0.090   0.899  0.0138  0.3301  0.2418
 4479TIP3    H135000   3.396   0.159   0.869 -0.2206 -0.0262 -0.1227
 4479TIP3    H235001   3.415   0.008   0.869  0.9018  0.1072 -0.3873
 4480TIP3   OH235002   5.771   6.299   6.914 -0.2482 -0.0740 -0.6300
 4480TIP3    H135003   5.856   6.304   6.871  1.2604 -1.1821  1.9297
 4480TIP3    H235004   5.774   6.215   6.962 -0.8578  1.8167  3.1017
 4481TIP3   OH235005   0.097   5.512   1.475 -0.4378  0.0183  0.1285
 4481TIP3    H135006   0.025   5.546   1.528 -0.2184 -0.3933  0.6894
 4481TIP3    H235007   0.166   5.492   1.538  0.4321  1.0584 -0.4699
 4482TIP3   OH235008   2.255   0.504   7.370  0.4896 -0.0369 -0.0593
 4482TIP3    H135009   2.348   0.502   7.348  0.4283  0.1804 -0.3586
 4482TIP3    H235010   2.215   0.441   7.310  0.3743  0.2698 -0.3139
 4483TIP3   OH235011   0.673   1.802   2.217 -0.4962  0.2570 -0.2883
 4483TIP3    H135012   0.703   1.711   2.226 -1.3965 -0.0262 -0.0746
 4483TIP3    H235013   0.679   1.820   2.123  0.7783  0.3706 -0.2086
 4484TIP3   OH235014   5.188   2.416   1.102 -0.0972 -0.0964 -0.0641
 4484TIP3    H135015   5.256   2.359   1.138 -0.8647 -1.5301 -0.7594
 4484TIP3    H235016   5.233   2.497   1.081  0.8287 -0.0244  1.9435
 4485TIP3   OH235017   5.130   1.440   1.338 -0.4281 -0.0858 -0.0289
 4485TIP3    H135018   5.041   1.406   1.324 -0.6321  0.5926 -0.4208
 4485TIP3    H235019   5.155   1.478   1.254  0.1609 -0.0961  0.1378
 4486TIP3   OH235020   2.159   2.292   6.708  0.0366  0.0223 -0.1130
 4486TIP3    H135021   2.201   2.210   6.683  0.8497  0.6029 -0.7376
 4486TIP3    H235022   2.166   2.295   6.804  0.7912 -0.2330 -0.1556
 4487TIP3   OH235023   4.342   6.652   2.311 -0.2255 -0.0376  0.1256
 4487TIP3    H135024   4.414   6.631   2.371  1.0427 -0.9324 -1.5921
 4487TIP3    H235025   4.333   6.573   2.256 -0.0439  1.3705 -2.0581
 4488TIP3   OH235026   6.789   6.519   7.495 -1.3416 -0.5956 -0.0702
 4488TIP3    H135027   6.724   6.472   7.442 -2.9448  1.6674 -0.2572
 4488TIP3    H235028   6.738   6.554   7.568  0.2006 -0.8240  1.1653
 4489TIP3   OH235029   5.365   6.807   7.641  0.0491  1.1445 -0.6366
 4489TIP3    H135030   5.357   6.789   7.735  1.1627 -0.3108 -0.7851
 4489TIP3    H235031   5.459   6.822   7.628  0.0677  0.1752 -1.6955
 4490TIP3   OH235032   2.288   6.736   0.760  0.4073 -0.0482  0.1579
 4490TIP3    H135033   2.227   6.809   0.753  0.1916 -0.1286  1.0582
 4490TIP3    H235034   2.236   6.659   0.735  1.4951  0.3877 -4.2356
 4491TIP3   OH235035   3.956   6.983   7.981  0.0513  0.5637 -0.5896
 4491TIP3    H135036   4.041   6.940   7.968 -0.6316 -0.9515 -0.2549
 4491TIP3    H235037   3.974   7.054   8.042  0.9573 -0.1700  0.0225
 4492TIP3   OH235038   0.984   6.256   0.042 -0.4759 -0.3199 -0.0200
 4492TIP3    H135039   1.033   6.194  -0.012 -1.9369 -1.2742 -0.2987
 4492TIP3    H235040   0.984   6.217   0.130 -2.8556 -1.6746 -0.5434
 4493TIP3   OH235041   2.643   6.344   7.037  0.0983  0.4053 -0.1112
 4493TIP3    H135042   2.723   6.303   7.072 -0.1348  0.5469  0.6088
 4493TIP3    H235043   2.577   6.276   7.045  0.5534 -0.3946 -2.5329
 4494TIP3   OH235044   3.318   5.489   6.271 -0.1300  0.3939 -0.2443
 4494TIP3    H135045   3.395   5.506   6.326  0.1954  2.4083 -1.2002
 4494TIP3    H235046   3.267   5.570   6.277 -2.0245 -0.7729  0.0793
 4495TIP3   OH235047   2.731   0.260   1.046  0.7704 -0.2865  0.5576
 4495TIP3    H135048   2.694   0.292   0.964  0.7246  1.0241  1.0612
 4495TIP3    H235049   2.807   0.208   1.020  1.6675  1.3639 -0.2885
 4496TIP3   OH235050   4.620   1.291   1.454  0.8318  0.4131  0.0961
 4496TIP3    H135051   4.647   1.375   1.417  1.0313 -0.6718 -2.4096
 4496TIP3    H235052   4.526   1.301   1.469  0.8008  0.9919 -0.4231
 4497TIP3   OH235053   6.618   1.402   7.729 -0.2901 -0.1439  0.3029
 4497TIP3    H135054   6.549   1.465   7.706  0.5568  1.3806  1.6980
 4497TIP3    H235055   6.605   1.387   7.823 -0.0760 -1.5747  0.1174
 4498TIP3   OH235056   4.946   4.703   6.560 -0.1716  0.1299 -0.5720
 4498TIP3    H135057   4.851   4.688   6.558 -0.0291 -0.9110 -2.4093
 4498TIP3    H235058   4.956   4.792   6.526 -0.5450  1.0224  1.5035
 4499TIP3   OH235059   6.322   4.317   1.271 -0.2068  1.2018 -0.0505
 4499TIP3    H135060   6.234   4.324   1.234 -0.6304  0.8518  0.8662
 4499TIP3    H235061   6.344   4.225   1.263 -0.3299  1.1130  0.6382
 4500TIP3   OH235062   3.706   3.316   1.123 -0.4582 -0.2991  0.0806
 4500TIP3    H135063   3.699   3.223   1.099  1.8813 -0.9732  1.6045
 4500TIP3    H235064   3.617   3.350   1.114 -1.5155 -2.8420  0.0493
 4501TIP3   OH235065   5.840   5.504   0.579 -0.1162  0.2087 -0.0587
 4501TIP3    H135066   5.761   5.551   0.604 -0.3215 -0.1637  0.0085
 4501TIP3    H235067   5.808   5.421   0.545  0.1783  0.6131 -1.3503
 4502TIP3   OH235068   2.167   6.453   0.017 -0.0314 -0.0010  0.7881
 4502TIP3    H135069   2.155   6.436  -0.076 -0.3957 -0.1771  0.8641
 4502TIP3    H235070   2.183   6.367   0.056 -0.5689 -0.0206  0.9831
 4503TIP3   OH235071   2.966   5.258   7.360 -0.9004  0.4533  1.1629
 4503TIP3    H135072   3.030   5.225   7.423  1.4637 -0.3717 -1.4968
 4503TIP3    H235073   2.891   5.198   7.369  0.6702 -1.6338  1.0183
 4504TIP3   OH235074   5.030   5.917   0.083 -0.2736 -0.2903  0.2661
 4504TIP3    H135075   5.057   5.921   0.175 -0.5134 -1.2418  0.3891
 4504TIP3    H235076   5.073   5.839   0.049 -0.5580 -0.2028 -0.3093
 4505TIP3   OH235077   5.380   4.538   7.869  0.3106 -0.0210 -0.6680
 4505TIP3    H135078   5.475   4.534   7.856  0.4313  1.4931 -0.4214
 4505TIP3    H235079   5.345   4.476   7.805  1.4177  0.2720 -1.6053
 4506TIP3   OH235080   0.952   0.749   1.404 -0.4968 -0.7341  0.2483
 4506TIP3    H135081   0.945   0.841   1.432 -1.7532 -0.0900 -1.9633
 4506TIP3    H235082   1.025   0.749   1.342 -1.3804 -0.9186 -0.8130
 4507TIP3   OH235083   1.445   1.636   0.259 -1.0572 -0.1809 -0.7135
 4507TIP3    H135084   1.420   1.553   0.219 -2.6538 -0.0328 -0.1142
 4507TIP3    H235085   1.540   1.636   0.258 -0.9244 -2.8888  0.9638
 4508TIP3   OH235086   0.716   0.070   1.998  0.9143  0.1825  0.6541
 4508TIP3    H135087   0.631   0.071   1.952  1.5947  1.0716 -0.6267
 4508TIP3    H235088   0.713   0.145   2.057  1.2715  0.9706 -0.3037
 4509TIP3   OH235089   2.748   3.859   0.255 -0.0057 -0.3079  0.1792
 4509TIP3    H135090   2.734   3.929   0.318  1.3838 -0.3985  0.6332
 4509TIP3    H235091   2.709   3.891   0.174  0.3403  0.8749  0.4562
 4510TIP3   OH235092   2.708   6.569   0.342  0.4629 -1.3120 -0.5241
 4510TIP3    H135093   2.782   6.525   0.384  0.9757 -0.5931 -0.6473
 4510TIP3    H235094   2.732   6.662   0.343 -0.8832 -0.9557  0.2970
 4511TIP3   OH235095   3.206   5.844   0.655 -0.3444  1.1062 -0.7245
 4511TIP3    H135096   3.211   5.755   0.621  1.1606  1.4445 -1.4261
 4511TIP3    H235097   3.135   5.840   0.720  0.9579 -1.0930  0.7136
 4512TIP3   OH235098   2.937   0.173   0.339  0.1090  0.1931  0.0363
 4512TIP3    H135099   2.995   0.130   0.277  0.0267  0.1996 -0.0455
 4512TIP3    H235100   2.971   0.262   0.346  0.3303  0.0912  0.2710
 4513TIP3   OH235101   4.522   4.685   0.797 -0.0032  0.4542  0.1467
 4513TIP3    H135102   4.505   4.760   0.855 -3.0664  0.1563 -0.2108
 4513TIP3    H235103   4.463   4.698   0.723 -1.0305 -2.5284  0.2966
 4514TIP3   OH235104   5.340   6.563   7.529  0.1788 -0.5156  0.0865
 4514TIP3    H135105   5.401   6.520   7.589  0.4699 -0.8241 -0.4204
 4514TIP3    H235106   5.330   6.652   7.563  1.4758 -0.2371 -0.2293
 4515TIP3   OH235107   0.317   4.452   7.962  0.3442 -0.2673 -0.1044
 4515TIP3    H135108   0.379   4.482   7.896 -1.5191 -0.4823 -2.0824
 4515TIP3    H235109   0.289   4.366   7.931 -0.5100 -0.4217  1.0252
 4516TIP3   OH235110   6.292   2.872   5.675 -0.3411 -0.6303  0.5029
 4516TIP3    H135111   6.225   2.890   5.741 -0.2515  0.5609  0.2867
 4516TIP3    H235112   6.293   2.950   5.620  0.1937 -1.2512 -0.3911
 4517TIP3   OH235113   1.087   4.854   6.505 -0.1985 -0.6301  0.0565
 4517TIP3    H135114   1.061   4.906   6.429  1.1316  0.6123  0.4080
 4517TIP3    H235115   1.180   4.873   6.517 -0.6322  0.2564  2.7482
 4518TIP3   OH235116   0.394   6.712   1.690  0.2420 -0.5500  0.0541
 4518TIP3    H135117   0.305   6.708   1.657  0.4302 -1.7001 -0.3773
 4518TIP3    H235118   0.409   6.627   1.731  0.7616  0.0502  1.1664
 4519TIP3   OH235119   6.079   2.456   6.149 -0.4062 -0.3449 -0.2779
 4519TIP3    H135120   6.031   2.380   6.116  1.1537 -0.8917 -1.3728
 4519TIP3    H235121   6.118   2.427   6.231 -1.7437  0.0566  0.5439
 4520TIP3   OH235122   2.446   2.183   0.496  0.4523  0.7261  0.0869
 4520TIP3    H135123   2.495   2.264   0.514  0.2511  0.5530  1.5256
 4520TIP3    H235124   2.476   2.122   0.563 -0.1375 -0.0792 -0.3681
 4521TIP3   OH235125   5.880   1.816   8.000 -0.4131 -0.3005  0.5893
 4521TIP3    H135126   5.970   1.825   8.032 -0.5162  0.3535  0.7164
 4521TIP3    H235127   5.885   1.845   7.908 -0.3474 -1.0195  0.3620
 4522TIP3   OH235128   5.787   5.118   0.213 -0.3377 -0.1080 -0.0544
 4522TIP3    H135129   5.707   5.159   0.247  1.3506  0.7043  3.5383
 4522TIP3    H235130   5.804   5.163   0.131 -3.0655  0.2945 -0.4965
 4523TIP3   OH235131   0.597   5.187   0.621  0.7886 -0.0877 -0.2491
 4523TIP3    H135132   0.603   5.282   0.610  0.5703 -0.1302 -0.7267
 4523TIP3    H235133   0.530   5.175   0.689  1.7303  0.1460  0.7376
 4524TIP3   OH235134   3.930   0.491   8.073 -0.1191 -0.0505  0.0425
 4524TIP3    H135135   3.848   0.535   8.050 -1.0876 -1.8253 -0.0457
 4524TIP3    H235136   3.918   0.465   8.164 -0.8853 -2.7863 -0.7452
 4525TIP3   OH235137   1.723   1.307   7.448 -0.1967  0.2954 -0.2338
 4525TIP3    H135138   1.815   1.280   7.457 -0.6552 -1.6998 -0.9660
 4525TIP3    H235139   1.722   1.398   7.478  1.9902  0.3380 -0.0954
 4526TIP3   OH235140   4.306   5.162   7.953  0.4235  0.2122 -0.2765
 4526TIP3    H135141   4.234   5.143   7.893 -0.5017  0.8514  0.5931
 4526TIP3    H235142   4.264   5.175   8.038  1.6579 -0.1982  0.4196
 4527TIP3   OH235143   2.646   1.801   6.599  0.0689  0.3648 -0.7218
 4527TIP3    H135144   2.633   1.784   6.693  1.1059 -0.6062 -0.7363
 4527TIP3    H235145   2.560   1.785   6.560  0.0857 -1.2107 -0.1868
 4528TIP3   OH235146   1.067   0.516   1.228  0.3586  0.1827  0.0556
 4528TIP3    H135147   1.122   0.482   1.157  5.5112  3.6398  1.7889
 4528TIP3    H235148   1.107   0.481   1.308 -1.9525  0.5834  1.4883
 4529TIP3   OH235149   2.426   3.054   0.678  0.4531  0.2215 -0.2519
 4529TIP3    H135150   2.497   3.059   0.615  1.3332 -0.8588  0.5936
 4529TIP3    H235151   2.441   3.128   0.737  1.1980 -0.2812  0.2128
 4530TIP3   OH235152   5.023   1.778   7.769  0.4912 -0.7343 -0.4551
 4530TIP3    H135153   4.988   1.692   7.793 -1.5285  0.0085 -0.5375
 4530TIP3    H235154   5.091   1.795   7.834 -0.3691 -1.6106  0.7244
 4531TIP3   OH235155   2.603   6.237   1.470  0.2712 -0.2061  0.8068
 4531TIP3    H135156   2.596   6.207   1.379 -0.2516  1.1143  0.3809
 4531TIP3    H235157   2.639   6.163   1.517  0.2913 -1.0168 -0.4343
 4532TIP3   OH235158   5.818   6.823   7.330 -0.1475 -0.0640 -0.0941
 4532TIP3    H135159   5.757   6.849   7.261 -0.4505  0.4862  0.3708
 4532TIP3    H235160   5.762   6.793   7.402  0.1203  0.3407  0.2920
 4533TIP3   OH235161   1.338   0.045   7.559  0.1243 -0.0341  0.3260
 4533TIP3    H135162   1.397   0.038   7.634 -1.1874  0.3611  1.4366
 4533TIP3    H235163   1.354   0.132   7.523 -0.3120  0.3829  1.1098
 4534TIP3   OH235164   5.407   1.496   6.446 -0.3095  0.3936 -0.8647
 4534TIP3    H135165   5.316   1.509   6.472  0.2638  2.9591  0.1742
 4534TIP3    H235166   5.403   1.431   6.376 -2.7217 -0.8904  0.3656
 4535TIP3   OH235167   0.363   0.448   7.149  0.0823 -0.1560  0.5468
 4535TIP3    H135168   0.385   0.391   7.222  1.0552 -2.0217 -1.0964
 4535TIP3    H235169   0.424   0.521   7.156 -0.9879  0.6372  2.5159
 4536TIP3   OH235170   5.821   3.991   1.078 -0.0592  0.6705  0.1729
 4536TIP3    H135171   5.763   4.036   1.139  1.5361  0.2388  2.1380
 4536TIP3    H235172   5.812   3.899   1.100  3.5903  0.7296  2.8851
 4537TIP3   OH235173   0.301   4.763   0.253 -0.1902  0.1925  0.6494
 4537TIP3    H135174   0.263   4.778   0.340 -2.7713 -0.1865 -0.3055
 4537TIP3    H235175   0.280   4.842   0.204  1.1070  0.3360  0.3020
 4538TIP3   OH235176   5.472   1.650   7.845 -0.1091 -0.1545  0.1394
 4538TIP3    H135177   5.467   1.718   7.779  2.0149  1.0615  1.1309
 4538TIP3    H235178   5.442   1.692   7.926 -1.8841 -1.3777  0.1875
 4539TIP3   OH235179   2.294   5.225   7.685  0.3714 -0.1115 -0.3264
 4539TIP3    H135180   2.243   5.268   7.754  1.6267  1.0694 -0.0986
 4539TIP3    H235181   2.250   5.140   7.672 -1.9575  1.0300 -0.5149
 4540TIP3   OH235182   6.148   6.181   1.408  0.4497  0.3362 -0.3244
 4540TIP3    H135183   6.163   6.204   1.316  0.1112  3.1004  0.2043
 4540TIP3    H235184   6.232   6.197   1.451 -0.1583  2.1480  0.3017
 4541TIP3   OH235185   3.089   6.543   6.497  0.2876  0.7997 -0.5302
 4541TIP3    H135186   3.089   6.638   6.483  0.2581  0.9333  0.2906
 4541TIP3    H235187   3.059   6.533   6.588 -2.4044 -0.1315 -1.4373
 4542TIP3   OH235188   0.395   2.250   6.236  0.1097  0.4409 -0.6018
 4542TIP3    H135189   0.391   2.330   6.289  0.3431  0.5409 -0.7331
 4542TIP3    H235190   0.405   2.179   6.300  0.1571  0.5403 -0.4991
 4543TIP3   OH235191   6.396   4.787   1.845  0.1381  0.2385  0.5748
 4543TIP3    H135192   6.312   4.752   1.814 -0.0815  0.6669  0.6747
 4543TIP3    H235193   6.376   4.877   1.871  0.8029  0.6272 -0.2120
 4544TIP3   OH235194   4.979   2.043   8.050 -0.4577  0.8783 -0.4024
 4544TIP3    H135195   4.983   2.056   8.144  0.0746 -0.0895 -0.2750
 4544TIP3    H235196   4.903   1.986   8.036  0.5670 -0.5779 -0.3286
 4545TIP3   OH235197   4.420   0.014   8.238  0.2113 -0.2488 -0.0690
 4545TIP3    H135198   4.370   0.087   8.203 -0.5193 -1.1282 -0.9115
 4545TIP3    H235199   4.507   0.050   8.256 -0.1411  0.8160 -0.4569
 4546TIP3   OH235200   6.517   3.367   8.243  0.7365 -0.0201  0.5309
 4546TIP3    H135201   6.445   3.304   8.242  1.6476 -1.0782 -0.8712
 4546TIP3    H235202   6.478   3.449   8.213 -0.2427 -0.1329  1.4434
 4547TIP3   OH235203   5.077   5.153   7.109  0.4272  0.6957  0.1119
 4547TIP3    H135204   5.021   5.076   7.102 -1.3749  1.8959  0.6095
 4547TIP3    H235205   5.103   5.173   7.019  1.4838 -0.8297  0.0316
 4548TIP3   OH235206   5.156   5.543   1.088 -0.2345 -0.2920  0.5865
 4548TIP3    H135207   5.088   5.589   1.039 -0.2589  0.1323  1.0075
 4548TIP3    H235208   5.136   5.562   1.180 -1.2045 -2.4755  0.8705
 4549TIP3   OH235209   4.441   6.112   7.147  0.4038 -0.4750  0.0362
 4549TIP3    H135210   4.473   6.022   7.145  2.6627  0.2774  0.2513
 4549TIP3    H235211   4.348   6.105   7.125  0.7301 -2.7606 -0.8128
 4550TIP3   OH235212   2.164   5.625   6.451  0.3187  0.0248  0.2636
 4550TIP3    H135213   2.226   5.696   6.434  1.7730 -1.0451  0.9063
 4550TIP3    H235214   2.180   5.562   6.380 -0.2047 -0.1516  0.2976
 4551TIP3   OH235215   1.392   4.501   1.458  0.3252  0.0337 -0.4536
 4551TIP3    H135216   1.473   4.495   1.507 -1.5114  1.3609  3.1059
 4551TIP3    H235217   1.378   4.413   1.423  2.0244 -0.8858  1.0597
 4552TIP3   OH235218   4.364   4.369   7.130  0.3308 -0.3954  0.0641
 4552TIP3    H135219   4.308   4.388   7.206  0.2950  0.3618 -0.1426
 4552TIP3    H235220   4.312   4.309   7.076 -0.7594  1.1552 -0.6662
 4553TIP3   OH235221   3.080   6.803   7.097  0.0667  0.3355  0.0359
 4553TIP3    H135222   3.067   6.708   7.092  1.3143 -0.0379  2.2286
 4553TIP3    H235223   3.071   6.822   7.191  1.7508  2.0683 -0.1119
 4554TIP3   OH235224   0.987   5.315   0.278 -0.2696 -0.5958 -0.1028
 4554TIP3    H135225   0.941   5.304   0.361  1.1746 -0.4840  0.7458
 4554TIP3    H235226   0.949   5.394   0.240  0.4117  0.5186  1.4160
 4555TIP3   OH235227   5.344   1.780   0.221  0.0470  0.3472 -0.7444
 4555TIP3    H135228   5.353   1.875   0.218 -2.1284  0.5760 -1.2001
 4555TIP3    H235229   5.267   1.761   0.168  0.4422 -1.6913 -0.6698
 4556TIP3   OH235230   0.221   4.549   1.061 -0.1442 -0.7338  0.0944
 4556TIP3    H135231   0.150   4.497   1.099 -0.1350 -0.2908  0.7520
 4556TIP3    H235232   0.192   4.571   0.973 -0.6845 -0.8192  0.2522
 4557TIP3   OH235233   1.739   4.967   0.700 -0.3937 -0.1996  0.0380
 4557TIP3    H135234   1.674   5.026   0.662  1.2591  0.9172 -1.1912
 4557TIP3    H235235   1.720   4.968   0.793 -1.6370  0.7135 -0.1916
 4558TIP3   OH235236   4.033   2.803   0.809 -0.7122 -0.0745 -1.0324
 4558TIP3    H135237   4.025   2.767   0.720  0.0041 -1.6303 -0.4988
 4558TIP3    H235238   4.103   2.751   0.849  0.4196  1.9865 -0.2128
 4559TIP3   OH235239   6.920   3.158   7.254 -0.2888 -0.1648 -0.2051
 4559TIP3    H135240   6.869   3.211   7.315 -0.6010 -1.3992  0.6561
 4559TIP3    H235241   6.863   3.083   7.235  1.5519 -2.2244  1.7403
 4560TIP3   OH235242   5.499   6.345   1.389  0.8815 -0.0697 -0.5212
 4560TIP3    H135243   5.435   6.380   1.328 -1.0669 -0.2035  1.3315
 4560TIP3    H235244   5.572   6.407   1.385 -0.4430  1.5345 -0.8330
 4561TIP3   OH235245   3.852   6.668   6.626 -0.0411 -0.6681 -0.4666
 4561TIP3    H135246   3.771   6.719   6.618  0.1847  0.1293  1.5428
 4561TIP3    H235247   3.916   6.731   6.660  0.4161 -2.1124  1.5197
 4562TIP3   OH235248   4.493   2.622   7.669  0.6299  0.3329 -0.0363
 4562TIP3    H135249   4.541   2.703   7.653  0.4547  0.7276  1.3181
 4562TIP3    H235250   4.518   2.596   7.758  0.1510 -0.7290 -0.1971
 4563TIP3   OH235251   0.980   6.923   1.617 -0.5657 -0.3433 -0.4636
 4563TIP3    H135252   0.949   6.985   1.683 -1.3190 -0.1100 -1.0299
 4563TIP3    H235253   1.047   6.872   1.662  0.5558  1.3082 -0.1708
 4564TIP3   OH235254   1.757   4.137   8.189  0.2075  0.3058 -0.7368
 4564TIP3    H135255   1.773   4.067   8.253 -2.1076  0.0927 -0.2899
 4564TIP3    H235256   1.675   4.111   8.145 -1.9684  3.6745  0.9182
 4565TIP3   OH235257   1.370   4.683   0.950 -0.6992 -0.5905  0.0534
 4565TIP3    H135258   1.440   4.641   1.000  0.8298 -0.1432 -1.6470
 4565TIP3    H235259   1.333   4.614   0.896  1.7810  0.0530 -2.7039
 4566TIP3   OH235260   6.405   1.338   6.639 -0.7165  0.7360 -0.2739
 4566TIP3    H135261   6.370   1.425   6.657 -1.0842  0.4858  0.2214
 4566TIP3    H235262   6.336   1.294   6.589 -0.7689  0.5312 -0.0226
 4567TIP3   OH235263   6.100   5.776   6.237  0.1979 -0.3268 -0.1572
 4567TIP3    H135264   6.079   5.683   6.236  0.1088 -0.4564  3.1529
 4567TIP3    H235265   6.055   5.810   6.314  0.1960  2.5069 -1.2876
 4568TIP3   OH235266   4.923   3.630   2.248 -0.7489 -0.2559 -0.2268
 4568TIP3    H135267   4.961   3.718   2.248 -3.1122  0.8621  0.6747
 4568TIP3    H235268   4.834   3.642   2.213 -0.6486 -2.5583 -1.4906
 4569TIP3   OH235269   1.646   3.718   0.771  0.5300 -0.0565 -0.3736
 4569TIP3    H135270   1.629   3.630   0.804  1.0726 -0.1314 -0.2837
 4569TIP3    H235271   1.659   3.771   0.850  1.1192 -0.0875 -0.4468
 4570TIP3   OH235272   3.417   4.111   2.264 -0.2085 -0.5621  0.0467
 4570TIP3    H135273   3.399   4.201   2.291 -1.7509 -0.9484  0.3577
 4570TIP3    H235274   3.512   4.110   2.249 -0.0309  0.8878  0.8435
 4571TIP3   OH235275   6.748   0.489   1.469 -0.1042 -0.0814 -0.8389
 4571TIP3    H135276   6.655   0.470   1.462 -0.1512 -1.2848  1.9658
 4571TIP3    H235277   6.753   0.585   1.465 -1.4806  0.0093 -0.8282
 4572TIP3   OH235278   2.112   0.735   7.368 -0.3740 -0.2044 -0.7184
 4572TIP3    H135279   2.137   0.766   7.281  0.3061  0.5246 -0.2750
 4572TIP3    H235280   2.160   0.652   7.378 -0.4626 -0.2970 -1.0421
 4573TIP3   OH235281   1.282   1.950   0.130 -0.6070  0.2970  0.1776
 4573TIP3    H135282   1.313   1.999   0.054  0.7783  0.0720  0.5810
 4573TIP3    H235283   1.358   1.941   0.186 -0.9251 -1.9086  0.3487
 4574TIP3   OH235284   3.999   1.537   0.647  0.1592  0.4869  0.3088
 4574TIP3    H135285   3.955   1.453   0.635  0.0954  0.8457 -2.4394
 4574TIP3    H235286   4.090   1.519   0.622 -0.2004  1.5434 -1.9965
 4575TIP3   OH235287   0.893   6.033   6.477  0.2711 -0.0880  0.4802
 4575TIP3    H135288   0.824   6.080   6.430 -1.1240 -0.8490  1.6796
 4575TIP3    H235289   0.950   6.000   6.408 -0.4299  0.7501 -0.5428
 4576TIP3   OH235290   2.575   1.969   1.893 -0.6543  0.0344  0.7997
 4576TIP3    H135291   2.625   1.961   1.812  0.8386  1.0998  1.5758
 4576TIP3    H235292   2.618   1.910   1.954 -1.6978 -0.6646  0.8973
 4577TIP3   OH235293   5.614   2.702   1.063 -0.3801  0.4846  0.4647
 4577TIP3    H135294   5.613   2.751   1.145  0.9081 -0.8673  1.3374
 4577TIP3    H235295   5.643   2.614   1.088  0.3614  0.1306 -1.4840
 4578TIP3   OH235296   3.350   5.085   0.606  0.4762  0.2716  0.1441
 4578TIP3    H135297   3.372   5.064   0.515 -1.0780  0.0657 -0.2177
 4578TIP3    H235298   3.257   5.063   0.613 -0.2221  3.1196  0.9283
 4579TIP3   OH235299   5.515   5.984   7.937  0.1547  0.5296 -0.1484
 4579TIP3    H135300   5.501   5.894   7.906 -3.5116  0.8872  0.0246
 4579TIP3    H235301   5.473   6.038   7.871  0.1433  1.9505  0.9834
 4580TIP3   OH235302   1.066   5.186   1.782  0.1831  0.2495  0.1048
 4580TIP3    H135303   1.006   5.128   1.735 -0.8910  0.4303  1.2121
 4580TIP3    H235304   1.135   5.128   1.815  0.0583 -0.1153 -0.2599
 4581TIP3   OH235305   6.380   2.941   1.611 -0.0365 -0.6253  0.3866
 4581TIP3    H135306   6.347   2.863   1.564 -0.6136 -0.3260  0.2852
 4581TIP3    H235307   6.366   3.013   1.550 -3.9394  0.3631  2.1502
 4582TIP3   OH235308   6.440   3.794   0.369 -0.5868  0.4110 -0.0766
 4582TIP3    H135309   6.422   3.858   0.437 -1.3908  1.0604 -0.8793
 4582TIP3    H235310   6.504   3.735   0.408 -1.0097  0.7838  1.2273
 4583TIP3   OH235311   0.305   2.224   2.301  0.4449  0.2506 -0.8247
 4583TIP3    H135312   0.254   2.291   2.256  0.2665 -0.3748 -1.5763
 4583TIP3    H235313   0.267   2.141   2.271  0.5576 -0.1890  0.2080
 4584TIP3   OH235314   1.522   4.240   1.176  0.0301  0.4170 -0.5669
 4584TIP3    H135315   1.567   4.267   1.256 -2.2378  0.2663  0.8490
 4584TIP3    H235316   1.552   4.151   1.160  1.1831  0.7668 -0.4246
 4585TIP3   OH235317   5.994   3.826   0.278  0.4090 -0.8803  0.1429
 4585TIP3    H135318   5.999   3.815   0.184  0.0018 -1.3053  0.1682
 4585TIP3    H235319   6.057   3.895   0.298 -0.8503  0.5526 -0.6621
 4586TIP3   OH235320   3.482   2.023   7.577  0.5579 -0.5733  1.2300
 4586TIP3    H135321   3.542   1.960   7.617  0.5995 -1.3382 -0.0039
 4586TIP3    H235322   3.535   2.067   7.511  0.4918  0.7002  1.9926
 4587TIP3   OH235323   2.176   1.904   6.379  0.5062  0.8297  0.2131
 4587TIP3    H135324   2.244   1.869   6.436  1.5208 -1.2339 -2.0912
 4587TIP3    H235325   2.093   1.876   6.419  1.2244 -1.9236 -0.0525
 4588TIP3   OH235326   5.577   6.834   1.292 -0.0012 -0.5870 -0.8514
 4588TIP3    H135327   5.622   6.834   1.208 -1.4032  0.7300 -1.6487
 4588TIP3    H235328   5.484   6.835   1.270 -0.4067  1.4912  0.6464
 4589TIP3   OH235329   0.684   5.259   0.376 -0.2881 -0.6743 -0.0227
 4589TIP3    H135330   0.646   5.207   0.447  1.9388 -3.5070 -0.7217
 4589TIP3    H235331   0.611   5.274   0.316 -1.4514 -1.2300  1.1871
 4590TIP3   OH235332   1.690   5.899   7.920  0.3909  0.5288  0.0435
 4590TIP3    H135333   1.720   5.881   8.009  0.8883  1.3481  0.0516
 4590TIP3    H235334   1.748   5.969   7.889  0.1391  0.3429 -0.8745
 4591TIP3   OH235335   1.992   2.630   6.494  0.0764  0.6755 -0.5109
 4591TIP3    H135336   1.896   2.623   6.487 -0.0556  1.2224  0.5241
 4591TIP3    H235337   2.022   2.640   6.404 -0.9340  1.6003 -0.7687
 4592TIP3   OH235338   0.888   2.016   0.493  0.3986 -0.7264 -0.4135
 4592TIP3    H135339   0.956   2.053   0.436  0.5555 -0.7535 -0.2428
 4592TIP3    H235340   0.834   2.092   0.519 -0.4481 -0.8790 -1.6306
 4593TIP3   OH235341   0.522   3.142   1.828  0.5924  0.2621 -0.0284
 4593TIP3    H135342   0.482   3.229   1.840  0.7225  0.1191  1.6629
 4593TIP3    H235343   0.598   3.143   1.886 -0.6837 -1.7438  1.8599
 4594TIP3   OH235344   3.801   0.103   0.355  0.3369  0.2085  0.2610
 4594TIP3    H135345   3.854   0.104   0.435  0.1765 -0.4201  0.3828
 4594TIP3    H235346   3.814   0.190   0.317 -1.2859  1.3160  2.0645
 4595TIP3   OH235347   0.425   3.111   0.319  0.0800 -0.1472 -0.1226
 4595TIP3    H135348   0.476   3.038   0.284  0.7126  0.3182 -0.2069
 4595TIP3    H235349   0.402   3.085   0.408  2.0942  0.3742  0.6131
 4596TIP3   OH235350   6.564   6.206   7.073 -0.4277 -0.2218 -0.3544
 4596TIP3    H135351   6.597   6.152   7.144  1.2480  0.2045 -0.7806
 4596TIP3    H235352   6.591   6.161   6.993  0.2407  0.7868 -0.7133
 4597TIP3   OH235353   1.022   1.368   6.703  0.0719  0.3386  0.0245
 4597TIP3    H135354   0.961   1.419   6.649 -1.9723 -1.7995  0.1296
 4597TIP3    H235355   1.047   1.428   6.773 -1.1172  1.6480 -0.6120
 4598TIP3   OH235356   6.634   5.767   7.499  0.2199 -0.0155 -0.2073
 4598TIP3    H135357   6.713   5.723   7.468  0.6736  1.1717 -0.7745
 4598TIP3    H235358   6.664   5.823   7.571  0.2206  1.7320 -1.5266
 4599TIP3   OH235359   3.793   6.564   0.136  0.1581  1.0400  0.3468
 4599TIP3    H135360   3.713   6.600   0.174 -0.0007 -0.5889  1.6499
 4599TIP3    H235361   3.843   6.530   0.210  0.4671 -1.0147 -0.7013
 4600TIP3   OH235362   2.949   5.512   8.179  0.4609 -0.3145 -0.6310
 4600TIP3    H135363   2.872   5.529   8.233  1.7993  0.5201  1.1068
 4600TIP3    H235364   2.933   5.561   8.099 -0.4103  0.6312  0.0917
 4601TIP3   OH235365   4.950   1.518   2.113  0.5770  0.0706 -0.0422
 4601TIP3    H135366   4.961   1.423   2.118  0.6293  0.1388  1.4859
 4601TIP3    H235367   4.856   1.532   2.123  0.5843  0.2028 -0.1411
 4602TIP3   OH235368   2.170   5.161   0.751 -0.6046  0.2843 -0.3287
 4602TIP3    H135369   2.260   5.130   0.756 -0.1528  1.6287  0.2448
 4602TIP3    H235370   2.158   5.215   0.829 -2.0694 -0.2542 -0.1433
 4603TIP3   OH235371   0.029   3.287   8.244  0.2586 -0.8168 -0.4800
 4603TIP3    H135372   0.041   3.377   8.213 -1.2454 -0.1257  0.8413
 4603TIP3    H235373   0.045   3.291   8.338  1.7454 -2.2815 -0.6146
 4604TIP3   OH235374   3.157   5.691   6.609  0.3209  0.2354 -0.2257
 4604TIP3    H135375   3.070   5.730   6.600  0.3109  0.4613  0.7364
 4604TIP3    H235376   3.190   5.723   6.693  0.4447 -1.5707  0.4697
 4605TIP3   OH235377   1.805   3.829   7.457 -0.4209  0.0474 -0.0029
 4605TIP3    H135378   1.839   3.860   7.540 -0.5479 -0.7125  0.3462
 4605TIP3    H235379   1.775   3.908   7.411  2.0552  0.8132 -0.4755
 4606TIP3   OH235380   1.966   5.332   6.238 -0.0614 -0.4660  0.0782
 4606TIP3    H135381   1.882   5.376   6.225 -0.7087 -1.9322 -1.0051
 4606TIP3    H235382   1.948   5.264   6.302  0.5958 -0.0429  0.7204
 4607TIP3   OH235383   1.691   0.310   0.653  0.4646 -0.8000 -0.1380
 4607TIP3    H135384   1.633   0.384   0.674  0.2025 -0.4523 -1.9251
 4607TIP3    H235385   1.779   0.348   0.656  0.4112 -0.6925  0.0822
 4608TIP3   OH235386   6.321   2.040   6.144  0.3912 -0.1278 -0.0458
 4608TIP3    H135387   6.394   2.087   6.104  0.3536 -0.3435 -0.3721
 4608TIP3    H235388   6.246   2.060   6.087  0.1391  0.3095  0.4382
 4609TIP3   OH235389   5.373   3.748   8.361  0.1059  0.2442  0.4403
 4609TIP3    H135390   5.280   3.745   8.341  0.4358  0.3170 -1.2120
 4609TIP3    H235391   5.394   3.842   8.366  0.1923  0.2341  0.2843
 4610TIP3   OH235392   2.076   2.745   1.639 -0.5566 -0.3835  0.0830
 4610TIP3    H135393   2.124   2.822   1.609  1.1389 -1.5613 -0.3646
 4610TIP3    H235394   2.029   2.775   1.717  1.0349  0.7879  0.6338
 4611TIP3   OH235395   0.811   1.229   0.120  0.2703 -0.0427  0.8421
 4611TIP3    H135396   0.806   1.223   0.024  0.5639  1.3196  0.7271
 4611TIP3    H235397   0.798   1.322   0.139  1.3718 -0.1124  2.0374
 4612TIP3   OH235398   2.867   1.761   1.079  0.0657  0.3381  0.4899
 4612TIP3    H135399   2.888   1.813   1.156  2.4072  0.2007  0.0276
 4612TIP3    H235400   2.854   1.826   1.009  1.0905  0.4101  0.3412
 4613TIP3   OH235401   2.049   3.639   2.427  0.3979 -0.2805  0.4168
 4613TIP3    H135402   2.092   3.679   2.352 -2.7769 -1.8410 -2.5323
 4613TIP3    H235403   2.079   3.548   2.426 -0.2413 -0.4966  0.5499
 4614TIP3   OH235404   3.017   2.982   7.721  0.4233  0.0302 -0.6440
 4614TIP3    H135405   2.933   3.021   7.696 -1.2696 -1.9496  1.5573
 4614TIP3    H235406   3.038   2.922   7.649 -1.8861 -2.0227  0.2877
 4615TIP3   OH235407   3.120   0.944   0.119 -0.1609  0.6121 -0.0877
 4615TIP3    H135408   3.119   1.010   0.050 -1.0204 -0.7061 -1.4065
 4615TIP3    H235409   3.194   0.967   0.174  0.4050  1.8448 -1.3140
 4616TIP3   OH235410   1.811   3.824   8.074  0.4265  0.6311 -0.2046
 4616TIP3    H135411   1.748   3.791   8.010  2.0468 -0.1136 -1.4831
 4616TIP3    H235412   1.854   3.897   8.030  0.5568  1.0689  0.6234
 4617TIP3   OH235413   1.633   2.978   1.157 -0.3921 -0.5071 -0.2481
 4617TIP3    H135414   1.687   3.012   1.228 -0.2468  0.6346 -0.8796
 4617TIP3    H235415   1.558   2.939   1.202  0.8602 -2.0053  0.6269
 4618TIP3   OH235416   5.570   3.870   6.507 -0.1210 -0.0265 -0.0287
 4618TIP3    H135417   5.582   3.833   6.594  1.7674  2.2792  0.8125
 4618TIP3    H235418   5.484   3.912   6.511 -1.6336 -2.8398 -0.5329
 4619TIP3   OH235419   1.719   4.494   2.128 -0.0803  0.4108 -0.0447
 4619TIP3    H135420   1.690   4.579   2.093 -0.0830  0.1255 -0.7503
 4619TIP3    H235421   1.801   4.514   2.173  0.6516  0.5761 -1.3890
 4620TIP3   OH235422   1.737   0.742   7.852 -0.2485 -0.2411  0.5965
 4620TIP3    H135423   1.765   0.830   7.877  1.7141 -1.2747  2.4067
 4620TIP3    H235424   1.807   0.710   7.796 -1.7902 -0.1064 -1.5289
 4621TIP3   OH235425   4.279   2.101   7.141  0.0650  0.2977 -0.2823
 4621TIP3    H135426   4.194   2.066   7.113 -0.1798 -0.0618  0.8123
 4621TIP3    H235427   4.283   2.078   7.234  1.1347  0.7822 -0.2022
 4622TIP3   OH235428   3.952   6.917   1.535 -0.0367 -0.4670  0.2430
 4622TIP3    H135429   3.957   6.827   1.504 -0.4292  0.0580 -1.4580
 4622TIP3    H235430   4.039   6.935   1.571  1.0814 -0.5891 -2.2105
 4623TIP3   OH235431   4.990   2.743   1.143 -0.6807  0.0050  0.2186
 4623TIP3    H135432   4.976   2.693   1.224 -0.2556 -0.4584  0.0118
 4623TIP3    H235433   4.974   2.679   1.073  0.0828  0.0959 -0.0473
 4624TIP3   OH235434   0.148   1.430   2.045  0.4649 -0.5378 -0.4367
 4624TIP3    H135435   0.055   1.425   2.066  0.1522  0.3368 -1.5350
 4624TIP3    H235436   0.154   1.499   1.979  2.1252  0.7361  0.9470
 4625TIP3   OH235437   2.484   6.846   6.534  0.2026  0.1672 -0.2783
 4625TIP3    H135438   2.467   6.824   6.443  2.3570  0.6563 -0.8482
 4625TIP3    H235439   2.546   6.779   6.563  0.3463  0.6369  0.5178
 4626TIP3   OH235440   5.716   1.867   0.965  0.0954  0.2739 -0.2123
 4626TIP3    H135441   5.657   1.792   0.979  1.2840 -0.7703 -0.5673
 4626TIP3    H235442   5.803   1.832   0.985  0.5704  1.8764  0.6661
 4627TIP3   OH235443   5.116   0.291   2.057 -0.6493 -0.3090 -0.3357
 4627TIP3    H135444   5.189   0.352   2.049 -0.4489 -0.1145  2.2712
 4627TIP3    H235445   5.147   0.211   2.014  0.9274 -0.0716  0.2913
 4628TIP3   OH235446   6.802   1.024   5.990  0.2370 -0.3900 -0.0945
 4628TIP3    H135447   6.758   0.947   5.954  0.7538 -0.8385  0.2072
 4628TIP3    H235448   6.865   0.988   6.053  0.7831  0.2563 -0.2601
 4629TIP3   OH235449   6.495   5.354   2.565 -0.2273  0.0295  0.0625
 4629TIP3    H135450   6.411   5.324   2.598 -0.0552 -0.1672  0.3270
 4629TIP3    H235451   6.555   5.282   2.584  0.3034  0.7323  1.1799
 4630TIP3   OH235452   3.277   0.461   0.035 -0.0377  0.5719 -0.2850
 4630TIP3    H135453   3.239   0.531  -0.018  0.8026  0.6893 -0.7535
 4630TIP3    H235454   3.364   0.493   0.057  0.1006 -0.0413  0.0726
 4631TIP3   OH235455   6.117   0.625   8.278  0.0899  0.1204  0.6849
 4631TIP3    H135456   6.106   0.706   8.228  1.6327 -0.1702 -0.1715
 4631TIP3    H235457   6.043   0.571   8.252  0.2155  0.4423 -0.3760
 4632TIP3   OH235458   5.111   1.581   7.566  0.2456  0.3525 -0.5345
 4632TIP3    H135459   5.061   1.562   7.487 -1.8277  1.6156  0.3797
 4632TIP3    H235460   5.062   1.651   7.609  0.2384 -1.4697  2.7679
 4633TIP3   OH235461   4.944   0.878   6.826 -0.5538 -0.4189 -0.7179
 4633TIP3    H135462   4.966   0.961   6.785  0.2003  0.6173  1.5910
 4633TIP3    H235463   4.986   0.812   6.771  0.5187  0.8712 -1.5135
 4634TIP3   OH235464   5.483   1.354   7.957 -0.1248  0.6788  0.1222
 4634TIP3    H135465   5.497   1.411   8.032 -0.4902 -0.5152  1.1303
 4634TIP3    H235466   5.419   1.400   7.903 -3.5860 -0.4009  2.8843
 4635TIP3   OH235467   3.171   4.976   1.533 -1.0258 -0.3921  0.5256
 4635TIP3    H135468   3.236   4.958   1.465  0.7278  0.4562  1.8812
 4635TIP3    H235469   3.171   4.898   1.588 -0.1658  0.0914  1.2438
 4636TIP3   OH235470   6.135   4.481   0.842 -0.2319  0.5796 -0.0914
 4636TIP3    H135471   6.219   4.454   0.880 -1.1729 -0.2150  1.5370
 4636TIP3    H235472   6.113   4.563   0.886 -2.5184 -1.5621  3.2203
 4637TIP3   OH235473   6.254   3.340   0.156 -0.4768  0.1343 -0.1492
 4637TIP3    H135474   6.184   3.286   0.192 -2.5367  0.8996 -2.6621
 4637TIP3    H235475   6.276   3.298   0.073  1.2376  0.5839  0.0434
 4638TIP3   OH235476   0.400   3.665   6.217 -0.1391  0.0590 -0.7376
 4638TIP3    H135477   0.422   3.728   6.286 -0.8341  0.0716 -0.5216
 4638TIP3    H235478   0.343   3.713   6.157 -0.8440 -0.4175 -0.4615
 4639TIP3   OH235479   5.619   5.930   0.910  0.2572  0.5921 -0.4163
 4639TIP3    H135480   5.592   5.993   0.843 -1.4793 -0.2130 -0.5150
 4639TIP3    H235481   5.553   5.937   0.979  0.5392 -0.4848 -0.0128
 4640TIP3   OH235482   5.158   1.146   5.744  0.2285  0.1715  0.2425
 4640TIP3    H135483   5.247   1.126   5.773  0.5876  0.8709 -0.3408
 4640TIP3    H235484   5.129   1.216   5.802  0.7821  1.2616 -0.7517
 4641TIP3   OH235485   2.154   4.368   6.372 -0.1592  0.1935  0.6117
 4641TIP3    H135486   2.172   4.279   6.342 -2.2245  0.6978 -2.4751
 4641TIP3    H235487   2.223   4.421   6.332  0.1566  0.2180  1.1722
 4642TIP3   OH235488   1.833   6.175   6.903  0.7435 -0.0550  0.2095
 4642TIP3    H135489   1.849   6.085   6.930  0.2879  0.4097  2.1620
 4642TIP3    H235490   1.738   6.185   6.908  0.6122  0.0844 -1.6546
 4643TIP3   OH235491   0.694   1.140   0.504  0.0588  0.1484  0.0368
 4643TIP3    H135492   0.678   1.227   0.539  0.4927 -0.2909  1.4177
 4643TIP3    H235493   0.770   1.108   0.554  0.0608 -0.9135 -0.6131
 4644TIP3   OH235494   3.615   2.981   2.021 -0.2470 -0.1502  0.3011
 4644TIP3    H135495   3.681   3.020   2.078  0.9421  1.4839 -2.0050
 4644TIP3    H235496   3.614   2.888   2.045  1.0529  0.2632  2.1128
 4645TIP3   OH235497   5.412   6.810   6.119 -0.4871 -0.2042  0.0690
 4645TIP3    H135498   5.492   6.772   6.082 -0.2326 -2.2769  2.4671
 4645TIP3    H235499   5.436   6.899   6.141  0.7892 -0.4215 -0.3681
 4646TIP3   OH235500   1.059   2.028   0.708 -0.0050  0.0053 -0.2159
 4646TIP3    H135501   1.072   1.933   0.705 -1.3594 -0.1971 -0.4455
 4646TIP3    H235502   0.983   2.043   0.652 -1.1763  0.9559  1.5531
 4647TIP3   OH235503   5.947   4.793   2.260 -0.0569 -0.4148 -0.3317
 4647TIP3    H135504   5.955   4.703   2.228  2.1005 -0.2555 -0.4180
 4647TIP3    H235505   5.963   4.786   2.354 -0.3211 -0.1799 -0.2709
 4648TIP3   OH235506   0.569   6.918   8.084  0.0800  0.0264  0.3928
 4648TIP3    H135507   0.645   6.861   8.094  1.1615  1.1293 -0.9745
 4648TIP3    H235508   0.513   6.872   8.022 -0.3643 -0.7656  1.3606
 4649TIP3   OH235509   3.863   6.251   1.547 -0.5926 -0.0414 -0.2924
 4649TIP3    H135510   3.855   6.283   1.636 -1.1725  0.7118 -0.6001
 4649TIP3    H235511   3.826   6.321   1.493 -1.3853 -0.9968 -1.0361
 4650TIP3   OH235512   0.386   4.381   0.373 -0.4178 -0.2359 -0.1164
 4650TIP3    H135513   0.323   4.414   0.437 -0.9357 -0.7186 -0.3693
 4650TIP3    H235514   0.334   4.326   0.315 -0.5372  2.2884 -2.5984
 4651TIP3   OH235515   0.479   6.759   0.541  0.0701 -0.0788 -0.2934
 4651TIP3    H135516   0.525   6.816   0.479 -0.3655  0.3268 -0.2448
 4651TIP3    H235517   0.397   6.736   0.496  0.5297 -1.2080 -0.5897
 4652TIP3   OH235518   1.768   6.086   6.627  0.3466  0.4118  0.0952
 4652TIP3    H135519   1.784   6.130   6.711  0.3618  0.1974  0.2050
 4652TIP3    H235520   1.855   6.081   6.585 -0.0466  3.0480 -1.1982
 4653TIP3   OH235521   1.162   5.151   0.134  0.0095 -0.5857  0.7075
 4653TIP3    H135522   1.116   5.185   0.211 -1.4645 -1.3468  0.1884
 4653TIP3    H235523   1.213   5.225   0.102  0.5627 -0.2229  2.3437
 4654TIP3   OH235524   6.797   4.298   7.311 -0.2445 -0.2342 -0.0867
 4654TIP3    H135525   6.868   4.236   7.324  0.8185  0.6329 -1.4762
 4654TIP3    H235526   6.730   4.272   7.375  0.2642 -2.6216 -0.4374
 4655TIP3   OH235527   0.492   0.092   0.501 -1.0565  0.6035 -0.0208
 4655TIP3    H135528   0.435   0.091   0.424 -2.3509 -2.9029  0.7730
 4655TIP3    H235529   0.461   0.165   0.554 -2.9445  0.5119 -0.9254
 4656TIP3   OH235530   5.052   2.787   7.975 -0.2936 -0.3184 -0.2655
 4656TIP3    H135531   5.044   2.841   8.054 -0.3376 -0.4081 -0.2091
 4656TIP3    H235532   5.130   2.821   7.930 -0.5800  0.0918 -0.4613
 4657TIP3   OH235533   1.751   1.268   0.225 -0.3953  0.6584 -0.2788
 4657TIP3    H135534   1.787   1.345   0.180 -1.0557  1.1433  0.0075
 4657TIP3    H235535   1.783   1.276   0.315  1.2180 -0.4965 -0.7027
 4658TIP3   OH235536   2.552   2.261   7.188  0.1289 -0.2630  0.4970
 4658TIP3    H135537   2.593   2.225   7.267 -0.8699 -1.9934  0.2836
 4658TIP3    H235538   2.625   2.279   7.130  0.7138 -2.3208  0.5083
 4659TIP3   OH235539   1.008   5.777   7.733 -0.0058 -0.0340 -0.2479
 4659TIP3    H135540   0.986   5.718   7.805 -0.3531  1.4417  0.9061
 4659TIP3    H235541   1.072   5.837   7.770 -0.1587  0.7364 -1.1902
 4660TIP3   OH235542   3.431   2.024   8.283  0.2577  0.7807  0.4903
 4660TIP3    H135543   3.439   1.961   8.354 -0.0223 -0.2766 -0.3735
 4660TIP3    H235544   3.520   2.036   8.251  0.4372  1.5650  1.2592
 4661TIP3   OH235545   5.172   4.521   0.677  0.6541 -0.3900 -0.5919
 4661TIP3    H135546   5.172   4.430   0.648  0.4757 -0.0365 -1.7259
 4661TIP3    H235547   5.187   4.516   0.772 -1.1587 -1.7090 -0.3147
 4662TIP3   OH235548   4.243   0.699   7.769 -0.1119 -0.2538  0.5127
 4662TIP3    H135549   4.155   0.692   7.731  0.0271 -2.3988  0.4704
 4662TIP3    H235550   4.232   0.671   7.860  0.3450  0.5789  0.8357
 4663TIP3   OH235551   1.774   0.638   1.874  0.0002  0.3797 -0.4243
 4663TIP3    H135552   1.740   0.622   1.962  1.4714  0.0349  0.1097
 4663TIP3    H235553   1.738   0.567   1.822 -0.2414  0.1227  0.0796
 4664TIP3   OH235554   0.283   1.145   1.442 -0.1060 -0.0556  0.0551
 4664TIP3    H135555   0.193   1.170   1.464 -0.8509 -2.9743  0.7513
 4664TIP3    H235556   0.298   1.181   1.354 -1.2191  2.0630  0.6644
 4665TIP3   OH235557   1.641   4.199   7.651 -0.0704  0.3207 -0.1237
 4665TIP3    H135558   1.665   4.272   7.594 -0.9272 -0.0242 -0.9530
 4665TIP3    H235559   1.549   4.182   7.632 -1.6210  2.5856  4.0084
 4666TIP3   OH235560   4.425   6.078   0.649 -0.3592 -0.4194  0.3601
 4666TIP3    H135561   4.474   5.996   0.644  1.2507  0.4937  0.5192
 4666TIP3    H235562   4.398   6.084   0.741 -0.3226 -0.6867  0.3882
 4667TIP3   OH235563   6.338   2.541   8.268  0.1094  0.0162 -0.0426
 4667TIP3    H135564   6.413   2.510   8.319  0.9378  0.6745 -0.8348
 4667TIP3    H235565   6.291   2.462   8.244  2.4722 -0.7645 -2.4888
 4668TIP3   OH235566   5.434   4.369   6.347  0.1969 -0.7246  0.3065
 4668TIP3    H135567   5.409   4.333   6.262 -0.0926  1.8597 -0.7772
 4668TIP3    H235568   5.524   4.399   6.336 -0.6389  1.9488  0.0037
 4669TIP3   OH235569   2.450   0.163   1.174  0.1410  0.0627  0.2009
 4669TIP3    H135570   2.469   0.082   1.222  1.1607  0.4184  0.4309
 4669TIP3    H235571   2.536   0.192   1.142 -0.3809  0.4142 -0.9111
 4670TIP3   OH235572   2.713   6.353   0.806 -0.6382  0.2849  0.1851
 4670TIP3    H135573   2.715   6.259   0.828 -0.1163  0.3278  0.3479
 4670TIP3    H235574   2.622   6.379   0.819 -0.8279 -0.2399 -0.0345
 4671TIP3   OH235575   1.316   1.154   8.227 -0.2174  0.0183  1.2963
 4671TIP3    H135576   1.297   1.247   8.210 -0.3554  0.0813  1.7855
 4671TIP3    H235577   1.296   1.110   8.144 -0.1375  0.4301  1.0577
 4672TIP3   OH235578   5.533   1.541   8.159 -0.1584 -0.9166 -0.1634
 4672TIP3    H135579   5.509   1.629   8.131 -1.3324 -0.7514  1.2120
 4672TIP3    H235580   5.626   1.547   8.181 -0.2348 -0.0139 -0.0644
 4673TIP3   OH235581   5.702   2.609   1.413  0.6513 -0.0647  0.5022
 4673TIP3    H135582   5.780   2.659   1.388  0.4910 -0.3896 -0.7257
 4673TIP3    H235583   5.718   2.521   1.378  0.1389 -0.3835  1.0590
 4674TIP3   OH235584   2.975   6.770   0.958 -0.1401 -0.5910 -0.3968
 4674TIP3    H135585   3.063   6.779   0.921  1.3404  0.1144  2.8529
 4674TIP3    H235586   2.961   6.675   0.962  1.5989 -0.8666  1.1236
 4675TIP3   OH235587   2.104   2.792   8.202 -0.3340 -0.5174  0.0164
 4675TIP3    H135588   2.159   2.782   8.280 -0.3954 -1.0581 -0.0061
 4675TIP3    H235589   2.101   2.704   8.163  0.6356 -0.0332 -1.2302
 4676TIP3   OH235590   6.510   0.262   7.494 -0.4379  0.2938  0.1636
 4676TIP3    H135591   6.520   0.348   7.452 -0.2028 -0.3752 -1.2152
 4676TIP3    H235592   6.494   0.202   7.421  1.9188 -1.2518  0.8341
 4677TIP3   OH235593   4.696   6.177   0.141  0.4554  0.6081  0.4147
 4677TIP3    H135594   4.731   6.258   0.177  1.5207  0.1473  0.4502
 4677TIP3    H235595   4.733   6.172   0.053 -1.0813  1.0712 -0.2792
 4678TIP3   OH235596   5.475   3.703   1.954 -0.5463 -0.6783 -0.4106
 4678TIP3    H135597   5.489   3.771   1.888  0.3509 -0.5333 -0.0819
 4678TIP3    H235598   5.557   3.654   1.957  0.0298  0.2793  1.6610
 4679TIP3   OH235599   3.074   4.181   7.496  0.9393 -0.0234 -0.2061
 4679TIP3    H135600   3.002   4.210   7.440  1.6618  0.6862 -0.7849
 4679TIP3    H235601   3.036   4.110   7.548 -0.1584  0.2940 -0.5421
 4680TIP3   OH235602   4.910   1.646   1.101 -0.1359  0.7702 -0.0618
 4680TIP3    H135603   4.839   1.653   1.165 -1.1194 -1.5197 -0.7979
 4680TIP3    H235604   4.885   1.707   1.031 -0.1863  1.6369  0.6894
 4681TIP3   OH235605   0.595   3.918   6.977  0.1655  0.0327  0.7039
 4681TIP3    H135606   0.635   4.004   6.970 -1.5901  0.8010 -0.3351
 4681TIP3    H235607   0.658   3.859   6.934  0.8425  0.9481  0.4119
 4682TIP3   OH235608   0.156   5.842   7.710  0.0078  0.0446 -0.3768
 4682TIP3    H135609   0.194   5.899   7.776  0.5759  1.0904 -1.5686
 4682TIP3    H235610   0.230   5.797   7.670 -0.4335 -1.6293  0.5849
 4683TIP3   OH235611   2.971   5.641   7.923  0.7567 -0.3360  0.0416
 4683TIP3    H135612   2.920   5.699   7.980  0.3256 -1.1709  0.5202
 4683TIP3    H235613   3.010   5.700   7.858 -0.7613  0.3418 -0.3053
 4684TIP3   OH235614   4.304   3.290   7.910  0.1086  0.4830  0.4491
 4684TIP3    H135615   4.370   3.224   7.932 -0.3350 -0.5690 -1.1726
 4684TIP3    H235616   4.289   3.337   7.992  2.1247  0.1021  1.0886
 4685TIP3   OH235617   0.939   3.408   7.547 -0.8548 -0.3218  0.1406
 4685TIP3    H135618   0.871   3.343   7.527  0.6712 -1.7394 -0.7693
 4685TIP3    H235619   0.998   3.405   7.472  2.6129 -2.4147  2.6161
 4686TIP3   OH235620   4.726   5.950   8.326 -0.4242  0.2396  0.5829
 4686TIP3    H135621   4.733   5.922   8.418  1.7851 -0.6550  0.2129
 4686TIP3    H235622   4.759   5.875   8.276  0.4359  1.4942 -0.8172
 4687TIP3   OH235623   4.159   4.082   8.191 -0.2212 -0.2631 -0.1358
 4687TIP3    H135624   4.188   4.122   8.272 -2.0004 -0.0170  0.4241
 4687TIP3    H235625   4.091   4.020   8.218 -0.4844 -0.5464 -1.3836
 4688TIP3   OH235626   4.998   4.192   2.042  0.1384  0.4529 -0.1680
 4688TIP3    H135627   4.929   4.213   1.979  0.0632  2.2658  0.4891
 4688TIP3    H235628   4.952   4.171   2.122  0.2289 -2.0040 -0.6778
 4689TIP3   OH235629   6.374   2.358   1.513 -0.2951 -0.0475  0.1966
 4689TIP3    H135630   6.327   2.358   1.597 -0.2063 -1.2322  0.2702
 4689TIP3    H235631   6.306   2.375   1.448 -0.4747  0.2571  0.4637
 4690TIP3   OH235632   4.990   1.211   7.110  0.3745  0.0023  0.1726
 4690TIP3    H135633   5.036   1.267   7.173 -2.1944  1.1336  1.1771
 4690TIP3    H235634   5.017   1.245   7.025  1.8625  0.1824  0.6729
 4691TIP3   OH235635   3.756   0.796   8.179  0.3126  0.1147 -0.2127
 4691TIP3    H135636   3.768   0.752   8.263 -1.5654  1.1296  0.6392
 4691TIP3    H235637   3.832   0.854   8.171  0.8675 -0.5145  0.4396
 4692TIP3   OH235638   5.319   5.427   7.560  0.7096  0.0540 -0.3876
 4692TIP3    H135639   5.290   5.367   7.491 -0.7542  1.3406 -0.9489
 4692TIP3    H235640   5.258   5.500   7.555  2.0994  1.3410  0.6532
 4693TIP3   OH235641   0.394   0.325   0.582  0.0290  0.0064  0.1302
 4693TIP3    H135642   0.322   0.387   0.583 -0.3735 -0.4550 -0.2012
 4693TIP3    H235643   0.473   0.380   0.577 -0.2712  0.5249  0.9046
 4694TIP3   OH235644   5.869   4.779   0.437 -0.5531 -0.4799  0.4469
 4694TIP3    H135645   5.952   4.753   0.479 -0.2713  1.1264  0.9597
 4694TIP3    H235646   5.896   4.816   0.353 -0.8296 -0.6639  0.2771
 4695TIP3   OH235647   6.063   0.304   1.932  0.4230 -0.4816 -0.5733
 4695TIP3    H135648   6.055   0.215   1.965  1.9910 -0.4956 -0.1435
 4695TIP3    H235649   6.024   0.358   2.000  1.5006 -0.6964  0.2500
 4696TIP3   OH235650   0.668   6.735   0.030 -0.6388 -0.5603  0.7844
 4696TIP3    H135651   0.711   6.714  -0.053 -0.8319  1.6067  0.0692
 4696TIP3    H235652   0.674   6.830   0.037 -5.1909 -0.0089  0.6531
 4697TIP3   OH235653   1.853   0.051   8.031 -0.1120  0.0423 -0.2811
 4697TIP3    H135654   1.900   0.081   8.109 -3.0533 -1.2272  2.1562
 4697TIP3    H235655   1.823   0.131   7.988  2.2329  0.7865 -0.6896
 4698TIP3   OH235656   5.904   5.553   8.244  0.3334  0.5890  0.1060
 4698TIP3    H135657   5.880   5.627   8.188 -0.0353  0.1368 -0.3478
 4698TIP3    H235658   5.867   5.574   8.329 -1.6665 -0.0446 -0.5410
 4699TIP3   OH235659   2.316   6.676   1.055  0.3780 -0.0376 -0.5289
 4699TIP3    H135660   2.345   6.764   1.080 -1.2142 -0.0552  1.6616
 4699TIP3    H235661   2.257   6.691   0.981 -0.2782  0.8172  0.1475
 4700TIP3   OH235662   6.783   5.531   6.841 -0.5561  0.7411 -0.2301
 4700TIP3    H135663   6.775   5.541   6.746  0.7499 -1.3128 -0.6122
 4700TIP3    H235664   6.715   5.467   6.864  0.4117 -0.2660 -0.1115
 4701TIP3   OH235665   5.748   1.955   1.396  0.5166 -0.2574  0.2458
 4701TIP3    H135666   5.818   1.912   1.347 -0.4645  0.8238 -2.2982
 4701TIP3    H235667   5.674   1.955   1.336 -0.7552  1.2745  1.7332
 4702TIP3   OH235668   6.960   0.880   6.157  0.0161 -0.2902  1.0932
 4702TIP3    H135669   7.051   0.863   6.132 -0.7728 -0.5115 -2.0319
 4702TIP3    H235670   6.952   0.846   6.246  2.8059 -0.8437  1.2056
 4703TIP3   OH235671   2.327   1.546   6.328  0.3807  0.4102  0.6867
 4703TIP3    H135672   2.264   1.479   6.354 -1.0962  2.1992  2.0221
 4703TIP3    H235673   2.307   1.564   6.237 -0.0192 -0.1096  0.6650
 4704TIP3   OH235674   6.053   0.583   7.114  0.1146  0.3992 -0.3220
 4704TIP3    H135675   6.120   0.648   7.136 -0.7783  1.4390 -0.6010
 4704TIP3    H235676   6.082   0.546   7.031  1.6799 -1.0509  0.7952
 4705TIP3   OH235677   1.002   2.137   1.374 -0.4815  0.0345 -0.3559
 4705TIP3    H135678   1.038   2.076   1.438  1.3306  1.6377  0.2640
 4705TIP3    H235679   0.925   2.174   1.418  0.6779  1.0374  0.9273
 4706TIP3   OH235680   2.774   5.531   0.995 -0.4827  0.3084 -0.3558
 4706TIP3    H135681   2.736   5.463   0.939 -0.9823  0.4265 -0.1729
 4706TIP3    H235682   2.765   5.496   1.084  1.2250 -0.3230 -0.4009
 4707TIP3   OH235683   2.841   4.371   8.120  0.2715 -0.1166  0.4574
 4707TIP3    H135684   2.877   4.438   8.178 -1.2006 -0.1141  1.4239
 4707TIP3    H235685   2.775   4.418   8.068 -0.1590 -0.6277  0.5375
 4708TIP3   OH235686   6.333   3.559   1.731  0.3540  0.1742  0.4373
 4708TIP3    H135687   6.362   3.650   1.734 -0.3644  0.4675 -0.7928
 4708TIP3    H235688   6.242   3.562   1.761  0.5227 -0.2444  1.0128
 4709TIP3   OH235689   5.663   5.613   1.022 -0.7193 -0.2267 -0.5064
 4709TIP3    H135690   5.706   5.638   0.941  1.1365 -0.3570  0.3873
 4709TIP3    H235691   5.570   5.621   1.003 -0.3072  0.9688 -2.2431
 4710TIP3   OH235692   3.984   0.029   1.053 -0.2628 -0.1817 -0.8423
 4710TIP3    H135693   3.933  -0.041   1.093 -0.3516  0.4333  0.1449
 4710TIP3    H235694   3.917   0.090   1.019 -0.2451 -1.5808 -3.6449
 4711TIP3   OH235695   2.659   1.925   8.211  0.1011 -0.3220 -0.1773
 4711TIP3    H135696   2.592   1.901   8.148  1.5729  0.8422 -2.3333
 4711TIP3    H235697   2.658   2.021   8.212  1.5242 -0.2813 -0.0692
 4712TIP3   OH235698   1.904   5.921   1.307 -0.2807  0.1219 -0.4431
 4712TIP3    H135699   1.897   5.842   1.253 -2.9400  0.2551 -0.3870
 4712TIP3    H235700   1.834   5.912   1.372  1.0250  1.3319  1.2177
 4713TIP3   OH235701   2.593   5.400   8.260 -0.6747 -0.6013 -0.2907
 4713TIP3    H135702   2.502   5.417   8.234 -1.5488 -0.1974  2.6385
 4713TIP3    H235703   2.642   5.473   8.222 -2.2995  1.5231  1.3925
 4714TIP3   OH235704   6.575   0.910   1.039 -0.6549 -0.6564 -0.5609
 4714TIP3    H135705   6.641   0.849   1.072 -0.0194  0.7119  0.8034
 4714TIP3    H235706   6.605   0.996   1.068 -2.8650  0.0374 -0.1599
 4715TIP3   OH235707   5.425   1.067   1.839  0.4903  0.3564 -0.2080
 4715TIP3    H135708   5.392   1.125   1.907 -0.0172 -0.5206  0.3254
 4715TIP3    H235709   5.480   1.004   1.886 -0.3602 -0.6384 -0.4767
 4716TIP3   OH235710   3.120   0.114   8.323  0.1043  0.7784 -0.0285
 4716TIP3    H135711   3.196   0.133   8.268  0.8369  0.4972  0.8538
 4716TIP3    H235712   3.110   0.192   8.378  1.8191 -0.4303  2.1365
 4717TIP3   OH235713   5.542   1.670   7.479 -0.0742  0.2505  0.1289
 4717TIP3    H135714   5.596   1.592   7.485  2.0422  1.6959  1.2165
 4717TIP3    H235715   5.479   1.651   7.409  1.5764 -1.7034 -0.9154
 4718TIP3   OH235716   0.278   1.897   0.837  0.0981 -1.0198  0.4502
 4718TIP3    H135717   0.212   1.953   0.877  1.9659  1.5522  0.1982
 4718TIP3    H235718   0.245   1.881   0.748 -0.5044 -0.3208  0.5329
 4719TIP3   OH235719   0.304   6.806   7.826  0.5698  0.2957  0.6362
 4719TIP3    H135720   0.364   6.750   7.877  0.2666  0.3960  1.1121
 4719TIP3    H235721   0.222   6.757   7.826  0.8970 -0.3067 -0.8479
 4720TIP3   OH235722   6.562   0.161   1.866 -0.2538  0.6863 -0.2285
 4720TIP3    H135723   6.479   0.192   1.828  0.2812  0.4040 -1.6987
 4720TIP3    H235724   6.578   0.077   1.823  1.3367  1.2505 -0.8188
 4721TIP3   OH235725   4.797   6.094   6.003  0.5109  0.0848  0.2000
 4721TIP3    H135726   4.849   6.099   6.083  0.2568 -1.0824  0.4475
 4721TIP3    H235727   4.783   6.001   5.989  1.5563  0.1941 -1.8826
 4722TIP3   OH235728   5.903   0.801   0.301  0.3765 -0.0317  0.2803
 4722TIP3    H135729   5.840   0.808   0.229  0.6276  0.7684  0.1309
 4722TIP3    H235730   5.988   0.817   0.260  0.3481  2.8307  1.0955
 4723TIP3   OH235731   6.685   2.202   6.589 -0.1910  0.3117 -0.6027
 4723TIP3    H135732   6.649   2.290   6.586  0.6318  0.6685 -0.3339
 4723TIP3    H235733   6.757   2.203   6.526 -0.5775 -0.3583 -1.0684
 4724TIP3   OH235734   2.874   0.644   0.008 -0.1349 -0.3744 -0.0680
 4724TIP3    H135735   2.826   0.722   0.036  0.4101 -0.4364  1.1040
 4724TIP3    H235736   2.880   0.590   0.087 -0.4541 -1.5952 -0.8450
 4725TIP3   OH235737   3.720   6.822   8.031 -0.1632 -0.5663 -0.4947
 4725TIP3    H135738   3.713   6.761   8.104  0.0405  0.1346  0.1290
 4725TIP3    H235739   3.808   6.860   8.039 -0.9276  1.1728  0.2639
 4726TIP3   OH235740   3.939   4.554   7.979 -0.1040 -0.3258  0.8259
 4726TIP3    H135741   3.934   4.512   8.065 -1.5897 -1.1876  0.3621
 4726TIP3    H235742   3.937   4.481   7.917  0.6606  0.3028  0.0403
 4727TIP3   OH235743   0.840   6.705   0.434 -0.4254 -0.0745  0.2546
 4727TIP3    H135744   0.786   6.778   0.403  1.1447  1.3218  0.6675
 4727TIP3    H235745   0.871   6.733   0.520  1.1471 -0.7235 -0.0807
 4728TIP3   OH235746   0.005   5.657   1.684 -0.5228 -0.0877 -0.3170
 4728TIP3    H135747   0.053   5.670   1.766 -0.9800  0.2401 -0.0963
 4728TIP3    H235748  -0.036   5.742   1.667 -1.0560 -0.3736 -0.4808
 4729TIP3   OH235749   1.830   1.917   7.677 -0.4875 -0.2384  0.3611
 4729TIP3    H135750   1.874   1.833   7.686  0.2026  0.0734 -0.0382
 4729TIP3    H235751   1.808   1.943   7.766 -0.0225 -0.4812  0.5488
 4730TIP3   OH235752   1.728   5.577   6.357  0.3900  0.3955  0.5790
 4730TIP3    H135753   1.711   5.506   6.295  3.7619  1.3273 -1.7066
 4730TIP3    H235754   1.702   5.656   6.311 -0.4660  0.9120  1.8874
 4731TIP3   OH235755   2.643   0.114   2.242  0.1152  0.2911  0.5548
 4731TIP3    H135756   2.582   0.186   2.260  1.4367  1.1494  1.8231
 4731TIP3    H235757   2.688   0.140   2.162 -0.8284 -0.1354 -0.1382
 4732TIP3   OH235758   2.687   4.483   1.107  0.2485 -0.0557 -0.6917
 4732TIP3    H135759   2.712   4.558   1.161  0.7844 -0.3676 -0.4983
 4732TIP3    H235760   2.734   4.409   1.145 -2.3576 -1.0704  0.8364
 4733TIP3   OH235761   1.155   3.307   7.398 -0.3768 -0.2778 -0.1807
 4733TIP3    H135762   1.230   3.366   7.406 -1.2202  1.0711 -1.6995
 4733TIP3    H235763   1.193   3.222   7.382  0.8518  0.5118 -1.6461
 4734TIP3   OH235764   5.747   2.161   7.371  0.2712  0.5910 -0.2386
 4734TIP3    H135765   5.781   2.196   7.289  2.8560  2.1026  1.3214
 4734TIP3    H235766   5.778   2.070   7.374  1.4160  0.9611 -0.3463
 4735TIP3   OH235767   5.076   6.640   6.625  0.2497 -0.0265 -0.0208
 4735TIP3    H135768   5.119   6.721   6.653  3.2753 -1.4380 -0.2729
 4735TIP3    H235769   5.137   6.571   6.649 -1.8993 -2.2194 -0.5032
 4736TIP3   OH235770   5.398   0.362   1.011 -0.0565 -0.2932  0.0782
 4736TIP3    H135771   5.320   0.356   0.956 -0.5250  0.8093  0.6086
 4736TIP3    H235772   5.450   0.432   0.972  0.4895 -0.7509 -0.0329
 4737TIP3   OH235773   5.036   6.705   8.026  0.2574 -0.0551 -0.2954
 4737TIP3    H135774   5.088   6.653   8.088  0.9557  0.5335 -0.3779
 4737TIP3    H235775   4.971   6.643   7.992 -0.3659 -0.3102  1.2690
 4738TIP3   OH235776   2.216   3.746   1.974 -0.1215 -0.3995  0.0468
 4738TIP3    H135777   2.244   3.657   1.993 -2.1572 -1.1497 -0.1477
 4738TIP3    H235778   2.199   3.785   2.060  1.4701  0.0770  0.1655
 4739TIP3   OH235779   4.190   0.157   1.196  0.0869 -0.1529 -1.0807
 4739TIP3    H135780   4.134   0.114   1.131 -2.2944  1.4474 -0.2207
 4739TIP3    H235781   4.133   0.170   1.271  1.5643  1.8037 -0.2350
 4740TIP3   OH235782   4.421   3.789   1.799  0.2271 -0.1123  0.2175
 4740TIP3    H135783   4.410   3.758   1.889  1.5957  0.7088  0.6834
 4740TIP3    H235784   4.351   3.853   1.787  0.6663  0.5366  1.0495
 4741TIP3   OH235785   0.368   3.740   0.505 -0.5702  0.8552 -0.3091
 4741TIP3    H135786   0.454   3.725   0.466 -1.0495 -1.4872 -0.6353
 4741TIP3    H235787   0.370   3.831   0.535  1.7437  1.0665 -0.9478
 4742TIP3   OH235788   1.693   0.368   0.190  0.1119  0.6008  0.2797
 4742TIP3    H135789   1.622   0.424   0.223 -0.7925  0.1001 -0.7424
 4742TIP3    H235790   1.708   0.400   0.101 -0.7817 -1.0838 -0.5147
 4743TIP3   OH235791   4.069   0.338   6.375 -0.0866  0.4429 -0.1515
 4743TIP3    H135792   3.988   0.314   6.419 -0.7803  2.0160 -0.4755
 4743TIP3    H235793   4.139   0.312   6.435 -0.8097 -1.1458  0.0244
 4744TIP3   OH235794   4.153   5.694   7.924  0.1735  0.0984 -0.4454
 4744TIP3    H135795   4.138   5.601   7.907 -0.1353  0.3781 -1.7973
 4744TIP3    H235796   4.118   5.739   7.847 -1.1005  1.4587  0.8625
 4745TIP3   OH235797   4.058   1.358   6.963 -0.5245  0.4091  0.4225
 4745TIP3    H135798   4.092   1.350   6.874 -1.7896 -0.2093 -0.0322
 4745TIP3    H235799   4.083   1.276   7.006 -0.7599  0.2851  0.3259
 4746TIP3   OH235800   3.342   3.403   7.419 -0.7949  0.6709  0.3585
 4746TIP3    H135801   3.330   3.362   7.333 -0.3440  1.3891 -0.0468
 4746TIP3    H235802   3.395   3.340   7.468 -0.8712  0.3580  0.0423
 4747TIP3   OH235803   0.295   3.868   0.886  0.1764  0.4901 -0.7073
 4747TIP3    H135804   0.283   3.778   0.855  1.7754  0.1139 -0.3356
 4747TIP3    H235805   0.388   3.886   0.872  0.4051  1.2389  1.3780
 4748TIP3   OH235806   3.934   4.974   7.416  0.2908  0.1472  0.4055
 4748TIP3    H135807   3.982   5.027   7.352  2.0580 -0.1474  1.4351
 4748TIP3    H235808   3.935   4.886   7.379  1.2986 -0.0201  0.8072
 4749TIP3   OH235809   5.296   0.471   2.036 -0.5388 -0.1597 -0.4569
 4749TIP3    H135810   5.259   0.555   2.063 -1.1637  0.0724 -1.9055
 4749TIP3    H235811   5.376   0.495   1.990  0.4887 -0.5388  1.0712
 4750TIP3   OH235812   5.364   6.371   6.171  0.4438 -0.0039  0.1350
 4750TIP3    H135813   5.274   6.343   6.187  0.4926 -0.5954 -0.6204
 4750TIP3    H235814   5.365   6.403   6.081  0.6769  1.3163  0.5710
 4751TIP3   OH235815   4.416   1.308   0.168  0.5345  0.3148 -0.7384
 4751TIP3    H135816   4.462   1.250   0.230 -0.2515 -1.2605 -1.5667
 4751TIP3    H235817   4.467   1.302   0.087 -0.0856 -0.0121 -1.1171
 4752TIP3   OH235818   1.353   1.596   6.886 -0.1154  0.3357 -0.8474
 4752TIP3    H135819   1.366   1.648   6.965  1.0066 -0.9644 -0.1369
 4752TIP3    H235820   1.354   1.660   6.815  5.5135  1.1399 -0.5109
 4753TIP3   OH235821   3.515   4.542   1.735  0.0825 -0.3791  0.1613
 4753TIP3    H135822   3.469   4.477   1.789 -0.6792 -1.0329 -1.2182
 4753TIP3    H235823   3.447   4.577   1.678  0.5108  1.6058  0.8091
 4754TIP3   OH235824   4.798   4.620   7.475  0.2794 -0.3442 -0.3760
 4754TIP3    H135825   4.706   4.602   7.494  0.1424  0.1388 -0.5492
 4754TIP3    H235826   4.846   4.576   7.545 -0.1766  0.8058  0.6977
 4755TIP3   OH235827   0.647   2.722   1.593  0.1492 -0.1142  0.5350
 4755TIP3    H135828   0.567   2.715   1.541 -0.5146 -1.9287  1.6749
 4755TIP3    H235829   0.646   2.811   1.627  0.2564  0.8910 -1.9364
 4756TIP3   OH235830   3.097   1.730   1.954 -0.2939 -0.3960 -0.2693
 4756TIP3    H135831   3.124   1.701   2.041  0.6615 -0.4669 -0.5769
 4756TIP3    H235832   3.042   1.807   1.970 -1.6509 -1.4828  0.4755
 4757TIP3   OH235833   1.937   4.055   1.821 -0.2686 -0.4788 -0.3074
 4757TIP3    H135834   1.989   3.992   1.771 -0.9571 -0.6176 -0.8658
 4757TIP3    H235835   1.847   4.022   1.816 -0.9132  1.3367 -1.9281
 4758TIP3   OH235836   5.374   5.522   6.090  0.1337 -0.3590  0.0898
 4758TIP3    H135837   5.422   5.568   6.159  1.3423  0.8602 -1.5165
 4758TIP3    H235838   5.436   5.458   6.055  0.4203  0.7561 -1.5385
 4759TIP3   OH235839   3.186   0.075   6.906  0.4881 -0.2000  0.2455
 4759TIP3    H135840   3.214   0.110   6.991 -2.3961 -0.7111  1.5710
 4759TIP3    H235841   3.224  -0.013   6.903  0.4459 -0.2697  1.1833
 4760TIP3   OH235842   4.478   2.060   1.151 -0.3474 -0.2242 -0.3971
 4760TIP3    H135843   4.450   2.152   1.148 -0.8499 -0.3020  1.0717
 4760TIP3    H235844   4.429   2.018   1.080  0.2503  0.7060 -1.4076
 4761TIP3   OH235845   1.053   4.831   7.163  0.1381 -0.3979 -0.2541
 4761TIP3    H135846   1.090   4.803   7.079 -1.3695 -0.7161 -0.8280
 4761TIP3    H235847   1.109   4.904   7.190 -1.3037  2.0444 -3.2421
 4762TIP3   OH235848   6.020   2.081   7.044 -0.2788  0.0621 -0.2030
 4762TIP3    H135849   6.026   2.027   7.122 -1.7499  0.5750  0.3032
 4762TIP3    H235850   6.108   2.080   7.006  1.8903  3.4786  3.8859
 4763TIP3   OH235851   2.445   5.933   6.568 -0.0860  0.0460  0.2585
 4763TIP3    H135852   2.539   5.922   6.579 -0.1151  0.6095  1.2168
 4763TIP3    H235853   2.422   5.874   6.497  0.6427 -1.7532  1.4382
 4764TIP3   OH235854   5.426   5.241   8.167  0.5061  0.5535 -0.8744
 4764TIP3    H135855   5.397   5.152   8.187 -0.5425  1.0927  0.1195
 4764TIP3    H235856   5.517   5.231   8.138  0.3594 -0.8437 -0.9132
 4765TIP3   OH235857   6.630   2.868   7.548  0.2792  0.1870  0.3130
 4765TIP3    H135858   6.689   2.937   7.579  3.2084 -1.8117 -0.4045
 4765TIP3    H235859   6.615   2.889   7.456  0.5559  0.2959  0.2910
 4766TIP3   OH235860   0.966   6.419   6.617  0.5396 -0.3964 -0.1421
 4766TIP3    H135861   1.023   6.360   6.567  0.9676 -0.3346  0.2643
 4766TIP3    H235862   0.920   6.362   6.678 -0.1411 -0.5002 -0.7458
 4767TIP3   OH235863   0.491   0.486   7.607 -0.1728  0.2713 -0.7989
 4767TIP3    H135864   0.431   0.523   7.672 -2.3337 -1.7258 -1.5475
 4767TIP3    H235865   0.552   0.433   7.659  0.3704  1.4935 -0.1315
 4768TIP3   OH235866   3.109   5.026   0.657  0.4515  0.1023 -0.0044
 4768TIP3    H135867   3.103   4.935   0.688  0.4542 -0.2531 -1.0209
 4768TIP3    H235868   3.091   5.079   0.735 -0.0219 -0.7738  0.4940
 4769TIP3   OH235869   4.203   2.661   1.551  0.0099 -1.0947 -0.5280
 4769TIP3    H135870   4.287   2.694   1.583 -0.2437  0.6518 -1.5583
 4769TIP3    H235871   4.143   2.672   1.624 -0.2275  1.4846 -1.0312
 4770TIP3   OH235872   1.410   4.758   1.345  0.2763 -0.1393  0.1354
 4770TIP3    H135873   1.412   4.665   1.369  3.9031 -0.1917  0.0944
 4770TIP3    H235874   1.325   4.769   1.303 -1.3424 -2.8093  2.3074
 4771TIP3   OH235875   1.226   0.844   2.316 -0.9096 -0.1925  0.1101
 4771TIP3    H135876   1.234   0.781   2.245 -2.7237 -0.4169  0.0745
 4771TIP3    H235877   1.290   0.815   2.381  1.6675  0.7046 -1.8518
 4772TIP3   OH235878   1.425   3.997   0.088  0.1456 -0.3325 -0.3772
 4772TIP3    H135879   1.471   3.929   0.138 -1.7772 -1.0177  0.5614
 4772TIP3    H235880   1.340   4.005   0.131 -0.0421  2.0623 -1.0201
 4773TIP3   OH235881   0.856   1.906   8.280  0.0947 -0.1491 -0.1887
 4773TIP3    H135882   0.904   1.973   8.328 -1.2298 -0.5789  1.8809
 4773TIP3    H235883   0.921   1.864   8.225  1.4342  1.2641  0.2520
 4774TIP3   OH235884   3.804   5.283   7.298  0.5622  0.1339  0.1376
 4774TIP3    H135885   3.860   5.304   7.224 -0.3481 -0.3366 -0.7034
 4774TIP3    H235886   3.850   5.212   7.343 -0.0147 -1.2353 -1.3633
 4775TIP3   OH235887   4.493   3.969   7.586 -0.2853 -0.3631  0.2476
 4775TIP3    H135888   4.562   3.904   7.598 -0.9440 -1.0126  0.6607
 4775TIP3    H235889   4.504   4.030   7.659 -1.2866 -1.5451  1.4365
 4776TIP3   OH235890   3.858   0.408   6.898  0.3926  0.7905  0.5267
 4776TIP3    H135891   3.881   0.322   6.863  1.5408  2.2545 -2.6834
 4776TIP3    H235892   3.813   0.389   6.981  2.3825 -2.7677  0.9766
 4777TIP3   OH235893   0.061   1.334   1.711 -0.3691  0.2390 -0.8182
 4777TIP3    H135894   0.156   1.330   1.707 -0.2916  1.9990 -2.6432
 4777TIP3    H235895   0.031   1.253   1.670  0.4104  0.6515 -2.2715
 4778TIP3   OH235896   3.007   4.392   6.120  0.0582  0.2648 -0.3143
 4778TIP3    H135897   2.994   4.306   6.082 -1.1173  0.5525 -0.5899
 4778TIP3    H235898   2.937   4.401   6.184  2.0986 -0.2931  2.1690
 4779TIP3   OH235899   6.680   2.793   0.850  0.3294 -0.2666 -0.2596
 4779TIP3    H135900   6.618   2.844   0.799 -0.7346 -1.0566  0.2106
 4779TIP3    H235901   6.649   2.799   0.940  1.7749  0.5168  0.2310
 4780TIP3   OH235902   6.012   3.283   1.940 -0.3518  0.8287 -0.4354
 4780TIP3    H135903   5.954   3.322   2.005 -1.8018 -2.1881  0.2594
 4780TIP3    H235904   6.098   3.282   1.981 -0.9259  0.4471  0.7965
 4781TIP3   OH235905   4.750   6.289   6.327  0.3651  0.2497 -0.0586
 4781TIP3    H135906   4.769   6.304   6.419 -1.0493 -0.4426  0.3617
 4781TIP3    H235907   4.822   6.233   6.296  0.5412  0.0116  0.7677
 4782TIP3   OH235908   3.353   0.185   8.140  0.6278 -0.1167  0.0178
 4782TIP3    H135909   3.421   0.119   8.148 -0.6759 -1.4750  0.1843
 4782TIP3    H235910   3.374   0.231   8.058  1.0169 -1.3741 -0.6047
 4783TIP3   OH235911   2.140   3.689   7.952 -0.1141 -0.1797 -0.0266
 4783TIP3    H135912   2.059   3.741   7.949 -0.8990 -1.3357  0.3707
 4783TIP3    H235913   2.210   3.753   7.953 -1.0490  0.8639  0.1872
 4784TIP3   OH235914   2.737   2.804   1.220 -0.3942 -0.1039  0.3945
 4784TIP3    H135915   2.807   2.752   1.179 -0.1400  1.4431 -1.2449
 4784TIP3    H235916   2.716   2.871   1.155 -2.3499  0.4142  1.4938
 4785TIP3   OH235917   3.386   6.505   0.791 -0.0640  0.8170 -0.1967
 4785TIP3    H135918   3.439   6.495   0.871  0.7466  2.8554 -0.4049
 4785TIP3    H235919   3.333   6.582   0.807  0.4926  1.5794 -1.8039
 4786TIP3   OH235920   0.742   6.163   7.062  0.6941 -0.5471  0.9755
 4786TIP3    H135921   0.737   6.071   7.039 -1.7846  0.3656 -3.0184
 4786TIP3    H235922   0.808   6.200   7.003 -1.8328  0.9566 -1.0938
 4787TIP3   OH235923   4.866   6.826   1.678 -0.3475 -0.1087  0.2144
 4787TIP3    H135924   4.819   6.908   1.659 -1.6693 -1.1413 -1.2774
 4787TIP3    H235925   4.945   6.854   1.723 -0.9831  1.9609  0.1723
 4788TIP3   OH235926   1.982   0.763   2.238 -0.2535 -0.3667 -0.0451
 4788TIP3    H135927   1.988   0.829   2.308  0.5421 -1.2567  0.7526
 4788TIP3    H235928   2.030   0.801   2.165  0.3756 -0.1317  0.4794
 4789TIP3   OH235929   2.096   1.376   1.430 -0.1921  0.1531 -0.0785
 4789TIP3    H135930   2.005   1.389   1.456 -0.4637 -1.0534 -0.3639
 4789TIP3    H235931   2.096   1.388   1.335 -0.2154 -0.6652 -0.1837
 4790TIP3   OH235932   1.051   5.326   6.139 -0.0675  0.3910  0.0552
 4790TIP3    H135933   0.975   5.376   6.168 -0.8855 -0.7992  0.0332
 4790TIP3    H235934   1.015   5.262   6.078  0.7818 -0.9287  0.8981
 4791TIP3   OH235935   1.103   0.952   6.750  0.6424 -0.0302  0.1564
 4791TIP3    H135936   1.171   1.015   6.770 -0.6214  1.5596 -0.3200
 4791TIP3    H235937   1.059   0.988   6.673  0.2837 -1.8350 -0.5307
 4792TIP3   OH235938   3.272   1.293   6.522  0.6083 -0.5376 -0.0500
 4792TIP3    H135939   3.319   1.329   6.597  0.9937 -0.4619 -0.3271
 4792TIP3    H235940   3.247   1.370   6.470 -0.4527 -0.5185  0.4537
 4793TIP3   OH235941   3.282   3.885   2.002 -0.7379 -0.3368  0.5389
 4793TIP3    H135942   3.224   3.905   2.076  1.3435  2.5094  1.5823
 4793TIP3    H235943   3.245   3.934   1.929 -1.9239 -1.9326 -0.0059
 4794TIP3   OH235944   6.367   3.219   7.796 -0.6631  0.0873 -0.3444
 4794TIP3    H135945   6.290   3.276   7.787 -1.2435 -0.2917  1.7249
 4794TIP3    H235946   6.345   3.161   7.869  1.0267 -0.9910 -0.6543
 4795TIP3   OH235947   0.305   2.960   6.624 -0.0831 -0.0206  0.3573
 4795TIP3    H135948   0.232   2.900   6.637  0.8276 -1.5915 -1.2759
 4795TIP3    H235949   0.266   3.039   6.586 -0.9711 -0.7052 -0.1775
 4796TIP3   OH235950   2.303   5.684   2.311  0.2912 -0.1357 -0.1714
 4796TIP3    H135951   2.339   5.747   2.248  1.7288  0.3105  1.0243
 4796TIP3    H235952   2.243   5.736   2.365 -0.3387 -0.3430 -0.6596
 4797TIP3   OH235953   4.940   6.255   7.519  0.1944 -0.0453  0.4053
 4797TIP3    H135954   4.961   6.323   7.455 -1.4011  0.3960  0.3146
 4797TIP3    H235955   5.003   6.269   7.590  1.5718 -0.1385 -0.7491
 4798TIP3   OH235956   3.536   2.161   7.332  0.5710 -0.3243 -0.5623
 4798TIP3    H135957   3.546   2.239   7.386 -2.0473 -0.4035  0.1424
 4798TIP3    H235958   3.526   2.194   7.243  0.2220  0.0919 -0.3681
 4799TIP3   OH235959   0.761   0.847   1.995  0.0847 -0.0355 -0.2011
 4799TIP3    H135960   0.665   0.847   1.990 -0.1784 -0.0090  2.9622
 4799TIP3    H235961   0.786   0.939   1.988  0.0246 -0.1137 -1.9742
 4800TIP3   OH235962   3.842   6.343   6.946 -0.3413  0.0747 -0.4729
 4800TIP3    H135963   3.806   6.427   6.973  0.7824  0.8704 -1.3223
 4800TIP3    H235964   3.832   6.286   7.022  2.4175  2.0912  1.5709
 4801TIP3   OH235965   0.674   2.117   1.175 -0.4357  0.4652 -0.6763
 4801TIP3    H135966   0.768   2.107   1.163 -0.3559  1.8453 -1.3335
 4801TIP3    H235967   0.635   2.069   1.102 -0.2320  0.3345 -0.7005
 4802TIP3   OH235968   6.734   5.897   8.145 -0.0952  0.6369 -0.1849
 4802TIP3    H135969   6.737   5.856   8.231 -1.7239  0.4083 -0.2125
 4802TIP3    H235970   6.793   5.844   8.091  1.5782  1.2494  0.9345
 4803TIP3   OH235971   4.204   0.454   7.427 -0.2542  0.3721 -0.2260
 4803TIP3    H135972   4.130   0.447   7.367  0.2204  0.5762 -0.8423
 4803TIP3    H235973   4.166   0.440   7.514 -0.7270 -1.4777 -0.6784
 4804TIP3   OH235974   5.750   2.982   7.205  0.2343 -0.2865 -0.4103
 4804TIP3    H135975   5.815   3.034   7.252 -1.9412 -0.1311  2.7279
 4804TIP3    H235976   5.763   2.893   7.237  0.8258 -0.8618 -2.1281
 4805TIP3   OH235977   5.009   1.328   6.857 -0.2417  0.3991 -0.7218
 4805TIP3    H135978   5.091   1.280   6.868 -0.3224  0.1763 -1.0852
 4805TIP3    H235979   5.032   1.419   6.876  0.0103  0.2840 -0.4711
 4806TIP3   OH235980   4.351   2.838   0.467  0.3577 -0.2158  0.1871
 4806TIP3    H135981   4.309   2.922   0.484 -0.4695 -0.5910  0.0410
 4806TIP3    H235982   4.441   2.850   0.497  0.4854  0.9849 -0.5907
 4807TIP3   OH235983   6.449   3.511   0.998  0.1432 -0.0952 -0.4012
 4807TIP3    H135984   6.383   3.495   0.931 -0.5344 -0.7953  0.4004
 4807TIP3    H235985   6.533   3.499   0.953 -0.2917 -0.2025 -1.1998
 4808TIP3   OH235986   4.708   4.301   7.599  0.4445 -0.1972  0.2002
 4808TIP3    H135987   4.791   4.347   7.583 -0.1327  0.8175 -0.0156
 4808TIP3    H235988   4.659   4.359   7.658  0.2083 -1.1709  0.9842
 4809TIP3   OH235989   4.693   4.064   5.831  0.3856  0.2789 -0.2241
 4809TIP3    H135990   4.715   3.974   5.854  1.1425  0.5488  0.1854
 4809TIP3    H235991   4.613   4.083   5.880  0.9177  0.2199  0.6961
 4810TIP3   OH235992   0.873   4.374   0.624  0.5283  0.0927 -0.3323
 4810TIP3    H135993   0.779   4.386   0.611  0.5183  1.1095  0.5374
 4810TIP3    H235994   0.881   4.294   0.675 -0.0614  1.3406  1.8316
 4811TIP3   OH235995   2.150   2.488   1.498  0.5930 -0.0279 -0.4648
 4811TIP3    H135996   2.114   2.536   1.572  1.2043 -0.4414  0.1133
 4811TIP3    H235997   2.145   2.549   1.424  0.0161  0.3989 -0.0761
 4812TIP3   OH235998   0.487   5.829   1.019  0.8339 -0.3744  0.0611
 4812TIP3    H135999   0.513   5.897   0.957  0.6346 -1.3426 -1.1209
 4812TIP3    H236000   0.474   5.875   1.102 -0.1841  1.1603 -0.9256
 4813TIP3   OH236001   2.652   2.842   8.217  0.1296  0.2208 -0.9073
 4813TIP3    H136002   2.593   2.912   8.189 -2.0339 -0.0469  2.4826
 4813TIP3    H236003   2.732   2.887   8.245 -0.5444  1.1507 -0.4499
 4814TIP3   OH236004   6.365   4.311   0.893 -0.0996 -0.8602  0.2949
 4814TIP3    H136005   6.310   4.246   0.935 -0.8554  0.8372  2.1018
 4814TIP3    H236006   6.454   4.277   0.903 -0.6509 -3.2589 -1.9790
 4815TIP3   OH236007   1.677   4.411   0.757 -0.1234  0.2945  0.4486
 4815TIP3    H136008   1.652   4.354   0.684  0.8247 -1.2020  1.2578
 4815TIP3    H236009   1.711   4.490   0.715 -1.8206  0.4774 -0.6861
 4816TIP3   OH236010   6.934   0.079   0.328 -0.5705 -0.0021 -0.6262
 4816TIP3    H136011   6.847   0.076   0.369 -0.3840  0.4892 -0.1855
 4816TIP3    H236012   6.981   0.004   0.366 -0.9817 -0.6232 -1.3069
 4817TIP3   OH236013   2.122   5.681   7.473 -0.0747  0.3291 -0.1347
 4817TIP3    H136014   2.104   5.592   7.503  1.2868  0.2845  0.6514
 4817TIP3    H236015   2.085   5.738   7.541  0.1771  0.3147  0.0181
 4818TIP3   OH236016   3.604   1.338   0.021 -0.0182  0.1949 -0.2436
 4818TIP3    H136017   3.556   1.327  -0.061  2.8344  0.7799 -2.1319
 4818TIP3    H236018   3.630   1.430   0.021 -0.3825  0.3277  1.6196
 4819TIP3   OH236019   1.410   5.584   0.180  0.2720 -0.4276  0.4602
 4819TIP3    H136020   1.386   5.651   0.244 -0.2342 -0.2919  0.1426
 4819TIP3    H236021   1.441   5.634   0.104 -0.9885 -0.4960 -0.1322
 4820TIP3   OH236022   6.782   3.797   0.717 -0.2773 -0.2034 -0.1657
 4820TIP3    H136023   6.773   3.813   0.623 -0.0222  1.3318  0.0405
 4820TIP3    H236024   6.875   3.779   0.730 -0.2732 -0.1973 -0.1855
 4821TIP3   OH236025   4.471   2.437   1.280  0.3966 -0.2729 -0.0111
 4821TIP3    H136026   4.464   2.374   1.208 -0.5149 -0.7406  0.4750
 4821TIP3    H236027   4.473   2.384   1.359  0.4144  0.2786  0.3690
 4822TIP3   OH236028   0.282   3.735   6.830  0.0177 -0.4625  0.1945
 4822TIP3    H136029   0.187   3.739   6.844  0.4874  0.8927  3.8501
 4822TIP3    H236030   0.313   3.666   6.889  1.5609  1.0739  1.2738
 4823TIP3   OH236031   6.190   3.585   2.568 -0.2673  0.3664  0.1774
 4823TIP3    H136032   6.102   3.549   2.580 -0.4170 -0.0414 -1.8292
 4823TIP3    H236033   6.248   3.510   2.576 -0.3929  0.0343 -1.7095
 4824TIP3   OH236034   6.502   6.240   0.007  0.3368  0.0888 -0.1109
 4824TIP3    H136035   6.431   6.261  -0.053  1.4995  0.9077 -1.2257
 4824TIP3    H236036   6.527   6.324   0.046  0.5026 -0.2410  0.5159
 4825TIP3   OH236037   0.676   3.141   0.066 -0.1004 -0.3003 -0.6831
 4825TIP3    H136038   0.736   3.174   0.133 -0.4296  0.2019 -0.6330
 4825TIP3    H236039   0.644   3.058   0.101  1.6502 -1.2983 -1.3398
 4826TIP3   OH236040   1.395   6.944   0.870 -0.2643 -0.1160  0.9409
 4826TIP3    H136041   1.444   6.886   0.811 -0.2784  0.1583  0.6613
 4826TIP3    H236042   1.392   7.028   0.825  0.1066  0.2206  1.5307
 4827TIP3   OH236043   6.773   4.985   0.629  0.1762 -0.9062  0.1810
 4827TIP3    H136044   6.704   4.941   0.679  1.1770 -1.1088  1.4161
 4827TIP3    H236045   6.852   4.933   0.645  0.6002 -0.7961 -1.3774
 4828TIP3   OH236046   1.883   0.250   6.626 -0.3532  0.7478 -0.3329
 4828TIP3    H136047   1.944   0.310   6.584  0.8480 -0.0997  0.1330
 4828TIP3    H236048   1.875   0.282   6.716 -0.9428  1.1108 -0.5136
 4829TIP3   OH236049   3.023   3.594   8.317  0.4405 -0.3119 -0.1851
 4829TIP3    H136050   3.060   3.671   8.274  2.5535 -1.6724 -0.9870
 4829TIP3    H236051   2.940   3.578   8.271  0.9385  0.3472 -1.3693
 4830TIP3   OH236052   3.894   4.438   8.197 -0.3843  0.1699 -0.1368
 4830TIP3    H136053   3.926   4.466   8.283 -0.9172  0.8328 -0.1370
 4830TIP3    H236054   3.818   4.383   8.216 -0.5510  0.3818 -0.1760
 4831TIP3   OH236055   4.092   4.519   6.868  0.2660 -0.3145 -0.0756
 4831TIP3    H136056   4.114   4.516   6.775 -1.1289 -0.5576 -0.4246
 4831TIP3    H236057   4.102   4.611   6.892 -0.7522  0.0176 -0.8497
 4832TIP3   OH236058   5.846   1.778   6.900  0.0607  0.1222 -0.0184
 4832TIP3    H136059   5.927   1.789   6.949  0.5224  1.0764 -0.9587
 4832TIP3    H236060   5.779   1.817   6.956  0.5226  0.8883  0.0091
 4833TIP3   OH236061   3.021   1.499   7.783 -0.5106  0.4650  0.1051
 4833TIP3    H136062   2.994   1.443   7.710 -4.3526  0.2942  1.4181
 4833TIP3    H236063   3.101   1.542   7.752  1.4737 -4.0226 -1.7967
 4834TIP3   OH236064   1.967   0.528   1.531 -0.0711 -0.5787  0.4266
 4834TIP3    H136065   2.031   0.502   1.598  1.8434 -2.2676 -1.9010
 4834TIP3    H236066   1.988   0.620   1.513  1.2174 -0.8953  0.2300
 4835TIP3   OH236067   0.802   2.279   2.394  0.0159  0.4417  0.5002
 4835TIP3    H136068   0.737   2.223   2.437 -0.1183 -0.0392 -0.3004
 4835TIP3    H236069   0.754   2.360   2.375 -0.0311  0.5118  0.9163
 4836TIP3   OH236070   6.313   6.250   0.478 -0.8947 -0.2356  0.4037
 4836TIP3    H136071   6.364   6.312   0.530 -1.0111  0.5253 -0.3746
 4836TIP3    H236072   6.329   6.165   0.520  1.6660 -0.1645 -0.2926
 4837TIP3   OH236073   1.603   6.804   1.619 -0.2678 -0.7061  0.5348
 4837TIP3    H136074   1.652   6.787   1.700  1.0787 -1.0875 -0.3301
 4837TIP3    H236075   1.648   6.752   1.552 -0.6625  0.4822 -0.6972
 4838TIP3   OH236076   2.361   3.434   8.198 -0.2719 -0.6080  0.1618
 4838TIP3    H136077   2.283   3.380   8.204 -1.8111  1.3226 -1.1757
 4838TIP3    H236078   2.342   3.511   8.251  0.1475  0.4637 -1.1621
 4839TIP3   OH236079   6.740   5.643   2.113  0.1867 -0.2589 -0.2237
 4839TIP3    H136080   6.692   5.634   2.030 -1.4301  1.9379  0.3649
 4839TIP3    H236081   6.831   5.656   2.086 -0.0692 -1.0103 -1.5691
 4840TIP3   OH236082   0.889   3.905   1.392  0.5307  0.5035  0.2016
 4840TIP3    H136083   0.956   3.920   1.459 -0.5450  0.7593  1.2652
 4840TIP3    H236084   0.907   3.970   1.324  2.4333 -0.5971 -0.4398
 4841TIP3   OH236085   1.298   1.003   7.569 -0.3430  0.1223  0.6325
 4841TIP3    H136086   1.372   1.064   7.575  1.4058 -1.9033  0.6390
 4841TIP3    H236087   1.325   0.940   7.503 -2.3856 -0.3239  0.1634
 4842TIP3   OH236088   4.391   3.344   0.105  0.8024  0.6457 -0.2700
 4842TIP3    H136089   4.297   3.357   0.095  0.0629 -3.6486 -0.6555
 4842TIP3    H236090   4.410   3.366   0.196 -0.4586  1.9683 -0.3080
 4843TIP3   OH236091   3.991   4.393   0.129 -0.2733 -0.2305  0.6948
 4843TIP3    H136092   4.075   4.352   0.151  0.1314  1.4346  2.5579
 4843TIP3    H236093   3.927   4.324   0.140  0.5727 -0.8485  1.9455
 4844TIP3   OH236094   0.873   3.066   2.182 -0.0291 -0.3334 -0.0183
 4844TIP3    H136095   0.857   3.024   2.266  2.1976 -1.4126 -0.0526
 4844TIP3    H236096   0.911   3.151   2.204 -0.5457 -0.1166  0.0491
 4845TIP3   OH236097   2.642   6.788   7.204 -0.5998 -0.2320  0.1912
 4845TIP3    H136098   2.638   6.880   7.180  0.8513 -0.5083 -1.2768
 4845TIP3    H236099   2.614   6.741   7.125 -2.2496 -1.0566  1.2176
 4846TIP3   OH236100   2.829   1.675   7.288  0.6169 -0.0049  0.2713
 4846TIP3    H136101   2.900   1.614   7.307 -0.9137 -1.6598  1.0557
 4846TIP3    H236102   2.774   1.629   7.225 -1.5581 -0.3209  2.2551
 4847TIP3   OH236103   5.081   5.691   0.743  0.2139 -0.2259 -0.5449
 4847TIP3    H136104   5.019   5.667   0.812  1.3598 -1.4026  0.1090
 4847TIP3    H236105   5.135   5.760   0.782  1.4806 -1.5453  0.1305
 4848TIP3   OH236106   3.558   3.367   7.077  0.4826 -0.4118  0.1684
 4848TIP3    H136107   3.538   3.387   7.168  2.6285 -2.3307  1.1518
 4848TIP3    H236108   3.532   3.276   7.065 -1.3433  0.2597 -1.7165
 4849TIP3   OH236109   6.572   4.152   0.993  0.4647  0.1835  1.0670
 4849TIP3    H136110   6.495   4.121   1.041 -0.3145  0.2991 -0.0635
 4849TIP3    H236111   6.634   4.177   1.061 -0.6424  0.4478  2.0185
 4850TIP3   OH236112   2.176   2.465   8.071 -0.0888 -0.0067  0.0381
 4850TIP3    H136113   2.240   2.497   8.135 -1.0675  0.0592  1.0104
 4850TIP3    H236114   2.189   2.370   8.069  1.1826  0.1620 -1.0572
 4851TIP3   OH236115   6.756   3.237   1.633  0.0894 -0.4553  0.2866
 4851TIP3    H136116   6.835   3.289   1.618  0.1467 -0.5624  0.2212
 4851TIP3    H236117   6.684   3.300   1.625  0.3069  0.7627  4.8675
 4852TIP3   OH236118   2.770   3.246   0.818  0.0835  0.0445  0.0301
 4852TIP3    H136119   2.680   3.232   0.846  0.3478 -1.8670  0.0511
 4852TIP3    H236120   2.779   3.341   0.813 -1.5773  0.3004  1.1316
 4853TIP3   OH236121   3.530   0.022   7.987 -0.3213  0.2163  0.3974
 4853TIP3    H136122   3.579   0.104   7.991 -0.1921  0.1937 -0.4954
 4853TIP3    H236123   3.597  -0.046   7.999  0.0030  0.1612 -1.4660
 4854TIP3   OH236124   5.516   6.984   6.960 -0.3086  0.0963 -0.4983
 4854TIP3    H136125   5.558   6.909   7.003 -0.1597  0.6979  0.4224
 4854TIP3    H236126   5.588   7.044   6.941 -0.5747  0.4973 -0.2307
 4855TIP3   OH236127   6.600   3.166   0.187  0.3984 -0.1614  0.3028
 4855TIP3    H136128   6.606   3.261   0.192  0.1118 -0.0759 -0.7365
 4855TIP3    H236129   6.665   3.141   0.121 -1.0565 -0.4594 -1.0834
 4856TIP3   OH236130   6.076   6.882   0.672  0.0933 -0.6845 -0.2528
 4856TIP3    H136131   6.088   6.845   0.585 -1.5143 -0.6216 -0.5164
 4856TIP3    H236132   6.155   6.855   0.720  1.2623 -0.2810 -1.8379
 4857TIP3   OH236133   3.900   3.629   0.030 -0.2248 -0.6673 -0.3022
 4857TIP3    H136134   3.812   3.639  -0.007 -0.5558 -2.0115  0.0769
 4857TIP3    H236135   3.888   3.631   0.124 -0.0919 -2.3892 -0.2084
 4858TIP3   OH236136   2.858   0.844   1.864 -0.5141  0.4712 -0.2895
 4858TIP3    H136137   2.950   0.871   1.864  0.1721 -1.6708 -0.6505
 4858TIP3    H236138   2.848   0.790   1.942 -1.2226 -0.0591 -0.7255
 4859TIP3   OH236139   6.782   2.168   2.412 -0.2092  0.3199  0.1290
 4859TIP3    H136140   6.713   2.131   2.357  0.2417 -0.6166  0.1661
 4859TIP3    H236141   6.834   2.092   2.439  1.2723  1.0677 -0.5082
 4860TIP3   OH236142   3.755   4.665   0.400 -0.4701  0.4403  0.3157
 4860TIP3    H136143   3.797   4.596   0.452  0.6608 -0.2537 -1.4283
 4860TIP3    H236144   3.700   4.711   0.462  0.3048 -0.7659  1.9822
 4861TIP3   OH236145   6.224   3.348   8.216 -0.0347  0.2014  0.0839
 4861TIP3    H136146   6.142   3.311   8.249 -0.2751 -0.3547 -1.0922
 4861TIP3    H236147   6.197   3.409   8.147  0.4946  0.8376  0.4271
 4862TIP3   OH236148   2.069   5.096   8.125 -0.3345  0.2482  0.2679
 4862TIP3    H136149   1.988   5.046   8.137  0.3886 -0.6714  1.4586
 4862TIP3    H236150   2.059   5.171   8.183 -1.3114  1.4380 -1.3357
 4863TIP3   OH236151   0.706   0.013   0.682 -0.4356  0.2677  0.1523
 4863TIP3    H136152   0.675   0.088   0.632 -0.3718  0.0747 -0.1797
 4863TIP3    H236153   0.763  -0.035   0.621  0.3854  0.5289  0.6935
 4864TIP3   OH236154   6.687   5.753   6.595 -0.0010  0.0691 -0.3386
 4864TIP3    H136155   6.673   5.810   6.520 -1.3735 -1.1891 -1.0962
 4864TIP3    H236156   6.626   5.786   6.661  0.5801  0.6403 -0.0816
 4865TIP3   OH236157   3.481   2.814   6.441 -0.1629 -0.0231  0.6501
 4865TIP3    H136158   3.475   2.844   6.532 -1.1488 -1.6757  1.1691
 4865TIP3    H236159   3.567   2.772   6.436  0.0813  0.4658  0.6871
 4866TIP3   OH236160   5.739   0.849   7.943  0.3318  0.5342  0.2427
 4866TIP3    H136161   5.727   0.891   7.858  0.5297 -0.2981 -0.2054
 4866TIP3    H236162   5.703   0.761   7.932  1.0299  0.1672  0.7916
 4867TIP3   OH236163   1.126   1.471   6.950 -0.7211 -0.1423 -0.0202
 4867TIP3    H136164   1.113   1.508   7.037 -0.7261 -0.9632  0.3424
 4867TIP3    H236165   1.207   1.511   6.918 -0.5394 -0.0934  0.5014
 4868TIP3   OH236166   0.234   2.605   1.591  0.0656  0.1830  0.6234
 4868TIP3    H136167   0.178   2.655   1.649 -0.4358  0.0352  0.2717
 4868TIP3    H236168   0.277   2.671   1.536 -1.2386  0.2102 -0.4190
 4869TIP3   OH236169   2.760   0.228   7.183  0.8299 -0.0194  0.2405
 4869TIP3    H136170   2.804   0.168   7.123  1.1906 -1.9523  2.3035
 4869TIP3    H236171   2.685   0.179   7.215 -0.2782  1.5729  0.1898
 4870TIP3   OH236172   4.865   3.532   6.922  0.7303 -0.3622 -0.0484
 4870TIP3    H136173   4.868   3.628   6.924  0.0074 -0.3490  1.3912
 4870TIP3    H236174   4.900   3.510   6.836  1.0308  1.1861 -0.3689
 4871TIP3   OH236175   4.241   4.426   6.336 -0.3746 -0.0000 -0.0511
 4871TIP3    H136176   4.290   4.411   6.255  0.3766 -0.8681  0.5333
 4871TIP3    H236177   4.150   4.435   6.308 -0.0370  0.4245 -1.0507
 4872TIP3   OH236178   1.690   4.020   1.223  0.1797 -0.1911 -0.5891
 4872TIP3    H136179   1.771   4.058   1.255  0.1925 -1.3432  0.8280
 4872TIP3    H236180   1.714   3.980   1.139  0.9286 -0.0301 -0.4557
 4873TIP3   OH236181   3.907   0.723   7.681 -0.7690  0.6658  0.9303
 4873TIP3    H136182   3.842   0.774   7.730 -1.1647  0.1942  0.9155
 4873TIP3    H236183   3.874   0.723   7.591 -1.5401 -0.7647  1.1763
 4874TIP3   OH236184   5.355   6.721   1.145 -0.4337 -0.4999 -0.0980
 4874TIP3    H136185   5.325   6.739   1.056 -0.9727 -0.6994  0.0423
 4874TIP3    H236186   5.340   6.803   1.193  0.7902 -0.0557 -0.4239
 4875TIP3   OH236187   1.221   4.637   8.119 -0.3026 -0.5127  0.2015
 4875TIP3    H136188   1.216   4.569   8.050 -1.4464 -0.1541 -0.1031
 4875TIP3    H236189   1.130   4.647   8.148 -0.1364  0.8340  0.3019
 4876TIP3   OH236190   1.113   6.304   0.809 -0.4797 -0.0667 -0.5895
 4876TIP3    H136191   1.133   6.214   0.835 -1.8869 -0.2210  0.0790
 4876TIP3    H236192   1.074   6.343   0.887  1.4668  1.6275 -0.3720
 4877TIP3   OH236193   5.732   5.571   7.086  0.1417  0.3976 -0.0320
 4877TIP3    H136194   5.715   5.629   7.012 -0.3248 -0.6465 -0.7825
 4877TIP3    H236195   5.773   5.494   7.046  1.5583  0.5568  1.0453
 4878TIP3   OH236196   2.584   2.796   6.609 -0.2911  0.8183 -0.6600
 4878TIP3    H136197   2.658   2.736   6.599 -1.2297 -1.1751  2.6857
 4878TIP3    H236198   2.509   2.747   6.577 -0.8436  0.7079  0.7032
 4879TIP3   OH236199   2.150   0.207   6.907  0.5005 -0.6725 -0.2871
 4879TIP3    H136200   2.073   0.232   6.856  3.3801  2.6985 -3.5593
 4879TIP3    H236201   2.168   0.117   6.880 -1.5481 -1.1396 -0.2999
 4880TIP3   OH236202   1.541   1.319   5.811  0.0552 -0.3180 -0.4607
 4880TIP3    H136203   1.628   1.283   5.797  1.0956  1.7268  0.2269
 4880TIP3    H236204   1.533   1.327   5.906 -1.1649 -1.0829 -0.4807
 4881TIP3   OH236205   6.171   0.737   6.081 -0.3795  0.1539  0.3844
 4881TIP3    H136206   6.158   0.669   6.015  1.7092 -0.5023  0.5526
 4881TIP3    H236207   6.168   0.819   6.033  0.0535 -0.2568 -0.3687
 4882TIP3   OH236208   6.864   5.866   1.291  0.1944 -0.0896 -0.2610
 4882TIP3    H136209   6.874   5.776   1.260 -0.1839 -0.6887  1.2628
 4882TIP3    H236210   6.818   5.857   1.375  1.7500  1.3858  0.8085
 4883TIP3   OH236211   6.264   4.123   7.612 -0.4900 -0.4869 -0.4798
 4883TIP3    H136212   6.317   4.146   7.688 -0.9895  1.1879 -0.5899
 4883TIP3    H236213   6.239   4.207   7.574 -0.5048 -1.2823 -2.3369
 4884TIP3   OH236214   0.073   0.589   7.683  0.7192  0.0533  0.0192
 4884TIP3    H136215   0.110   0.637   7.610 -1.2215  2.2497  0.3677
 4884TIP3    H236216  -0.001   0.540   7.646  1.0716 -0.5856  0.1418
 4885TIP3   OH236217   5.837   0.302   1.267  0.5784  0.0968 -0.2276
 4885TIP3    H136218   5.793   0.334   1.346 -1.8805  1.3443 -1.9395
 4885TIP3    H236219   5.795   0.219   1.247 -1.2292  1.3005 -1.8833
 4886TIP3   OH236220   2.514   1.701   1.741 -0.1451 -0.0558 -0.3393
 4886TIP3    H136221   2.601   1.732   1.764  0.6222 -1.4973 -1.1625
 4886TIP3    H236222   2.461   1.780   1.736  1.4172  0.9952 -1.1302
 4887TIP3   OH236223   6.909   0.128   1.132 -0.0591  0.1302 -0.3041
 4887TIP3    H136224   6.823   0.146   1.171  0.1145  2.9781 -0.9945
 4887TIP3    H236225   6.956   0.081   1.200 -1.4646  0.4346  0.9429
 4888TIP3   OH236226   6.369   6.418   7.507  0.5557  0.0398  0.1182
 4888TIP3    H136227   6.327   6.398   7.591  1.9691  1.2511  1.1619
 4888TIP3    H236228   6.447   6.363   7.506  0.5034 -0.0250 -0.4606
 4889TIP3   OH236229   6.680   2.195   7.019 -0.2298  0.6648  0.3516
 4889TIP3    H136230   6.724   2.188   7.104  0.4558  0.2984 -0.0344
 4889TIP3    H236231   6.611   2.129   7.022  1.9810 -1.8299 -0.6972
 4890TIP3   OH236232   6.456   5.744   1.057  0.1981  0.0753  0.1577
 4890TIP3    H136233   6.509   5.679   1.103  0.9768  0.2852 -0.4223
 4890TIP3    H236234   6.402   5.692   0.997  0.7470 -0.0518 -0.2346
 4891TIP3   OH236235   2.684   1.462   1.285  0.6170 -0.2304 -0.1804
 4891TIP3    H136236   2.647   1.385   1.243  0.1622 -0.1079 -0.0034
 4891TIP3    H236237   2.672   1.447   1.379  0.2202  0.2092 -0.1589
 4892TIP3   OH236238   1.980   6.703   8.069  0.5461 -0.5737  0.2315
 4892TIP3    H136239   1.997   6.754   8.148  3.8395 -0.3238 -0.5282
 4892TIP3    H236240   1.961   6.768   8.001  1.9632 -0.4759 -0.0995
 4893TIP3   OH236241   3.065   0.315   0.115  0.1582 -0.4559  0.4364
 4893TIP3    H136242   3.144   0.367   0.099  0.5968 -0.3464  2.5559
 4893TIP3    H236243   3.008   0.374   0.165 -0.5191 -1.1133  0.4545
 4894TIP3   OH236244   5.481   1.670   7.035 -0.4899 -0.2683  0.6646
 4894TIP3    H136245   5.520   1.592   7.074  0.9896 -0.6059 -1.3532
 4894TIP3    H236246   5.390   1.646   7.020  0.2112 -2.1032 -1.0185
 4895TIP3   OH236247   1.133   3.110   1.737  0.8740 -0.1938  0.2194
 4895TIP3    H136248   1.157   3.123   1.829 -0.1528 -0.4369  0.5391
 4895TIP3    H236249   1.130   3.015   1.727 -2.2852 -0.2859  0.8974
 4896TIP3   OH236250   3.439   5.074   7.453 -0.8077 -0.8904  0.6619
 4896TIP3    H136251   3.425   4.980   7.464 -0.8497 -0.8338  1.0962
 4896TIP3    H236252   3.526   5.090   7.488 -1.0664 -0.6600  1.2144
 4897TIP3   OH236253   0.014   3.715   0.519  0.7300  0.4583  0.0001
 4897TIP3    H136254   0.042   3.676   0.436  0.6232 -1.4013  0.7907
 4897TIP3    H236255   0.043   3.806   0.513 -1.9839  1.3119 -3.3444
 4898TIP3   OH236256   1.052   3.252   6.572 -0.1180 -0.0273  0.3182
 4898TIP3    H136257   0.970   3.296   6.550  1.6583  1.6681 -3.7613
 4898TIP3    H236258   1.062   3.185   6.505  1.3035 -1.0475  1.4884
 4899TIP3   OH236259   1.185   0.989   8.044  0.2294 -0.0043 -0.4477
 4899TIP3    H136260   1.270   0.968   8.007 -1.2372 -0.3023 -4.1064
 4899TIP3    H236261   1.157   0.909   8.088  1.7991  0.1206  0.8551
 4900TIP3   OH236262   1.401   2.307   7.624 -0.5574 -0.0899  0.2531
 4900TIP3    H136263   1.429   2.397   7.642 -0.5212 -0.2605  1.0597
 4900TIP3    H236264   1.333   2.290   7.689 -2.3746  0.2126 -1.4261
 4901TIP3   OH236265   0.583   6.153   6.067 -0.2005  1.2568  0.1284
 4901TIP3    H136266   0.496   6.180   6.097 -0.2435 -0.1073  1.3228
 4901TIP3    H236267   0.573   6.138   5.974 -0.9373  2.2832  0.0270
 4902TIP3   OH236268   4.422   5.326   6.815 -0.2316 -0.6864 -0.5558
 4902TIP3    H136269   4.509   5.323   6.775 -1.0220  0.4817 -2.5091
 4902TIP3    H236270   4.362   5.324   6.741 -1.7840  2.2894  0.4538
 4903TIP3   OH236271   1.223   1.194   1.795 -0.2546 -0.0110  0.2156
 4903TIP3    H136272   1.248   1.102   1.811 -1.4462 -0.5798 -0.9784
 4903TIP3    H236273   1.172   1.218   1.872 -0.9484 -0.7694  0.0171
 4904TIP3   OH236274   1.091   4.958   7.688 -0.0256 -0.5754  0.1588
 4904TIP3    H136275   1.069   5.029   7.748  1.3403  0.6370 -0.6917
 4904TIP3    H236276   1.143   4.898   7.740 -0.0960 -0.2781  0.5766
 4905TIP3   OH236277   6.782   3.214   0.904  0.1238  0.0157  0.7040
 4905TIP3    H136278   6.789   3.298   0.859  0.7306 -0.9176 -1.0541
 4905TIP3    H236279   6.689   3.191   0.899  0.2938 -0.4637 -0.9227
 4906TIP3   OH236280   3.434   5.671   7.522 -0.2150 -0.1083 -0.1185
 4906TIP3    H136281   3.512   5.726   7.528 -0.0923 -0.3260  0.3481
 4906TIP3    H236282   3.462   5.595   7.472  0.0466 -0.4772  0.5775
 4907TIP3   OH236283   5.132   1.611   1.834 -0.6297 -0.3879 -0.6138
 4907TIP3    H136284   5.068   1.546   1.804 -0.8074 -0.4981 -0.0099
 4907TIP3    H236285   5.088   1.657   1.905  0.0935 -0.7211  0.0631
 4908TIP3   OH236286   5.681   3.884   1.493  0.1494 -0.0312  0.0217
 4908TIP3    H136287   5.586   3.893   1.505  0.3637  2.3932  0.3985
 4908TIP3    H236288   5.705   3.811   1.550 -1.4275 -0.5122  0.1378
 4909TIP3   OH236289   4.530   1.528   0.850 -0.0520  0.1342 -0.1115
 4909TIP3    H136290   4.450   1.512   0.800  1.5488 -1.9738 -2.2717
 4909TIP3    H236291   4.593   1.560   0.785  1.0362  1.2185  1.4070
 4910TIP3   OH236292   3.173   1.421   6.856 -0.1332  0.5167 -0.1124
 4910TIP3    H136293   3.210   1.345   6.811 -1.4330  0.2772 -0.8466
 4910TIP3    H236294   3.197   1.408   6.948  1.7151  0.4911 -0.5636
 4911TIP3   OH236295   0.701   4.321   7.690 -0.3788 -0.1352  0.2339
 4911TIP3    H136296   0.727   4.291   7.603  0.0798  1.2394 -0.1324
 4911TIP3    H236297   0.606   4.336   7.683 -0.0414  1.8765 -0.6711
 4912TIP3   OH236298   4.797   6.580   1.059  0.2037  0.5101 -0.0429
 4912TIP3    H136299   4.711   6.539   1.051  0.2286  0.1184  1.3606
 4912TIP3    H236300   4.789   6.662   1.011 -1.3279  1.0043  0.9889
 4913TIP3   OH236301   4.583   6.496   0.758  0.0541  0.2237 -0.3127
 4913TIP3    H136302   4.677   6.506   0.743  0.4313 -1.7873  0.3201
 4913TIP3    H236303   4.576   6.469   0.850 -1.3241  2.0206  0.1823
 4914TIP3   OH236304   3.359   3.900   1.361 -0.1689 -0.3892 -0.4794
 4914TIP3    H136305   3.450   3.926   1.373 -0.0764 -0.3559 -1.2111
 4914TIP3    H236306   3.352   3.881   1.267 -0.7300 -1.1033 -0.2978
 4915TIP3   OH236307   3.608   2.457   1.309 -0.4000 -0.0069 -0.3131
 4915TIP3    H136308   3.645   2.373   1.334  1.1335  1.5598  3.4469
 4915TIP3    H236309   3.671   2.495   1.248  0.4781 -0.3501  0.3651
 4916TIP3   OH236310   2.772   0.650   0.654 -0.5142 -0.4706 -0.2106
 4916TIP3    H136311   2.781   0.572   0.710 -1.2855  0.3503  1.1283
 4916TIP3    H236312   2.758   0.615   0.566  3.4892 -1.8223 -0.4920
 4917TIP3   OH236313   1.203   2.120   1.005 -0.1734 -0.0622  0.3362
 4917TIP3    H136314   1.181   2.030   0.983  1.9071 -0.2440 -1.3943
 4917TIP3    H236315   1.285   2.113   1.055 -1.5732  0.7522  2.8939
 4918TIP3   OH236316   0.980   1.096   0.275  0.2579 -0.1741 -0.0139
 4918TIP3    H136317   1.000   1.030   0.208 -2.1274 -2.0534  0.9964
 4918TIP3    H236318   0.919   1.156   0.231  0.7462  0.1441 -0.2747
 4919TIP3   OH236319   6.783   2.560   8.050  0.1391  0.5577  0.4940
 4919TIP3    H136320   6.713   2.624   8.042  0.6502  0.8901 -1.7565
 4919TIP3    H236321   6.837   2.572   7.972  2.1231 -0.4063  1.6226
 4920TIP3   OH236322   3.972   2.217   1.271 -0.2355  0.5249 -0.2704
 4920TIP3    H136323   3.920   2.225   1.191 -0.9071  2.2429  0.2928
 4920TIP3    H236324   4.015   2.302   1.281  2.0929 -0.5725 -0.2600
 4921TIP3   OH236325   3.517   6.661   0.200  0.4937 -0.0744 -0.3586
 4921TIP3    H136326   3.499   6.742   0.151  1.2577 -0.7836 -1.8711
 4921TIP3    H236327   3.430   6.631   0.227 -0.2677 -0.8133 -3.2534
 4922TIP3   OH236328   0.257   5.756   1.498 -0.4140  0.4739  0.0630
 4922TIP3    H136329   0.256   5.735   1.404 -5.1972  1.2422 -0.3042
 4922TIP3    H236330   0.202   5.689   1.538 -3.1562  3.1895  1.2696
 4923TIP3   OH236331   5.677   1.987   0.381  0.5091  0.2754  0.5983
 4923TIP3    H136332   5.709   1.992   0.471  2.4975 -0.2734 -0.0267
 4923TIP3    H236333   5.754   1.963   0.330 -1.0648 -1.7614 -0.9653
 4924TIP3   OH236334   3.538   0.696   1.041 -0.2616  0.4543 -0.5371
 4924TIP3    H136335   3.536   0.781   0.996 -1.0543 -0.0265 -1.4527
 4924TIP3    H236336   3.448   0.684   1.072  0.0261  0.2867  0.2518
 4925TIP3   OH236337   1.202   1.493   1.962  0.6614  0.5723  0.4566
 4925TIP3    H136338   1.182   1.565   2.022  1.7965 -1.1410  3.1035
 4925TIP3    H236339   1.287   1.461   1.992  0.7381 -1.1096 -1.4092
 4926TIP3   OH236340   3.506   5.386   7.979  0.0179 -0.5102  0.3027
 4926TIP3    H136341   3.489   5.430   8.063 -2.3769 -1.7732  0.5808
 4926TIP3    H236342   3.420   5.383   7.936  0.8556 -1.5203 -1.3968
 4927TIP3   OH236343   5.462   0.362   7.859  0.2532  0.1449 -0.1041
 4927TIP3    H136344   5.440   0.451   7.830 -2.1557 -0.7259 -1.2352
 4927TIP3    H236345   5.514   0.327   7.787  1.3500  0.6749  0.4186
 4928TIP3   OH236346   5.827   1.929   7.273  0.2482 -0.1383  1.0842
 4928TIP3    H136347   5.757   1.917   7.208  1.0328 -2.2021  0.5264
 4928TIP3    H236348   5.881   1.851   7.263  0.3968 -0.5483  4.2664
 4929TIP3   OH236349   5.248   2.752   0.173  0.0524  0.1475 -0.2543
 4929TIP3    H136350   5.233   2.744   0.078 -1.0675  0.4685 -0.1162
 4929TIP3    H236351   5.167   2.718   0.212  1.4243 -2.2634  0.6570
 4930TIP3   OH236352   2.516   6.432   8.364 -0.3880 -0.1988  0.0202
 4930TIP3    H136353   2.456   6.357   8.362 -0.6357 -0.0538  1.4105
 4930TIP3    H236354   2.463   6.504   8.397  0.4165  0.0580  0.7826
 4931TIP3   OH236355   2.555   6.514   1.470 -0.1898 -0.0605 -0.2472
 4931TIP3    H136356   2.550   6.523   1.375 -2.2067  0.0207 -0.1724
 4931TIP3    H236357   2.557   6.420   1.485 -0.1089 -0.0779 -0.3629
 4932TIP3   OH236358   6.495   3.209   0.884 -0.2175  0.2734  0.2872
 4932TIP3    H136359   6.414   3.158   0.893 -0.5448  0.9097  1.0178
 4932TIP3    H236360   6.471   3.281   0.826  0.2463 -0.3804 -0.7454
 4933TIP3   OH236361   3.148   5.123   1.942  0.6008  0.1620  0.4330
 4933TIP3    H136362   3.083   5.185   1.910 -1.8764 -2.7609 -0.7490
 4933TIP3    H236363   3.143   5.130   2.038 -0.8630  0.6214  0.3472
 4934TIP3   OH236364   1.705   6.368   7.888  0.4268 -0.3836  0.1799
 4934TIP3    H136365   1.786   6.408   7.857  0.1919  1.3906  1.7096
 4934TIP3    H236366   1.681   6.418   7.966 -1.7822 -1.3051  0.1741
 4935TIP3   OH236367   1.788   5.452   7.345  0.3032 -0.2893 -0.5168
 4935TIP3    H136368   1.845   5.380   7.376 -0.2020 -0.6292 -0.3687
 4935TIP3    H236369   1.778   5.436   7.252 -1.6198 -1.7221 -0.1232
 4936TIP3   OH236370   3.766   2.659   7.689 -0.1674  0.4894  0.3702
 4936TIP3    H136371   3.769   2.688   7.598  0.7769 -0.0235  0.2336
 4936TIP3    H236372   3.699   2.715   7.729 -0.6569  0.6609 -0.6499
 4937TIP3   OH236373   0.881   0.382   7.591  0.0261 -0.1288  0.2290
 4937TIP3    H136374   0.888   0.295   7.551 -2.5193 -0.5427  0.5088
 4937TIP3    H236375   0.891   0.442   7.517 -0.8243 -0.7647 -0.4300
 4938TIP3   OH236376   6.651   3.839   1.623  0.4481 -0.2464 -0.2224
 4938TIP3    H136377   6.661   3.776   1.552 -2.8291 -1.1066 -0.0671
 4938TIP3    H236378   6.570   3.886   1.603 -0.9066 -0.8656  3.1244
 4939TIP3   OH236379   4.755   3.098   0.012 -0.0127  0.0363 -0.1308
 4939TIP3    H136380   4.727   3.021  -0.038  1.8193 -1.5118  1.0740
 4939TIP3    H236381   4.836   3.126  -0.031 -1.0542  1.8316 -1.0275
 4940TIP3   OH236382   6.061   2.486   7.648  0.4170  0.0525  0.1092
 4940TIP3    H136383   6.085   2.510   7.559 -0.3849  3.0615  0.5777
 4940TIP3    H236384   5.990   2.423   7.638 -0.9536  1.7455 -1.4772
 4941TIP3   OH236385   2.314   1.000   0.473 -0.2869 -0.5212  0.5172
 4941TIP3    H136386   2.328   1.094   0.465 -1.0781 -0.4950 -0.6984
 4941TIP3    H236387   2.296   0.986   0.566  0.8101  0.3716  0.8873
 4942TIP3   OH236388   6.659   0.180   8.209  0.4057 -0.1747  0.3462
 4942TIP3    H136389   6.575   0.159   8.248  0.1830 -0.9612 -0.5241
 4942TIP3    H236390   6.714   0.205   8.283 -0.2304 -0.8578  1.0736
 4943TIP3   OH236391   1.456   3.217   6.596  0.1493 -0.0541  0.4639
 4943TIP3    H136392   1.433   3.252   6.510  1.6372  2.9657  1.1911
 4943TIP3    H236393   1.550   3.234   6.605  0.4876 -2.2406  1.8995
 4944TIP3   OH236394   6.452   5.794   6.765 -0.2159  0.9678  0.2083
 4944TIP3    H136395   6.414   5.882   6.768 -0.9784  0.6694 -0.3770
 4944TIP3    H236396   6.392   5.743   6.711 -0.2347 -0.1359  1.2031
 4945TIP3   OH236397   6.873   0.808   0.255 -0.1104  0.1348 -0.6648
 4945TIP3    H136398   6.873   0.892   0.211 -2.3716 -0.4850 -2.0266
 4945TIP3    H236399   6.928   0.752   0.200  2.7707  0.9970  1.1042
 4946TIP3   OH236400   0.266   3.571   2.410 -0.1259  0.2609 -0.2349
 4946TIP3    H136401   0.192   3.526   2.452 -0.4198  0.9065 -0.0442
 4946TIP3    H236402   0.236   3.589   2.321 -0.0376  0.1596 -0.2864
 4947TIP3   OH236403   3.168   2.403   6.745 -0.3111 -0.4011  0.1333
 4947TIP3    H136404   3.133   2.429   6.659  1.2906 -0.3532 -0.5572
 4947TIP3    H236405   3.120   2.457   6.808 -1.3043 -0.2095 -0.7529
 4948TIP3   OH236406   2.088   1.739   6.848  0.4006  0.2624 -0.0208
 4948TIP3    H136407   1.997   1.754   6.875  0.3984  0.8911 -0.3528
 4948TIP3    H236408   2.140   1.771   6.922  0.3740  1.0984 -0.3561
 4949TIP3   OH236409   2.628   6.552   7.583  0.2745  0.4743  1.5032
 4949TIP3    H136410   2.630   6.643   7.612 -0.7058  0.4743  1.5854
 4949TIP3    H236411   2.589   6.555   7.496  0.6518  0.1729  1.3197
 4950TIP3   OH236412   2.992   0.862   0.788 -0.6044 -0.2661 -0.2507
 4950TIP3    H136413   3.066   0.815   0.826 -1.1816  0.2710  1.6346
 4950TIP3    H236414   2.918   0.842   0.846 -1.2994  1.4064 -0.4966
 4951TIP3   OH236415   2.915   1.979   0.477  0.0584 -0.0293  0.2585
 4951TIP3    H136416   3.003   2.016   0.481  0.6141 -1.2891  0.1778
 4951TIP3    H236417   2.861   2.049   0.439  1.1394  0.5353 -0.2896
 4952TIP3   OH236418   3.934   5.465   0.789  0.1687  0.2634  0.4745
 4952TIP3    H136419   3.841   5.474   0.807  0.1002  1.6199 -0.4124
 4952TIP3    H236420   3.977   5.497   0.868 -0.1018 -0.4490  0.9213
 4953TIP3   OH236421   3.971   2.868   8.322  0.0759 -0.3155  0.0811
 4953TIP3    H136422   4.017   2.911   8.250  0.4125 -0.9598 -0.1065
 4953TIP3    H236423   3.900   2.927   8.345 -0.0014 -0.0754 -0.7508
 4954TIP3   OH236424   0.876   3.036   0.857  0.4970  0.0352  0.4122
 4954TIP3    H136425   0.892   3.124   0.824 -2.1056  0.4129 -0.0054
 4954TIP3    H236426   0.958   3.012   0.901  1.5418  2.3240 -0.1384
 4955TIP3   OH236427   2.688   5.063   7.655  0.6301 -0.3149 -0.2503
 4955TIP3    H136428   2.644   5.148   7.658  0.0342 -0.5758 -1.0406
 4955TIP3    H236429   2.769   5.076   7.704  0.3163  0.5697  0.0600
 4956TIP3   OH236430   4.390   3.795   1.423  0.1518  0.2664 -0.1661
 4956TIP3    H136431   4.354   3.829   1.504  0.5589 -1.2146  0.6692
 4956TIP3    H236432   4.448   3.724   1.450  0.5360 -0.0595 -1.7327
 4957TIP3   OH236433   4.104   6.544   0.568 -0.2298 -0.7586  0.5250
 4957TIP3    H136434   4.128   6.611   0.504 -1.7821 -0.3227  0.3657
 4957TIP3    H236435   4.187   6.518   0.607  0.6181 -0.1795 -0.8227
 4958TIP3   OH236436   3.046   5.444   7.608 -0.0260  0.4606  0.3442
 4958TIP3    H136437   3.099   5.521   7.626  0.0708  0.5305 -0.2255
 4958TIP3    H236438   2.999   5.465   7.527 -0.8370  0.3567  0.7701
 4959TIP3   OH236439   4.293   5.005   0.295 -0.3157  0.1922  0.1200
 4959TIP3    H136440   4.376   5.034   0.257  0.2442 -1.1542  0.2581
 4959TIP3    H236441   4.283   5.058   0.374  1.1163 -0.5760  0.8464
 4960TIP3   OH236442   5.332   2.373   0.620 -0.1696  0.5226  0.7668
 4960TIP3    H136443   5.341   2.463   0.588  0.7037  1.5382  3.5726
 4960TIP3    H236444   5.250   2.373   0.669 -2.2943 -1.4171 -2.3916
 4961TIP3   OH236445   0.276   3.563   7.073 -0.5540  0.3522  0.1968
 4961TIP3    H136446   0.225   3.483   7.084  0.3835 -0.2053  0.6164
 4961TIP3    H236447   0.303   3.586   7.162  1.5332 -0.4595 -0.1769
 4962TIP3   OH236448   3.128   1.879   0.974  0.2236 -1.0770 -0.1325
 4962TIP3    H136449   3.084   1.803   1.012 -1.1407  0.1444  0.8291
 4962TIP3    H236450   3.097   1.882   0.883 -1.6044 -0.3470  0.4785
 4963TIP3   OH236451   1.613   4.936   7.146 -0.0235 -0.0809  0.2799
 4963TIP3    H136452   1.609   4.847   7.182 -0.3093  0.0360  0.5417
 4963TIP3    H236453   1.528   4.948   7.104  1.0755 -1.0354 -2.4321
 4964TIP3   OH236454   5.640   4.772   1.302  0.3746  1.0806 -0.5981
 4964TIP3    H136455   5.546   4.756   1.295  0.4376  0.5249 -0.2061
 4964TIP3    H236456   5.648   4.848   1.360  0.2125  0.3691  0.3798
 4965TIP3   OH236457   2.418   3.030   6.958 -0.5414 -0.2988 -0.1362
 4965TIP3    H136458   2.473   3.084   6.901 -1.3892 -0.0968 -0.7750
 4965TIP3    H236459   2.437   3.063   7.046 -0.3196  0.3807 -0.4254
 4966TIP3   OH236460   2.505   0.263   0.359  0.7720  0.4072 -0.1032
 4966TIP3    H136461   2.422   0.217   0.369  0.9725  0.2249  0.8355
 4966TIP3    H236462   2.566   0.198   0.325  0.7835  0.2604  0.1939
 4967TIP3   OH236463   0.321   2.828   7.903  0.4288 -0.3423  0.7425
 4967TIP3    H136464   0.239   2.845   7.950 -0.3030  0.6871 -0.8532
 4967TIP3    H236465   0.373   2.907   7.915 -0.1384  0.3186 -0.8823
 4968TIP3   OH236466   4.219   5.418   0.397 -0.6918 -0.2020  0.2608
 4968TIP3    H136467   4.289   5.447   0.338 -0.9322 -0.8049 -0.3467
 4968TIP3    H236468   4.145   5.399   0.339 -1.1431 -0.2110  0.8267
 4969TIP3   OH236469   0.245   2.777   0.452  0.4982  0.0499 -0.5673
 4969TIP3    H136470   0.166   2.746   0.496  0.7152 -0.8726 -0.8058
 4969TIP3    H236471   0.215   2.802   0.364  0.6177 -1.2304 -0.9962
 4970TIP3   OH236472   1.244   0.528   1.490 -0.1883  0.0450  0.1032
 4970TIP3    H136473   1.258   0.621   1.504 -0.1079  0.0447  0.0257
 4970TIP3    H236474   1.300   0.506   1.415  0.7905 -0.3337  0.9176
 4971TIP3   OH236475   2.980   4.928   7.039 -0.8731  0.0778  0.7064
 4971TIP3    H136476   2.958   5.011   6.997  2.7644  1.7565  1.7197
 4971TIP3    H236477   3.025   4.878   6.971 -0.7401  0.0297  0.8312
 4972TIP3   OH236478   2.129   1.041   1.598 -0.3714  0.2422  0.1410
 4972TIP3    H136479   2.143   1.128   1.635  0.1559 -0.3915  1.5354
 4972TIP3    H236480   2.204   1.026   1.540  0.1061  0.3145  0.7286
 4973TIP3   OH236481   3.506   1.069   1.345  0.3242  0.2490  0.1371
 4973TIP3    H136482   3.560   1.139   1.381  0.1226  0.0170  0.9256
 4973TIP3    H236483   3.568   1.007   1.307  0.5005  0.8423 -0.5487
 4974TIP3   OH236484   3.130   2.675   7.585 -0.5604  0.4609 -0.4642
 4974TIP3    H136485   3.106   2.682   7.677 -0.4000  0.9924 -0.4604
 4974TIP3    H236486   3.116   2.763   7.550 -0.1579  0.3774 -0.8376
 4975TIP3   OH236487   1.952   4.067   0.715 -0.6599  1.0120  0.2557
 4975TIP3    H136488   1.891   4.094   0.646  0.4815  1.3921 -0.6389
 4975TIP3    H236489   2.039   4.078   0.676 -0.0296 -1.4718  0.7795
 4976TIP3   OH236490   5.969   1.162   7.909 -0.3879 -0.3293 -0.0278
 4976TIP3    H136491   5.897   1.224   7.919 -0.1554 -0.1084  0.2867
 4976TIP3    H236492   6.005   1.153   7.997  0.0194 -0.3756 -0.1970
 4977TIP3   OH236493   6.425   1.971   0.300  0.2921  0.0714 -0.3818
 4977TIP3    H136494   6.466   1.971   0.213  0.8312  0.7527 -0.1371
 4977TIP3    H236495   6.491   2.011   0.357  0.0427 -0.5996  0.3899
 4978TIP3   OH236496   0.651   0.866   6.731 -0.0609  0.2054 -0.5587
 4978TIP3    H136497   0.573   0.832   6.686  0.3683 -0.4589 -0.8165
 4978TIP3    H236498   0.718   0.870   6.662 -0.0990  1.5963 -0.5304
 4979TIP3   OH236499   0.507   4.761   7.261  0.3503  0.5324  0.4390
 4979TIP3    H136500   0.573   4.819   7.222  0.0701  1.0895  0.7859
 4979TIP3    H236501   0.551   4.676   7.266  0.6225  0.6024 -0.4614
 4980TIP3   OH236502   2.154   2.567   6.737 -0.4208 -0.0744  0.3915
 4980TIP3    H136503   2.155   2.473   6.722  0.8803  0.2173 -1.6833
 4980TIP3    H236504   2.097   2.602   6.669 -1.7820  0.6045  1.8025
 4981TIP3   OH236505   0.473   2.556   6.956  0.3511 -0.2862  0.6705
 4981TIP3    H136506   0.404   2.527   6.896 -0.3966 -0.5940  1.6438
 4981TIP3    H236507   0.543   2.492   6.945 -0.0147 -0.6708  0.5336
 4982TIP3   OH236508   0.438   5.638   0.134  0.6908 -0.0438  0.3638
 4982TIP3    H136509   0.406   5.722   0.102  1.2059  0.5526  1.3464
 4982TIP3    H236510   0.415   5.637   0.227  2.5620 -0.0247  0.8716
 4983TIP3   OH236511   0.714   1.853   6.485 -0.2933 -0.0002  0.1975
 4983TIP3    H136512   0.678   1.872   6.398 -3.0615 -1.5404  0.8608
 4983TIP3    H236513   0.809   1.858   6.474 -0.5442 -0.1397 -2.9171
 4984TIP3   OH236514   2.725   4.497   0.747 -0.1815  0.3415  0.8559
 4984TIP3    H136515   2.803   4.544   0.778 -0.3017  2.1719 -1.3974
 4984TIP3    H236516   2.655   4.526   0.805  0.5701 -0.6102  2.3217
 4985TIP3   OH236517   1.745   1.487   7.683  0.3404  0.0496 -0.8042
 4985TIP3    H136518   1.794   1.562   7.717 -2.0810  1.0155  0.8741
 4985TIP3    H236519   1.671   1.526   7.638  0.9215 -1.3569 -3.1303
 4986TIP3   OH236520   4.785   5.485   0.922  0.0798  0.3342 -0.5677
 4986TIP3    H136521   4.741   5.442   0.995 -0.9906  1.4465 -0.5301
 4986TIP3    H236522   4.718   5.492   0.854  0.4977  1.0767 -0.9242
 4987TIP3   OH236523   3.965   4.944   8.078  0.2124  0.2620  0.4743
 4987TIP3    H136524   3.925   5.016   8.030 -0.0966 -0.5537 -0.5358
 4987TIP3    H236525   3.916   4.940   8.160 -0.8964  0.1554 -0.1680
 4988TIP3   OH236526   4.916   2.031   0.215  0.4956 -0.1100  0.2117
 4988TIP3    H136527   4.937   2.072   0.298  1.3465  1.7260 -0.8439
 4988TIP3    H236528   4.821   2.043   0.206  0.8977  3.4254 -0.8478
 4989TIP3   OH236529   4.007   0.965   6.723  0.1619  0.2776  0.0225
 4989TIP3    H136530   3.915   0.988   6.731  0.2779  0.4773  0.9932
 4989TIP3    H236531   4.048   1.041   6.683 -0.1307  0.0779 -0.6711
 4990TIP3   OH236532   0.771   1.138   6.968 -0.2301  0.2071  0.7892
 4990TIP3    H136533   0.768   1.124   6.873  0.1753  0.3180  0.7564
 4990TIP3    H236534   0.787   1.232   6.977  2.2924 -0.1501  0.9061
 4991TIP3   OH236535   5.412   0.410   1.604  0.3918  0.6400  0.1445
 4991TIP3    H136536   5.412   0.402   1.509 -1.3814 -0.5043  0.2073
 4991TIP3    H236537   5.334   0.462   1.624 -0.4745 -0.9249  1.0531
 4992TIP3   OH236538   5.777   6.696   0.503 -0.5197 -0.0685 -0.2788
 4992TIP3    H136539   5.794   6.746   0.423  1.3003  1.8959  1.2169
 4992TIP3    H236540   5.823   6.613   0.490  1.5374  1.0403 -0.5168
 4993TIP3   OH236541   1.027   0.995   7.018  0.3919  0.8179  0.4344
 4993TIP3    H136542   1.037   0.980   6.924 -0.4915  0.6685  0.3491
 4993TIP3    H236543   0.935   1.020   7.028 -0.2879 -1.8220  1.6039
 4994TIP3   OH236544   2.382   1.488   7.620  0.4892 -0.3860 -0.4978
 4994TIP3    H136545   2.315   1.447   7.565  1.3951  0.4161 -2.2880
 4994TIP3    H236546   2.460   1.434   7.607  0.0091 -2.0167  2.4898
 4995TIP3   OH236547   0.635   3.215   0.778  0.0839  0.5720  0.6682
 4995TIP3    H136548   0.583   3.294   0.761  0.3426  0.6261  0.1167
 4995TIP3    H236549   0.688   3.237   0.855 -1.3445  0.2049  1.8095
 4996TIP3   OH236550   2.829   5.340   0.387  0.1153  0.2328  0.0367
 4996TIP3    H136551   2.767   5.412   0.377  2.1108  1.9891 -0.4272
 4996TIP3    H236552   2.891   5.350   0.315  1.3111 -1.0665  0.8104
 4997TIP3   OH236553   6.765   6.140   1.260  0.4098  0.2146 -0.2789
 4997TIP3    H136554   6.804   6.052   1.255  0.3477  0.1764 -0.0760
 4997TIP3    H236555   6.841   6.199   1.265  0.4803  0.2419 -1.3732
 4998TIP3   OH236556   0.574   1.160   7.801  0.1433 -0.0678  0.1424
 4998TIP3    H136557   0.582   1.113   7.718 -0.3197  0.2942 -0.1119
 4998TIP3    H236558   0.661   1.194   7.819  0.2141 -0.0469 -0.2503
 4999TIP3   OH236559   0.389   3.850   1.385 -0.2290 -0.1267 -0.3476
 4999TIP3    H136560   0.387   3.792   1.462 -0.7879  0.2541 -0.0666
 4999TIP3    H236561   0.336   3.925   1.411 -2.4739 -1.0506 -1.9245
 5000TIP3   OH236562   3.294   6.763   7.463 -0.4997 -0.2859 -0.2445
 5000TIP3    H136563   3.310   6.692   7.401 -0.3304  2.3865 -3.5146
 5000TIP3    H236564   3.216   6.807   7.430  1.3259  3.0828 -0.5177
 5001TIP3   OH236565   0.408   2.378   8.140  0.2673  0.1785  0.2402
 5001TIP3    H136566   0.447   2.392   8.226 -0.5015  1.4583  0.4098
 5001TIP3    H236567   0.412   2.464   8.098  0.9604 -0.5131 -1.1520
 5002TIP3   OH236568   4.304   5.369   1.256  0.3186 -0.7407  0.2719
 5002TIP3    H136569   4.342   5.285   1.227 -2.5463 -1.8357 -0.6935
 5002TIP3    H236570   4.231   5.344   1.313  0.8542  1.2358  1.9301
 5003TIP3   OH236571   5.324   3.196   8.264  0.4134 -0.0644  0.2890
 5003TIP3    H136572   5.345   3.240   8.182  1.1022 -1.1682 -0.1507
 5003TIP3    H236573   5.401   3.207   8.319 -0.0557  0.6933  0.8101
 5004TIP3   OH236574   0.075   6.573   1.025  0.8471 -0.2085  0.3896
 5004TIP3    H136575   0.047   6.663   1.041  1.3164 -0.1569  0.9214
 5004TIP3    H236576   0.115   6.576   0.938  1.9234  0.3446  0.8892
 5005TIP3   OH236577   3.987   6.915   2.441  0.3700 -1.0539  0.1314
 5005TIP3    H136578   3.976   6.864   2.360 -2.1049 -1.1168  0.4171
 5005TIP3    H236579   3.957   7.003   2.419  0.3936 -0.8768  0.7743
 5006TIP3   OH236580   6.390   2.993   1.295 -0.2746  0.0974  0.3458
 5006TIP3    H136581   6.374   2.933   1.223 -1.0541  1.2866 -0.5033
 5006TIP3    H236582   6.435   3.067   1.255  2.1161 -0.5488  1.6511
 5007TIP3   OH236583   0.476   2.778   6.487 -0.8338 -0.0690  0.2497
 5007TIP3    H136584   0.410   2.830   6.532 -0.1786  0.0702  1.0824
 5007TIP3    H236585   0.514   2.838   6.422  0.1973  0.6449  1.4740
 5008TIP3   OH236586   2.179   5.719   0.886  0.2404  0.2231 -0.6969
 5008TIP3    H136587   2.199   5.735   0.794 -1.4318 -1.7482 -1.4906
 5008TIP3    H236588   2.113   5.785   0.908  0.3128  0.4146 -1.0455
 5009TIP3   OH236589   5.848   6.357   7.305 -0.3003 -0.0902  0.0712
 5009TIP3    H136590   5.785   6.407   7.254 -1.4292 -1.1214  0.4084
 5009TIP3    H236591   5.906   6.318   7.240  0.1462  1.0377 -0.2319
 5010TIP3   OH236592   1.035   4.260   8.324 -0.0621  0.1567 -0.0109
 5010TIP3    H136593   0.973   4.296   8.261 -0.0625  0.8390  0.3749
 5010TIP3    H236594   1.030   4.318   8.400 -0.1775 -0.7375  0.6944
 5011TIP3   OH236595   4.333   0.969   0.670  0.0403  0.4355 -0.4809
 5011TIP3    H136596   4.373   0.998   0.752  0.4704 -1.7564  0.1465
 5011TIP3    H236597   4.262   1.032   0.654  1.3143  2.1802  0.3787
 5012TIP3   OH236598   2.014   3.427   7.067  0.6114 -0.5506  0.5197
 5012TIP3    H136599   1.935   3.410   7.016 -0.2164  3.1135  0.3303
 5012TIP3    H236600   2.086   3.417   7.005  0.0904 -1.2135  0.0051
 5013TIP3   OH236601   2.963   1.699   6.915 -0.2039 -0.1661 -0.8560
 5013TIP3    H136602   2.974   1.747   6.832  0.5164  2.2436  0.5223
 5013TIP3    H236603   3.052   1.689   6.948 -0.4909 -1.1194 -0.3524
 5014TIP3   OH236604   2.632   0.338   0.084  0.2452  0.1620  0.2650
 5014TIP3    H136605   2.672   0.270   0.138 -0.6074  0.4654  1.3124
 5014TIP3    H236606   2.694   0.351   0.012  0.4598 -1.6641  0.0644
 5015TIP3   OH236607   4.858   0.763   1.772 -0.0502  0.5585 -0.2056
 5015TIP3    H136608   4.796   0.743   1.701 -0.7890  1.1216  0.2693
 5015TIP3    H236609   4.817   0.726   1.850  0.1170  1.1032  0.1447
 5016TIP3   OH236610   3.381   2.760   7.814  0.3406  0.2345 -0.3463
 5016TIP3    H136611   3.404   2.672   7.844  0.9195  0.7519  0.7873
 5016TIP3    H236612   3.294   2.750   7.776  0.3775 -0.8174 -0.1851
 5017TIP3   OH236613   0.140   2.421   1.401  0.5111 -0.0234 -0.2182
 5017TIP3    H136614   0.165   2.470   1.479  0.2814 -0.7100  0.3029
 5017TIP3    H236615   0.048   2.443   1.387  1.0609  1.6874 -1.5208
 5018TIP3   OH236616   6.890   0.251   1.391  0.7683 -0.0494 -0.0837
 5018TIP3    H136617   6.898   0.319   1.458  1.8666 -0.7440  0.5204
 5018TIP3    H236618   6.798   0.255   1.364  0.2288  0.1000  1.6433
 5019TIP3   OH236619   5.378   2.053   0.330  0.1441  0.7586 -0.2215
 5019TIP3    H136620   5.466   2.071   0.295  0.7724 -0.2158  0.7939
 5019TIP3    H236621   5.384   2.077   0.422 -0.4776  0.0933 -0.0053
 5020TIP3   OH236622   0.876   2.441   7.424 -0.0092  0.0539 -0.0572
 5020TIP3    H136623   0.784   2.433   7.451 -0.2444 -2.4694 -1.2529
 5020TIP3    H236624   0.882   2.528   7.385 -1.4062  0.9870  1.6779
 5021TIP3   OH236625   6.652   5.598   2.517  0.4328  0.6902 -0.3547
 5021TIP3    H136626   6.580   5.557   2.564  0.0992 -0.1979 -1.5811
 5021TIP3    H236627   6.610   5.649   2.448  0.7838  3.8000  1.5184
 5022TIP3   OH236628   5.093   3.835   7.353 -0.4895  0.2424 -0.1924
 5022TIP3    H136629   5.041   3.765   7.314 -1.0646  0.0708  0.8373
 5022TIP3    H236630   5.181   3.800   7.361 -0.7559 -0.3491  0.2368
 5023TIP3   OH236631   0.673   4.049   0.096  0.2832 -0.3007  0.3108
 5023TIP3    H136632   0.587   4.087   0.078 -0.4607 -2.1888 -0.4048
 5023TIP3    H236633   0.722   4.119   0.138 -1.5977  0.8469  0.7170
 5024TIP3   OH236634   2.875   2.197   7.591  0.6191  0.0665  0.4526
 5024TIP3    H136635   2.859   2.149   7.672  3.3523 -2.2763 -0.2210
 5024TIP3    H236636   2.948   2.255   7.611  1.7394 -0.9828 -0.3849
 5025TIP3   OH236637   6.426   6.670   7.395 -0.4386 -0.2796 -0.3769
 5025TIP3    H136638   6.495   6.637   7.453 -0.3815 -0.1774 -0.3868
 5025TIP3    H236639   6.352   6.612   7.411 -0.6348  0.1414  0.2822
 5026TIP3   OH236640   1.543   4.706   6.761  0.1455  0.0641  0.2272
 5026TIP3    H136641   1.459   4.697   6.806 -0.0493 -1.0028 -0.3077
 5026TIP3    H236642   1.596   4.634   6.793  1.1483  1.1479  1.1070
 5027TIP3   OH236643   1.723   4.947   0.995  0.1449  0.3699  0.6595
 5027TIP3    H136644   1.713   4.873   1.055  0.5280  0.6486  1.0672
 5027TIP3    H236645   1.812   4.979   1.009  0.0256  0.8340  0.3977
 5028TIP3   OH236646   2.026   2.118   7.482 -0.2913 -0.8004 -0.6056
 5028TIP3    H136647   2.051   2.041   7.533 -3.9824 -0.4053  2.2101
 5028TIP3    H236648   1.936   2.100   7.454 -0.7582  1.8976 -1.1071
 5029TIP3   OH236649   1.602   1.825   6.428 -0.0565 -0.1079  0.8786
 5029TIP3    H136650   1.636   1.867   6.349  0.0885 -1.2644  0.3117
 5029TIP3    H236651   1.522   1.875   6.449  0.9793  1.4852  1.1943
 5030TIP3   OH236652   1.117   0.111   7.737 -0.1890 -0.5547 -0.2429
 5030TIP3    H136653   1.184   0.083   7.675 -0.7374 -1.0220 -0.6365
 5030TIP3    H236654   1.136   0.203   7.754 -1.1692  0.1527 -2.6135
 5031TIP3   OH236655   0.554   3.344   7.155 -0.5195  0.3121  0.9107
 5031TIP3    H136656   0.577   3.430   7.120 -0.3447 -0.2965 -0.5668
 5031TIP3    H236657   0.524   3.295   7.079 -1.8797 -0.5302  1.9439
 5032TIP3   OH236658   4.738   2.569   0.214 -0.0968  0.0178 -0.0023
 5032TIP3    H136659   4.783   2.490   0.184 -0.7854 -0.4862  0.2671
 5032TIP3    H236660   4.775   2.585   0.301 -1.0831 -0.9395  0.6190
 5033TIP3   OH236661   3.772   3.616   7.381 -0.1308 -0.1478 -0.1857
 5033TIP3    H136662   3.732   3.660   7.456  0.2091  0.1200 -0.1584
 5033TIP3    H236663   3.842   3.675   7.353 -1.9464  1.0590 -2.4036
 5034TIP3   OH236664   4.184   4.088   7.889 -0.0808  0.0411  0.1541
 5034TIP3    H136665   4.174   4.115   7.980  0.3684  0.0316  0.2110
 5034TIP3    H236666   4.207   3.996   7.894  1.1436  0.3284  0.0965
 5035TIP3   OH236667   1.626   2.379   7.413 -0.4738 -0.2629 -0.7283
 5035TIP3    H136668   1.698   2.391   7.476 -0.1650  2.0029 -1.4164
 5035TIP3    H236669   1.578   2.304   7.447 -0.5037  1.0172  2.4477
 5036TIP3   OH236670   3.769   2.307   6.681  0.0045 -0.0343  0.0596
 5036TIP3    H136671   3.819   2.287   6.760 -0.8523 -2.2882  0.0918
 5036TIP3    H236672   3.805   2.390   6.651 -0.0877  1.2433  3.1511
 5037TIP3   OH236673   4.376   2.314   1.043 -0.0146  0.2153 -0.1199
 5037TIP3    H136674   4.310   2.268   0.991 -0.0121  0.4884 -0.3665
 5037TIP3    H236675   4.404   2.386   0.987  2.6084 -1.5351 -1.2537
 5038TIP3   OH236676   5.424   1.938   6.631  0.4008  0.0633  0.0048
 5038TIP3    H136677   5.353   1.876   6.614 -0.5093  0.9473  0.4694
 5038TIP3    H236678   5.412   2.007   6.566  2.3316 -0.9317 -1.5263
 5039TIP3   OH236679   5.792   1.889   2.160 -0.6616  0.1264 -0.1651
 5039TIP3    H136680   5.833   1.940   2.230  0.6693 -0.2310 -0.6587
 5039TIP3    H236681   5.708   1.933   2.144 -0.3813  1.0055  0.7266
 5040TIP3   OH236682   6.757   6.497   0.744 -0.4013  0.1236 -0.2851
 5040TIP3    H136683   6.767   6.459   0.832 -2.2583 -1.5859 -0.7335
 5040TIP3    H236684   6.827   6.562   0.738  0.9518 -1.0141  1.7648
 5041TIP3   OH236685   6.252   3.604   0.046 -0.2796  0.3632 -0.6301
 5041TIP3    H136686   6.270   3.563  -0.039  0.5290  1.0319 -0.7973
 5041TIP3    H236687   6.262   3.533   0.109  2.7130  0.5421 -0.7534
 5042TIP3   OH236688   0.309   3.163   0.703  0.1561 -0.4252  0.4533
 5042TIP3    H136689   0.361   3.194   0.777 -0.7504 -1.8997  1.7917
 5042TIP3    H236690   0.367   3.104   0.656  0.4279 -0.2533  0.5708
 5043TIP3   OH236691   6.425   0.196   6.181 -0.2250 -0.0198 -0.7928
 5043TIP3    H136692   6.454   0.232   6.098  0.8437  1.8685  0.3452
 5043TIP3    H236693   6.336   0.230   6.192 -0.1201  0.2674 -0.8414
 5044TIP3   OH236694   1.823   1.444   2.024  0.1520 -0.3692 -0.1557
 5044TIP3    H136695   1.734   1.413   2.041  0.2153  0.0182  1.0365
 5044TIP3    H236696   1.879   1.370   2.044  0.1167 -0.5118 -0.5839
 5045TIP3   OH236697   0.225   2.763   8.212 -0.1934  0.0681 -0.0644
 5045TIP3    H136698   0.181   2.736   8.131 -1.6090  3.9621 -0.8170
 5045TIP3    H236699   0.171   2.728   8.282 -0.2250 -1.4590 -0.8079
 5046TIP3   OH236700   6.700   5.264   8.294  0.6501  0.0403 -0.1877
 5046TIP3    H136701   6.722   5.184   8.246 -0.5005  0.6014 -1.7470
 5046TIP3    H236702   6.760   5.330   8.259 -0.4473  0.5414 -1.2029
 5047TIP3   OH236703   5.922   5.790   8.076  0.5461  0.1828 -0.2622
 5047TIP3    H136704   5.916   5.876   8.035  0.5555  0.0714 -0.4961
 5047TIP3    H236705   6.015   5.778   8.096  0.4756  0.4414  0.2293
 5048TIP3   OH236706   4.610   0.584   7.352  0.0789 -0.0270 -0.1601
 5048TIP3    H136707   4.557   0.548   7.422 -2.8078  0.2269 -2.0578
 5048TIP3    H236708   4.559   0.569   7.272  1.3476  3.0651 -1.7454
 5049TIP3   OH236709   4.276   0.352   6.770  0.3323  0.2181  0.4742
 5049TIP3    H136710   4.339   0.330   6.701  2.3511  3.8256  0.9085
 5049TIP3    H236711   4.324   0.341   6.852 -0.5920  0.1779  1.0284
 5050TIP3   OH236712   5.142   6.486   0.621 -0.2472 -0.3774 -0.7013
 5050TIP3    H136713   5.232   6.478   0.590  0.6433  1.0049  1.3152
 5050TIP3    H236714   5.106   6.398   0.610  1.7080 -1.2701 -0.5339
 5051TIP3   OH236715   5.672   4.753   7.885  0.6745  0.3513 -0.3399
 5051TIP3    H136716   5.604   4.772   7.821  2.2391  0.9384 -1.9102
 5051TIP3    H236717   5.739   4.820   7.870  2.6747 -1.5616 -0.4993
 5052TIP3   OH236718   3.259   3.202   6.190 -0.1733  0.9187 -0.2020
 5052TIP3    H136719   3.295   3.232   6.273 -0.1931  0.4441 -0.0171
 5052TIP3    H236720   3.276   3.107   6.190  0.6061  1.0458 -1.1222
 5053TIP3   OH236721   2.955   2.855   0.890  0.3722  0.1594 -0.6829
 5053TIP3    H136722   3.050   2.867   0.881  0.5793  0.6844  1.4542
 5053TIP3    H236723   2.946   2.791   0.961 -0.7958  2.4541  1.4251
 5054TIP3   OH236724   5.474   4.421   0.039 -0.0777  0.1775 -0.2470
 5054TIP3    H136725   5.560   4.462   0.054  0.1118  0.0395 -0.9105
 5054TIP3    H236726   5.476   4.396  -0.053 -1.1264  0.8413 -0.4606
 5055TIP3   OH236727   3.718   3.629   0.475  0.2200  0.3205 -0.0743
 5055TIP3    H136728   3.788   3.677   0.431 -0.9188  1.4425 -0.7491
 5055TIP3    H236729   3.638   3.656   0.428 -0.7846 -0.0856  1.3418
 5056TIP3   OH236730   5.234   1.958   1.736  0.5172 -1.0690 -0.0138
 5056TIP3    H136731   5.150   2.001   1.746  0.6750 -0.9684  0.9330
 5056TIP3    H236732   5.294   2.006   1.793  1.1841 -1.2316 -0.5572
 5057TIP3   OH236733   0.073   1.128   6.248 -0.2639 -0.1332 -0.8695
 5057TIP3    H136734   0.109   1.209   6.212  0.3762 -0.5995 -1.2934
 5057TIP3    H236735   0.095   1.061   6.183  3.3836 -1.5698  1.5294
 5058TIP3   OH236736   0.119   5.101   0.714  0.8649  0.6820  0.3512
 5058TIP3    H136737   0.204   5.127   0.749  0.9195  1.0606 -0.0604
 5058TIP3    H236738   0.075   5.183   0.692  1.3954  0.4520 -1.7910
 5059TIP3   OH236739   6.201   0.899   6.902 -0.2976 -0.0524 -0.0856
 5059TIP3    H136740   6.187   0.896   6.997  1.5349 -1.5520  0.1794
 5059TIP3    H236741   6.266   0.968   6.889 -0.7784  0.3681 -0.3052
 5060TIP3   OH236742   4.730   0.940   1.584 -0.2826 -0.3251 -0.0645
 5060TIP3    H136743   4.765   0.992   1.656 -0.5027  1.4205 -1.1571
 5060TIP3    H236744   4.648   0.905   1.617  1.4897 -3.0377  1.9269
 5061TIP3   OH236745   3.612   0.581   2.353 -0.2002 -0.4839  0.8993
 5061TIP3    H136746   3.593   0.671   2.326 -0.1685  0.0729  2.6522
 5061TIP3    H236747   3.707   0.573   2.342 -0.3029 -0.5877 -0.0202
 5062TIP3   OH236748   2.986   5.839   7.574 -0.6023  0.5012 -0.1239
 5062TIP3    H136749   2.903   5.793   7.567  0.5604 -1.5910 -1.0314
 5062TIP3    H236750   3.050   5.771   7.596  1.4515  1.3530 -2.9452
 5063TIP3   OH236751   6.065   2.891   0.797 -0.0362 -0.1471 -0.5945
 5063TIP3    H136752   6.026   2.811   0.831 -1.1983  0.4699 -0.4179
 5063TIP3    H236753   6.073   2.875   0.703  1.1016 -1.0011 -0.3797
 5064TIP3   OH236754   2.598   4.602   2.435 -0.2114 -0.5050  0.4785
 5064TIP3    H136755   2.514   4.633   2.468 -1.4323 -0.9329 -2.0560
 5064TIP3    H236756   2.616   4.524   2.487 -0.9913 -0.0218  1.5278
 5065TIP3   OH236757   5.744   4.164   1.817  0.3357 -0.1483 -0.2197
 5065TIP3    H136758   5.696   4.237   1.856  0.9849  0.9886 -1.4636
 5065TIP3    H236759   5.814   4.205   1.766  2.1156 -1.7197  0.8226
 5066TIP3   OH236760   4.775   5.257   7.865  0.2673 -0.7190  0.0649
 5066TIP3    H136761   4.740   5.209   7.940  0.0300  0.0973  0.4865
 5066TIP3    H236762   4.719   5.231   7.792 -0.0299 -0.8674  0.3432
 5067TIP3   OH236763   3.674   5.594   7.150  0.4850 -0.2814  0.5281
 5067TIP3    H136764   3.695   5.519   7.095  0.5502  0.1383 -0.0289
 5067TIP3    H236765   3.641   5.660   7.089  0.1940  0.0553  1.0421
 5068TIP3   OH236766   0.530   1.403   1.087  0.4014 -0.5494  0.4833
 5068TIP3    H136767   0.505   1.494   1.067  1.4292 -0.0561  1.3565
 5068TIP3    H236768   0.580   1.409   1.168 -0.1966 -2.0102  0.9894
 5069TIP3   OH236769   4.724   0.171   0.689  0.1191 -0.0862 -0.7614
 5069TIP3    H136770   4.687   0.189   0.775  1.1740 -0.2121 -0.2696
 5069TIP3    H236771   4.771   0.088   0.699 -0.1280 -0.3384 -1.5789
 5070TIP3   OH236772   4.287   3.721   7.349  0.1863 -0.2484 -0.0411
 5070TIP3    H136773   4.380   3.709   7.368  0.4980 -0.1798 -1.4112
 5070TIP3    H236774   4.285   3.768   7.265 -1.0858 -2.1116 -1.1279
 5071TIP3   OH236775   1.224   3.601   7.612  0.8052  0.3035  0.0259
 5071TIP3    H136776   1.157   3.591   7.545  0.6851 -2.3181  0.4165
 5071TIP3    H236777   1.216   3.692   7.641 -1.6691  0.4523 -0.8706
 5072TIP3   OH236778   1.986   0.084   0.791 -0.3696  0.2077  0.5520
 5072TIP3    H136779   1.927   0.013   0.815 -0.3187 -0.2310 -0.5503
 5072TIP3    H236780   2.031   0.106   0.872 -2.0265  0.5499  1.4121
 5073TIP3   OH236781   5.149   6.216   6.438  0.3761  0.3147 -0.3852
 5073TIP3    H136782   5.171   6.150   6.372 -0.0755  0.8744 -1.1165
 5073TIP3    H236783   5.105   6.285   6.389 -1.2185  0.1298  0.7126
 5074TIP3   OH236784   2.139   2.108   7.815  0.2491 -0.3843  0.2530
 5074TIP3    H136785   2.167   2.055   7.890  0.7035  0.3119  0.5895
 5074TIP3    H236786   2.162   2.055   7.739 -2.5474 -2.2778  0.5810
 5075TIP3   OH236787   0.661   3.806   7.989  0.1291  0.5476  0.9420
 5075TIP3    H136788   0.711   3.744   7.935 -1.4936  1.1790 -1.4848
 5075TIP3    H236789   0.576   3.762   8.002 -0.2828  1.3598  1.0244
 5076TIP3   OH236790   5.580   4.817   6.674  0.5790  0.1376  0.3761
 5076TIP3    H136791   5.640   4.832   6.747  0.6651  1.6288  0.0165
 5076TIP3    H236792   5.556   4.725   6.683  1.3342  0.0356  1.7165
 5077TIP3   OH236793   2.854   4.307   7.331 -1.0500 -0.0780 -0.3736
 5077TIP3    H136794   2.826   4.221   7.298  0.1817 -0.2666 -0.9915
 5077TIP3    H236795   2.775   4.361   7.325 -2.0983 -1.3823  0.9059
 5078TIP3   OH236796   6.994   4.617   1.905  0.2812 -0.0857  0.4749
 5078TIP3    H136797   7.054   4.575   1.967  0.2737 -1.9794 -0.7124
 5078TIP3    H236798   6.960   4.545   1.853 -0.4949  1.3384 -1.0685
 5079TIP3   OH236799   3.032   4.782   6.202 -0.1585 -0.2507 -0.0110
 5079TIP3    H136800   2.954   4.737   6.234  0.3651  0.0907  1.8531
 5079TIP3    H236801   3.035   4.863   6.253  2.6060 -1.2485  1.6473
 5080TIP3   OH236802   6.933   6.964   7.113  0.7132  0.0043  0.1093
 5080TIP3    H136803   6.932   7.017   7.193  2.1732  1.5805 -0.8408
 5080TIP3    H236804   6.993   6.892   7.133 -0.9521 -1.1063  1.2711
 5081TIP3   OH236805   4.662   6.181   0.843  0.7150 -0.1177 -0.6531
 5081TIP3    H136806   4.614   6.260   0.821  0.2408 -0.4429 -0.8048
 5081TIP3    H236807   4.662   6.179   0.939  2.3606  1.0411 -0.5838
 5082TIP3   OH236808   3.610   1.465   5.979  0.2321  0.4378  0.0078
 5082TIP3    H136809   3.675   1.401   5.948  2.2150  1.4955  1.7418
 5082TIP3    H236810   3.657   1.517   6.044 -1.7799  2.6544 -0.1859
 5083TIP3   OH236811   6.064   6.362   0.648 -0.1088 -0.4277 -0.1535
 5083TIP3    H136812   6.138   6.301   0.652  0.2893  0.0933  1.6362
 5083TIP3    H236813   6.080   6.423   0.721 -2.0503 -0.0111 -0.0185
 5084TIP3   OH236814   0.732   6.500   0.635  0.6802 -0.0913 -0.4403
 5084TIP3    H136815   0.755   6.533   0.722  1.2378 -0.5709 -0.4031
 5084TIP3    H236816   0.751   6.572   0.576  1.0849 -0.0516 -0.2620
 5085TIP3   OH236817   4.515   3.021   7.616  0.6356  0.4517  0.4232
 5085TIP3    H136818   4.599   2.976   7.621  0.3176 -0.1035  0.9922
 5085TIP3    H236819   4.506   3.066   7.701  0.3884  0.5544  0.3464
 5086TIP3   OH236820   2.704   2.477   6.101 -0.3716 -0.1582  0.2196
 5086TIP3    H136821   2.723   2.492   6.008 -1.4699 -2.2033 -0.3776
 5086TIP3    H236822   2.620   2.519   6.115 -1.1398 -1.4834 -0.2404
 5087TIP3   OH236823   3.708   2.089   0.193 -0.0808  0.0564  0.2165
 5087TIP3    H136824   3.776   2.098   0.260  0.3577 -0.7055 -0.1192
 5087TIP3    H236825   3.676   1.999   0.203 -1.5953  0.6273  0.8830
 5088TIP3   OH236826   3.693   6.402   8.006 -0.2962 -0.4979  0.0371
 5088TIP3    H136827   3.787   6.400   7.991 -0.4836  0.0036 -1.3963
 5088TIP3    H236828   3.676   6.329   8.066  1.0818 -0.1633  0.8499
 5089TIP3   OH236829   6.533   1.819   2.352 -0.1012  0.5542 -0.0924
 5089TIP3    H136830   6.610   1.789   2.304 -0.6145  0.1621 -0.6793
 5089TIP3    H236831   6.525   1.911   2.328 -1.0485  0.0759 -1.7273
 5090TIP3   OH236832   0.096   1.323   6.742 -0.0308 -0.3008  0.6252
 5090TIP3    H136833   0.002   1.326   6.758 -0.0799 -1.7342  0.7449
 5090TIP3    H236834   0.104   1.294   6.652  0.2807 -2.1636  1.2163
 5091TIP3   OH236835   4.482   4.268   8.064 -0.3245 -0.6899  0.1716
 5091TIP3    H136836   4.442   4.350   8.093  0.4446 -0.4327  0.5210
 5091TIP3    H236837   4.506   4.223   8.145 -0.5852 -1.1806 -0.0238
 5092TIP3   OH236838   0.289   4.154   8.044 -0.4101 -0.4913 -0.2415
 5092TIP3    H136839   0.360   4.092   8.027  0.7605  1.2605 -2.1535
 5092TIP3    H236840   0.250   4.170   7.958 -1.4768  0.5309  0.3996
 5093TIP3   OH236841   6.579   4.175   1.969 -0.1492 -0.9478  0.2703
 5093TIP3    H136842   6.570   4.105   2.034 -1.3579 -1.0438  0.0121
 5093TIP3    H236843   6.664   4.159   1.929  0.3221 -1.2826  1.3629
 5094TIP3   OH236844   4.652   1.970   6.402 -0.4142  0.2206  0.7538
 5094TIP3    H136845   4.584   1.934   6.345  1.3112 -0.8218 -0.7452
 5094TIP3    H236846   4.691   2.041   6.351  0.3753  0.0470  1.0937
 5095TIP3   OH236847   6.471   6.161   0.914 -0.1934  0.0031 -0.2612
 5095TIP3    H136848   6.448   6.107   0.989 -1.3391  1.0760  0.1939
 5095TIP3    H236849   6.567   6.159   0.911 -0.1847 -1.6286  0.0228
 5096TIP3   OH236850   0.478   0.494   7.962  0.6153  0.1026  0.3713
 5096TIP3    H136851   0.557   0.499   8.015 -0.1310  0.7736  1.4572
 5096TIP3    H236852   0.462   0.400   7.951  1.6878 -0.0415 -0.0863
 5097TIP3   OH236853   0.941   2.151   1.105 -0.3620  0.5438 -0.4373
 5097TIP3    H136854   1.027   2.148   1.064 -0.7538  2.8587 -1.5632
 5097TIP3    H236855   0.959   2.157   1.199  0.7043  1.2232 -0.6725
 5098TIP3   OH236856   2.472   6.322   7.708 -0.2727 -0.2131 -0.5034
 5098TIP3    H136857   2.566   6.318   7.688 -0.2016 -0.0124 -0.2228
 5098TIP3    H236858   2.437   6.385   7.646 -0.3523 -0.8304 -1.0886
 5099TIP3   OH236859   1.943   4.056   7.606  0.3659  0.2608 -0.1732
 5099TIP3    H136860   1.936   4.151   7.614  0.2433  0.1982  0.5437
 5099TIP3    H236861   1.962   4.026   7.695 -2.8621 -0.6590  0.3377
 5100TIP3   OH236862   4.305   6.568   1.963 -0.1765 -0.0644 -0.8379
 5100TIP3    H136863   4.321   6.504   2.033  0.2231  0.5854 -0.3219
 5100TIP3    H236864   4.338   6.526   1.884  1.8063  0.2194 -0.2109
 5101TIP3   OH236865   6.604   4.142   0.520 -0.5084 -0.1396  0.0321
 5101TIP3    H136866   6.633   4.124   0.431  1.6351 -0.1455  0.6672
 5101TIP3    H236867   6.595   4.237   0.524  0.9709  0.0288  0.1899
 5102TIP3   OH236868   3.965   6.528   7.326 -0.3538  0.1784  0.3064
 5102TIP3    H136869   4.033   6.531   7.259  1.4245  1.3293  2.0494
 5102TIP3    H236870   3.903   6.596   7.300  0.0087  0.2273 -0.4601
 5103TIP3   OH236871   6.408   2.802   7.972 -0.3635 -0.7035  0.2762
 5103TIP3    H136872   6.483   2.771   8.023  1.7482 -0.4173 -2.4178
 5103TIP3    H236873   6.404   2.743   7.897 -0.0486  1.7992 -1.8517
 5104TIP3   OH236874   2.040   2.462   7.650  0.3088 -0.4435 -0.1438
 5104TIP3    H136875   2.003   2.545   7.682  0.5679  0.5304 -2.2185
 5104TIP3    H236876   1.968   2.399   7.659 -0.1760  0.2012  0.6368
 5105TIP3   OH236877   2.000   4.793   7.722  0.0423  0.4689 -0.2516
 5105TIP3    H136878   1.951   4.814   7.802  0.8384  0.3111  0.2878
 5105TIP3    H236879   1.937   4.804   7.652 -0.7935  0.1976  0.4400
 5106TIP3   OH236880   2.028   0.461   6.536  0.4024 -0.0354 -0.2120
 5106TIP3    H136881   2.097   0.435   6.475  2.2636  3.0433  0.3238
 5106TIP3    H236882   2.044   0.555   6.550 -0.8481 -0.2585  3.8456
 5107TIP3   OH236883   3.725   6.550   1.462  0.1982 -0.0174 -0.1024
 5107TIP3    H136884   3.701   6.556   1.554  2.3880  4.5955  0.4637
 5107TIP3    H236885   3.820   6.556   1.461  0.2528 -0.0089 -2.6833
 5108TIP3   OH236886   1.822   0.556   8.055  0.0092  0.2257 -0.3816
 5108TIP3    H136887   1.775   0.564   8.138  0.8367  2.2813 -0.0592
 5108TIP3    H236888   1.771   0.610   7.994 -0.8899 -1.6663 -1.4246
 5109TIP3   OH236889   2.000   4.361   8.043  0.3991 -0.1195  0.4769
 5109TIP3    H136890   1.951   4.334   8.121  0.7319 -0.9546  0.4001
 5109TIP3    H236891   2.012   4.456   8.054 -1.9237  0.2742  0.1020
 5110TIP3   OH236892   4.842   6.920   1.294 -0.4027 -0.2775 -0.5615
 5110TIP3    H136893   4.761   6.923   1.346 -0.9710  0.0397 -1.4402
 5110TIP3    H236894   4.885   7.004   1.312  0.0903 -0.7246  0.4402
 5111TIP3   OH236895   4.078   0.641   7.144 -0.4688  0.0720 -0.0841
 5111TIP3    H136896   4.043   0.562   7.184 -1.0498  0.2438 -0.2413
 5111TIP3    H236897   4.006   0.674   7.090 -1.2120  2.1216  1.9655
 5112TIP3   OH236898   0.960   5.613   6.839 -0.0368 -0.0421 -0.6894
 5112TIP3    H136899   0.946   5.574   6.925  0.9199 -0.2493 -0.6189
 5112TIP3    H236900   1.017   5.687   6.855  1.8417 -1.2640 -1.3630
 5113TIP3   OH236901   5.053   3.921   1.130  0.5663 -0.4809  0.1297
 5113TIP3    H136902   5.080   3.906   1.221  0.1126 -3.2745 -0.0939
 5113TIP3    H236903   4.959   3.906   1.130  0.8530 -2.6236 -1.1002
 5114TIP3   OH236904   0.016   5.523   6.622  0.2173 -0.0477 -0.4180
 5114TIP3    H136905   0.071   5.528   6.700  0.7737  0.2148 -0.8185
 5114TIP3    H236906   0.024   5.432   6.592  0.7647  0.0919 -0.7064
 5115TIP3   OH236907   6.295   3.329   6.943  0.2308 -0.4991  0.0731
 5115TIP3    H136908   6.209   3.291   6.924 -0.7479  2.1091 -1.1491
 5115TIP3    H236909   6.278   3.391   7.014  1.3583 -0.7863  0.6108
 5116TIP3   OH236910   1.417   1.435   8.184 -0.3165 -0.0416  0.5317
 5116TIP3    H136911   1.453   1.489   8.256  0.9966 -0.4700  0.2301
 5116TIP3    H236912   1.401   1.498   8.114 -1.2624  0.3266  1.0586
 5117TIP3   OH236913   4.753   4.336   7.927 -0.0987 -0.5640 -0.3919
 5117TIP3    H136914   4.661   4.333   7.952 -0.5084 -0.4507 -1.7982
 5117TIP3    H236915   4.800   4.355   8.009 -1.5620  2.7428 -0.1808
 5118TIP3   OH236916   1.241   6.895   7.153  0.3531 -1.1537 -0.3920
 5118TIP3    H136917   1.166   6.837   7.146 -0.8567  0.3606 -0.4219
 5118TIP3    H236918   1.204   6.981   7.171  2.0372 -0.2121 -1.1338
 5119TIP3   OH236919   1.469   2.547   0.744  0.1517  0.3919  0.2087
 5119TIP3    H136920   1.467   2.453   0.764 -2.3166 -0.0793 -1.6099
 5119TIP3    H236921   1.418   2.588   0.814 -2.5219 -0.3230 -1.1434
 5120TIP3   OH236922   6.697   2.388   0.345 -0.2653  0.0927  0.0675
 5120TIP3    H136923   6.713   2.467   0.293 -0.8442  0.3094  0.2081
 5120TIP3    H236924   6.625   2.412   0.403 -0.9576 -0.7732 -0.4130
 5121TIP3   OH236925   2.847   4.767   7.963  0.0454  0.2256  0.1903
 5121TIP3    H136926   2.792   4.728   7.894  1.4039  0.3945 -1.0364
 5121TIP3    H236927   2.816   4.727   8.044 -1.8139  0.2461 -0.4513
 5122TIP3   OH236928   4.931   6.176   1.159 -0.2844  0.3659  0.2419
 5122TIP3    H136929   4.892   6.130   1.084  0.6486 -0.1953  0.0862
 5122TIP3    H236930   4.883   6.142   1.234 -1.5695  1.3025 -0.1220
 5123TIP3   OH236931   1.530   5.333   6.685  0.2553 -0.1424  1.1586
 5123TIP3    H136932   1.465   5.381   6.738  1.0970 -0.9599  3.0362
 5123TIP3    H236933   1.589   5.401   6.653  0.7885  0.2714  2.8676
 5124TIP3   OH236934   5.935   2.431   2.221  0.3880  0.1877 -0.2490
 5124TIP3    H136935   6.018   2.442   2.174  0.5836 -2.3622 -0.6425
 5124TIP3    H236936   5.947   2.480   2.302  1.9844  0.4849 -0.6311
 5125TIP3   OH236937   0.446   0.745   7.856  0.2186  0.3651 -0.1527
 5125TIP3    H136938   0.521   0.790   7.896 -0.7229  0.6408  1.3539
 5125TIP3    H236939   0.448   0.657   7.892  0.7845 -0.1708 -1.4314
 5126TIP3   OH236940   6.333   5.727   1.955 -0.1093  0.1139  0.2983
 5126TIP3    H136941   6.285   5.806   1.982  1.1881  1.8522 -2.1380
 5126TIP3    H236942   6.265   5.669   1.920 -0.9399  0.6475  0.9713
 5127TIP3   OH236943   5.731   2.658   6.893  0.2968 -0.0211 -0.1435
 5127TIP3    H136944   5.642   2.624   6.880 -0.1396  1.8392 -2.9178
 5127TIP3    H236945   5.769   2.658   6.805  1.4478  3.2212  0.2333
 5128TIP3   OH236946   6.609   2.529   1.486 -0.5594 -0.3487  0.3821
 5128TIP3    H136947   6.540   2.467   1.509 -0.0102 -1.8264 -1.6570
 5128TIP3    H236948   6.573   2.576   1.410  0.5624 -1.0010 -0.5782
 5129TIP3   OH236949   4.333   6.753   0.862 -0.4742  0.2033 -0.4697
 5129TIP3    H136950   4.376   6.779   0.943  0.5882 -2.7499  0.0365
 5129TIP3    H236951   4.240   6.769   0.878 -0.1070  1.5516  0.5166
 5130TIP3   OH236952   1.765   2.121   0.012 -0.5902  0.0512  0.4456
 5130TIP3    H136953   1.826   2.188  -0.018 -0.2740  0.5160  2.0310
 5130TIP3    H236954   1.750   2.142   0.104 -1.7976 -1.0802  0.5346
 5131TIP3   OH236955   5.049   5.096   8.154  0.0240 -0.2202 -0.3067
 5131TIP3    H136956   4.992   5.125   8.225 -1.4456 -0.2431 -1.4158
 5131TIP3    H236957   5.093   5.018   8.188 -0.9080 -0.4172  0.4641
 5132TIP3   OH236958   3.019   2.499   8.296 -0.0166 -0.1898 -0.0529
 5132TIP3    H136959   3.092   2.459   8.343  1.4162  1.3215 -0.9135
 5132TIP3    H236960   2.965   2.537   8.365  1.1161  0.4794  0.4967
 5133TIP3   OH236961   6.943   3.384   6.168 -0.0982  0.4502  0.4317
 5133TIP3    H136962   6.926   3.303   6.120 -0.4471  2.0987 -2.5108
 5133TIP3    H236963   6.870   3.391   6.230  0.2039 -1.6604  1.1048
 5134TIP3   OH236964   1.475   2.180   0.027  0.6917  0.3144 -0.2926
 5134TIP3    H136965   1.467   2.179  -0.068  0.7206  1.6769 -0.3225
 5134TIP3    H236966   1.570   2.182   0.043  0.6791  1.8492 -0.2888
 5135TIP3   OH236967   3.882   2.634   1.024  0.2566  0.1886 -0.7403
 5135TIP3    H136968   3.809   2.671   1.074  0.1725 -0.7805 -0.1124
 5135TIP3    H236969   3.924   2.710   0.984 -0.9197  0.7952 -0.8854
 5136TIP3   OH236970   6.115   3.876   7.661  0.5374  0.1651  0.4184
 5136TIP3    H136971   6.115   3.840   7.750 -0.7195 -0.0141  0.3621
 5136TIP3    H236972   6.137   3.968   7.672 -1.0165  0.4862  1.0902
 5137TIP3   OH236973   4.542   6.544   7.160 -0.7310  0.1190  0.2385
 5137TIP3    H136974   4.594   6.593   7.097 -0.3565 -2.4888 -1.6506
 5137TIP3    H236975   4.606   6.512   7.224 -0.7764  0.9128  0.6920
 5138TIP3   OH236976   0.882   2.603   1.899  0.4440  0.0825  0.1619
 5138TIP3    H136977   0.810   2.580   1.958 -1.2118  1.2120 -1.3161
 5138TIP3    H236978   0.961   2.594   1.953 -0.7640 -1.2963  1.8161
 5139TIP3   OH236979   2.606   3.021   1.382 -0.1205 -0.2242 -0.2573
 5139TIP3    H136980   2.595   3.067   1.299  0.5110  2.2968  0.9616
 5139TIP3    H236981   2.655   2.942   1.359 -0.4394  0.1260 -2.3320
 5140TIP3   OH236982   6.136   2.738   8.332 -0.0742  0.3524  0.4099
 5140TIP3    H136983   6.060   2.700   8.287  0.2521  1.8074 -1.5060
 5140TIP3    H236984   6.207   2.676   8.316 -0.4407 -0.1749  0.7663
 5141TIP3   OH236985   2.573   1.043   1.495  0.5218 -0.0726 -0.1300
 5141TIP3    H136986   2.600   1.117   1.549 -0.8374 -0.5952  1.3607
 5141TIP3    H236987   2.647   0.982   1.497  0.8645  0.3564  0.3496
 5142TIP3   OH236988   1.111   6.363   7.151  0.3774 -0.3519  0.2593
 5142TIP3    H136989   1.118   6.376   7.245  1.9764 -1.6518  0.3622
 5142TIP3    H236990   1.176   6.422   7.113 -0.7729  0.7141 -0.1051
 5143TIP3   OH236991   6.011   3.457   0.474 -0.1430  0.4256  0.1751
 5143TIP3    H136992   6.068   3.533   0.461 -0.4206  0.6680  0.3585
 5143TIP3    H236993   6.026   3.402   0.397 -0.0415  0.7335 -0.0268
 5144TIP3   OH236994   1.423   0.816   0.884  0.4478 -0.1353 -0.0297
 5144TIP3    H136995   1.432   0.909   0.907 -1.2884 -0.4741  2.3752
 5144TIP3    H236996   1.511   0.791   0.854  1.5570  1.7616  1.3536
 5145TIP3   OH236997   4.650   2.215   0.266  1.3903  0.2116 -0.3076
 5145TIP3    H136998   4.558   2.199   0.287  1.3761 -0.1253 -0.6143
 5145TIP3    H236999   4.694   2.219   0.350  1.4608 -1.8269 -0.1978
 5146TIP3   OH237000   0.330   1.808   0.031  0.4650 -0.7861 -0.0980
 5146TIP3    H137001   0.412   1.774   0.067  0.2778 -1.4325 -0.2532
 5146TIP3    H237002   0.335   1.788  -0.063  0.4481 -0.1646 -0.2357
 5147TIP3   OH237003   1.968   5.523   1.868  0.0147 -0.2378 -0.4921
 5147TIP3    H137004   1.979   5.545   1.960 -0.9719  0.2857 -0.4842
 5147TIP3    H237005   2.006   5.597   1.821  1.5563 -1.0130 -0.5520
 5148TIP3   OH237006   4.325   6.786   7.256 -0.2794  0.7141 -0.4512
 5148TIP3    H137007   4.397   6.849   7.266 -0.3558  0.8877 -0.9916
 5148TIP3    H237008   4.368   6.700   7.257 -0.1153  0.7971 -0.2995
 5149TIP3   OH237009   1.669   2.604   1.556 -0.3124 -0.4417  0.6228
 5149TIP3    H137010   1.597   2.610   1.619 -0.1767  3.0774  0.6437
 5149TIP3    H237011   1.742   2.568   1.606 -0.8704  0.0769  1.8548
 5150TIP3   OH237012   1.826   3.343   0.021 -0.2260 -0.1806 -0.6633
 5150TIP3    H137013   1.774   3.395  -0.041  0.2762  1.3139  0.1265
 5150TIP3    H237014   1.762   3.285   0.063 -1.4936  2.1887  0.8812
 5151TIP3   OH237015   3.231   4.114   7.179  0.1105 -0.1293 -0.4595
 5151TIP3    H137016   3.279   4.133   7.260  1.4372 -1.1783 -0.9699
 5151TIP3    H237017   3.142   4.092   7.209  0.2352  0.7200  0.5973
 5152TIP3   OH237018   6.755   3.442   7.857  0.4889  0.4576  0.3058
 5152TIP3    H137019   6.712   3.359   7.877  1.4572 -0.4948 -1.3237
 5152TIP3    H237020   6.808   3.461   7.934  0.5623 -0.6565  0.5480
 5153TIP3   OH237021   2.048   0.945   6.965 -0.0609 -0.2238 -0.8124
 5153TIP3    H137022   2.077   0.869   7.016  0.3014  0.6340  0.3118
 5153TIP3    H237023   1.953   0.947   6.977 -0.0906 -0.5716 -0.9672
 5154TIP3   OH237024   2.811   2.837   0.148 -0.4875  0.1429 -0.0457
 5154TIP3    H137025   2.860   2.841   0.230 -0.8347 -0.9915  0.2348
 5154TIP3    H237026   2.866   2.883   0.085  0.5872 -0.4773  0.4225
 5155TIP3   OH237027   6.727   2.705   1.675  0.0615 -0.2999 -0.2361
 5155TIP3    H137028   6.692   2.640   1.614 -3.3680 -1.7185  2.8423
 5155TIP3    H237029   6.736   2.785   1.622 -0.2814 -1.9891 -3.0751
 5156TIP3   OH237030   2.402   1.260   6.314 -0.1598 -0.8771 -0.9740
 5156TIP3    H137031   2.393   1.222   6.401  0.2345  0.2482 -0.4090
 5156TIP3    H237032   2.385   1.188   6.253 -1.7925 -1.3702  0.0192
 5157TIP3   OH237033   1.607   2.507   8.162 -0.4252 -0.5748  0.2986
 5157TIP3    H137034   1.662   2.585   8.173  0.8833 -1.2681 -0.9406
 5157TIP3    H237035   1.621   2.456   8.242 -0.4954 -0.0060  0.6761
 5158TIP3   OH237036   2.370   1.112   6.596  0.2658 -0.5066 -0.1065
 5158TIP3    H137037   2.326   1.194   6.621 -0.7381 -0.8094 -0.8022
 5158TIP3    H237038   2.386   1.068   6.679  0.8106  0.3857  0.2796
 5159TIP3   OH237039   3.255   0.584   0.716 -0.3317  0.9124  0.4349
 5159TIP3    H137040   3.254   0.649   0.786 -0.2044  1.1022  0.2621
 5159TIP3    H237041   3.178   0.530   0.732 -1.2509  2.0001 -0.2515
 5160TIP3   OH237042   2.752   3.869   6.503  0.0280  0.1451  0.2982
 5160TIP3    H137043   2.791   3.885   6.589  0.6200 -0.9991  0.2676
 5160TIP3    H237044   2.669   3.826   6.522 -0.0275  0.2610  0.3145
 5161TIP3   OH237045   3.838   5.462   8.234  0.2440 -0.0323  0.1587
 5161TIP3    H137046   3.880   5.517   8.299 -0.5375  0.0523  0.5990
 5161TIP3    H237047   3.751   5.498   8.224  0.5862  0.4256 -1.5083
 5162TIP3   OH237048   1.998   2.142   6.971 -0.1795 -0.1911  0.0322
 5162TIP3    H137049   2.080   2.162   6.926 -0.8848  2.5060 -0.1819
 5162TIP3    H237050   1.998   2.199   7.048 -2.7729  1.5493 -1.1182
 5163TIP3   OH237051   3.193   3.500   0.656  0.3331  0.0656 -0.4708
 5163TIP3    H137052   3.117   3.442   0.661 -0.3732  1.0481  0.6832
 5163TIP3    H237053   3.237   3.474   0.575 -0.1926 -1.7690 -0.2332
 5164TIP3   OH237054   4.959   6.901   0.873  0.1724  0.4601  1.0963
 5164TIP3    H137055   5.011   6.854   0.938  0.0207 -2.7925 -0.9109
 5164TIP3    H237056   4.870   6.900   0.907  0.0575 -1.4008  0.8455
 5165TIP3   OH237057   3.429   2.503   7.869 -0.3878  0.0305 -0.1166
 5165TIP3    H137058   3.433   2.414   7.835 -0.9341 -0.2374  0.4915
 5165TIP3    H237059   3.515   2.518   7.908  0.3927  0.4917 -1.9174
 5166TIP3   OH237060   2.556   0.658   7.489  0.1447 -0.0802  0.0669
 5166TIP3    H137061   2.534   0.576   7.533 -0.0885  0.1796  0.4376
 5166TIP3    H237062   2.599   0.710   7.557 -2.4093  1.3141  0.7450
 5167TIP3   OH237063   6.829   5.173   1.877  0.0477  0.1103  0.1336
 5167TIP3    H137064   6.873   5.258   1.879  0.8406 -0.2916  0.2949
 5167TIP3    H237065   6.751   5.185   1.931 -0.9197  1.2920 -1.4771
 5168TIP3   OH237066   5.915   0.468   6.519 -0.3684 -0.3929 -0.0275
 5168TIP3    H137067   5.851   0.516   6.466 -0.6120 -1.7147 -0.9668
 5168TIP3    H237068   5.991   0.457   6.461  0.7956  1.2035  1.0866
 5169TIP3   OH237069   1.303   1.441   2.278 -0.8975 -0.6055  0.3107
 5169TIP3    H137070   1.380   1.442   2.221 -1.5631 -2.0186 -0.6628
 5169TIP3    H237071   1.273   1.532   2.279  0.8174 -0.0103  0.7906
 5170TIP3   OH237072   1.108   5.345   8.179  0.2885  0.0027  0.3050
 5170TIP3    H137073   1.106   5.325   8.273 -0.7252  2.4002  0.8720
 5170TIP3    H237074   1.196   5.320   8.151  0.0497 -2.4314  1.4278
 5171TIP3   OH237075   5.636   3.726   7.601  0.4519 -0.1312 -0.1671
 5171TIP3    H137076   5.699   3.781   7.647  1.4641 -1.2722 -0.1235
 5171TIP3    H237077   5.559   3.781   7.590  0.4170  0.4175  2.2770
 5172TIP3   OH237078   2.960   2.789   6.798  0.0806 -0.0131  0.3564
 5172TIP3    H137079   2.936   2.873   6.760  0.8391  0.7173  1.4504
 5172TIP3    H237080   3.054   2.794   6.813  0.5907 -1.9153 -1.5941
 5173TIP3   OH237081   2.448   4.461   1.626 -0.0456 -0.4097  0.3057
 5173TIP3    H137082   2.355   4.479   1.610  0.2126  1.2348  0.4486
 5173TIP3    H237083   2.449   4.382   1.680 -1.3155 -0.9543 -0.4332
 5174TIP3   OH237084   4.265   3.943   0.820 -0.2146  0.1349  0.5398
 5174TIP3    H137085   4.280   4.028   0.861  1.1009  1.2436 -2.0153
 5174TIP3    H237086   4.353   3.907   0.806 -0.4410  0.4918 -2.4758
 5175TIP3   OH237087   6.674   1.689   0.118  0.5169 -0.3786  0.2858
 5175TIP3    H137088   6.691   1.654   0.031 -1.1747 -0.2168 -0.1577
 5175TIP3    H237089   6.688   1.783   0.110  1.9774 -0.5488  0.6456
 5176TIP3   OH237090   1.783   1.289   0.524 -0.4009  0.1431 -0.7151
 5176TIP3    H137091   1.719   1.360   0.514  1.1845  1.6315 -0.6910
 5176TIP3    H237092   1.735   1.221   0.572 -1.4252  1.9670  1.0003
 5177TIP3   OH237093   5.018   1.998   7.096  0.3634  0.1818  0.0929
 5177TIP3    H137094   4.974   1.966   7.017 -0.4182  0.6840  0.3145
 5177TIP3    H237095   5.103   2.028   7.065  0.6308 -0.9436 -0.3173
 5178TIP3   OH237096   2.369   2.680   1.767 -0.5354 -0.1613 -0.1860
 5178TIP3    H137097   2.398   2.714   1.851 -2.9015 -0.6941  0.9186
 5178TIP3    H237098   2.278   2.709   1.759 -0.3499 -0.0053 -2.6564
 5179TIP3   OH237099   4.213   6.370   7.708 -0.4962  0.2163  0.1098
 5179TIP3    H137100   4.239   6.402   7.622 -0.6139 -0.5950 -0.2420
 5179TIP3    H237101   4.162   6.442   7.746  0.7678  1.1464  0.1039
 5180TIP3   OH237102   0.876   4.411   1.143  0.9709 -0.0435  0.4358
 5180TIP3    H137103   0.787   4.397   1.111  1.8161 -3.2595 -0.9193
 5180TIP3    H237104   0.913   4.476   1.084 -0.0207  0.2172  0.0854
 5181TIP3   OH237105   5.522   0.202   2.290  0.0619 -0.5225  0.4864
 5181TIP3    H137106   5.474   0.285   2.292  0.5380 -0.0275 -2.7861
 5181TIP3    H237107   5.614   0.227   2.294  0.3125 -0.5719 -2.4347
 5182TIP3   OH237108   3.433   0.476   6.721 -0.4270 -0.1660 -0.3421
 5182TIP3    H137109   3.423   0.540   6.651 -0.1660 -1.0591 -1.2052
 5182TIP3    H237110   3.481   0.523   6.789  0.4389  0.3271 -1.2757
 5183TIP3   OH237111   5.928   3.466   2.514  0.0302 -0.1565  0.3135
 5183TIP3    H137112   5.844   3.477   2.470  0.3091  1.2363  0.1042
 5183TIP3    H237113   5.948   3.373   2.504 -1.6626 -0.6003  0.7116
 5184TIP3   OH237114   4.330   0.768   7.497  0.0754 -0.2310 -0.1091
 5184TIP3    H137115   4.302   0.677   7.484 -1.4785  0.2419 -0.3178
 5184TIP3    H237116   4.333   0.778   7.592  0.9183 -0.6667 -0.0743
 5185TIP3   OH237117   3.622   1.539   8.045 -0.0162  0.6677 -0.1185
 5185TIP3    H137118   3.620   1.506   7.955 -0.8646 -1.0155  0.4771
 5185TIP3    H237119   3.715   1.544   8.067  0.1750  0.1522 -0.7680
 5186TIP3   OH237120   3.907   4.241   7.100  0.4622  0.6503  0.6239
 5186TIP3    H137121   3.976   4.240   7.167  0.0767  1.3852  1.0407
 5186TIP3    H237122   3.908   4.152   7.064 -0.5072 -0.3128  2.8076
 5187TIP3   OH237123   3.849   1.903   1.292  0.6517 -0.0089  0.2252
 5187TIP3    H137124   3.827   1.813   1.269 -0.2242 -0.4512  2.5307
 5187TIP3    H237125   3.776   1.932   1.347  1.0960  1.9997 -0.1669
 5188TIP3   OH237126   2.220   2.836   1.955  0.3379 -0.2497 -0.1226
 5188TIP3    H137127   2.186   2.847   2.043  0.6239 -0.2074 -0.0151
 5188TIP3    H237128   2.143   2.818   1.901  0.1523 -0.1785  0.1181
 5189TIP3   OH237129   6.410   1.098   1.724 -0.2775  0.5185  0.3599
 5189TIP3    H137130   6.496   1.129   1.694 -1.0195  1.8794 -0.4283
 5189TIP3    H237131   6.427   1.008   1.753  1.6680  1.1479  1.4245
 5190TIP3   OH237132   5.337   1.300   1.178 -0.4999  0.4218  0.2275
 5190TIP3    H137133   5.264   1.344   1.135 -0.0318  0.6602 -0.3342
 5190TIP3    H237134   5.301   1.270   1.261 -1.7613 -1.1319 -0.8223
 5191TIP3   OH237135   0.472   3.553   1.271  0.4990 -0.6564 -0.8007
 5191TIP3    H137136   0.515   3.613   1.209  2.6099  0.1673  1.2930
 5191TIP3    H237137   0.421   3.611   1.328  1.0657 -1.0217  0.0962
 5192TIP3   OH237138   2.357   2.118   6.613 -0.5229 -0.5636 -0.4301
 5192TIP3    H137139   2.417   2.092   6.683 -2.0903  1.7915  1.9516
 5192TIP3    H237140   2.278   2.065   6.629 -1.0377  0.2789 -0.0800
 5193TIP3   OH237141   1.592   3.725   1.667  0.0174  0.1825 -1.1958
 5193TIP3    H137142   1.556   3.639   1.647  2.4121 -1.4091  0.8253
 5193TIP3    H237143   1.564   3.742   1.757 -1.9970  2.5053 -2.1182
 5194TIP3   OH237144   3.356   2.261   2.025  0.3405 -0.4343 -0.0398
 5194TIP3    H137145   3.452   2.268   2.024  0.3375 -0.3737  0.0666
 5194TIP3    H237146   3.329   2.321   2.095  0.1521  0.4419 -0.8564
 5195TIP3   OH237147   0.051   2.673   0.668  0.0055  0.3212 -0.5489
 5195TIP3    H137148   0.001   2.652   0.747  0.2477  0.1838 -0.4318
 5195TIP3    H237149   0.127   2.616   0.671  0.5869  1.0948 -0.3174
 5196TIP3   OH237150   5.307   6.181   1.509 -0.4065 -0.2889 -0.6519
 5196TIP3    H137151   5.387   6.203   1.461 -0.7420 -2.3299 -2.2761
 5196TIP3    H237152   5.331   6.190   1.601  1.7763 -1.0025 -1.0965
 5197TIP3   OH237153   4.904   3.597   7.815  0.3067 -0.1069 -0.2242
 5197TIP3    H137154   4.823   3.642   7.838 -0.0093 -0.6774 -0.1772
 5197TIP3    H237155   4.968   3.666   7.799 -0.9240  0.5052 -3.1392
 5198TIP3   OH237156   3.081   2.402   1.325  0.0069  0.3784  0.1831
 5198TIP3    H137157   2.990   2.427   1.342 -0.3760 -1.6333  1.4291
 5198TIP3    H237158   3.075   2.322   1.272  1.0923  0.8342 -0.6732
 5199TIP3   OH237159   6.335   3.312   6.512  0.4839  0.0441  0.1902
 5199TIP3    H137160   6.420   3.344   6.545  0.2371 -1.2117  2.2525
 5199TIP3    H237161   6.306   3.250   6.579 -2.2259  0.6524 -0.3131
 5200TIP3   OH237162   5.125   5.714   1.373  0.7437 -0.2653  0.0004
 5200TIP3    H137163   5.208   5.742   1.411  0.2465  0.6667  0.4306
 5200TIP3    H237164   5.104   5.781   1.307  1.1879 -1.4232 -1.3649
 5201TIP3   OH237165   6.945   6.704   0.716  0.2112  0.4450 -0.1938
 5201TIP3    H137166   6.975   6.770   0.654 -0.8109  0.4403 -0.7222
 5201TIP3    H237167   7.022   6.683   0.769  0.7090  1.5735 -0.4465
 5202TIP3   OH237168   2.185   4.445   1.611  0.2728 -0.2040  0.8877
 5202TIP3    H137169   2.148   4.390   1.542 -2.9865  1.5972  0.9712
 5202TIP3    H237170   2.154   4.406   1.692  0.4444  0.0904  1.0960
 5203TIP3   OH237171   4.152   0.028   7.094 -0.2330  0.7928 -0.1725
 5203TIP3    H137172   4.113  -0.017   7.169 -0.9827  0.6451 -0.6426
 5203TIP3    H237173   4.211   0.092   7.133  2.1320 -1.5973  0.5437
 5204TIP3   OH237174   1.875   3.601   2.646  0.1687  0.6607  0.3338
 5204TIP3    H137175   1.941   3.650   2.598 -0.9464  2.2855  0.4078
 5204TIP3    H237176   1.885   3.511   2.615  3.3528  0.5161  1.3722
 5205TIP3   OH237177   0.141   4.678   6.506  0.0193 -0.8180  0.3043
 5205TIP3    H137178   0.052   4.654   6.480 -0.0739 -0.0919 -0.0859
 5205TIP3    H237179   0.182   4.707   6.424  0.1579  0.2070  0.7247
 5206TIP3   OH237180   5.097   0.716   6.664 -0.1737  0.2577  0.7723
 5206TIP3    H137181   5.038   0.706   6.590 -0.5562 -1.3919  1.2473
 5206TIP3    H237182   5.168   0.770   6.631 -0.8311  0.3824 -0.4925
 5207TIP3   OH237183   5.418   1.110   0.224 -1.3155 -0.5375 -0.0406
 5207TIP3    H137184   5.400   1.042   0.159 -2.8256  1.3871 -1.8167
 5207TIP3    H237185   5.421   1.191   0.172  2.6555  0.5912  1.5973
 5208TIP3   OH237186   1.195   5.679   7.083 -0.7382 -0.3364 -0.6345
 5208TIP3    H137187   1.191   5.723   6.998  1.0062 -0.5989 -0.8943
 5208TIP3    H237188   1.283   5.698   7.116 -1.0047 -1.1379  0.6274
 5209TIP3   OH237189   5.011   5.008   1.157 -0.1160 -0.4524 -0.4379
 5209TIP3    H137190   5.091   4.999   1.104 -0.3766  0.3399 -0.9849
 5209TIP3    H237191   5.014   5.098   1.188  0.4431 -1.1077  1.6049
 5210TIP3   OH237192   5.484   3.009   1.105  1.0803 -0.3720  0.4955
 5210TIP3    H137193   5.393   2.978   1.112  0.1088  2.4974  2.3586
 5210TIP3    H237194   5.523   2.986   1.190  1.1162  1.0246  0.8829
 5211TIP3   OH237195   4.000   0.365   7.260  0.2532 -0.4563 -0.1561
 5211TIP3    H137196   3.993   0.327   7.348  0.0667 -1.0452 -0.4214
 5211TIP3    H237197   3.915   0.347   7.220  1.3707 -3.0788 -1.5924
 5212TIP3   OH237198   0.441   1.954   2.563 -0.3532 -0.6449 -1.1872
 5212TIP3    H137199   0.475   1.865   2.562 -1.2805 -1.1522  1.8929
 5212TIP3    H237200   0.348   1.944   2.583 -0.5267  1.0208 -1.0076
 5213TIP3   OH237201   0.177   6.508   1.372 -0.1159  0.3160 -0.2067
 5213TIP3    H137202   0.152   6.594   1.338 -0.7216  0.2672  0.1133
 5213TIP3    H237203   0.255   6.484   1.320  0.9173  1.6651  0.6546
 5214TIP3   OH237204   2.714   5.027   6.721  0.1192  0.1150 -0.6555
 5214TIP3    H137205   2.664   5.032   6.803  1.1542  1.8727 -0.0558
 5214TIP3    H237206   2.794   4.981   6.744  0.0387 -0.1516 -0.9015
 5215TIP3   OH237207   2.075   0.324   8.034  0.1105 -0.3073 -0.2473
 5215TIP3    H137208   2.013   0.320   8.107  0.8619  1.0916  0.5061
 5215TIP3    H237209   2.161   0.330   8.075  0.5297  0.8235 -1.2138
 5216TIP3   OH237210   1.859   3.559   1.078  0.0500  0.3291 -0.0043
 5216TIP3    H137211   1.929   3.575   1.014  0.5507 -0.1511  0.4065
 5216TIP3    H237212   1.870   3.467   1.102 -1.2576  0.0140 -0.5521
 5217TIP3   OH237213   4.727   5.794   0.859  0.2023 -0.3788  0.1076
 5217TIP3    H137214   4.681   5.723   0.902  0.0719 -0.3468  0.0219
 5217TIP3    H237215   4.676   5.811   0.779 -1.8427  2.1521  1.7951
 5218TIP3   OH237216   5.026   2.461   7.164  1.1170 -0.2745 -0.0623
 5218TIP3    H137217   5.074   2.486   7.243 -1.0381  0.2663  1.1407
 5218TIP3    H237218   4.961   2.398   7.194  0.6378 -0.5161 -1.5233
 5219TIP3   OH237219   6.079   6.881   7.205 -0.9991 -0.9189  0.7980
 5219TIP3    H137220   5.996   6.854   7.243 -0.2860 -3.2692  0.7993
 5219TIP3    H237221   6.141   6.881   7.278 -0.6278 -0.8018  0.4913
 5220TIP3   OH237222   4.152   2.660   1.093  0.4457  0.1297  0.3251
 5220TIP3    H137223   4.059   2.656   1.118  0.6655 -1.1140  1.0122
 5220TIP3    H237224   4.154   2.623   1.005  0.0948  1.6665 -0.3691
 5221TIP3   OH237225   2.139   1.319   7.573 -0.1538 -0.3038 -0.3099
 5221TIP3    H137226   2.163   1.244   7.627  2.3236 -0.2939 -1.2728
 5221TIP3    H237227   2.079   1.284   7.507 -0.7995 -0.9319  0.5926
 5222TIP3   OH237228   5.648   6.659   2.031  0.1971  0.3430  0.8730
 5222TIP3    H137229   5.654   6.579   2.084  0.9693 -1.1879 -1.3450
 5222TIP3    H237230   5.563   6.696   2.053  0.2272 -0.5305  2.6861
 5223TIP3   OH237231   4.023   5.290   0.230  0.4921  0.5726  0.4058
 5223TIP3    H137232   4.087   5.228   0.195  0.8037  0.2654  1.4940
 5223TIP3    H237233   3.938   5.252   0.204  0.5790 -1.3615  2.5806
 5224TIP3   OH237234   0.358   2.256   1.973  0.2755  0.8883  0.7569
 5224TIP3    H137235   0.340   2.321   1.905 -0.8560 -0.2449 -0.0622
 5224TIP3    H237236   0.420   2.300   2.032  1.0722  2.0050 -0.8391
 5225TIP3   OH237237   2.771   6.598   8.192 -0.9989  0.2180 -0.0289
 5225TIP3    H137238   2.738   6.545   8.119  1.9124  0.8336 -1.9681
 5225TIP3    H237239   2.756   6.688   8.166  2.3021  0.5603 -1.2648
 5226TIP3   OH237240   3.778   4.565   1.649  0.2683  0.9590 -0.4929
 5226TIP3    H137241   3.698   4.545   1.699  1.4119  0.5124  1.2563
 5226TIP3    H237242   3.810   4.480   1.619  0.7082  0.9956 -0.1465
 5227TIP3   OH237243   5.582   5.375   0.909 -0.1665  0.2597  0.0394
 5227TIP3    H137244   5.556   5.311   0.975 -0.3456 -0.1798 -0.4448
 5227TIP3    H237245   5.661   5.415   0.944  0.0702 -0.3775  0.2574
 5228TIP3   OH237246   6.772   5.759   0.655 -0.2410 -0.0042  0.5191
 5228TIP3    H137247   6.704   5.823   0.632  0.3017  0.5109  0.3178
 5228TIP3    H237248   6.726   5.693   0.707 -1.1600 -0.3476 -0.7062
 5229TIP3   OH237249   0.136   6.816   0.575 -0.3545 -0.3321  0.4822
 5229TIP3    H137250   0.174   6.895   0.614 -0.6793 -0.9032  2.0683
 5229TIP3    H237251   0.145   6.828   0.481 -1.6961  2.2368  0.6107
 5230TIP3   OH237252   5.793   2.889   0.150  0.0391  0.5383  0.5578
 5230TIP3    H137253   5.863   2.868   0.212 -1.3822 -0.4098  1.9147
 5230TIP3    H237254   5.726   2.932   0.204 -1.1424 -0.1182 -0.3560
 5231TIP3   OH237255   4.316   1.610   7.375 -0.1496 -0.4565 -0.5473
 5231TIP3    H137256   4.396   1.661   7.383  0.4862 -1.3473 -1.0883
 5231TIP3    H237257   4.288   1.622   7.285 -0.0265 -1.0123 -0.6619
 5232TIP3   OH237258   1.350   5.935   8.208 -0.0680 -0.1688 -0.0955
 5232TIP3    H137259   1.287   5.942   8.137 -1.9573  2.3247  1.6755
 5232TIP3    H237260   1.417   6.000   8.187  0.3050 -0.6485 -0.4217
 5233TIP3   OH237261   4.061   5.163   7.819 -0.1044  0.4249 -0.0899
 5233TIP3    H137262   3.979   5.115   7.831 -0.2936  0.2373 -1.9501
 5233TIP3    H237263   4.054   5.202   7.732  0.4412  3.1020  0.9894
 5234TIP3   OH237264   1.156   3.156   6.816  0.2268 -0.4145 -0.3525
 5234TIP3    H137265   1.108   3.210   6.753  0.4720 -1.1730 -1.2002
 5234TIP3    H237266   1.173   3.074   6.770 -1.6856 -1.9571  1.5127
 5235TIP3   OH237267   5.628   2.110   6.515  0.4830 -0.1862 -0.1402
 5235TIP3    H137268   5.653   2.063   6.436  2.0588 -0.2532  0.3578
 5235TIP3    H237269   5.589   2.043   6.572 -2.1866  0.1622 -1.4239
 5236TIP3   OH237270   0.990   2.700   0.947  0.0038 -0.1218  0.1892
 5236TIP3    H137271   1.027   2.617   0.978  1.9743  1.0108  1.0684
 5236TIP3    H237272   0.930   2.726   1.016  0.5740 -0.0645  0.6741
 5237TIP3   OH237273   1.658   1.989   1.608  0.0145 -0.4266  0.1387
 5237TIP3    H137274   1.711   2.017   1.683 -0.4827 -0.5446  0.5409
 5237TIP3    H237275   1.568   2.001   1.638 -0.1916  0.7259 -0.8916
 5238TIP3   OH237276   0.521   0.008   7.388 -0.1004  0.1700  0.4742
 5238TIP3    H137277   0.506  -0.038   7.470  0.1265  1.2364  1.1331
 5238TIP3    H237278   0.582  -0.048   7.339 -0.9324 -0.9056  0.6385
 5239TIP3   OH237279   1.244   4.074   7.980  0.0233 -0.6469  0.7058
 5239TIP3    H137280   1.268   4.105   8.068 -0.1325 -2.4326  1.4264
 5239TIP3    H237281   1.164   4.023   7.994 -0.7057  0.0641 -0.6942
 5240TIP3   OH237282   2.653   4.601   8.153  0.0481 -0.3283  0.3128
 5240TIP3    H137283   2.576   4.627   8.102 -1.3746 -1.0534  1.9833
 5240TIP3    H237284   2.659   4.667   8.222  0.4622 -0.7132  0.6514
 5241TIP3   OH237285   0.600   6.104   8.216 -0.4373  0.1640  0.5621
 5241TIP3    H137286   0.532   6.162   8.251 -1.7019 -1.2779  0.6078
 5241TIP3    H237287   0.610   6.036   8.283  0.2259 -0.2644  0.0400
 5242TIP3   OH237288   1.040   1.277   2.090 -0.2326 -0.2145  0.2296
 5242TIP3    H137289   1.109   1.337   2.061  0.2489 -0.0719  1.5788
 5242TIP3    H237290   1.008   1.315   2.172  0.9715 -2.4072  1.8308
 5243TIP3   OH237291   1.151   3.411   8.228 -0.1030  0.2538 -0.2377
 5243TIP3    H137292   1.183   3.497   8.201 -0.2806 -0.2834 -2.3161
 5243TIP3    H237293   1.212   3.384   8.297  0.3667  1.7257 -0.0383
 5244TIP3   OH237294   2.790   3.582   0.294  0.1774 -0.0601  0.2644
 5244TIP3    H137295   2.762   3.568   0.385 -1.2291  0.0315 -0.1299
 5244TIP3    H237296   2.800   3.677   0.287  0.9423 -0.1211  0.5018
 5245TIP3   OH237297   1.200   0.260   8.077  0.3134 -0.2096  0.2111
 5245TIP3    H137298   1.139   0.323   8.116 -0.8891 -0.1327 -1.6604
 5245TIP3    H237299   1.147   0.181   8.066  1.0059 -0.6440 -0.0376
 5246TIP3   OH237300   2.466   4.822   8.016  0.0891  0.5981  0.2514
 5246TIP3    H137301   2.377   4.829   8.051  0.0618  0.6010  0.1813
 5246TIP3    H237302   2.453   4.802   7.923  0.1579 -0.1089  0.3845
 5247TIP3   OH237303   2.877   6.307   8.025 -0.4948  0.3380 -0.2262
 5247TIP3    H137304   2.906   6.231   7.975 -0.1823  1.0118 -1.0897
 5247TIP3    H237305   2.811   6.348   7.970  0.6750  1.7450 -0.6528
 5248TIP3   OH237306   1.998   3.037   0.304  0.8247  0.4306 -0.1375
 5248TIP3    H137307   2.014   2.946   0.281 -0.3219  0.3778 -0.8283
 5248TIP3    H237308   2.052   3.087   0.243  0.3541  0.2317 -0.7233
 5249TIP3   OH237309   5.883   0.021   7.542  0.4602 -0.5017 -0.7529
 5249TIP3    H137310   5.794   0.054   7.555  0.3740 -0.7239 -0.7744
 5249TIP3    H237311   5.891   0.009   7.448  0.1479 -1.4823 -0.6651
 5250TIP3   OH237312   6.909   0.944   1.044 -0.3590  0.1522  0.1354
 5250TIP3    H137313   6.838   1.007   1.059  1.6783  2.5216  0.3781
 5250TIP3    H237314   6.924   0.904   1.129 -0.4167  0.7731  0.4471
 5251TIP3   OH237315   5.614   2.449   7.401  0.5198 -0.0862 -0.3292
 5251TIP3    H137316   5.625   2.464   7.308  0.0309  1.0615 -0.2229
 5251TIP3    H237317   5.699   2.416   7.431  1.4961  1.8854 -0.7449
 5252TIP3   OH237318   6.162   2.764   7.847  0.1359  0.1155  0.4740
 5252TIP3    H137319   6.177   2.781   7.754 -0.0022  1.3859  0.6603
 5252TIP3    H237320   6.239   2.801   7.891 -0.4833  0.8812  0.9538
 5253TIP3   OH237321   2.623   3.554   1.302  0.2280  0.0088 -0.3871
 5253TIP3    H137322   2.611   3.589   1.213 -2.1878  0.9359  0.2414
 5253TIP3    H237323   2.649   3.630   1.354 -2.3548  0.4286  0.4370
 5254TIP3   OH237324   6.189   6.693   7.984 -0.5093  0.2280 -0.0719
 5254TIP3    H137325   6.233   6.661   7.905 -1.9242 -1.4104 -0.2523
 5254TIP3    H237326   6.096   6.681   7.966 -0.8542 -0.8434  2.0792
 5255TIP3   OH237327   1.835   2.985   1.588 -0.1289 -0.5637  0.5818
 5255TIP3    H137328   1.875   2.900   1.606 -1.0755 -1.2110 -0.2685
 5255TIP3    H237329   1.753   2.984   1.638 -1.1282 -1.0071 -0.9960
 5256TIP3   OH237330   1.165   2.464   0.453 -0.0882  0.4230 -0.0408
 5256TIP3    H137331   1.184   2.557   0.468  0.0758  0.1649  1.4668
 5256TIP3    H237332   1.073   2.455   0.476 -1.0030  0.7751 -3.0997
 5257TIP3   OH237333   3.017   0.825   6.734 -0.1708  0.1591 -0.1221
 5257TIP3    H137334   3.091   0.844   6.792 -0.7809 -0.3973  0.8624
 5257TIP3    H237335   2.941   0.861   6.779 -0.5655  0.3452 -0.9229
 5258TIP3   OH237336   3.967   2.932   6.885  0.0077  0.5096  0.0790
 5258TIP3    H137337   3.931   2.973   6.806 -0.4541 -0.9986 -0.5395
 5258TIP3    H237338   3.947   2.839   6.875  1.0549  0.1012  1.3860
 5259TIP3   OH237339   4.450   1.495   7.838  0.0471  0.1929  0.6630
 5259TIP3    H137340   4.525   1.520   7.784 -0.2270  1.4394  0.8142
 5259TIP3    H237341   4.459   1.401   7.851 -0.1605 -0.2690 -1.9988
 5260TIP3   OH237342   4.548   6.786   0.682  0.0262 -0.6492 -0.1290
 5260TIP3    H137343   4.484   6.741   0.736  1.4183 -0.5504  1.6833
 5260TIP3    H237344   4.632   6.752   0.711  0.9692  1.2494 -0.5083
 5261TIP3   OH237345   2.605   2.513   8.245 -0.2538  0.1900  0.1068
 5261TIP3    H137346   2.681   2.463   8.214  1.0841  1.6205  0.9658
 5261TIP3    H237347   2.597   2.585   8.183 -1.3559 -0.3171 -0.3658
 5262TIP3   OH237348   6.757   0.854   7.129 -0.2344 -0.2787  0.2476
 5262TIP3    H137349   6.816   0.796   7.080 -1.0451 -1.4825  0.6560
 5262TIP3    H237350   6.790   0.942   7.111  1.0169 -0.8553 -0.4117
 5263TIP3   OH237351   5.152   0.683   2.152 -0.0385 -0.3158 -0.5220
 5263TIP3    H137352   5.151   0.770   2.112  1.7069  1.1704  2.3416
 5263TIP3    H237353   5.074   0.681   2.207 -0.1173 -0.5731 -0.6455
 5264TIP3   OH237354   4.851   2.527   8.028  0.3218 -0.4945  0.5084
 5264TIP3    H137355   4.900   2.446   8.037  0.4488 -0.5686 -0.7216
 5264TIP3    H237356   4.903   2.592   8.076 -0.8247 -1.5042  3.3143
 5265TIP3   OH237357   1.805   0.751   0.522 -0.8291  0.3993  0.7800
 5265TIP3    H137358   1.714   0.780   0.511 -0.5039  1.3882  0.6079
 5265TIP3    H237359   1.810   0.668   0.474 -1.7335  0.1432  1.1083
 5266TIP3   OH237360   4.532   3.546   0.711 -0.3401 -0.2472  0.4782
 5266TIP3    H137361   4.565   3.565   0.798 -1.1655  0.0988  0.7270
 5266TIP3    H237362   4.607   3.558   0.653 -0.0784  0.6846  1.0027
 5267TIP3   OH237363   0.445   5.620   1.185 -0.0242  0.3595  0.5231
 5267TIP3    H137364   0.467   5.681   1.114  1.5811 -1.3228 -0.5008
 5267TIP3    H237365   0.364   5.578   1.156 -0.2829  0.8504  0.5081
 5268TIP3   OH237366   0.095   3.242   1.805 -0.5659 -0.2526  0.3930
 5268TIP3    H137367   0.093   3.272   1.896  3.0889  0.1569  0.4901
 5268TIP3    H237368   0.165   3.177   1.803  0.3288  0.6529 -2.3218
 5269TIP3   OH237369   5.580   2.383   8.328  0.8731  0.0904  0.4972
 5269TIP3    H137370   5.604   2.300   8.370  2.7703 -1.2916 -2.9322
 5269TIP3    H237371   5.648   2.445   8.356  3.3632 -1.3546 -1.8573
 5270TIP3   OH237372   3.069   3.729   0.738  0.2642  0.5884  0.5772
 5270TIP3    H137373   3.110   3.652   0.699 -1.7309 -0.2138 -0.0484
 5270TIP3    H237374   3.080   3.798   0.672 -2.8468 -0.6859 -1.4965
 5271TIP3   OH237375   5.507   6.544   8.098  0.2121  0.1571 -0.7561
 5271TIP3    H137376   5.428   6.540   8.152  1.8568  1.6007  1.9678
 5271TIP3    H237377   5.512   6.458   8.057 -2.3891 -0.2027 -0.4894
 5272TIP3   OH237378   5.339   6.260   0.877 -0.0795  0.3463  0.1439
 5272TIP3    H137379   5.362   6.353   0.881  1.9557 -0.1329  0.4291
 5272TIP3    H237380   5.317   6.238   0.968  0.6355  0.2693  0.3009
 5273TIP3   OH237381   3.815   0.299   1.022  0.1325  0.1650 -0.0155
 5273TIP3    H137382   3.765   0.242   1.080  1.0035  0.1186  0.7122
 5273TIP3    H237383   3.798   0.265   0.934 -1.5017  0.4685  0.1707
 5274TIP3   OH237384   5.187   3.574   7.713  0.0602  0.3144 -0.0753
 5274TIP3    H137385   5.121   3.555   7.646 -0.5348  0.3853  0.4827
 5274TIP3    H237386   5.220   3.487   7.739 -0.6911  0.1985  0.5131
 5275TIP3   OH237387   1.014   3.534   0.717  0.2310  0.0602  0.2400
 5275TIP3    H137388   1.035   3.570   0.631  1.3861 -0.8892  0.1005
 5275TIP3    H237389   1.077   3.574   0.776 -0.9367  1.1631  0.7777
 5276TIP3   OH237390   1.256   5.677   1.177  0.4634  0.0123 -0.0083
 5276TIP3    H137391   1.257   5.695   1.271 -3.9124 -1.6093  0.5886
 5276TIP3    H237392   1.321   5.609   1.164  1.9398  1.0457  1.5631
 5277TIP3   OH237393   4.104   4.021   6.655  0.3185  0.3230  0.2246
 5277TIP3    H137394   4.056   3.944   6.686  0.4464  0.0704 -0.1995
 5277TIP3    H237395   4.193   3.990   6.640 -0.1473 -0.0537 -2.2087
 5278TIP3   OH237396   1.094   2.780   6.813  0.2794 -0.5857 -0.3287
 5278TIP3    H137397   1.147   2.855   6.784 -0.3402 -0.7466 -2.0114
 5278TIP3    H237398   1.009   2.818   6.833  0.4896 -0.5943  0.6435
 5279TIP3   OH237399   3.044   0.174   1.315 -0.3769 -0.0374 -0.4480
 5279TIP3    H137400   3.011   0.100   1.264  0.1319 -0.5530 -0.0444
 5279TIP3    H237401   3.126   0.198   1.273 -0.2864 -0.0360 -0.2722
 5280TIP3   OH237402   2.818   4.063   0.408  0.0358  0.3377  0.0381
 5280TIP3    H137403   2.815   4.153   0.439  2.0632  1.0323 -1.6303
 5280TIP3    H237404   2.843   4.012   0.486  1.0148  1.4993  0.5105
 5281TIP3   OH237405   2.286   4.669   7.470 -0.6590 -0.5876 -0.8799
 5281TIP3    H137406   2.371   4.700   7.502 -0.6739 -0.7262 -0.7053
 5281TIP3    H237407   2.239   4.748   7.445 -1.0290 -0.3995  0.3560
 5282TIP3   OH237408   5.820   6.572   7.543 -0.0643 -0.3937 -0.1047
 5282TIP3    H137409   5.833   6.510   7.471 -0.5249  0.9001 -1.3279
 5282TIP3    H237410   5.905   6.614   7.554 -0.7214  1.5903 -2.0070
 5283TIP3   OH237411   5.906   1.338   0.686 -0.0374 -0.3686 -0.4889
 5283TIP3    H137412   5.983   1.324   0.631 -0.2087 -0.2209 -0.7726
 5283TIP3    H237413   5.878   1.250   0.711  0.8626 -0.3802  0.5238
 5284TIP3   OH237414   2.719   0.794   0.208  0.0066 -0.6702  0.3868
 5284TIP3    H137415   2.659   0.835   0.269 -1.6760 -3.2178  0.5652
 5284TIP3    H237416   2.799   0.779   0.259 -0.4849 -0.5353  1.2092
 5285TIP3   OH237417   5.764   4.735   6.303  0.0729  0.4994  0.2894
 5285TIP3    H137418   5.746   4.641   6.295  1.1438  0.4401 -2.9107
 5285TIP3    H237419   5.679   4.774   6.322 -0.7551 -0.9397 -0.2817
 5286TIP3   OH237420   2.048   6.744   0.921  0.0996  0.8132  0.8071
 5286TIP3    H137421   1.956   6.769   0.911 -0.0554  0.1949  0.5860
 5286TIP3    H237422   2.093   6.825   0.940 -0.0866  1.6270 -1.7495
 5287TIP3   OH237423   0.460   4.720   6.969  0.0091 -0.8016 -0.6610
 5287TIP3    H137424   0.383   4.662   6.971 -2.1169  1.7859 -1.5289
 5287TIP3    H237425   0.480   4.737   7.061 -1.4222 -0.4131 -0.3891
 5288TIP3   OH237426   2.643   4.101   7.652 -0.4441 -0.1357 -0.4423
 5288TIP3    H137427   2.564   4.106   7.706  0.5849  0.6142  1.0627
 5288TIP3    H237428   2.715   4.104   7.714  0.7939 -1.3122 -1.7402
 5289TIP3   OH237429   3.492   4.657   1.125 -0.3804  0.2835  0.7875
 5289TIP3    H137430   3.531   4.580   1.083 -0.1495  0.4043  0.7758
 5289TIP3    H237431   3.523   4.652   1.216 -0.3111  0.3991  0.7697
 5290TIP3   OH237432   5.646   3.400   0.241  0.4228 -0.4386  0.2271
 5290TIP3    H137433   5.609   3.412   0.328 -2.5811 -0.7506 -0.8710
 5290TIP3    H237434   5.663   3.488   0.209 -0.7655 -0.1755  0.2732
 5291TIP3   OH237435   1.103   1.245   1.528  0.1623  0.1195  0.0102
 5291TIP3    H137436   1.119   1.243   1.623 -0.3937  0.1513  0.1112
 5291TIP3    H237437   1.051   1.325   1.515 -0.5249 -0.3511 -0.1870
 5292TIP3   OH237438   1.355   5.728   7.384  0.4047 -0.2929  0.5654
 5292TIP3    H137439   1.365   5.730   7.479 -1.5009 -0.4500  0.8144
 5292TIP3    H237440   1.269   5.766   7.369  0.1970 -1.3100 -1.0224
 5293TIP3   OH237441   0.001   2.999   7.592 -0.2628  0.2931  0.0155
 5293TIP3    H137442   0.047   3.002   7.507 -0.8175  0.6116 -0.2778
 5293TIP3    H237443  -0.019   2.907   7.605  0.6583  0.1172  0.2563
 5294TIP3   OH237444   6.731   6.671   0.028 -0.3368 -0.0082  0.1223
 5294TIP3    H137445   6.793   6.743   0.037 -0.2051 -0.1810  0.6473
 5294TIP3    H237446   6.785   6.596   0.003 -0.4940  0.1028 -0.5814
 5295TIP3   OH237447   4.476   1.816   7.098 -0.3887 -0.1041  0.0463
 5295TIP3    H137448   4.428   1.893   7.067  0.1259 -0.5005 -1.8625
 5295TIP3    H237449   4.479   1.758   7.022 -1.3998 -2.3712  1.6235
 5296TIP3   OH237450   4.457   1.230   8.161 -0.2154  0.5786 -0.9010
 5296TIP3    H137451   4.461   1.219   8.066  1.3981  0.0286 -0.7969
 5296TIP3    H237452   4.517   1.302   8.179 -0.3765  0.5603 -0.2847
 5297TIP3   OH237453   5.733   1.075   8.095  0.3629  0.2984 -0.1595
 5297TIP3    H137454   5.719   0.986   8.061  2.6962 -0.5520  0.8348
 5297TIP3    H237455   5.762   1.125   8.019  1.2769 -0.4336 -0.3189
 5298TIP3   OH237456   3.085   0.667   7.102 -0.2382  0.5236 -0.0759
 5298TIP3    H137457   3.042   0.643   7.184 -1.2953 -0.7216 -0.9541
 5298TIP3    H237458   3.081   0.587   7.048  1.1015  1.0805 -1.0659
 5299TIP3   OH237459   0.977   5.685   8.262 -0.3233 -0.0764 -0.3091
 5299TIP3    H137460   0.935   5.753   8.314 -0.1757 -0.9180  0.9729
 5299TIP3    H237461   0.914   5.612   8.264  0.0137 -0.3819 -0.6943
 5300TIP3   OH237462   4.549   4.301   0.357  0.0397  0.1470  0.0506
 5300TIP3    H137463   4.622   4.244   0.381 -0.5374 -1.2397 -1.3366
 5300TIP3    H237464   4.474   4.266   0.404 -0.1696  0.2130 -0.2287
 5301TIP3   OH237465   2.286   3.598   0.694 -0.1503  0.4901 -0.1620
 5301TIP3    H137466   2.306   3.668   0.756 -0.8181  1.0507 -0.5701
 5301TIP3    H237467   2.226   3.637   0.631  0.2407 -0.1645 -0.9732
 5302TIP3   OH237468   1.957   1.078   1.364 -0.0150 -0.0483 -0.0940
 5302TIP3    H137469   2.022   1.076   1.434  1.3275 -1.7277 -1.2890
 5302TIP3    H237470   1.893   1.011   1.390 -0.8412  0.9856  0.6418
 5303TIP3   OH237471   3.618   3.929   0.136  0.2799 -0.0449  0.3819
 5303TIP3    H137472   3.588   3.985   0.065 -0.1239 -0.2532  0.3876
 5303TIP3    H237473   3.675   3.865   0.094  2.5199  1.6561  0.6604
 5304TIP3   OH237474   6.024   1.418   1.528  0.0667 -0.7024  0.0113
 5304TIP3    H137475   6.044   1.423   1.621  1.4065 -1.5867 -0.1943
 5304TIP3    H237476   5.986   1.503   1.506  0.1757 -0.3183  1.2616
 5305TIP3   OH237477   5.130   2.449   1.555  0.2488 -0.1133  0.2038
 5305TIP3    H137478   5.105   2.362   1.522 -1.4366  0.4462 -0.0828
 5305TIP3    H237479   5.077   2.461   1.634  0.3995  0.6862  0.1912
 5306TIP3   OH237480   0.591   3.017   7.040 -0.4945 -0.3986  0.4375
 5306TIP3    H137481   0.560   2.953   6.975  0.1102  0.3969 -0.6761
 5306TIP3    H237482   0.590   3.101   6.993 -0.2354  0.2415  1.5321
 5307TIP3   OH237483   0.833   2.488   0.844  0.1616 -0.1326  0.3944
 5307TIP3    H137484   0.897   2.445   0.901 -0.2309 -0.1651  0.8180
 5307TIP3    H237485   0.824   2.576   0.880 -0.4311 -0.3004  0.6681
 5308TIP3   OH237486   6.675   6.885   7.751 -0.0896 -0.4797 -0.5998
 5308TIP3    H137487   6.651   6.971   7.784 -0.4096 -0.7836 -0.0436
 5308TIP3    H237488   6.754   6.900   7.699 -1.8821  0.7025 -3.2285
 5309TIP3   OH237489   3.526   7.015   6.859 -0.1652 -0.0444  0.0717
 5309TIP3    H137490   3.456   6.989   6.798  0.2916 -0.0888 -0.4429
 5309TIP3    H237491   3.555   7.100   6.827  0.5810 -0.4005 -0.2244
 5310TIP3   OH237492   4.362   4.149   0.466 -0.5923 -0.1845  0.3639
 5310TIP3    H137493   4.298   4.180   0.401 -1.2924 -1.3818  0.4639
 5310TIP3    H237494   4.365   4.054   0.454  0.2931 -0.2721  1.1710
 5311TIP3   OH237495   5.860   3.952   6.734 -0.1226  0.1154  0.2106
 5311TIP3    H137496   5.887   3.955   6.826 -0.9665  0.6689  0.4631
 5311TIP3    H237497   5.889   4.035   6.697  2.2571 -1.0273 -0.6729
 5312TIP3   OH237498   1.518   0.969   1.601 -0.2150 -0.5463 -0.4989
 5312TIP3    H137499   1.480   0.900   1.546 -2.8601  0.7995 -0.5367
 5312TIP3    H237500   1.462   0.970   1.679  1.1067  0.1641  0.4748
 5313TIP3   OH237501   3.125   0.407   6.911  0.7346  0.8078 -0.2641
 5313TIP3    H137502   3.163   0.331   6.866  0.2548 -0.5424  1.4938
 5313TIP3    H237503   3.187   0.425   6.982  0.7234  1.9575 -0.5249
 5314TIP3   OH237504   2.881   3.604   6.824 -0.5757  0.4897 -0.0923
 5314TIP3    H137505   2.928   3.539   6.878 -1.4388 -0.9357 -0.9902
 5314TIP3    H237506   2.801   3.559   6.798 -0.6170  1.4907 -1.7966
 5315TIP3   OH237507   3.526   0.718   1.639 -0.1676 -0.0447 -0.7241
 5315TIP3    H137508   3.472   0.666   1.579 -0.8774  0.5259 -0.6006
 5315TIP3    H237509   3.475   0.798   1.653 -0.6836 -0.7204  1.7326
 5316TIP3   OH237510   3.431   5.528   0.716  0.1236 -0.0362  0.1603
 5316TIP3    H137511   3.385   5.485   0.644 -0.5979  2.2145 -0.7823
 5316TIP3    H237512   3.362   5.568   0.769  0.7785  0.0289  0.9910
 5317TIP3   OH237513   4.027   4.950   6.194 -0.2468 -0.3048  0.0747
 5317TIP3    H137514   4.054   4.947   6.102 -0.3962 -1.8736  0.0526
 5317TIP3    H237515   3.963   4.879   6.203 -1.4155  0.8064  1.0481
 5318TIP3   OH237516   3.156   6.177   1.956  0.2682  0.4779 -0.1916
 5318TIP3    H137517   3.182   6.265   1.929 -0.7386 -0.0848 -3.3797
 5318TIP3    H237518   3.088   6.191   2.023 -1.0202  2.2221 -1.7702
 5319TIP3   OH237519   5.467   3.320   1.260 -0.2654  0.1332 -0.5914
 5319TIP3    H137520   5.486   3.410   1.234 -1.6690  0.5622 -0.2306
 5319TIP3    H237521   5.550   3.274   1.252  0.1428  1.0972 -2.2760
 5320TIP3   OH237522   4.725   5.779   6.174 -1.4362  0.0333  0.0950
 5320TIP3    H137523   4.670   5.734   6.238 -1.2205  0.2168  0.4107
 5320TIP3    H237524   4.677   5.770   6.091 -1.4967 -0.5976  0.1882
 5321TIP3   OH237525   6.060   5.869   6.685 -0.6166 -0.1589  0.3358
 5321TIP3    H137526   6.065   5.777   6.658  2.6499  0.0063 -0.0448
 5321TIP3    H237527   6.100   5.917   6.613  3.2041  0.8779  2.8366
 5322TIP3   OH237528   2.160   0.464   1.712  0.1629  0.6699  0.1553
 5322TIP3    H137529   2.196   0.425   1.792 -1.7334 -2.1330 -0.1863
 5322TIP3    H237530   2.156   0.557   1.730  1.0114  0.2684  2.8319
 5323TIP3   OH237531   3.130   3.409   6.392 -0.5841 -0.4745  0.2210
 5323TIP3    H137532   3.149   3.481   6.331 -0.9343 -0.8188 -0.3025
 5323TIP3    H237533   3.200   3.345   6.376 -2.1653 -1.8328 -1.8489
 5324TIP3   OH237534   1.498   1.055   1.215 -0.3352  0.8292  0.1353
 5324TIP3    H137535   1.440   1.127   1.244  0.0551  1.2394 -0.0887
 5324TIP3    H237536   1.575   1.064   1.271 -1.0703 -0.6243  1.4620
 5325TIP3   OH237537   1.586   4.561   7.469  0.3423 -0.1612 -0.4661
 5325TIP3    H137538   1.618   4.541   7.557  1.9789  1.2796 -0.6744
 5325TIP3    H237539   1.659   4.607   7.427 -0.7428  0.0140 -2.2721
 5326TIP3   OH237540   0.638   5.678   0.822  0.0142  0.1339  0.1365
 5326TIP3    H137541   0.600   5.672   0.910  0.0260 -1.0562  0.0782
 5326TIP3    H237542   0.706   5.744   0.829 -1.5878  1.8340  0.4200
 5327TIP3   OH237543   6.952   3.559   8.051 -0.0878 -0.0177  0.3948
 5327TIP3    H137544   6.899   3.534   8.127  0.2072 -0.9163  0.3116
 5327TIP3    H237545   7.039   3.524   8.070 -0.1700 -0.8469 -0.6567
 5328TIP3   OH237546   4.490   0.958   7.169  0.1203  0.0645 -0.1479
 5328TIP3    H137547   4.410   0.915   7.140  0.7551 -1.2968  0.0360
 5328TIP3    H237548   4.477   1.050   7.147 -2.4597  0.3244  1.9223
 5329TIP3   OH237549   6.924   6.898   7.615 -0.0641 -0.0316 -0.1140
 5329TIP3    H137550   6.935   6.989   7.587 -0.6827 -0.0362 -0.3742
 5329TIP3    H237551   6.950   6.846   7.539 -3.6934 -0.0421 -1.5282
 5330TIP3   OH237552   2.756   2.208   0.433 -0.5871 -0.4352  0.3840
 5330TIP3    H137553   2.717   2.240   0.515  1.3491  0.4464  1.0207
 5330TIP3    H237554   2.809   2.281   0.401 -0.7439 -1.0166 -1.3117
 5331TIP3   OH237555   0.009   1.390   7.875 -0.6629 -0.2964  0.1029
 5331TIP3    H137556  -0.051   1.324   7.840  0.0285 -0.3108 -1.1202
 5331TIP3    H237557   0.039   1.438   7.798  1.3303 -0.6667  0.5767
 5332TIP3   OH237558   6.732   0.758   1.518 -0.4293 -0.2254  0.2596
 5332TIP3    H137559   6.711   0.833   1.463  0.6940  1.7711  2.3707
 5332TIP3    H237560   6.652   0.741   1.568 -0.3171  0.3932  0.6569
 5333TIP3   OH237561   5.360   3.471   8.360  0.5422  0.3594  0.5116
 5333TIP3    H137562   5.421   3.434   8.296  1.7344  0.9321  1.2862
 5333TIP3    H237563   5.387   3.562   8.369  0.5245  0.2419  1.9738
 5334TIP3   OH237564   2.349   5.100   0.443  0.1086  0.6718  0.8123
 5334TIP3    H137565   2.428   5.151   0.422 -0.4075  1.1610 -0.0049
 5334TIP3    H237566   2.382   5.019   0.481  0.9932  1.0825  0.9449
 5335TIP3   OH237567   2.838   6.191   7.164 -0.3195  0.3988 -0.1650
 5335TIP3    H137568   2.818   6.201   7.257 -0.2021  0.4539 -0.1447
 5335TIP3    H237569   2.930   6.219   7.157 -0.6724  1.5209 -0.4883
 5336TIP3   OH237570   6.449   4.965   1.339  0.5287  0.1194  0.1171
 5336TIP3    H137571   6.396   4.934   1.413  0.5980  0.9236  0.5159
 5336TIP3    H237572   6.516   4.898   1.328 -1.0243 -1.3431 -0.9254
 5337TIP3   OH237573   6.606   2.998   7.312 -0.0429  0.0129  0.0592
 5337TIP3    H137574   6.557   3.069   7.353 -1.1077  0.1152 -1.3103
 5337TIP3    H237575   6.551   2.971   7.238  1.0697 -1.2046 -0.3588
 5338TIP3   OH237576   2.357   5.857   2.104  0.6813  0.1321 -0.2070
 5338TIP3    H137577   2.424   5.888   2.043  0.8501 -0.3836 -0.2926
 5338TIP3    H237578   2.281   5.838   2.048  0.7365 -0.0562 -0.2194
 5339TIP3   OH237579   5.145   1.320   5.988  0.6308  0.2380 -0.1635
 5339TIP3    H137580   5.137   1.239   6.039 -1.0725  1.8372  2.3030
 5339TIP3    H237581   5.119   1.389   6.048  1.2132  2.5845 -2.4405
 5340TIP3   OH237582   4.064   3.586   0.569 -0.3812  0.1692 -0.6463
 5340TIP3    H137583   4.143   3.562   0.617 -0.8697  0.6717  0.4279
 5340TIP3    H237584   4.047   3.677   0.594 -0.6072  0.4706 -1.8335
 5341TIP3   OH237585   3.808   3.773   1.593 -0.6311  0.3930 -0.6104
 5341TIP3    H137586   3.794   3.791   1.686 -2.2519 -1.4724 -0.4459
 5341TIP3    H237587   3.842   3.856   1.558  2.6421  0.4364  2.0888
 5342TIP3   OH237588   1.183   2.988   0.048 -0.4897 -0.1946  0.0435
 5342TIP3    H137589   1.213   2.978   0.138 -0.2774  0.1435  0.0101
 5342TIP3    H237590   1.154   2.900   0.023 -2.0198 -0.0028  0.9596
 5343TIP3   OH237591   1.217   5.321   7.286  0.4080 -0.1421  0.2167
 5343TIP3    H137592   1.147   5.385   7.298 -0.3547 -0.5364 -1.8507
 5343TIP3    H237593   1.297   5.373   7.296 -0.1708  0.6651  0.8479
 5344TIP3   OH237594   3.024   1.384   0.160  0.6677  0.0507  0.5154
 5344TIP3    H137595   3.087   1.371   0.090  2.1870 -3.1399  2.2438
 5344TIP3    H237596   2.938   1.371   0.118  1.3860  0.1748 -1.0673
 5345TIP3   OH237597   0.279   6.025   7.946  0.4461  0.5327  0.1729
 5345TIP3    H137598   0.369   5.998   7.963  0.4053  0.2111 -0.1014
 5345TIP3    H237599   0.284   6.120   7.932  1.1081  0.2437 -2.0117
 5346TIP3   OH237600   1.563   6.117   8.268 -0.2267 -0.2394  0.1160
 5346TIP3    H137601   1.653   6.142   8.246 -0.4797  0.8955  0.3328
 5346TIP3    H237602   1.570   6.077   8.354  0.2698 -1.5190 -0.4920
 5347TIP3   OH237603   2.211   6.080   8.131  0.1123 -0.1492 -0.1287
 5347TIP3    H137604   2.294   6.050   8.170 -1.1210 -1.0321  1.9920
 5347TIP3    H237605   2.143   6.036   8.182 -1.7010 -0.7011 -2.8413
 5348TIP3   OH237606   1.948   0.308   7.550 -0.4548 -0.0856 -0.0880
 5348TIP3    H137607   1.928   0.351   7.467 -0.4449 -2.1114 -1.2052
 5348TIP3    H237608   2.032   0.347   7.577  0.5419 -0.7325 -2.0512
 5349TIP3   OH237609   2.985   4.854   7.277  0.0775  0.9067  0.0063
 5349TIP3    H137610   2.989   4.891   7.189  0.7862  1.4110  0.2389
 5349TIP3    H237611   2.930   4.915   7.326 -1.4929 -0.1207 -0.4213
 5350TIP3   OH237612   0.602   4.752   0.514 -0.5957  0.0138 -0.8166
 5350TIP3    H137613   0.665   4.743   0.443  0.3669  1.7663 -0.2560
 5350TIP3    H237614   0.580   4.845   0.515 -0.5598  0.0527  1.1647
 5351TIP3   OH237615   4.964   1.103   1.041 -0.5027  0.4185  0.0710
 5351TIP3    H137616   4.922   1.125   0.958 -0.4855 -0.0055 -0.0505
 5351TIP3    H237617   4.988   1.011   1.033 -0.2391  0.4512  0.4345
 5352TIP3   OH237618   2.728   6.044   7.872  0.1648 -0.6803 -0.0113
 5352TIP3    H137619   2.719   6.077   7.783  0.6783 -1.1384 -0.2336
 5352TIP3    H237620   2.666   6.097   7.923  1.8671  1.5545 -0.1172
 5353TIP3   OH237621   3.984   4.423   7.659  0.2662  0.3074  0.1568
 5353TIP3    H137622   4.076   4.417   7.685  0.7045  1.6784 -0.8937
 5353TIP3    H237623   3.936   4.376   7.727  1.8803 -2.2244 -0.2972
 5354TIP3   OH237624   6.884   1.209   7.732  0.6848 -0.0115 -0.7204
 5354TIP3    H137625   6.879   1.113   7.742  3.5340 -0.2897 -1.0949
 5354TIP3    H237626   6.793   1.238   7.732 -0.3266 -2.8356 -1.7105
 5355TIP3   OH237627   5.371   2.364   7.107 -0.0290  0.3326  0.1440
 5355TIP3    H137628   5.340   2.335   7.193  1.7659  2.4210  1.5748
 5355TIP3    H237629   5.292   2.362   7.052 -0.8963 -2.6987  1.2837
 5356TIP3   OH237630   4.998   5.139   1.905 -0.3511  0.2659  0.0315
 5356TIP3    H137631   5.090   5.140   1.928 -0.7829  0.7258  1.9253
 5356TIP3    H237632   4.971   5.048   1.917  0.4127 -0.5154 -3.2640
 5357TIP3   OH237633   3.313   4.849   1.037 -0.4907 -0.2260  1.0211
 5357TIP3    H137634   3.354   4.763   1.049 -2.9866 -1.3623  2.3930
 5357TIP3    H237635   3.273   4.868   1.122 -1.6956  1.3325  0.1573
 5358TIP3   OH237636   4.605   0.958   8.284 -0.3990 -0.0727  0.1086
 5358TIP3    H137637   4.629   1.050   8.287  1.3436 -0.4278 -1.3544
 5358TIP3    H237638   4.679   0.912   8.323 -0.0338 -0.9953 -1.5592
 5359TIP3   OH237639   4.164   1.325   8.153 -0.6755  0.0172  0.0934
 5359TIP3    H137640   4.233   1.381   8.118 -0.5358  0.0411  0.4098
 5359TIP3    H237641   4.177   1.326   8.248 -0.6672 -0.5590  0.0997
 5360TIP3   OH237642   0.746   6.351   1.058 -0.2098  0.4068 -0.0426
 5360TIP3    H137643   0.831   6.309   1.047 -0.2302  0.3130  0.1617
 5360TIP3    H237644   0.702   6.300   1.125 -0.5284  0.3041 -0.3263
 5361TIP3   OH237645   5.190   0.559   7.348  0.1049 -0.0164  0.1663
 5361TIP3    H137646   5.147   0.475   7.331  0.6615 -0.0542 -1.1724
 5361TIP3    H237647   5.123   0.624   7.325  0.2582 -0.0865 -0.4961
 5362TIP3   OH237648   1.978   3.602   6.737  0.4246  0.2182 -0.5570
 5362TIP3    H137649   1.886   3.627   6.740  0.4306  0.2789  2.5951
 5362TIP3    H237650   2.021   3.675   6.692 -0.8976  0.8676 -0.8118
 5363TIP3   OH237651   2.127   6.975   0.595 -0.2743  0.1385 -0.0368
 5363TIP3    H137652   2.078   7.012   0.668  0.0074 -0.8436  0.6819
 5363TIP3    H237653   2.062   6.963   0.525 -1.0667 -1.0390  0.8657
 5364TIP3   OH237654   5.176   6.767   6.923 -0.3097 -0.1552 -0.4600
 5364TIP3    H137655   5.146   6.689   6.876 -0.9796 -0.7639  0.9189
 5364TIP3    H237656   5.100   6.793   6.976  1.0706 -0.9052  2.0621
 5365TIP3   OH237657   3.840   1.110   7.259 -0.1909 -0.3588 -0.1431
 5365TIP3    H137658   3.895   1.109   7.338  0.1403  0.6980 -0.3452
 5365TIP3    H237659   3.765   1.055   7.281  0.4606 -1.0170  0.4948
 5366TIP3   OH237660   5.530   3.704   0.685  0.7496  0.1456 -0.2941
 5366TIP3    H137661   5.563   3.778   0.737 -1.0203  1.0122 -0.3261
 5366TIP3    H237662   5.500   3.641   0.751  1.0314  0.0407 -0.2659
 5367TIP3   OH237663   0.909   3.908   0.992 -0.2386  0.2323 -0.4096
 5367TIP3    H137664   0.836   3.961   1.023 -0.1494 -0.3425  0.8489
 5367TIP3    H237665   0.890   3.819   1.023  0.6537 -0.0636 -0.6606
 5368TIP3   OH237666   4.543   2.372   6.831  0.1641  0.6188  0.3603
 5368TIP3    H137667   4.561   2.357   6.924  1.2510 -2.0423 -0.2096
 5368TIP3    H237668   4.617   2.425   6.800  0.5927  0.2028  0.6745
 5369TIP3   OH237669   1.082   1.755   0.151 -0.1248 -0.2829 -0.3585
 5369TIP3    H137670   1.117   1.703   0.078  0.5280  1.8587 -1.6491
 5369TIP3    H237671   1.145   1.826   0.162 -0.4290 -0.3252  2.0810
 5370TIP3   OH237672   4.003   5.954   1.602  0.2884 -0.2162 -0.2450
 5370TIP3    H137673   3.955   5.995   1.674  0.5750  0.4798 -0.4470
 5370TIP3    H237674   3.992   5.860   1.617 -0.4525 -0.0706  0.1697
 5371TIP3   OH237675   3.126   2.066   5.935 -0.1112  0.4526 -0.3525
 5371TIP3    H137676   3.199   2.016   5.899  1.7259  2.0942  0.8750
 5371TIP3    H237677   3.129   2.048   6.029 -2.2230 -0.5195 -0.4059
 5372TIP3   OH237678   5.559   4.898   0.359  0.3863  0.0698  0.3139
 5372TIP3    H137679   5.509   4.896   0.440  0.4150 -2.3302  0.3311
 5372TIP3    H237680   5.647   4.926   0.385  0.3775 -0.6069  1.1123
 5373TIP3   OH237681   6.293   5.624   0.849  0.3873  0.1600  0.3013
 5373TIP3    H137682   6.374   5.578   0.829  0.7756  1.1619 -0.5013
 5373TIP3    H237683   6.236   5.608   0.774  0.2662  0.3935  0.3398
 5374TIP3   OH237684   0.714   6.624   6.971 -0.4004 -0.2958  0.4185
 5374TIP3    H137685   0.734   6.553   7.031  2.7595  0.4349  0.3860
 5374TIP3    H237686   0.651   6.587   6.909 -1.1978 -2.0595  2.2039
 5375TIP3   OH237687   3.517   4.399   6.924 -0.4669 -0.0698 -0.5259
 5375TIP3    H137688   3.604   4.381   6.889 -0.0782  0.9009 -0.0931
 5375TIP3    H237689   3.533   4.444   7.007 -1.3377  2.5716 -1.6785
 5376TIP3   OH237690   3.518   0.701   6.910  0.4619 -0.7875  0.1317
 5376TIP3    H137691   3.471   0.766   6.857  0.3925 -0.3476  0.7260
 5376TIP3    H237692   3.471   0.700   6.993  0.1569 -1.9682 -0.0360
 5377TIP3   OH237693   6.957   6.454   7.005  0.2987  0.2989 -0.0759
 5377TIP3    H137694   7.022   6.524   7.013  1.1575 -0.3936 -0.6932
 5377TIP3    H237695   6.971   6.419   6.917  0.1855 -0.9309  0.3792
 5378TIP3   OH237696   0.317   6.288   7.900  0.1824 -0.8806  0.3009
 5378TIP3    H137697   0.339   6.316   7.989  0.1987  0.6946 -0.1708
 5378TIP3    H237698   0.247   6.348   7.873  1.1896 -0.3510 -1.2750
 5379TIP3   OH237699   5.830   2.364   7.536  0.2645 -0.8105  0.1413
 5379TIP3    H137700   5.782   2.364   7.619 -0.9476  0.2358 -0.5163
 5379TIP3    H237701   5.795   2.288   7.489  1.1523 -1.5671  0.6741
 5380TIP3   OH237702   3.375   1.148   0.177 -0.3894  0.5183  0.1950
 5380TIP3    H137703   3.325   1.100   0.243  0.6450  0.5182  1.0045
 5380TIP3    H237704   3.417   1.080   0.125 -0.2426  0.5295  0.2990
 5381TIP3   OH237705   3.944   4.357   1.556  0.2637  0.5267 -0.1737
 5381TIP3    H137706   4.000   4.413   1.611 -0.7562  0.9491  0.4654
 5381TIP3    H237707   3.919   4.285   1.614 -3.3025  2.4956  1.0485
 5382TIP3   OH237708   3.515   4.152   7.673 -0.4716  0.0027 -0.2986
 5382TIP3    H137709   3.598   4.141   7.718 -0.3073  2.0304 -0.0103
 5382TIP3    H237710   3.448   4.124   7.736 -0.1768  1.6425  0.7866
 5383TIP3   OH237711   3.315   3.179   6.671  0.3790  0.3664  0.3508
 5383TIP3    H137712   3.308   3.088   6.699  1.1117  0.3849  0.6067
 5383TIP3    H237713   3.306   3.230   6.752  2.2136  0.4299  0.5621
 5384TIP3   OH237714   6.124   5.414   7.256 -0.3735 -0.2611 -0.3954
 5384TIP3    H137715   6.148   5.507   7.256  0.5130 -0.4674  0.7407
 5384TIP3    H237716   6.062   5.405   7.184  1.0866  0.8174 -1.8475
 5385TIP3   OH237717   5.090   6.597   0.876  0.6107 -0.1530  0.1224
 5385TIP3    H137718   5.127   6.546   0.803 -0.0656  0.0362 -0.3615
 5385TIP3    H237719   5.103   6.541   0.952 -0.6463 -1.3452 -0.4888
 5386TIP3   OH237720   1.941   3.329   7.524 -0.4421 -0.5298 -0.0266
 5386TIP3    H137721   1.936   3.350   7.617  1.5720 -0.0321  0.0108
 5386TIP3    H237722   1.882   3.392   7.482 -1.0862 -0.5254  0.8666
 5387TIP3   OH237723   2.537   4.398   7.801  0.2111 -0.1806 -0.3718
 5387TIP3    H137724   2.577   4.465   7.745  2.8008  0.1595  1.7051
 5387TIP3    H237725   2.479   4.447   7.859 -3.0461 -0.6045 -2.9332
 5388TIP3   OH237726   2.326   0.961   1.451  0.4266 -0.4710 -0.3059
 5388TIP3    H137727   2.419   0.986   1.448  0.4340 -0.0658  1.7948
 5388TIP3    H237728   2.327   0.867   1.470  0.3843 -0.5974 -0.8964
 5389TIP3   OH237729   2.741   5.880   0.772  0.0065 -0.8870  0.3246
 5389TIP3    H137730   2.784   5.936   0.708 -0.7318 -0.2182  0.3929
 5389TIP3    H237731   2.812   5.831   0.814  0.4003 -2.5019 -2.0377
 5390TIP3   OH237732   5.380   5.795   0.068 -0.2569  0.2884  0.4512
 5390TIP3    H137733   5.413   5.842  -0.009 -0.2141  0.7713  0.7626
 5390TIP3    H237734   5.319   5.730   0.032 -2.1427  2.1199  0.1507
 5391TIP3   OH237735   5.359   0.780   1.065  0.1555 -0.3992  0.4730
 5391TIP3    H137736   5.435   0.828   1.097  0.4706 -1.7236  1.8075
 5391TIP3    H237737   5.362   0.793   0.970 -0.1367  2.6463  0.7688
 5392TIP3   OH237738   5.888   4.416   1.744  0.1435  0.1369  0.7047
 5392TIP3    H137739   5.943   4.420   1.823 -0.2937 -0.8932  1.0816
 5392TIP3    H237740   5.815   4.474   1.764  1.0546  1.5145  0.2022
 5393TIP3   OH237741   4.183   3.806   1.600 -0.1108  0.2472  0.3398
 5393TIP3    H137742   4.105   3.853   1.568 -1.6365 -2.2534  0.1145
 5393TIP3    H237743   4.158   3.773   1.686 -0.0573 -2.1424 -0.4911
 5394TIP3   OH237744   0.560   3.589   6.984 -0.4035 -0.4630 -0.6112
 5394TIP3    H137745   0.556   3.560   6.893 -0.0872 -0.6724 -0.5582
 5394TIP3    H237746   0.469   3.583   7.015 -0.6439  0.3015 -1.1219
 5395TIP3   OH237747   4.737   1.099   7.576  0.0137 -0.1941  0.1361
 5395TIP3    H137748   4.743   1.073   7.668 -0.4367  0.3889  0.3405
 5395TIP3    H237749   4.684   1.031   7.536  2.9075 -2.2830 -0.4581
 5396TIP3   OH237750   1.011   6.715   7.118 -0.3413  0.0427  0.1579
 5396TIP3    H137751   1.063   6.653   7.067  0.5151  1.2804 -0.5163
 5396TIP3    H237752   0.920   6.699   7.090  0.2218  1.9650 -3.3260
 5397TIP3   OH237753   2.995   0.105   7.509  0.5493 -0.3617  0.4681
 5397TIP3    H137754   3.002   0.200   7.507 -1.0816 -0.2198 -0.2259
 5397TIP3    H237755   2.901   0.088   7.511  0.8072 -1.9638  0.2435
 5398TIP3   OH237756   6.138   6.547   6.925 -0.3317 -0.3397 -0.1647
 5398TIP3    H137757   6.098   6.532   7.011 -1.4568  1.0013 -0.4284
 5398TIP3    H237758   6.067   6.531   6.863  0.4617 -1.2452 -0.8542
 5399TIP3   OH237759   1.318   2.941   6.996  0.1766  0.1359 -0.8333
 5399TIP3    H137760   1.260   2.988   6.936  0.3535  0.3496 -0.8378
 5399TIP3    H237761   1.321   2.996   7.074 -1.2063 -0.8438 -0.0522
 5400TIP3   OH237762   6.012   6.987   8.229 -0.3280  0.0913 -0.7331
 5400TIP3    H137763   6.104   6.964   8.232 -0.7320 -1.6626 -0.8185
 5400TIP3    H237764   5.983   6.979   8.320 -0.4444  0.4922 -0.7311
 5401TIP3   OH237765   0.478   1.377   6.984 -0.5244 -0.3178  0.2923
 5401TIP3    H137766   0.422   1.452   6.965  2.7426  2.2329 -0.1391
 5401TIP3    H237767   0.492   1.335   6.899  0.2447  0.5986 -0.0422
 5402TIP3   OH237768   2.140   1.323   7.895 -0.5605 -0.3857  0.2442
 5402TIP3    H137769   2.059   1.307   7.943 -0.4224 -2.2031 -0.0810
 5402TIP3    H237770   2.152   1.245   7.841  0.8569  0.3175 -0.5116
 5403TIP3   OH237771   1.298   4.239   7.755  0.2329  0.0732  0.2876
 5403TIP3    H137772   1.269   4.172   7.817  0.2929 -0.6242 -0.4227
 5403TIP3    H237773   1.359   4.293   7.805 -2.3857  1.7468  1.9184
 5404TIP3   OH237774   1.676   4.726   0.064 -0.0474 -0.2261 -0.0140
 5404TIP3    H137775   1.610   4.657   0.067  0.3899 -0.6444  3.1966
 5404TIP3    H237776   1.628   4.802   0.030 -1.9351 -0.7996  1.1796
 5405TIP3   OH237777   4.460   6.813   7.713 -0.1427  0.8628 -0.5623
 5405TIP3    H137778   4.490   6.731   7.753 -3.2633 -0.1283  0.0725
 5405TIP3    H237779   4.440   6.869   7.788 -2.2732  0.4514 -0.7529
 5406TIP3   OH237780   0.758   0.085   0.180 -0.7982 -0.3816  0.2569
 5406TIP3    H137781   0.679   0.095   0.127  0.0079  1.1249 -0.7351
 5406TIP3    H237782   0.824   0.137   0.134  1.0213 -2.2643  0.5715
 5407TIP3   OH237783   4.738   2.807   7.652 -0.1328  0.0538 -0.0836
 5407TIP3    H137784   4.725   2.748   7.726 -0.4767 -2.8998 -2.3300
 5407TIP3    H237785   4.791   2.879   7.688  0.5219 -1.7086  2.7858
 5408TIP3   OH237786   4.755   5.001   8.026 -0.0265  0.5300  0.3608
 5408TIP3    H137787   4.817   5.016   8.098 -1.1019 -1.4130  1.7650
 5408TIP3    H237788   4.690   4.941   8.062 -1.3600  0.5494 -1.8475
 5409TIP3   OH237789   0.404   3.904   1.867  0.7925  0.4760  0.4124
 5409TIP3    H137790   0.455   3.857   1.801  1.3038  1.0153  0.4089
 5409TIP3    H237791   0.356   3.971   1.817 -1.5502 -1.2999  0.1282
 5410TIP3   OH237792   1.837   5.283   1.317  0.3114 -0.2748 -0.5263
 5410TIP3    H137793   1.919   5.264   1.363  0.3478  0.8312 -0.1044
 5410TIP3    H237794   1.795   5.350   1.371  0.0732  0.6151 -1.7780
 5411TIP3   OH237795   1.659   4.368   1.375  0.2733  0.2537 -0.8698
 5411TIP3    H137796   1.727   4.435   1.378  1.5959 -1.0492  0.0357
 5411TIP3    H237797   1.687   4.303   1.440 -2.5638  0.2836  0.5323
 5412TIP3   OH237798   6.980   3.484   6.906  0.4148  0.2190  0.1817
 5412TIP3    H137799   6.936   3.409   6.945  1.9525 -0.4148  0.7757
 5412TIP3    H237800   7.046   3.510   6.971  1.5529  0.5309 -1.0399
 5413TIP3   OH237801   6.379   6.482   6.794 -0.0359  0.1075  0.2582
 5413TIP3    H137802   6.451   6.498   6.854 -0.2645  4.0753 -0.2243
 5413TIP3    H237803   6.301   6.485   6.849 -0.0613 -0.0587  0.2325
 5414TIP3   OH237804   1.949   0.357   1.305  0.2190  0.1036  0.1184
 5414TIP3    H137805   1.980   0.435   1.351 -0.3536  0.6235 -0.3609
 5414TIP3    H237806   2.028   0.303   1.294  0.9003  1.2010 -0.6922
 5415TIP3   OH237807   5.572   3.911   1.794  0.0611 -0.7439  0.1007
 5415TIP3    H137808   5.500   3.974   1.780  0.9760  0.8761  2.0859
 5415TIP3    H237809   5.651   3.963   1.781  0.8601 -1.1263  2.8150
 5416TIP3   OH237810   1.958   5.521   6.962 -0.2119  0.6703  0.3520
 5416TIP3    H137811   2.015   5.502   6.887  0.1693 -0.7577  0.9712
 5416TIP3    H237812   2.014   5.567   7.024 -0.1561  0.6146  0.3420
 5417TIP3   OH237813   5.963   6.231   0.320 -0.3278  0.0334  0.6325
 5417TIP3    H137814   6.056   6.216   0.308  0.1640  3.0695 -0.0623
 5417TIP3    H237815   5.921   6.178   0.252  1.0818  0.5608 -0.7085
 5418TIP3   OH237816   4.866   6.321   2.263  0.3311  0.2770 -0.1686
 5418TIP3    H137817   4.874   6.232   2.230  1.5869  0.4989 -0.5155
 5418TIP3    H237818   4.779   6.350   2.236 -1.6301 -2.0558  3.0124
 5419TIP3   OH237819   1.968   4.053   8.027 -0.4253 -0.2204 -0.5445
 5419TIP3    H137820   2.049   4.054   8.078  0.6833  3.5315 -2.0767
 5419TIP3    H237821   1.906   4.106   8.079 -1.3940 -1.5905 -0.2346
 5420TIP3   OH237822   1.424   2.586   6.288  0.3067  0.1417 -0.6905
 5420TIP3    H137823   1.359   2.517   6.289  1.2015 -0.7259 -0.2701
 5420TIP3    H237824   1.438   2.608   6.380  0.1130  0.8087 -0.8126
 5421TIP3   OH237825   4.051   3.619   1.049  0.1813  0.5211 -0.0789
 5421TIP3    H137826   4.039   3.535   1.004  2.4798  0.5357 -0.8511
 5421TIP3    H237827   4.031   3.601   1.141 -0.4657 -0.5678 -0.4165
 5422TIP3   OH237828   0.327   5.207   6.998  0.5865 -0.3263 -0.2298
 5422TIP3    H137829   0.310   5.297   7.027 -1.2959 -1.0189  0.9972
 5422TIP3    H237830   0.298   5.206   6.907  0.9195  0.3826 -0.3520
 5423TIP3   OH237831   5.328   2.642   0.992  0.0332  0.4896  0.3202
 5423TIP3    H137832   5.330   2.718   1.051 -0.7605  0.3489  0.5380
 5423TIP3    H237833   5.420   2.626   0.971  0.3212  0.6154  1.4268
 5424TIP3   OH237834   2.325   5.643   0.163 -0.2831  0.0743  0.0063
 5424TIP3    H137835   2.407   5.685   0.137 -0.1846  0.1264  0.4079
 5424TIP3    H237836   2.312   5.574   0.098 -0.0847  0.2713 -0.2437
 5425TIP3   OH237837   1.548   3.687   7.060 -0.0643  0.1432  0.2056
 5425TIP3    H137838   1.565   3.626   7.132 -1.9096 -1.7737 -0.8765
 5425TIP3    H237839   1.633   3.725   7.040  1.6423 -3.4660 -0.2366
 5426TIP3   OH237840   5.960   2.883   7.600 -0.0794 -0.4530 -0.0078
 5426TIP3    H137841   5.928   2.797   7.575 -0.1326 -0.4203 -0.0524
 5426TIP3    H237842   6.053   2.881   7.580  0.0723 -0.7645  0.7083
 5427TIP3   OH237843   3.727   3.387   0.291  0.1898  0.9233  0.2313
 5427TIP3    H137844   3.662   3.394   0.220  0.8922  0.5878 -0.4595
 5427TIP3    H237845   3.704   3.458   0.351 -2.5629 -0.8596  1.4987
 5428TIP3   OH237846   0.359   2.560   6.351  0.0266  0.4296 -0.1911
 5428TIP3    H137847   0.299   2.587   6.281  1.0317 -0.5218 -1.4757
 5428TIP3    H237848   0.398   2.642   6.381 -0.1175  0.8218 -1.0379
 5429TIP3   OH237849   3.248   4.516   6.900  0.6164  0.2001 -0.2461
 5429TIP3    H137850   3.308   4.441   6.902  0.8098  0.3202 -1.0025
 5429TIP3    H237851   3.247   4.549   6.989 -1.7249 -2.4634  0.8524
 5430TIP3   OH237852   6.297   3.597   5.739  0.5296 -0.0837 -0.2905
 5430TIP3    H137853   6.238   3.589   5.814  1.1440  0.8769  0.3308
 5430TIP3    H237854   6.299   3.510   5.699  0.5241 -0.7284  1.0703
 5431TIP3   OH237855   3.676   6.888   0.106  0.0026 -0.7014 -0.2559
 5431TIP3    H137856   3.652   6.960   0.047  2.0663  1.8345  1.7611
 5431TIP3    H237857   3.622   6.903   0.184 -0.0713 -1.8265 -0.0742
 5432TIP3   OH237858   5.366   1.342   2.002 -0.3091 -0.2328  0.7071
 5432TIP3    H137859   5.457   1.318   1.988 -0.2384  0.1556  0.4783
 5432TIP3    H237860   5.368   1.399   2.079 -0.1957  0.7408  0.0045
 5433TIP3   OH237861   1.887   6.401   6.728  0.4945  0.2442  0.0370
 5433TIP3    H137862   1.875   6.339   6.800 -0.4327  0.6517  0.2476
 5433TIP3    H237863   1.982   6.406   6.716  0.7284  0.9970  1.9530
 5434TIP3   OH237864   6.284   0.610   6.384  0.3126 -0.3897 -0.0309
 5434TIP3    H137865   6.191   0.633   6.392  0.4172 -0.0471  0.2347
 5434TIP3    H237866   6.294   0.584   6.292  0.3375  1.3990 -0.5860
 5435TIP3   OH237867   2.740   2.470   1.517  0.1526 -0.5808 -0.2000
 5435TIP3    H137868   2.731   2.397   1.578  0.7380  0.5118  1.2437
 5435TIP3    H237869   2.755   2.429   1.432 -1.6111 -2.1635  0.1836
 5436TIP3   OH237870   3.054   6.672   0.313 -0.4608  0.9089  0.9226
 5436TIP3    H137871   3.079   6.765   0.308  2.7776  0.0985 -1.6286
 5436TIP3    H237872   3.098   6.640   0.392 -0.3719  1.2283  1.0052
 5437TIP3   OH237873   2.705   5.311   1.833  0.2452  0.3742  0.6201
 5437TIP3    H137874   2.758   5.247   1.881 -0.0692 -0.4849 -0.1538
 5437TIP3    H237875   2.645   5.346   1.899  0.7688  0.2611  1.1686
 5438TIP3   OH237876   0.648   0.279   7.411 -0.6052 -0.0605 -0.2083
 5438TIP3    H137877   0.664   0.290   7.505 -0.5435  2.1404 -0.4299
 5438TIP3    H237878   0.591   0.202   7.406 -2.5197  1.0950  1.8703
 5439TIP3   OH237879   3.949   3.760   0.337 -0.2526 -0.5342  0.4377
 5439TIP3    H137880   4.009   3.798   0.401 -0.5461 -1.3815  1.2396
 5439TIP3    H237881   3.964   3.809   0.256  0.2737  0.4083  1.1051
 5440TIP3   OH237882   1.988   4.072   0.048 -0.5309 -0.3969 -1.0791
 5440TIP3    H137883   1.945   4.044   0.129 -0.8848  0.3035 -1.0226
 5440TIP3    H237884   2.057   4.007   0.034  0.4095  0.2035  0.4952
 5441TIP3   OH237885   2.184   3.721   7.596  0.3405 -0.8095 -0.2945
 5441TIP3    H137886   2.233   3.791   7.554  3.4943 -2.1880  0.7830
 5441TIP3    H237887   2.109   3.765   7.637  0.8150  1.4819 -1.7215
 5442TIP3   OH237888   7.015   4.058   8.001  0.2103 -0.1864  0.9350
 5442TIP3    H137889   7.093   4.044   8.055  1.6132 -0.7875 -1.1274
 5442TIP3    H237890   6.976   3.971   7.993  1.8875 -0.8014 -1.6314
 5443TIP3   OH237891   1.740   3.923   0.971 -0.5453 -0.0060 -0.0788
 5443TIP3    H137892   1.831   3.895   0.958 -0.5120 -0.2153  0.5648
 5443TIP3    H237893   1.714   3.960   0.887  0.9088  2.2580  0.3844
 5444TIP3   OH237894   2.562   2.172   8.291 -0.0965  0.4900 -0.2126
 5444TIP3    H137895   2.576   2.212   8.377 -0.2640  1.8122 -0.7841
 5444TIP3    H237896   2.596   2.236   8.229 -2.0609  0.5819 -1.2631
 5445TIP3   OH237897   2.573   4.857   0.991 -0.1273  0.2303 -0.0671
 5445TIP3    H137898   2.522   4.782   1.022 -1.2020  0.5174 -1.0785
 5445TIP3    H237899   2.593   4.836   0.900 -0.7225  1.3102 -0.4600
 5446TIP3   OH237900   3.048   4.575   0.483  0.5057 -0.0047 -0.3179
 5446TIP3    H137901   3.104   4.642   0.444  0.0246  0.3583 -0.3959
 5446TIP3    H237902   3.008   4.530   0.408  0.8516 -0.4011 -0.2664
 5447TIP3   OH237903   4.826   4.630   8.161 -0.1101  0.2676  0.2745
 5447TIP3    H137904   4.752   4.665   8.112  0.6167  0.7203 -0.5209
 5447TIP3    H237905   4.903   4.661   8.113  0.5798 -1.8282 -0.0530
 5448TIP3   OH237906   5.252   5.003   1.045 -0.1318 -0.1601 -0.7894
 5448TIP3    H137907   5.282   5.090   1.020 -1.1857  0.1538 -0.9919
 5448TIP3    H237908   5.332   4.957   1.073  0.7596  0.1807 -2.6564
 5449TIP3   OH237909   6.475   6.523   0.906  0.5720  0.3643  0.3096
 5449TIP3    H137910   6.475   6.458   0.976 -0.5552 -0.4887 -0.4530
 5449TIP3    H237911   6.503   6.475   0.828 -2.4601  0.1680 -0.7564
 5450TIP3   OH237912   2.496   1.466   0.031  0.2889 -0.0401 -0.7482
 5450TIP3    H137913   2.566   1.525   0.003 -0.3808 -0.1443 -2.8424
 5450TIP3    H237914   2.455   1.438  -0.051 -2.4737  0.3308  0.4030
 5451TIP3   OH237915   4.698   4.871   7.403  0.2234 -0.3792  0.0062
 5451TIP3    H137916   4.672   4.889   7.494 -1.3665  0.2276 -0.5383
 5451TIP3    H237917   4.765   4.803   7.411  1.1720  0.6743  1.7066
 5452TIP3   OH237918   3.289   5.308   7.353  0.0824 -0.0652 -0.2858
 5452TIP3    H137919   3.312   5.221   7.387  0.6218  0.7646  1.6007
 5452TIP3    H237920   3.372   5.345   7.323  0.1058  0.3497  0.2785
 5453TIP3   OH237921   4.965   2.465   1.770 -0.3719  0.1060 -0.4773
 5453TIP3    H137922   4.880   2.423   1.755 -0.6560  1.1885 -2.2428
 5453TIP3    H237923   4.961   2.496   1.861 -1.2314 -1.1964 -0.0400
 5454TIP3   OH237924   4.164   3.159   7.472  0.2363  0.2026  0.1558
 5454TIP3    H137925   4.093   3.097   7.457 -0.9994  2.0127 -2.0943
 5454TIP3    H237926   4.120   3.244   7.481  2.0189  1.1273  0.6937
 5455TIP3   OH237927   6.096   0.686   1.003 -0.0831 -0.0214  0.0062
 5455TIP3    H137928   6.121   0.631   1.077  1.3990 -1.6242 -1.6067
 5455TIP3    H237929   6.078   0.625   0.932  1.1166  1.5104 -1.7140
 5456TIP3   OH237930   2.145   4.839   6.992  0.1919  0.3990 -0.0169
 5456TIP3    H137931   2.114   4.854   6.902 -0.4855 -0.1480  0.1159
 5456TIP3    H237932   2.240   4.845   6.986  0.0887  2.1575 -0.4424
 5457TIP3   OH237933   3.352   3.899   1.044  0.4610  0.1563  0.1011
 5457TIP3    H137934   3.348   3.995   1.047  0.2077  0.1417  0.2645
 5457TIP3    H237935   3.440   3.880   1.011 -0.5863  0.4707 -3.2066
 5458TIP3   OH237936   1.579   6.064   2.310 -0.0081  0.0395  0.0167
 5458TIP3    H137937   1.651   6.124   2.294  0.3943 -0.4004  0.1527
 5458TIP3    H237938   1.508   6.120   2.341  0.1896  0.5063 -0.3608
 5459TIP3   OH237939   3.484   4.444   2.455 -0.5564 -0.1464 -0.2211
 5459TIP3    H137940   3.390   4.430   2.446 -0.7026  0.7301 -0.1521
 5459TIP3    H237941   3.492   4.536   2.480  0.2124 -0.7394  1.8755
 5460TIP3   OH237942   5.479   4.088   0.647 -0.0191 -0.2006 -0.2314
 5460TIP3    H137943   5.524   4.096   0.563  1.3957 -1.3118  0.3740
 5460TIP3    H237944   5.519   4.011   0.688 -2.1273 -0.9259  0.5947
 5461TIP3   OH237945   5.546   4.088   0.283 -0.2521 -0.1237 -0.2663
 5461TIP3    H137946   5.546   3.995   0.259 -0.3223 -0.3368  0.5189
 5461TIP3    H237947   5.639   4.113   0.278  0.4723 -1.3728  3.5554
 5462TIP3   OH237948   3.484   3.444   0.120  0.4419  0.2238 -0.1041
 5462TIP3    H137949   3.410   3.493   0.157  0.5108 -1.7310  2.9507
 5462TIP3    H237950   3.443   3.371   0.073  0.3556 -1.1738  2.0571
 5463TIP3   OH237951   3.500   5.689   0.986  0.7961  0.0304 -0.2349
 5463TIP3    H137952   3.543   5.610   0.954 -0.8613 -0.7562 -0.6778
 5463TIP3    H237953   3.566   5.758   0.980  1.4495 -0.7257 -2.5224
 5464TIP3   OH237954   2.137   0.832   7.918 -0.3161  0.2436 -0.4925
 5464TIP3    H137955   2.187   0.753   7.900 -1.5805 -1.1104  1.5082
 5464TIP3    H237956   2.196   0.887   7.970  0.5032  0.6076 -1.7436
 5465TIP3   OH237957   4.387   1.187   7.002 -0.2310 -0.0966  0.5748
 5465TIP3    H137958   4.365   1.271   6.963 -0.0805 -1.7896 -3.7436
 5465TIP3    H237959   4.304   1.153   7.035 -0.9767  0.3382 -0.7881
 5466TIP3   OH237960   6.392   1.426   7.114  0.3186  0.5884  0.1672
 5466TIP3    H137961   6.426   1.365   7.049  1.4884  2.0330 -0.6186
 5466TIP3    H237962   6.333   1.483   7.065 -2.1637 -0.8893  1.2109
 5467TIP3   OH237963   6.804   3.107   1.387  0.0715 -0.0010  0.2874
 5467TIP3    H137964   6.812   3.182   1.328  0.4756 -0.4866 -0.2990
 5467TIP3    H237965   6.774   3.144   1.470  0.2951  0.8053  0.0175
 5468TIP3   OH237966   5.363   5.690   7.026 -0.5576  0.2641  0.5748
 5468TIP3    H137967   5.273   5.723   7.023  0.0713  2.2944  2.0944
 5468TIP3    H237968   5.397   5.705   6.938 -1.6454 -0.4251  0.0111
 5469TIP3   OH237969   6.360   3.734   7.192  0.0444  0.2839  0.0523
 5469TIP3    H137970   6.395   3.823   7.190 -1.0254  0.7744  1.3132
 5469TIP3    H237971   6.432   3.681   7.224  1.3520  0.3079 -2.5992
 5470TIP3   OH237972   2.101   2.679   6.259  0.8617 -0.5605 -0.0818
 5470TIP3    H137973   2.188   2.674   6.298  0.3292  1.4380  1.4832
 5470TIP3    H237974   2.101   2.760   6.209  0.7520 -1.9338 -2.5073
 5471TIP3   OH237975   5.444   0.509   7.218  0.4483  0.2215  0.0742
 5471TIP3    H137976   5.459   0.485   7.309  0.1623 -2.2232 -0.4510
 5471TIP3    H237977   5.349   0.503   7.207  0.3365  1.7640 -0.1197
 5472TIP3   OH237978   3.214   3.052   2.020  0.2541 -0.0493  0.7351
 5472TIP3    H137979   3.253   3.077   2.104  0.0367 -0.2001  0.8836
 5472TIP3    H237980   3.230   3.127   1.963  0.9561 -0.1965  0.7250
 5473TIP3   OH237981   6.990   4.862   8.107 -0.1186  0.4673 -0.2490
 5473TIP3    H137982   6.963   4.776   8.140  0.7018  0.4120  0.3006
 5473TIP3    H237983   6.980   4.921   8.181  1.2695  0.4357 -0.0097
 5474TIP3   OH237984   1.253   4.877   2.314 -0.0264 -0.2557 -0.2083
 5474TIP3    H137985   1.290   4.812   2.254  0.0947  1.0135 -1.5699
 5474TIP3    H237986   1.328   4.905   2.366 -0.3555 -2.2458  1.4756
 5475TIP3   OH237987   3.722   6.693   8.278 -0.2795  0.0502  0.1399
 5475TIP3    H137988   3.739   6.610   8.323 -3.1203 -0.5977  0.1443
 5475TIP3    H237989   3.699   6.754   8.348 -0.7451  0.1377 -0.0878
 5476TIP3   OH237990   6.710   3.826   8.200 -0.3554 -0.0791 -0.0880
 5476TIP3    H137991   6.788   3.824   8.256  0.0993  1.0227 -0.6484
 5476TIP3    H237992   6.661   3.747   8.225 -0.9891  1.1343  3.0066
 5477TIP3   OH237993   4.354   5.038   8.249 -0.5474  0.3611 -0.3439
 5477TIP3    H137994   4.264   5.022   8.220  0.1723 -0.8937 -2.0673
 5477TIP3    H237995   4.379   4.958   8.295 -0.8810  1.4312  1.8163
 5478TIP3   OH237996   1.047   3.534   7.983  0.6239  0.1222  0.1728
 5478TIP3    H137997   1.028   3.514   8.075 -0.8322  0.8451  0.0499
 5478TIP3    H237998   1.069   3.449   7.945  0.2755 -0.3402  0.9672
 5479TIP3   OH237999   4.029   0.770   1.628 -0.2178  0.0464  0.0610
 5479TIP3    H138000   4.019   0.790   1.721 -0.2475 -1.1811  0.3324
 5479TIP3    H238001   3.942   0.783   1.591 -0.4699 -0.5370  0.4289
 5480TIP3   OH238002   3.243   4.074   0.290 -0.4446  0.2049  0.0949
 5480TIP3    H138003   3.286   4.023   0.357  0.2594  0.0849 -0.4359
 5480TIP3    H238004   3.230   4.160   0.330  1.9122  0.8190 -0.2917
 5481TIP3   OH238005   0.428   0.943   0.011 -0.2080 -0.4025  0.1342
 5481TIP3    H138006   0.459   0.961   0.100 -0.6341  1.4474 -0.0489
 5481TIP3    H238007   0.462   1.015  -0.042  0.4947 -1.7595 -1.3455
 5482TIP3   OH238008   0.273   4.682   6.280 -0.2236 -0.2198 -0.4650
 5482TIP3    H138009   0.236   4.606   6.235 -1.8539  0.4951 -0.3867
 5482TIP3    H238010   0.358   4.696   6.237 -1.1320 -0.3975 -2.4149
 5483TIP3   OH238011   0.192   3.032   8.217 -0.1473 -0.5333 -0.2038
 5483TIP3    H138012   0.096   3.033   8.218 -0.1730 -1.3795 -0.3874
 5483TIP3    H238013   0.215   2.943   8.245  0.5842 -0.3188 -0.1054
 5484TIP3   OH238014   2.222   3.514   1.330 -0.1263  0.3487  0.0522
 5484TIP3    H138015   2.279   3.438   1.337  0.5486  0.8527  0.1609
 5484TIP3    H238016   2.224   3.554   1.417 -0.2960  0.6090 -0.0612
 5485TIP3   OH238017   3.477   1.252   7.425 -0.1821  0.1751 -0.2737
 5485TIP3    H138018   3.569   1.263   7.449 -0.7224  0.0129  2.1621
 5485TIP3    H238019   3.446   1.340   7.405  0.0986  0.4987  0.6561
 5486TIP3   OH238020   1.859   4.247   7.306 -0.3640  0.4484  0.5454
 5486TIP3    H138021   1.824   4.320   7.255  1.0041 -0.2524 -1.5145
 5486TIP3    H238022   1.899   4.289   7.382  0.2886  1.8698 -0.5317
 5487TIP3   OH238023   2.674   5.599   0.318 -0.3071 -0.0898  0.2796
 5487TIP3    H138024   2.717   5.675   0.358 -1.3733 -0.4061  2.1161
 5487TIP3    H238025   2.593   5.588   0.367 -0.3194 -2.2497 -0.1163
 5488TIP3   OH238026   4.577   3.862   7.192  0.0446 -0.0084 -0.5599
 5488TIP3    H138027   4.508   3.847   7.127  0.5052  0.5805 -1.1923
 5488TIP3    H238028   4.643   3.795   7.172 -0.2422 -0.4501 -0.0735
 5489TIP3   OH238029   6.939   2.109   6.923  0.1872 -0.9618  0.0183
 5489TIP3    H138030   6.866   2.098   6.983  0.8734 -1.0835  0.8470
 5489TIP3    H238031   6.932   2.199   6.893 -0.6535 -1.1530 -0.3953
 5490TIP3   OH238032   3.359   3.943   0.517  0.8016  0.2472  0.1471
 5490TIP3    H138033   3.399   3.877   0.462  0.0262  0.5798 -0.8350
 5490TIP3    H238034   3.430   3.972   0.575  1.9535  0.7003 -1.4254
 5491TIP3   OH238035   1.878   5.723   7.365  0.1429 -0.4000 -0.3419
 5491TIP3    H138036   1.835   5.638   7.361  1.9556 -1.3427 -0.7481
 5491TIP3    H238037   1.969   5.703   7.385  0.1459  1.5988  2.2670
 5492TIP3   OH238038   0.836   6.840   6.848 -0.8308 -0.0768  0.1800
 5492TIP3    H138039   0.763   6.900   6.860 -0.8730 -0.5205  2.6541
 5492TIP3    H238040   0.816   6.766   6.905  1.0976 -0.6399  0.2055
 5493TIP3   OH238041   0.876   6.302   2.315 -0.1234  0.4589  0.0246
 5493TIP3    H138042   0.887   6.281   2.407 -0.6303 -1.5553 -0.3197
 5493TIP3    H238043   0.954   6.351   2.291  0.1913  0.6648  1.4222
 5494TIP3   OH238044   1.177   2.351   6.700 -0.8431  0.0880 -0.0752
 5494TIP3    H138045   1.263   2.315   6.678 -1.4264 -0.1767 -2.2494
 5494TIP3    H238046   1.169   2.339   6.794  1.7073  0.6298  0.2785
 5495TIP3   OH238047   0.655   0.228   6.975  0.2534 -0.0331 -0.2515
 5495TIP3    H138048   0.669   0.292   7.045  0.5397  0.4082 -0.7035
 5495TIP3    H238049   0.647   0.281   6.896 -1.3200 -0.4428 -0.3914
 5496TIP3   OH238050   2.959   1.223   0.909  0.2855  0.6064 -0.6473
 5496TIP3    H138051   2.940   1.315   0.928 -2.3537  0.1181 -0.4799
 5496TIP3    H238052   2.919   1.207   0.824 -1.2934 -0.8682  0.2939
 5497TIP3   OH238053   4.100   1.055   1.171  0.1042  0.3266 -0.6463
 5497TIP3    H138054   4.051   1.099   1.240  1.2387  0.2081  0.2792
 5497TIP3    H238055   4.188   1.092   1.177  0.7413 -1.1046 -0.7126
 5498TIP3   OH238056   6.569   1.373   0.687  0.2150 -0.8126  0.3941
 5498TIP3    H138057   6.486   1.420   0.691 -0.0930 -1.3287  0.1894
 5498TIP3    H238058   6.635   1.439   0.708 -0.1674 -0.1800 -0.3504
 5499TIP3   OH238059   1.779   2.746   8.182 -0.2250 -0.2607  0.6056
 5499TIP3    H138060   1.758   2.797   8.104  2.8698 -1.2539 -1.0434
 5499TIP3    H238061   1.862   2.782   8.213  2.6849 -4.4851 -1.2091
 5500TIP3   OH238062   6.525   2.444   7.625 -0.4301  0.8006  0.0962
 5500TIP3    H138063   6.530   2.367   7.682 -1.4874  0.9351  0.3909
 5500TIP3    H238064   6.482   2.412   7.546  0.3799  0.7806 -0.3417
 5501TIP3   OH238065   5.852   4.953   7.910  0.2322 -0.0624 -0.2804
 5501TIP3    H138066   5.856   5.047   7.889  0.1185 -0.1784 -0.8375
 5501TIP3    H238067   5.934   4.918   7.877  0.3180 -0.1447  0.0195
 5502TIP3   OH238068   2.572   0.056   0.712  0.4785  0.1485  0.2070
 5502TIP3    H138069   2.563  -0.037   0.691  1.2386 -0.0037  0.5152
 5502TIP3    H238070   2.646   0.085   0.659 -0.6412  0.9347 -0.9774
 5503TIP3   OH238071   7.017   1.034   0.645  0.2281  0.4037  0.4759
 5503TIP3    H138072   6.944   1.093   0.629  0.4438  0.3621 -0.7194
 5503TIP3    H238073   7.080   1.053   0.576  0.6681 -0.6392  0.5632
 5504TIP3   OH238074   5.000   5.282   1.206 -0.3587 -0.3217  0.1696
 5504TIP3    H138075   5.035   5.355   1.258  1.5655 -1.1869  0.1578
 5504TIP3    H238076   4.997   5.316   1.117  1.0391 -0.3902  0.0760
 5505TIP3   OH238077   2.441   4.368   0.435  0.0398  0.2972  0.1035
 5505TIP3    H138078   2.398   4.395   0.354 -0.3806  1.5298  0.7194
 5505TIP3    H238079   2.531   4.400   0.426  0.2915 -0.4903 -0.3075
 5506TIP3   OH238080   4.401   6.548   0.509  0.2928 -0.4939  0.3824
 5506TIP3    H138081   4.455   6.587   0.579  1.1934  0.3379 -0.7363
 5506TIP3    H238082   4.368   6.623   0.460 -2.3110 -0.9534  1.2646
 5507TIP3   OH238083   4.313   3.611   0.991 -0.3274  0.0789 -0.0111
 5507TIP3    H138084   4.223   3.609   1.023 -0.5522  2.1318 -0.4121
 5507TIP3    H238085   4.344   3.699   1.012  1.6705 -0.6521  0.2838
 5508TIP3   OH238086   5.344   5.868   6.077  0.0764 -0.3329 -0.3818
 5508TIP3    H138087   5.273   5.804   6.067 -2.5960  1.6367  3.3610
 5508TIP3    H238088   5.415   5.818   6.117 -0.4912 -1.6811 -0.9914
 5509TIP3   OH238089   2.567   4.215   1.121  0.0035 -0.3373  0.0855
 5509TIP3    H138090   2.592   4.303   1.092 -0.4401 -0.4219 -0.5921
 5509TIP3    H238091   2.572   4.218   1.216  0.8335  0.1676  0.0371
 5510TIP3   OH238092   3.577   5.255   0.732  0.2411 -0.3440  0.0775
 5510TIP3    H138093   3.632   5.293   0.664 -0.2008 -0.8801 -0.5991
 5510TIP3    H238094   3.487   5.275   0.704  0.0070 -1.7733 -0.2385
 5511TIP3   OH238095   4.911   0.940   7.099  0.1935 -0.4182  0.6894
 5511TIP3    H138096   4.915   0.920   7.006  0.5740  0.7118  0.4425
 5511TIP3    H238097   4.935   1.033   7.104  0.2390 -0.4847  1.9146
 5512TIP3   OH238098   5.431   0.457   2.271  0.3157 -0.1870  0.5999
 5512TIP3    H138099   5.384   0.465   2.188 -0.1112 -0.1679  0.8403
 5512TIP3    H238100   5.471   0.544   2.284 -1.6762  0.6475  1.6257
 5513TIP3   OH238101   4.662   0.778   1.259  0.3122 -0.2292  0.9877
 5513TIP3    H138102   4.589   0.765   1.319  0.2673  0.1458  1.0203
 5513TIP3    H238103   4.647   0.716   1.188  0.6246 -1.0106  1.5952
 5514TIP3   OH238104   1.786   6.506   1.757  0.7274 -0.7747  0.5173
 5514TIP3    H138105   1.697   6.495   1.723  1.3896 -0.1201 -1.5154
 5514TIP3    H238106   1.781   6.586   1.809  0.3540 -0.1290 -0.4816
 5515TIP3   OH238107   5.594   1.143   2.384 -0.2949 -0.2268  0.3039
 5515TIP3    H138108   5.688   1.145   2.372 -0.4698 -0.5166 -1.3443
 5515TIP3    H238109   5.574   1.223   2.434  0.6414  0.7804 -0.8837
 5516TIP3   OH238110   3.715   2.615   6.371  0.4120  0.1951  0.1403
 5516TIP3    H138111   3.698   2.529   6.333  1.1838 -0.4362  1.1648
 5516TIP3    H238112   3.764   2.662   6.303  0.4043 -0.3484 -0.2481
 5517TIP3   OH238113   1.898   4.690   6.815  0.2633 -0.0847 -0.0803
 5517TIP3    H138114   1.951   4.636   6.874  0.3890  1.8242  1.6555
 5517TIP3    H238115   1.962   4.750   6.775  0.1877 -1.3369 -2.2788
 5518TIP3   OH238116   2.023   6.271   0.930  0.2208  0.0482 -0.1124
 5518TIP3    H138117   1.932   6.249   0.952  0.6444 -1.4925  0.2645
 5518TIP3    H238118   2.063   6.294   1.013  0.6919 -1.4059  0.0999
 5519TIP3   OH238119   6.210   4.564   0.185 -0.2273 -0.1687  0.0117
 5519TIP3    H138120   6.196   4.650   0.224  4.3684  1.2665 -0.9713
 5519TIP3    H238121   6.262   4.517   0.250  1.1663 -0.4793 -1.2789
 5520TIP3   OH238122   0.604   4.446   8.220 -0.0174 -0.2758 -0.2406
 5520TIP3    H138123   0.611   4.388   8.144 -0.2962  0.3767 -0.7686
 5520TIP3    H238124   0.682   4.427   8.272  0.0056 -0.9711 -0.5155
 5521TIP3   OH238125   5.419   3.955   1.535  0.7172  0.2361 -0.5723
 5521TIP3    H138126   5.369   3.976   1.613  0.6062  1.5315 -0.9772
 5521TIP3    H238127   5.362   3.896   1.485 -0.1450  1.1838 -0.7235
 5522TIP3   OH238128   2.298   3.035   1.271 -0.3113  0.0339  0.3099
 5522TIP3    H138129   2.243   2.957   1.274 -0.2301 -0.0109  1.0159
 5522TIP3    H238130   2.385   3.002   1.249  0.0326 -0.2860  2.0017
 5523TIP3   OH238131   6.172   1.819   8.006  0.3078 -0.4426  0.3007
 5523TIP3    H138132   6.199   1.728   8.017  1.9204 -0.0232  0.0115
 5523TIP3    H238133   6.250   1.871   8.027 -1.1461  1.0000  2.6926
 5524TIP3   OH238134   4.037   6.538   8.294 -0.2441 -0.4812 -0.1538
 5524TIP3    H138135   3.974   6.468   8.307 -0.0946 -0.6502 -0.3396
 5524TIP3    H238136   4.119   6.505   8.332 -0.4254 -0.0096  0.6688
 5525TIP3   OH238137   2.200   3.898   8.369 -0.0319  0.1048  0.0886
 5525TIP3    H138138   2.195   3.939   8.283 -0.9762  0.9516  0.5201
 5525TIP3    H238139   2.273   3.943   8.412 -1.3223  1.7126  0.7072
 5526TIP3   OH238140   0.811   4.858   7.857  0.8286 -1.0597 -0.3237
 5526TIP3    H138141   0.907   4.858   7.866  0.8329 -1.7532 -0.3591
 5526TIP3    H238142   0.792   4.780   7.806  0.1845 -1.2898  0.2555
 5527TIP3   OH238143   4.653   3.322   7.979 -0.0226 -0.6367 -0.4709
 5527TIP3    H138144   4.584   3.257   7.969 -1.4842  0.8816 -0.6125
 5527TIP3    H238145   4.641   3.356   8.068 -0.5394  0.8025 -1.0633
 5528TIP3   OH238146   2.158   5.393   7.870  0.1365 -0.1614 -0.6031
 5528TIP3    H138147   2.136   5.481   7.840 -1.3860 -0.5150 -0.6281
 5528TIP3    H238148   2.092   5.373   7.936  3.2176  0.4668  2.9373
 5529TIP3   OH238149   4.515   2.073   7.385  0.2226 -0.7559  0.5792
 5529TIP3    H138150   4.520   1.997   7.443  2.6415  0.0096  1.4939
 5529TIP3    H238151   4.597   2.070   7.335 -0.0043  0.8116  0.0708
 5530TIP3   OH238152   6.793   3.902   6.361 -0.3923  0.4780  0.4432
 5530TIP3    H138153   6.842   3.833   6.317 -0.2288  0.9686 -0.1606
 5530TIP3    H238154   6.732   3.935   6.295 -0.6523  0.7306  0.8036
 5531TIP3   OH238155   3.233   5.109   0.057 -0.1867 -0.4472  0.5476
 5531TIP3    H138156   3.324   5.120   0.084 -0.2131 -1.3861  1.0485
 5531TIP3    H238157   3.233   5.033  -0.000 -0.5682 -0.0905  0.0631
 5532TIP3   OH238158   0.737   5.824   0.535 -0.9945  0.1411  0.7683
 5532TIP3    H138159   0.777   5.738   0.522 -2.1763 -0.5642  1.5675
 5532TIP3    H238160   0.745   5.839   0.629 -0.4458  1.0892  0.5734
 5533TIP3   OH238161   3.740   3.313   8.144  0.6184  0.7113 -0.2436
 5533TIP3    H138162   3.835   3.303   8.155  0.6865 -0.2937 -1.4324
 5533TIP3    H238163   3.702   3.253   8.208  0.7880  0.9563  0.0883
 5534TIP3   OH238164   0.253   5.177   1.295 -0.6695  0.0441  0.1573
 5534TIP3    H138165   0.301   5.249   1.334 -2.1231  1.8280 -1.1830
 5534TIP3    H238166   0.245   5.112   1.365  2.5611  0.1381  0.7812
 5535TIP3   OH238167   3.235   2.464   1.846  0.7287 -0.2699  0.0021
 5535TIP3    H138168   3.237   2.380   1.892  1.0127 -0.2705 -0.0097
 5535TIP3    H238169   3.309   2.513   1.882  1.7274 -0.7401 -1.3111
 5536TIP3   OH238170   2.910   0.407   7.721 -0.2492  0.9154 -0.4151
 5536TIP3    H138171   2.869   0.473   7.777 -3.2964 -1.1100 -0.0177
 5536TIP3    H238172   2.869   0.419   7.635 -0.7354 -0.3140 -0.3778
 5537TIP3   OH238173   5.654   3.766   6.742  0.3398 -0.2204 -0.0012
 5537TIP3    H138174   5.719   3.832   6.716 -0.9135  0.4360 -1.6128
 5537TIP3    H238175   5.664   3.760   6.837  1.8096  0.8604 -0.0417
 5538TIP3   OH238176   3.818   6.434   1.757  0.0647  0.3823  0.0378
 5538TIP3    H138177   3.836   6.523   1.785 -1.7954  1.1913 -1.1348
 5538TIP3    H238178   3.738   6.441   1.704 -0.6604 -2.1044  0.6605
 5539TIP3   OH238179   4.809   5.672   6.512 -0.4877 -0.4398 -0.0577
 5539TIP3    H138180   4.834   5.594   6.463 -1.8918  0.6629 -2.7459
 5539TIP3    H238181   4.841   5.657   6.601  1.2549 -3.0453 -1.0405
 5540TIP3   OH238182   4.993   0.352   0.658 -0.4899 -0.2530  0.2103
 5540TIP3    H138183   5.040   0.386   0.582 -2.2041  1.3748 -0.2066
 5540TIP3    H238184   4.919   0.304   0.620 -3.1311  3.0994  0.6657
 5541TIP3   OH238185   6.985   4.245   7.591  0.6067  0.0255  0.2073
 5541TIP3    H138186   6.980   4.155   7.557  1.3822  0.8853 -2.3852
 5541TIP3    H238187   6.896   4.265   7.619  0.0898 -1.0256 -0.6211
 5542TIP3   OH238188   5.896   4.098   7.493 -0.2432  0.3259  0.9378
 5542TIP3    H138189   5.972   4.053   7.531 -0.4803  0.8568  2.0916
 5542TIP3    H238190   5.868   4.158   7.562 -0.0249  2.1529 -0.4970
 5543TIP3   OH238191   6.557   4.437   0.011 -0.0082  0.4883  0.6538
 5543TIP3    H138192   6.531   4.529   0.015  1.9214  1.1410 -0.4285
 5543TIP3    H238193   6.536   4.411  -0.079  0.7652  0.3181  0.5185
 5544TIP3   OH238194   0.248   6.788   1.318  0.1756 -0.3042 -0.0220
 5544TIP3    H138195   0.329   6.821   1.357  2.5396 -3.3032 -1.8998
 5544TIP3    H238196   0.274   6.761   1.230 -3.0530 -0.9351 -0.8779
 5545TIP3   OH238197   6.231   4.956   0.011  0.0617 -0.0648  0.1175
 5545TIP3    H138198   6.228   5.025  -0.055  0.7488  2.3224  2.3944
 5545TIP3    H238199   6.144   4.957   0.052 -0.6275 -2.0659 -1.1594
 5546TIP3   OH238200   0.769   3.811   0.669 -0.0367 -0.6456  0.6021
 5546TIP3    H138201   0.767   3.725   0.629  0.3408  0.2888 -1.5505
 5546TIP3    H238202   0.860   3.823   0.696 -0.0065 -0.7668  0.5555
 5547TIP3   OH238203   1.582   5.806   2.228  0.4434 -0.5662 -0.2062
 5547TIP3    H138204   1.488   5.792   2.228  0.3452  0.0328  0.0361
 5547TIP3    H238205   1.592   5.901   2.238  1.0678 -0.6071 -0.3880
 5548TIP3   OH238206   0.310   6.951   0.375  0.5671  0.1767 -0.0399
 5548TIP3    H138207   0.388   6.951   0.320 -0.6587 -0.0471 -1.8873
 5548TIP3    H238208   0.237   6.962   0.313 -0.8420  0.8053  1.6451
 5549TIP3   OH238209   6.857   2.401   6.875  0.2275 -0.0629 -0.0536
 5549TIP3    H138210   6.801   2.420   6.799 -0.0613 -0.5795  0.0275
 5549TIP3    H238211   6.796   2.380   6.945  0.5166 -0.3054  0.1256
 5550TIP3   OH238212   6.078   6.391   1.809 -0.1238  0.4570 -0.5274
 5550TIP3    H138213   5.999   6.387   1.862 -0.1978 -0.1183 -0.6729
 5550TIP3    H238214   6.047   6.417   1.722 -0.1131  0.5502 -0.5031
 5551TIP3   OH238215   1.441   4.954   0.973  0.2904 -0.7868  0.7779
 5551TIP3    H138216   1.414   4.862   0.964 -0.8715 -0.4779  0.8907
 5551TIP3    H238217   1.533   4.950   0.996 -0.1007 -1.9885  2.2597
 5552TIP3   OH238218   0.916   2.830   1.644 -0.1977 -0.1023 -0.0778
 5552TIP3    H138219   0.885   2.821   1.734 -0.7173  1.8575 -0.0178
 5552TIP3    H238220   0.840   2.810   1.590 -0.1185 -0.4539 -0.0587
 5553TIP3   OH238221   3.188   4.322   1.410 -0.0369  0.3578 -0.5835
 5553TIP3    H138222   3.259   4.279   1.457 -1.1522 -0.7496  0.1646
 5553TIP3    H238223   3.122   4.339   1.477 -0.5707  1.2014 -1.2892
 5554TIP3   OH238224   1.556   0.569   8.149 -0.0833  0.2521 -1.0825
 5554TIP3    H138225   1.480   0.627   8.151 -1.1195 -1.0498 -1.0557
 5554TIP3    H238226   1.524   0.488   8.109  0.7334 -1.0365  0.6799
 5555TIP3   OH238227   5.637   5.521   6.690 -0.1507 -0.1111  0.1753
 5555TIP3    H138228   5.662   5.562   6.773 -0.9502  1.6347 -0.3959
 5555TIP3    H238229   5.698   5.558   6.626  0.7104 -1.7346  0.0004
 5556TIP3   OH238230   6.541   5.649   0.425 -0.3525 -0.7125  0.6307
 5556TIP3    H138231   6.505   5.564   0.401 -0.0505 -0.6701 -0.0132
 5556TIP3    H238232   6.465   5.703   0.446 -0.8480 -0.2379 -1.9808
 5557TIP3   OH238233   5.697   3.004   2.335  0.4114 -0.3102  0.1315
 5557TIP3    H138234   5.709   3.064   2.261  0.8783  1.4606  1.5662
 5557TIP3    H238235   5.603   3.010   2.356 -0.0222 -1.9102 -1.1429
 5558TIP3   OH238236   1.694   2.417   1.112 -0.2407 -0.0477 -0.0860
 5558TIP3    H138237   1.659   2.494   1.156  0.0041  0.2303 -0.3791
 5558TIP3    H238238   1.789   2.424   1.123 -0.2133 -0.2751 -0.1637
 5559TIP3   OH238239   4.145   6.270   0.333  0.3176  0.7636  0.1136
 5559TIP3    H138240   4.191   6.269   0.417  2.9911  1.2708 -1.2375
 5559TIP3    H238241   4.215   6.273   0.267 -1.6740  0.8559 -2.1343
 5560TIP3   OH238242   1.325   3.648   7.881 -0.0911 -0.5432  0.0033
 5560TIP3    H138243   1.308   3.603   7.798  0.3364 -0.7423  0.0250
 5560TIP3    H238244   1.238   3.661   7.919 -0.3556  0.2861 -0.8567
 5561TIP3   OH238245   2.093   3.480   2.174  0.2693  0.4954 -0.0028
 5561TIP3    H138246   2.170   3.486   2.117  0.4845 -1.1267  0.0597
 5561TIP3    H238247   2.044   3.560   2.156  0.8934  0.5592 -1.6545
 5562TIP3   OH238248   5.581   6.271   0.390  0.1315  0.7092 -0.0907
 5562TIP3    H138249   5.589   6.264   0.295  0.9946  1.5479 -0.1035
 5562TIP3    H238250   5.670   6.255   0.422 -0.0172  1.0964  0.5256
 5563TIP3   OH238251   4.723   1.131   1.928  0.6226  0.3935  0.1461
 5563TIP3    H138252   4.663   1.056   1.923 -2.2027  2.5484 -2.1156
 5563TIP3    H238253   4.778   1.124   1.851  0.4673  0.5353  0.0207
 5564TIP3   OH238254   0.560   2.317   0.473 -0.4892  0.3018  0.0011
 5564TIP3    H138255   0.497   2.389   0.485 -1.0509 -0.3543  1.2122
 5564TIP3    H238256   0.524   2.266   0.401  0.0015  1.2965 -0.9847
 5565TIP3   OH238257   0.665   5.740   7.622 -0.5759 -0.0411  0.3201
 5565TIP3    H138258   0.705   5.653   7.611 -0.4613  0.2714 -2.6449
 5565TIP3    H238259   0.724   5.799   7.575 -2.4319  1.0547 -0.7569
 5566TIP3   OH238260   3.356   4.098   7.456 -0.2274 -0.4476 -0.1595
 5566TIP3    H138261   3.413   4.129   7.526 -0.2849  1.4758 -0.9031
 5566TIP3    H238262   3.268   4.124   7.483 -0.2232  0.5337 -1.0238
 5567TIP3   OH238263   2.024   5.110   1.404  0.1481  0.2360 -0.8525
 5567TIP3    H138264   2.026   5.055   1.482 -0.3542  0.1315 -0.9107
 5567TIP3    H238265   2.103   5.084   1.355  0.7744  0.7033 -0.1199
 5568TIP3   OH238266   5.619   0.213   0.283  0.2755  0.1446 -0.4260
 5568TIP3    H138267   5.638   0.294   0.237 -0.8998  0.9988  0.5388
 5568TIP3    H238268   5.571   0.160   0.220 -1.0091  1.1647 -0.3432
 5569TIP3   OH238269   2.302   0.657   6.456 -0.0785  0.0376  0.0864
 5569TIP3    H138270   2.312   0.664   6.361 -0.8648  2.5043  0.1198
 5569TIP3    H238271   2.353   0.731   6.491  1.0530 -1.4208  1.6876
 5570TIP3   OH238272   0.250   5.746   0.896 -0.2100 -0.2138 -0.6980
 5570TIP3    H138273   0.244   5.823   0.840 -0.0968  0.2347 -0.1125
 5570TIP3    H238274   0.334   5.758   0.942  0.0808 -0.9770 -1.0213
 5571TIP3   OH238275   2.458   1.369   0.849  0.0262  0.4356  0.6170
 5571TIP3    H138276   2.379   1.316   0.843  0.3351 -0.2108  1.8383
 5571TIP3    H238277   2.458   1.402   0.939  0.4117  1.6283  0.2071
 5572TIP3   OH238278   0.854   5.835   1.138 -0.3223 -0.2842 -0.1091
 5572TIP3    H138279   0.805   5.752   1.138 -0.3469 -0.2703 -0.5816
 5572TIP3    H238280   0.860   5.859   1.231 -0.1821 -0.8935  0.0427
 5573TIP3   OH238281   1.827   3.876   7.111 -0.0548  0.9451 -1.1199
 5573TIP3    H138282   1.775   3.929   7.172 -0.2129  1.5718 -1.7844
 5573TIP3    H238283   1.818   3.920   7.027 -0.5071 -0.3729 -1.7856
 5574TIP3   OH238284   6.763   3.858   0.459 -0.5147 -0.6626 -0.2837
 5574TIP3    H138285   6.711   3.919   0.407 -0.6729 -0.2957  0.3013
 5574TIP3    H238286   6.854   3.877   0.434 -0.5479 -0.0128  0.0896
 5575TIP3   OH238287   4.932   6.189   8.296 -0.0893 -0.2542 -0.2742
 5575TIP3    H138288   4.899   6.102   8.273  0.0609  0.0452 -1.7393
 5575TIP3    H238289   4.961   6.180   8.387 -3.9833 -0.5804  1.1276
 5576TIP3   OH238290   1.538   0.004   0.409  0.0107  0.5358 -0.1021
 5576TIP3    H138291   1.594  -0.057   0.458 -0.6532 -0.8278 -0.9621
 5576TIP3    H238292   1.471   0.030   0.472  0.6452  0.8731  0.4504
 5577TIP3   OH238293   6.395   5.798   7.386  0.5798 -0.2176 -0.5571
 5577TIP3    H138294   6.366   5.888   7.402  2.2471  0.4923 -1.3303
 5577TIP3    H238295   6.480   5.792   7.429 -0.3968 -2.1094  1.2904
 5578TIP3   OH238296   6.114   5.768   1.420 -0.7194  0.1739 -0.0375
 5578TIP3    H138297   6.066   5.686   1.425 -0.5191  0.0428 -0.2371
 5578TIP3    H238298   6.073   5.817   1.349  1.2642 -1.1546 -2.2409
 5579TIP3   OH238299   5.930   5.243   7.903 -0.6353  0.7688 -1.0895
 5579TIP3    H138300   5.955   5.323   7.950  0.3513 -0.3144  0.3201
 5579TIP3    H238301   6.005   5.224   7.846 -0.2755  0.1647 -0.4428
 5580TIP3   OH238302   3.878   1.752   7.384 -0.0948 -0.1913 -0.3295
 5580TIP3    H138303   3.912   1.667   7.355  0.0577  0.7721 -3.2145
 5580TIP3    H238304   3.936   1.778   7.455 -0.5851 -2.7743  1.1639
 5581TIP3   OH238305   2.057   5.650   1.633  0.1755 -0.0033 -0.5108
 5581TIP3    H138306   2.056   5.610   1.546 -1.4658  0.5671 -0.7790
 5581TIP3    H238307   2.061   5.744   1.616 -1.2335  0.1653 -0.0058
 5582TIP3   OH238308   4.702   1.624   8.034  0.1916 -0.2684 -0.3462
 5582TIP3    H138309   4.717   1.544   8.085  1.4830 -0.9767 -1.7563
 5582TIP3    H238310   4.736   1.603   7.947 -0.1716  1.5700 -0.9646
 5583TIP3   OH238311   0.713   3.236   7.527 -0.0575  0.3904 -0.5021
 5583TIP3    H138312   0.732   3.158   7.579 -0.3614  0.3878 -0.3946
 5583TIP3    H238313   0.734   3.211   7.437 -2.2330 -0.5482 -0.7950
 5584TIP3   OH238314   4.217   3.412   7.671  0.0895 -0.0415 -0.3496
 5584TIP3    H138315   4.150   3.353   7.635  0.2112 -0.4305  0.0586
 5584TIP3    H238316   4.247   3.368   7.750  0.6072  0.2867 -0.3652
 5585TIP3   OH238317   2.937   1.880   1.305  0.1314 -0.0143  0.0098
 5585TIP3    H138318   3.029   1.880   1.330 -0.2584  2.0364  1.7671
 5585TIP3    H238319   2.894   1.932   1.373 -2.0991  0.3125 -1.5432
 5586TIP3   OH238320   0.525   3.539   6.717  0.1672 -0.3896  0.6276
 5586TIP3    H138321   0.561   3.574   6.635 -3.4447  1.2374 -0.4429
 5586TIP3    H238322   0.511   3.446   6.699 -1.8313  0.1878 -1.2192
 5587TIP3   OH238323   3.215   0.765   0.914  0.0292  0.1975  0.4058
 5587TIP3    H138324   3.290   0.825   0.918 -0.6141  1.0156  0.4073
 5587TIP3    H238325   3.170   0.776   0.998 -1.3079  1.3630 -0.4023
 5588TIP3   OH238326   0.314   2.543   0.101 -0.2999  0.0822 -0.0126
 5588TIP3    H138327   0.277   2.631   0.104  1.9817  1.1202 -0.7966
 5588TIP3    H238328   0.361   2.534   0.184  0.7525  0.2233 -0.5774
 5589TIP3   OH238329   0.954   1.560   5.939  0.2490 -0.7299  0.2264
 5589TIP3    H138330   1.047   1.558   5.917  0.0430 -0.4565 -0.7259
 5589TIP3    H238331   0.947   1.625   6.009  0.5356  0.6423 -0.9700
 5590TIP3   OH238332   2.588   3.657   6.958  0.4032  0.6191 -0.0900
 5590TIP3    H138333   2.566   3.680   7.048  0.1445 -2.8045  0.8860
 5590TIP3    H238334   2.646   3.581   6.967  0.3195  0.1352 -2.8202
 5591TIP3   OH238335   1.883   4.656   0.239  0.8171  0.9654  0.2122
 5591TIP3    H138336   1.838   4.609   0.309  0.3074  0.5952 -0.3665
 5591TIP3    H238337   1.814   4.684   0.179  1.0087  3.0860  0.8857
 5592TIP3   OH238338   0.993   0.203   2.051 -0.4496 -0.2757 -0.0356
 5592TIP3    H138339   1.008   0.144   1.977 -1.5412  0.6522 -1.0568
 5592TIP3    H238340   1.071   0.259   2.054  0.2646 -1.2721  0.4833
 5593TIP3   OH238341   3.852   6.225   0.538  0.3275  0.2642  0.2613
 5593TIP3    H138342   3.817   6.161   0.476  0.4916  0.4778 -0.0579
 5593TIP3    H238343   3.915   6.276   0.486 -0.7920  1.5748  0.1155
 5594TIP3   OH238344   6.606   3.259   6.993 -0.0117  0.1520 -0.6768
 5594TIP3    H138345   6.519   3.234   6.962 -0.3315 -0.1475  0.4004
 5594TIP3    H238346   6.665   3.235   6.922 -0.6427 -1.1074 -0.8045
 5595TIP3   OH238347   0.474   2.027   0.984  0.1922  0.0327  0.0468
 5595TIP3    H138348   0.517   2.092   0.928  4.0379 -1.1380  1.3380
 5595TIP3    H238349   0.425   1.972   0.923  2.5070  0.0326 -1.9612
 5596TIP3   OH238350   3.984   6.627   1.503 -0.3796  0.5413  0.0826
 5596TIP3    H138351   4.019   6.630   1.592  0.3288 -0.8324 -0.1279
 5596TIP3    H238352   4.062   6.623   1.446 -0.8174  1.4655 -0.6197
 5597TIP3   OH238353   0.522   6.647   7.939  0.4741 -0.4290  0.2268
 5597TIP3    H138354   0.512   6.556   7.969  1.5323 -1.1875 -1.5650
 5597TIP3    H238355   0.614   6.654   7.914 -0.0260  0.5167 -1.5223
 5598TIP3   OH238356   4.193   0.564   0.490  0.2708 -0.3727 -0.6299
 5598TIP3    H138357   4.227   0.564   0.580  0.1153 -1.0470 -0.5680
 5598TIP3    H238358   4.191   0.657   0.466  1.3037 -0.2524 -0.3124
 5599TIP3   OH238359   5.477   4.833   1.537  0.2080  0.3350  0.1398
 5599TIP3    H138360   5.428   4.913   1.516  1.3560  0.6759 -1.3650
 5599TIP3    H238361   5.410   4.770   1.563 -0.7422  1.7023  1.1608
 5600TIP3   OH238362   4.881   4.593   1.767 -0.6923 -0.9585  0.4754
 5600TIP3    H138363   4.907   4.622   1.855 -1.1659 -1.4015  0.7635
 5600TIP3    H238364   4.951   4.533   1.741  0.4124  0.5564 -0.2126
 5601TIP3   OH238365   3.841   1.967   1.018  0.0451  0.2017  0.0861
 5601TIP3    H138366   3.777   2.020   1.066 -0.6961 -1.3956  0.9479
 5601TIP3    H238367   3.888   1.919   1.086 -0.2485 -1.2680 -0.6948
 5602TIP3   OH238368   6.529   0.609   8.323 -0.0087  0.3480 -0.2282
 5602TIP3    H138369   6.480   0.657   8.390  0.2512 -0.1605  0.3320
 5602TIP3    H238370   6.591   0.672   8.288  1.7731 -0.0791  1.9500
 5603TIP3   OH238371   1.083   3.992   1.538  0.1145 -1.1047  0.5265
 5603TIP3    H138372   1.101   4.002   1.631  0.4271 -2.8472  0.6800
 5603TIP3    H238373   1.102   4.078   1.501 -0.4421 -0.2486  2.1157
 5604TIP3   OH238374   6.549   4.626   6.557  0.4989  0.0868 -0.0029
 5604TIP3    H138375   6.608   4.559   6.520  0.4273 -0.4687  0.8716
 5604TIP3    H238376   6.461   4.593   6.538  0.4431 -0.6604  1.4003
 5605TIP3   OH238377   6.549   3.630   7.851 -0.1259 -0.0159  0.5071
 5605TIP3    H138378   6.623   3.572   7.835 -0.3124  0.3868 -2.2969
 5605TIP3    H238379   6.477   3.572   7.873 -0.0425 -0.7930 -1.1602
 5606TIP3   OH238380   4.746   5.680   8.229  0.1609 -0.2610 -0.3877
 5606TIP3    H138381   4.716   5.672   8.138 -2.6336 -1.3225  0.5192
 5606TIP3    H238382   4.724   5.595   8.268  1.0364  0.2909  1.3673
 5607TIP3   OH238383   4.896   1.520   0.863  0.2807  0.2037 -0.0906
 5607TIP3    H138384   4.905   1.512   0.958  0.4509  2.2509  0.1149
 5607TIP3    H238385   4.979   1.490   0.828  0.0831 -0.9180  0.3590
 5608TIP3   OH238386   2.258   2.521   0.467 -0.1999  0.1810 -0.6677
 5608TIP3    H138387   2.249   2.547   0.559 -0.9368  1.3363 -1.0453
 5608TIP3    H238388   2.334   2.571   0.436 -2.0187  2.5978 -1.5761
 5609TIP3   OH238389   1.456   0.813   6.851  0.0666 -0.7319 -0.0583
 5609TIP3    H138390   1.451   0.908   6.859 -0.4418 -0.8779  1.6566
 5609TIP3    H238391   1.417   0.795   6.765  2.2220  0.7320 -1.4354
 5610TIP3   OH238392   4.810   4.105   7.763  0.4078  0.2597 -0.2768
 5610TIP3    H138393   4.814   4.105   7.667 -0.5865 -0.0378 -0.3316
 5610TIP3    H238394   4.802   4.197   7.786  2.2714  0.4909 -0.3678
 5611TIP3   OH238395   4.929   2.268   0.999  0.1690 -0.0219  0.1997
 5611TIP3    H138396   4.984   2.255   1.076 -1.1779  2.9356  1.8617
 5611TIP3    H238397   4.869   2.194   1.000 -0.4949  0.4445  2.7358
 5612TIP3   OH238398   0.650   3.283   8.197 -0.1691 -0.0808 -0.1522
 5612TIP3    H138399   0.558   3.308   8.191 -0.9824 -2.7766 -0.0445
 5612TIP3    H238400   0.662   3.254   8.287  0.3381 -1.2597 -0.5776
 5613TIP3   OH238401   4.565   5.226   8.091 -0.7195 -0.4274  0.2038
 5613TIP3    H138402   4.508   5.215   8.015  1.0403 -0.0522 -1.2298
 5613TIP3    H238403   4.538   5.156   8.151 -0.6600 -2.2276 -1.7390
 5614TIP3   OH238404   0.502   6.465   1.531 -0.3962  0.2970  0.0683
 5614TIP3    H138405   0.461   6.485   1.616 -1.9419  2.3926 -1.0745
 5614TIP3    H238406   0.554   6.542   1.511  1.0341 -0.7315 -0.3461
 5615TIP3   OH238407   6.335   6.962   6.682 -0.2812  0.6071  0.2783
 5615TIP3    H138408   6.307   6.938   6.594 -0.4204  1.7223  0.0035
 5615TIP3    H238409   6.301   7.051   6.695  1.1714  1.1186  0.8048
 5616TIP3   OH238410   5.023   2.151   0.636  0.1719 -0.2081  0.4684
 5616TIP3    H138411   4.928   2.159   0.647 -0.2503  1.2070 -2.9948
 5616TIP3    H238412   5.060   2.199   0.711 -1.7235 -1.6541  2.4640
 5617TIP3   OH238413   3.142   5.205   1.255  0.1158 -0.0712 -0.1486
 5617TIP3    H138414   3.149   5.279   1.194  0.9384 -0.5041 -0.6063
 5617TIP3    H238415   3.139   5.246   1.341  0.0549  0.5179 -0.4215
 5618TIP3   OH238416   0.687   0.977   7.556  0.1200  0.0254 -0.5596
 5618TIP3    H138417   0.731   1.062   7.556  2.0085 -0.8497 -2.2199
 5618TIP3    H238418   0.667   0.961   7.463 -1.7618 -0.6209 -0.0841
 5619TIP3   OH238419   2.376   3.294   1.370  0.3884 -0.2102 -0.4409
 5619TIP3    H138420   2.348   3.207   1.345 -0.8354 -0.0923  0.3928
 5619TIP3    H238421   2.429   3.281   1.449 -0.8425 -0.1360  0.4293
 5620TIP3   OH238422   0.272   5.280   5.799 -0.3035  0.2157 -0.4172
 5620TIP3    H138423   0.208   5.232   5.746  0.3579  0.3105 -1.3371
 5620TIP3    H238424   0.356   5.263   5.756  0.1430  0.9954  0.1107
 5621TIP3   OH238425   2.018   2.830   7.483 -0.4111 -0.4934  0.4212
 5621TIP3    H138426   1.992   2.848   7.574  0.4836 -1.1427  0.8238
 5621TIP3    H238427   2.073   2.751   7.490 -1.6428 -1.5193 -0.8705
 5622TIP3   OH238428   3.365   4.978   2.328 -0.7670  0.1728 -0.2097
 5622TIP3    H138429   3.363   5.063   2.282 -1.8577 -0.6748 -1.8242
 5622TIP3    H238430   3.458   4.958   2.336 -0.4305  2.0079  1.2051
 5623TIP3   OH238431   4.401   0.572   7.162  0.2833  0.0609  0.3689
 5623TIP3    H138432   4.395   0.505   7.094  1.7165 -0.8366  1.0746
 5623TIP3    H238433   4.313   0.611   7.165  0.0926 -0.0991 -1.7318
 5624TIP3   OH238434   2.826   6.357   7.611 -0.3526  0.2908  0.5289
 5624TIP3    H138435   2.767   6.432   7.611 -2.3990 -1.2503  0.2037
 5624TIP3    H238436   2.794   6.300   7.542  1.4865 -0.6693  0.3917
 5625TIP3   OH238437   2.093   0.500   1.049 -0.6403  0.1214  0.0985
 5625TIP3    H138438   2.145   0.420   1.037 -0.1085  0.5165 -0.2691
 5625TIP3    H238439   2.127   0.537   1.131 -0.7174  0.0991  0.1405
 5626TIP3   OH238440   2.876   2.170   5.949 -0.1596  0.0748  0.0039
 5626TIP3    H138441   2.956   2.117   5.943  0.2193  0.7085 -0.8752
 5626TIP3    H238442   2.810   2.118   5.902  0.1649  0.2811 -0.7044
 5627TIP3   OH238443   0.425   0.387   1.104  0.5013 -0.3638 -0.2770
 5627TIP3    H138444   0.357   0.341   1.154  0.9626  0.4037  1.1364
 5627TIP3    H238445   0.436   0.336   1.025  0.6250 -2.3816  0.9823
 5628TIP3   OH238446   4.834   0.067   7.009 -0.5816 -0.2305  0.4679
 5628TIP3    H138447   4.808   0.129   6.941  1.0887 -1.5190 -1.4488
 5628TIP3    H238448   4.821  -0.019   6.970  3.0753 -1.0024  0.5706
 5629TIP3   OH238449   2.784   1.403   5.684  0.4630 -0.5211 -0.4692
 5629TIP3    H138450   2.763   1.487   5.643  0.0392  0.6653  1.9351
 5629TIP3    H238451   2.707   1.349   5.670  0.0424  0.1048 -0.6037
 5630TIP3   OH238452   6.524   5.437   0.999 -0.0123 -0.1389 -0.2648
 5630TIP3    H138453   6.435   5.413   0.977 -0.1904  0.7372 -0.5554
 5630TIP3    H238454   6.518   5.474   1.087  0.3831 -1.8155  0.5039
 5631TIP3   OH238455   1.796   5.665   0.089  0.3894 -0.5336 -0.1569
 5631TIP3    H138456   1.887   5.673   0.059  1.1610  0.8582  2.3205
 5631TIP3    H238457   1.797   5.694   0.180 -2.2023 -2.4539  0.6136
 5632TIP3   OH238458   2.608   4.304   6.962  0.0750 -0.3980  0.5142
 5632TIP3    H138459   2.540   4.362   6.928 -0.5083 -0.8142  0.9447
 5632TIP3    H238460   2.611   4.231   6.901  4.0308  2.0518 -2.8083
 5633TIP3   OH238461   4.174   5.431   6.925  0.1448 -0.5085 -0.5371
 5633TIP3    H138462   4.262   5.411   6.894  0.1652 -0.0959 -0.7607
 5633TIP3    H238463   4.120   5.429   6.845  0.2625  0.9350 -0.6938
 5634TIP3   OH238464   3.815   3.516   1.305  0.2013 -0.1507 -0.5457
 5634TIP3    H138465   3.875   3.519   1.380  1.1207 -0.1189 -1.2742
 5634TIP3    H238466   3.795   3.423   1.294  1.4254 -0.3430 -1.3091
 5635TIP3   OH238467   5.301   1.967   6.903  0.0062 -0.3281 -0.3381
 5635TIP3    H138468   5.296   2.023   6.825 -0.3543 -0.5048 -0.4451
 5635TIP3    H238469   5.341   1.886   6.871  0.7257 -0.0585 -0.1387
 5636TIP3   OH238470   0.335   6.907   8.269  0.0320 -0.8219  0.1866
 5636TIP3    H138471   0.420   6.889   8.230 -0.3187 -1.6122 -0.2397
 5636TIP3    H238472   0.287   6.956   8.202 -0.2339 -1.3546 -0.0247
 5637TIP3   OH238473   6.380   6.933   6.136 -0.5375 -0.6553 -0.0913
 5637TIP3    H138474   6.287   6.952   6.153 -0.3766  0.1205 -0.0650
 5637TIP3    H238475   6.413   7.011   6.092  0.0406 -1.0446 -0.3526
 5638TIP3   OH238476   2.507   4.007   8.188 -0.2695  0.5470 -0.1671
 5638TIP3    H138477   2.586   3.989   8.136  0.1646  2.0736 -0.0919
 5638TIP3    H238478   2.533   3.989   8.278 -0.0774  0.7937 -0.1710
 5639TIP3   OH238479   3.426   2.947   0.139  0.2098 -0.0005  0.4639
 5639TIP3    H138480   3.374   2.883   0.091  0.5374  1.0432 -1.3806
 5639TIP3    H238481   3.502   2.899   0.170 -0.2197 -0.7861  0.3079
 5640TIP3   OH238482   5.079   4.272   1.248 -0.2050 -0.4465  0.5358
 5640TIP3    H138483   5.017   4.332   1.206  0.1406  0.0317  0.7090
 5640TIP3    H238484   5.036   4.247   1.330 -0.7005 -1.0668  0.1068
 5641TIP3   OH238485   3.432   0.747   0.224 -0.1013 -0.0948 -0.2244
 5641TIP3    H138486   3.479   0.666   0.201 -0.3673 -0.3051 -0.0347
 5641TIP3    H238487   3.453   0.807   0.153 -0.6010 -0.6118 -0.8249
 5642TIP3   OH238488   3.080   6.223   6.668 -0.2118  0.3426 -0.1817
 5642TIP3    H138489   3.021   6.182   6.731 -0.5639 -1.2518 -1.4961
 5642TIP3    H238490   3.142   6.273   6.722 -1.8025  0.8097  1.2969
 5643TIP3   OH238491   6.732   0.250   0.675  0.6041  0.1520 -0.3577
 5643TIP3    H138492   6.816   0.232   0.716  0.3795  0.7186  0.3798
 5643TIP3    H238493   6.689   0.313   0.734 -0.3334 -0.1268 -0.7142
 5644TIP3   OH238494   5.461   2.998   7.454 -0.2410 -0.3904 -0.7898
 5644TIP3    H138495   5.442   2.928   7.516  1.0671  0.9833  1.2499
 5644TIP3    H238496   5.544   3.035   7.483 -0.7927  1.9022 -1.8926
 5645TIP3   OH238497   1.131   1.974   2.287  0.2077  0.5921 -0.0828
 5645TIP3    H138498   1.113   2.068   2.287 -2.6568  0.1451 -0.6163
 5645TIP3    H238499   1.050   1.935   2.321  1.4394 -1.6870  0.4330
 5646TIP3   OH238500   3.583   1.763   5.901  0.7990 -0.1183 -0.1454
 5646TIP3    H138501   3.523   1.689   5.895  2.6528 -1.6241 -1.3947
 5646TIP3    H238502   3.648   1.736   5.966 -0.6175  2.1644  2.4616
 5647TIP3   OH238503   4.159   2.594   8.113 -0.1941  0.5815  0.1520
 5647TIP3    H138504   4.076   2.602   8.065 -1.9444 -1.3469  2.5788
 5647TIP3    H238505   4.140   2.635   8.198  1.7358  1.0481  0.3910
 5648TIP3   OH238506   6.661   3.455   1.235  0.3823  0.2785 -0.0828
 5648TIP3    H138507   6.645   3.511   1.159 -0.9666 -0.9995 -0.8118
 5648TIP3    H238508   6.738   3.403   1.210 -1.3435 -1.7015 -1.6095
 5649TIP3   OH238509   0.246   6.307   7.080  0.6794 -0.2842  0.0922
 5649TIP3    H138510   0.311   6.253   7.035  0.7232 -0.3937  0.2850
 5649TIP3    H238511   0.230   6.380   7.020 -2.9567 -2.8401 -2.5248
 5650TIP3   OH238512   4.135   5.539   7.550 -0.2805  0.5989 -0.4426
 5650TIP3    H138513   4.094   5.622   7.525 -0.8908  0.7207  0.9116
 5650TIP3    H238514   4.195   5.562   7.621  0.6633  0.0954 -1.0510
 5651TIP3   OH238515   5.560   3.778   0.266  0.2646 -0.1928  0.0261
 5651TIP3    H138516   5.607   3.769   0.349 -0.0726  2.1552  0.5476
 5651TIP3    H238517   5.472   3.804   0.291 -0.0935 -0.3163 -1.0648
 5652TIP3   OH238518   2.412   4.566   7.105 -0.2867 -0.4380 -0.4701
 5652TIP3    H138519   2.399   4.529   7.018 -2.6695  2.0186 -1.3345
 5652TIP3    H238520   2.359   4.512   7.163 -1.6617  0.0377 -1.2461
 5653TIP3   OH238521   4.217   4.614   1.960  0.0002  0.0153 -0.1865
 5653TIP3    H138522   4.153   4.655   2.018  0.9289  0.7568  0.3554
 5653TIP3    H238523   4.294   4.672   1.965  0.8655 -1.0808 -0.4726
 5654TIP3   OH238524   3.967   1.295   0.223  0.3144 -0.2103  0.5930
 5654TIP3    H138525   4.027   1.306   0.149 -0.4003 -2.1135 -0.3420
 5654TIP3    H238526   4.021   1.257   0.292  0.2264 -2.1232 -0.3155
 5655TIP3   OH238527   7.014   0.946   7.170  0.1981  0.2744 -0.3472
 5655TIP3    H138528   7.086   0.923   7.111  0.0741  0.5732 -0.6187
 5655TIP3    H238529   6.977   1.026   7.132  1.0093  1.2920  0.9073
 5656TIP3   OH238530   1.283   3.678   0.259  0.2500 -0.2853 -0.3979
 5656TIP3    H138531   1.304   3.689   0.352  0.2553 -1.1148 -0.2911
 5656TIP3    H238532   1.357   3.719   0.213  0.8646 -0.9503 -0.0253
 5657TIP3   OH238533   6.152   4.065   0.786 -0.8022  0.3123  0.4996
 5657TIP3    H138534   6.118   4.111   0.863 -0.6667  2.3548 -0.5866
 5657TIP3    H238535   6.086   3.999   0.767 -1.7563  1.0118  1.2773
 5658TIP3   OH238536   2.597   6.014   1.928 -0.5299 -0.5526 -0.1992
 5658TIP3    H138537   2.684   5.979   1.908 -0.0005  1.3217 -1.4519
 5658TIP3    H238538   2.551   6.014   1.844 -0.4316  1.7815 -0.3203
 5659TIP3   OH238539   4.577   6.211   1.193 -0.2879  0.5629  0.2250
 5659TIP3    H138540   4.655   6.181   1.241  1.3881  1.1074 -1.9901
 5659TIP3    H238541   4.506   6.156   1.225  1.2744 -0.9110  1.3368
 5660TIP3   OH238542   5.916   2.863   8.122 -0.3128  0.2807 -0.0158
 5660TIP3    H138543   5.905   2.770   8.137 -2.8779  0.3535 -0.9045
 5660TIP3    H238544   5.864   2.905   8.191  1.9130  1.1515  1.2187
 5661TIP3   OH238545   2.340   1.573   1.959  0.4640 -0.3804 -0.5498
 5661TIP3    H138546   2.308   1.485   1.941  4.0897 -1.6978 -1.3401
 5661TIP3    H238547   2.411   1.587   1.896  2.0975  1.8093  1.5745
 5662TIP3   OH238548   6.911   2.833   1.475  0.0233  0.0448 -0.4209
 5662TIP3    H138549   6.881   2.922   1.456  0.0122  0.0506 -0.3784
 5662TIP3    H238550   6.957   2.842   1.559  1.3928  0.3050 -1.1791
 5663TIP3   OH238551   1.697   2.821   7.889 -0.2699 -0.1949  0.4380
 5663TIP3    H138552   1.718   2.909   7.921 -1.1291  0.1519  0.0729
 5663TIP3    H238553   1.603   2.824   7.870  0.4119  0.3014 -4.0199
 5664TIP3   OH238554   4.559   6.945   0.216  0.6214 -0.2610 -0.2577
 5664TIP3    H138555   4.487   6.904   0.169 -0.5640  1.1063  0.2649
 5664TIP3    H238556   4.608   6.873   0.255 -1.1216 -1.1781  0.2902
 5665TIP3   OH238557   2.266   7.000   6.734  0.1341  0.4477  0.1034
 5665TIP3    H138558   2.222   6.967   6.656  0.4381  1.6351 -0.5883
 5665TIP3    H238559   2.324   6.928   6.761  0.1668  0.0972 -0.8592
 5666TIP3   OH238560   2.059   4.025   7.304  0.5417 -0.1435 -0.3833
 5666TIP3    H138561   1.993   4.094   7.301  0.3154 -0.3801 -0.9673
 5666TIP3    H238562   2.048   3.985   7.391  0.4601  0.3445 -0.1683
 5667TIP3   OH238563   2.435   6.348   1.092 -0.7448 -0.0778  0.4289
 5667TIP3    H138564   2.486   6.400   1.154 -1.7825  0.8144  0.5840
 5667TIP3    H238565   2.438   6.399   1.011  1.4587 -1.7352 -0.6210
 5668TIP3   OH238566   5.715   4.461   6.321 -0.1263  0.1625  0.1459
 5668TIP3    H138567   5.799   4.470   6.277  0.0767 -0.0744  0.4726
 5668TIP3    H238568   5.738   4.435   6.411 -0.5706 -0.7980  0.0006
 5669TIP3   OH238569   4.519   5.412   6.357  0.0767  0.1632 -0.0883
 5669TIP3    H138570   4.588   5.412   6.291 -0.9685 -0.4002 -1.2213
 5669TIP3    H238571   4.506   5.504   6.379  0.1363  0.3955 -1.0024
 5670TIP3   OH238572   0.909   0.110   6.092 -0.6952  0.9829  0.5457
 5670TIP3    H138573   0.932   0.031   6.142  1.0535  1.0849 -0.0054
 5670TIP3    H238574   0.855   0.077   6.020  1.9041 -0.1957 -1.0521
 5671TIP3   OH238575   1.921   3.004   6.244 -0.4895  0.0843 -0.3343
 5671TIP3    H138576   1.867   2.929   6.217 -0.6745  0.4301 -0.9317
 5671TIP3    H238577   1.999   2.999   6.190  0.6270 -1.0481  1.2771
 5672TIP3   OH238578   1.125   4.478   7.886 -0.4710 -0.5330  0.6585
 5672TIP3    H138579   1.038   4.450   7.857  0.0227  0.1569 -1.7574
 5672TIP3    H238580   1.184   4.409   7.855  0.1099  0.3103 -0.1564
 5673TIP3   OH238581   6.507   0.480   7.843 -0.1641 -0.4708  0.0231
 5673TIP3    H138582   6.445   0.423   7.796 -0.2757  0.1550 -0.5950
 5673TIP3    H238583   6.474   0.480   7.933 -0.2867 -1.2106 -0.0102
 5674TIP3   OH238584   6.172   3.145   0.546 -0.4023  0.3177 -0.0944
 5674TIP3    H138585   6.198   3.196   0.469 -1.2295  0.8980  0.0026
 5674TIP3    H238586   6.220   3.063   0.537  0.7965  1.0105 -0.3713
 5675TIP3   OH238587   3.235   2.138   6.796  0.1325 -0.1574  0.2248
 5675TIP3    H138588   3.307   2.120   6.735  0.6779 -1.2562  1.1620
 5675TIP3    H238589   3.212   2.229   6.779 -0.0453 -0.5374 -1.9496
 5676TIP3   OH238590   6.352   0.142   8.207  0.1556 -0.4159  0.1770
 5676TIP3    H138591   6.377   0.199   8.279  0.6677 -0.3685 -0.0336
 5676TIP3    H238592   6.294   0.077   8.247 -1.6135  1.0576  0.1520
 5677TIP3   OH238593   3.279   2.364   0.703  0.6021  0.1468  0.2451
 5677TIP3    H138594   3.251   2.421   0.775 -0.0093  0.1426  0.0174
 5677TIP3    H238595   3.273   2.275   0.740  0.1806  0.1369  0.1572
 5678TIP3   OH238596   3.544   2.699   6.897  0.4810 -0.6042 -0.4106
 5678TIP3    H138597   3.483   2.681   6.969 -0.7897 -0.5632 -1.4297
 5678TIP3    H238598   3.524   2.631   6.832  0.7185  0.1084 -1.2414
 5679TIP3   OH238599   1.864   6.400   0.119 -0.3734 -0.0305 -0.0201
 5679TIP3    H138600   1.793   6.340   0.143 -1.5363  0.8483 -1.0774
 5679TIP3    H238601   1.821   6.486   0.115  0.9239  0.6379  0.0189
 5680TIP3   OH238602   1.456   5.678   0.863 -0.4632  0.2845 -0.0917
 5680TIP3    H138603   1.534   5.622   0.866 -0.6000 -0.1358 -2.4102
 5680TIP3    H238604   1.385   5.621   0.891 -0.3827 -0.2778 -1.0054
 5681TIP3   OH238605   5.627   2.335   8.054  0.1535  0.7404  0.0042
 5681TIP3    H138606   5.539   2.340   8.017  0.0206 -1.3976 -0.1245
 5681TIP3    H238607   5.615   2.342   8.148 -0.1997  0.2591 -0.0004
 5682TIP3   OH238608   3.595   0.494   1.389 -0.2697 -0.0317  0.6526
 5682TIP3    H138609   3.502   0.481   1.408 -0.3203  1.3510  1.4442
 5682TIP3    H238610   3.597   0.567   1.328  0.3184  0.1042  0.8261
 5683TIP3   OH238611   4.657   0.768   6.827 -0.5008  0.2002 -0.3658
 5683TIP3    H138612   4.739   0.776   6.778 -1.6483 -2.7658 -3.1105
 5683TIP3    H238613   4.684   0.732   6.912  1.1499  0.9157 -0.5338
 5684TIP3   OH238614   2.068   1.172   1.096  0.5549 -0.4121 -0.2815
 5684TIP3    H138615   2.002   1.140   1.034 -1.3010  1.4500  0.6298
 5684TIP3    H238616   2.035   1.146   1.182  1.5500 -0.3172  0.1456
 5685TIP3   OH238617   3.191   5.041   6.714  0.2560  0.0236  0.1818
 5685TIP3    H138618   3.116   4.997   6.754  1.6674  0.3792  3.5814
 5685TIP3    H238619   3.246   4.969   6.681 -0.4506 -0.3670 -0.1673
 5686TIP3   OH238620   0.600   5.002   1.193  0.0585  0.2862 -0.3747
 5686TIP3    H138621   0.561   5.082   1.158  0.8303  1.0854  0.5438
 5686TIP3    H238622   0.656   5.032   1.264 -1.5224 -1.2842  1.6597
 5687TIP3   OH238623   3.140   1.590   6.653 -0.5727 -0.0189 -0.0918
 5687TIP3    H138624   3.054   1.566   6.620 -1.1068  1.0148  0.5023
 5687TIP3    H238625   3.152   1.537   6.732 -0.6076 -0.2464 -0.2383
 5688TIP3   OH238626   2.542   4.303   6.547  0.0851  0.2779 -0.0239
 5688TIP3    H138627   2.592   4.374   6.505  0.5514  0.9669  1.6140
 5688TIP3    H238628   2.608   4.250   6.591 -0.4340 -0.1082  0.2963
 5689TIP3   OH238629   1.629   5.197   6.940 -0.3657 -0.3375 -0.3973
 5689TIP3    H138630   1.556   5.234   6.889  0.0735 -0.1876 -0.9371
 5689TIP3    H238631   1.665   5.129   6.883 -0.4552 -0.8180  0.1190
 5690TIP3   OH238632   4.845   3.254   1.946 -0.1864  0.0013 -0.0958
 5690TIP3    H138633   4.795   3.246   2.027  0.3303  0.9008  0.3210
 5690TIP3    H238634   4.786   3.221   1.878 -1.3273  0.9784  0.3964
 5691TIP3   OH238635   0.771   4.286   0.211  0.0427 -0.0811 -0.7592
 5691TIP3    H138636   0.711   4.330   0.272  1.4276  0.6282  0.1222
 5691TIP3    H238637   0.786   4.351   0.142 -1.2465 -0.7592 -1.7383
 5692TIP3   OH238638   5.876   4.635   1.964  0.0002  0.3708  0.3638
 5692TIP3    H138639   5.871   4.590   2.048 -1.9810  0.4728  0.3379
 5692TIP3    H238640   5.787   4.633   1.930  1.0281 -1.1793 -2.5836
 5693TIP3   OH238641   3.114   3.023   6.951  0.2944 -0.5875 -0.5210
 5693TIP3    H138642   3.129   3.117   6.967 -1.3902 -0.1253 -1.4679
 5693TIP3    H238643   3.202   2.987   6.939  1.0050  0.7711  0.3775
 5694TIP3   OH238644   4.001   1.836   0.585  0.1939 -0.2431 -0.0304
 5694TIP3    H138645   3.946   1.880   0.520 -0.1374  0.1882  0.5352
 5694TIP3    H238646   3.993   1.743   0.564 -2.4992 -0.4214  1.3018
 5695TIP3   OH238647   3.061   5.012   6.348  0.5626 -0.2695  0.4191
 5695TIP3    H138648   3.107   5.082   6.303 -0.1341 -0.1455 -0.1107
 5695TIP3    H238649   3.002   5.056   6.408 -1.0775 -0.3171 -1.0765
 5696TIP3   OH238650   6.040   3.210   6.942 -0.1874 -0.3214  0.1913
 5696TIP3    H138651   6.052   3.123   6.903  2.3120  0.0212  0.0537
 5696TIP3    H238652   5.958   3.242   6.904 -0.3629 -1.9773 -0.9536
 5697TIP3   OH238653   6.780   5.323   0.894  0.2335 -0.0263  0.1692
 5697TIP3    H138654   6.718   5.358   0.957 -1.6344 -0.0564 -1.5769
 5697TIP3    H238655   6.771   5.378   0.816 -0.2648 -2.1718 -1.3936
 5698TIP3   OH238656   2.457   5.208   7.955 -0.0812 -0.3739 -0.1877
 5698TIP3    H138657   2.432   5.213   8.047 -0.8203 -1.4511 -0.3109
 5698TIP3    H238658   2.392   5.149   7.915 -1.0926  1.7378 -1.8608
 5699TIP3   OH238659   0.577   5.335   8.147  0.3899 -0.6083  0.3420
 5699TIP3    H138660   0.550   5.425   8.127  1.7889 -0.4938 -1.2161
 5699TIP3    H238661   0.550   5.322   8.238 -1.7769  0.6176 -0.0568
 5700TIP3   OH238662   1.818   1.367   1.499  0.6117  0.0709 -0.2603
 5700TIP3    H138663   1.757   1.305   1.539 -0.8940  1.2786 -0.6215
 5700TIP3    H238664   1.771   1.450   1.498  2.1690  0.9796 -0.8126
 5701TIP3   OH238665   6.853   0.933   8.038  0.5678  0.4993  0.6094
 5701TIP3    H138666   6.777   0.945   7.980 -0.1919 -1.0050  1.2393
 5701TIP3    H238667   6.868   1.019   8.076 -0.4891  0.9473  0.0546
 5702TIP3   OH238668   0.615   0.545   0.317  0.4180 -0.3639 -0.2537
 5702TIP3    H138669   0.591   0.636   0.299 -0.9143 -0.4907  0.7161
 5702TIP3    H238670   0.554   0.493   0.264 -2.4571 -0.7105  3.0165
 5703TIP3   OH238671   6.591   2.142   1.434  0.1230 -0.1363 -0.0360
 5703TIP3    H138672   6.501   2.166   1.456 -0.7205 -0.1898 -2.9342
 5703TIP3    H238673   6.585   2.052   1.402  1.2930 -0.2925  0.1232
 5704TIP3   OH238674   5.258   3.774   7.914  0.1415 -0.3138  0.0058
 5704TIP3    H138675   5.229   3.717   7.843 -0.1115 -2.2974  1.6065
 5704TIP3    H238676   5.311   3.718   7.970  1.8974  1.6644  0.4594
 5705TIP3   OH238677   3.875   5.052   6.633  0.7562 -0.1698 -0.3216
 5705TIP3    H138678   3.917   4.970   6.659  1.7746  0.6684  0.7580
 5705TIP3    H238679   3.924   5.082   6.556  0.2209 -0.6712 -0.8760
 5706TIP3   OH238680   1.522   6.709   1.937  0.0730 -0.2856 -0.6923
 5706TIP3    H138681   1.598   6.725   1.882 -0.5790 -0.7578 -1.7572
 5706TIP3    H238682   1.519   6.784   1.997  0.9212  0.1277 -1.1563
 5707TIP3   OH238683   6.534   5.379   0.395 -0.5372  0.1356 -0.9484
 5707TIP3    H138684   6.611   5.377   0.338 -0.3428 -0.2167 -0.6792
 5707TIP3    H238685   6.528   5.290   0.430 -0.1425  0.5597  0.2626
 5708TIP3   OH238686   0.936   4.005   2.167  0.1779  0.1414  0.3901
 5708TIP3    H138687   0.937   4.050   2.251 -0.1656  0.2646  0.3269
 5708TIP3    H238688   0.914   4.073   2.104  2.1682  0.4665 -0.0388
 5709TIP3   OH238689   5.743   0.691   6.682 -0.1928 -0.3913 -0.3208
 5709TIP3    H138690   5.813   0.656   6.626  0.6971  0.7946  0.0151
 5709TIP3    H238691   5.766   0.662   6.770 -1.4204 -1.9788 -0.4652
 5710TIP3   OH238692   5.147   2.764   7.675  0.4828 -0.0273  0.4515
 5710TIP3    H138693   5.135   2.676   7.710  1.8326  0.1562  1.4874
 5710TIP3    H238694   5.076   2.815   7.713 -0.9691 -0.8652 -1.0336
 5711TIP3   OH238695   5.097   0.904   1.695 -0.4110  0.1461 -0.5720
 5711TIP3    H138696   5.008   0.905   1.729 -0.4542  0.4252 -0.6882
 5711TIP3    H238697   5.089   0.937   1.605 -0.3360 -0.8339 -0.9496
 5712TIP3   OH238698   1.802   4.421   6.270 -0.3732  0.3930  0.1426
 5712TIP3    H138699   1.781   4.346   6.215  0.5500  0.6840 -0.6358
 5712TIP3    H238700   1.881   4.459   6.231 -1.3106  2.3147 -0.0120
 5713TIP3   OH238701   3.247   0.039   6.461 -0.1288  0.1044  0.0077
 5713TIP3    H138702   3.335   0.048   6.426  0.0300 -0.6998  0.1775
 5713TIP3    H238703   3.189   0.064   6.389  0.2234 -0.1689 -0.3742
 5714TIP3   OH238704   5.482   3.319   1.563  0.5054 -0.0536 -0.5500
 5714TIP3    H138705   5.572   3.350   1.560  0.1476  0.9486 -1.4553
 5714TIP3    H238706   5.438   3.363   1.490 -1.5070  1.9485  1.6843
 5715TIP3   OH238707   3.340   2.706   0.767 -0.1683  0.2701  0.3615
 5715TIP3    H138708   3.269   2.659   0.813 -1.1268  1.5585  0.2598
 5715TIP3    H238709   3.329   2.681   0.675  0.6570 -0.9336  0.5641
 5716TIP3   OH238710   1.631   3.533   1.243  0.0484 -0.1965 -0.2646
 5716TIP3    H138711   1.653   3.444   1.271  0.2764  0.2293  1.0073
 5716TIP3    H238712   1.689   3.549   1.168  0.9657 -0.6530  0.3248
 5717TIP3   OH238713   0.873   3.188   1.672 -0.1765  0.2311  0.0334
 5717TIP3    H138714   0.965   3.167   1.684 -0.3364 -1.7947 -1.6787
 5717TIP3    H238715   0.829   3.153   1.749 -0.0063 -3.2052 -1.2485
 5718TIP3   OH238716   2.296   5.510   0.974  0.4643 -0.1923 -0.5338
 5718TIP3    H138717   2.261   5.589   0.932 -1.5741 -0.9860 -0.4581
 5718TIP3    H238718   2.332   5.459   0.901  2.0066  0.8680 -0.5542
 5719TIP3   OH238719   5.590   0.043   7.522 -0.1211  0.0417  0.3199
 5719TIP3    H138720   5.500   0.055   7.492  0.8120 -1.3344 -3.5583
 5719TIP3    H238721   5.602  -0.052   7.523  1.4203  0.2103  0.2790
 5720TIP3   OH238722   1.028   3.200   1.407 -0.3785  0.2889  0.3489
 5720TIP3    H138723   1.072   3.117   1.423  0.6646  0.9788  1.1916
 5720TIP3    H238724   0.976   3.216   1.485  1.7030  1.7908  1.5390
 5721TIP3   OH238725   0.130   1.162   1.002 -0.2613 -0.3068 -0.2130
 5721TIP3    H138726   0.083   1.079   1.002  0.4230 -0.6988 -0.6991
 5721TIP3    H238727   0.073   1.220   0.951 -0.6789 -0.4997  0.0194
 5722TIP3   OH238728   6.617   4.585   0.975 -0.5341 -0.5455  0.4277
 5722TIP3    H138729   6.600   4.555   1.064 -0.9110  1.6500  1.1605
 5722TIP3    H238730   6.555   4.656   0.961  0.0078 -0.3653 -1.3269
 5723TIP3   OH238731   5.942   4.410   7.782  0.1767 -0.7537 -0.0800
 5723TIP3    H138732   5.960   4.434   7.873  0.5532 -1.4012  0.0162
 5723TIP3    H238733   5.918   4.493   7.740  4.0885  0.4152 -0.4242
 5724TIP3   OH238734   6.766   1.664   1.110  0.7553  0.4959 -0.2379
 5724TIP3    H138735   6.762   1.637   1.018  0.8864  2.1612 -0.7589
 5724TIP3    H238736   6.725   1.750   1.111 -0.0769  0.1053  1.4425
 5725TIP3   OH238737   6.765   3.601   1.037  0.0213 -0.0298  0.0707
 5725TIP3    H138738   6.742   3.542   0.965 -1.1123  0.6444 -0.1376
 5725TIP3    H238739   6.844   3.645   1.007 -0.9987  0.9860 -1.2361
 5726TIP3   OH238740   3.041   1.972   6.671 -0.1649  0.1415  0.3636
 5726TIP3    H138741   2.960   2.010   6.637 -0.2508  0.5056  0.9511
 5726TIP3    H238742   3.095   2.048   6.693  0.7221 -0.0962 -0.8994
 5727TIP3   OH238743   5.988   1.942   1.556  0.5064  0.6962 -0.5251
 5727TIP3    H138744   5.922   1.882   1.522 -0.1086  0.1269  1.4992
 5727TIP3    H238745   5.994   2.011   1.490 -0.9303 -0.0695 -1.5240
 5728TIP3   OH238746   4.128   3.293   0.676  0.6317  0.5523  0.1978
 5728TIP3    H138747   4.163   3.374   0.713 -1.7572  0.5253  2.7236
 5728TIP3    H238748   4.070   3.322   0.605  1.3478  0.8752 -0.2774
 5729TIP3   OH238749   6.561   3.538   1.925 -0.4049 -0.6196 -0.3049
 5729TIP3    H138750   6.582   3.589   2.003  1.7559 -0.6579 -0.7924
 5729TIP3    H238751   6.534   3.603   1.860 -0.5707 -0.4209 -0.0394
 5730TIP3   OH238752   4.307   6.119   8.203  0.1345 -0.3129 -0.6793
 5730TIP3    H138753   4.211   6.118   8.196 -0.0487  1.9153  0.6721
 5730TIP3    H238754   4.325   6.074   8.286  0.1478  0.5489 -0.2104
 5731TIP3   OH238755   3.127   0.756   1.412  0.2787 -0.4745 -0.2927
 5731TIP3    H138756   3.064   0.687   1.429  1.4061 -0.9545  2.3252
 5731TIP3    H238757   3.174   0.768   1.494  2.4517  1.0541 -1.6243
 5732TIP3   OH238758   6.139   6.553   7.411  0.0051 -0.0671  0.3300
 5732TIP3    H138759   6.130   6.611   7.487 -1.3871 -0.9418  0.8783
 5732TIP3    H238760   6.168   6.470   7.447  0.1897 -0.2404 -0.2085
 5733TIP3   OH238761   3.663   2.068   6.614  0.4319  0.1200  0.3285
 5733TIP3    H138762   3.571   2.088   6.596  0.8829  1.7997 -0.2865
 5733TIP3    H238763   3.699   2.149   6.650  0.9587 -1.3937  3.6565
 5734TIP3   OH238764   5.032   6.147   6.668  0.1973  0.0483  0.5958
 5734TIP3    H138765   5.103   6.159   6.732  0.9000  0.0621 -0.1643
 5734TIP3    H238766   5.074   6.162   6.584 -0.7965  0.3694  0.1460
 5735TIP3   OH238767   1.558   4.027   1.494  0.1634  0.2341 -0.0319
 5735TIP3    H138768   1.618   4.036   1.420  1.1885 -0.9937  0.6008
 5735TIP3    H238769   1.522   3.939   1.486  0.3314  0.0616  0.9442
 5736TIP3   OH238770   3.681   6.701   7.423 -0.3052  0.7217 -0.0306
 5736TIP3    H138771   3.647   6.756   7.493  1.1328  0.6431  0.7690
 5736TIP3    H238772   3.683   6.758   7.346 -2.0243  0.7701 -0.0852
 5737TIP3   OH238773   3.172   3.407   2.245  0.1395  0.1006  0.0901
 5737TIP3    H138774   3.082   3.422   2.215  0.3325  0.2051 -0.4437
 5737TIP3    H238775   3.217   3.489   2.226  0.1539  0.3513  1.1263
 5738TIP3   OH238776   6.816   3.531   1.674 -0.0448  0.4029  0.3915
 5738TIP3    H138777   6.865   3.492   1.746 -2.1960 -1.1502  1.0992
 5738TIP3    H238778   6.732   3.557   1.712 -1.4628 -0.9260 -1.6016
 5739TIP3   OH238779   4.460   6.791   1.123  0.8703  0.3262  0.0825
 5739TIP3    H138780   4.453   6.699   1.147 -1.5135  0.0864 -1.2954
 5739TIP3    H238781   4.414   6.837   1.193  1.9533  0.5005  0.7049
 5740TIP3   OH238782   2.054   3.919   7.807 -0.6155 -0.1472 -0.1763
 5740TIP3    H138783   2.031   3.980   7.877  0.2213 -1.6099  1.4654
 5740TIP3    H238784   2.146   3.898   7.823 -1.4321 -3.5828  0.8218
 5741TIP3   OH238785   3.819   4.471   0.609 -0.0271  0.0834 -0.2239
 5741TIP3    H138786   3.760   4.415   0.660 -0.0807 -1.1124 -1.5110
 5741TIP3    H238787   3.894   4.485   0.666  1.1673 -3.4755 -0.6473
 5742TIP3   OH238788   6.186   5.517   1.807 -0.2856 -0.1452  0.0032
 5742TIP3    H138789   6.147   5.437   1.842  1.1180  0.4025  3.1806
 5742TIP3    H238790   6.112   5.574   1.789 -1.1919 -0.7542  1.5620
 5743TIP3   OH238791   5.916   0.272   6.704  0.2594  0.0388  0.1166
 5743TIP3    H138792   5.882   0.201   6.649  1.8705 -0.7723  0.1116
 5743TIP3    H238793   5.940   0.340   6.641  0.4129 -0.1488 -0.0281
 5744TIP3   OH238794   3.362   2.230   7.797 -0.6658 -0.3426 -0.2269
 5744TIP3    H138795   3.399   2.181   7.723  0.1409 -0.9639  0.5717
 5744TIP3    H238796   3.367   2.169   7.871 -0.7016  0.5532  0.5300
 5745TIP3   OH238797   2.123   3.311   8.207 -0.5107  0.2868  0.3661
 5745TIP3    H138798   2.053   3.249   8.187  0.9542 -1.5006  0.5256
 5745TIP3    H238799   2.098   3.349   8.291 -0.9258 -0.9009  0.8033
 5746TIP3   OH238800   2.797   3.341   7.467 -0.0297 -0.7783  0.0579
 5746TIP3    H138801   2.779   3.261   7.516 -0.2849 -0.8165 -0.0965
 5746TIP3    H238802   2.755   3.410   7.518 -0.9830 -0.9163 -0.5048
 5747TIP3   OH238803   1.339   3.262   0.361  0.9027  0.5239  0.1244
 5747TIP3    H138804   1.282   3.325   0.404  1.0768  0.9567 -0.2735
 5747TIP3    H238805   1.401   3.235   0.429  0.4743  0.3426  0.4496
 5748TIP3   OH238806   5.187   1.278   1.788 -0.6054 -0.0436  0.3005
 5748TIP3    H138807   5.259   1.305   1.846 -0.8819 -0.2115  0.7219
 5748TIP3    H238808   5.116   1.338   1.809 -0.5076  0.2964 -0.3081
 5749TIP3   OH238809   1.582   2.133   7.560 -0.3264 -0.3513  0.0926
 5749TIP3    H138810   1.577   2.046   7.598 -1.9854  0.5599  2.1640
 5749TIP3    H238811   1.499   2.175   7.583 -0.9195  0.7885 -3.5304
 5750TIP3   OH238812   0.306   2.169   1.489  0.1123 -0.0836  0.2859
 5750TIP3    H138813   0.294   2.226   1.565 -0.7428  0.7307 -0.4405
 5750TIP3    H238814   0.355   2.222   1.426  1.4252 -0.9917  0.5243
 5751TIP3   OH238815   1.427   3.731   6.548 -0.0399  0.1383 -0.1506
 5751TIP3    H138816   1.375   3.661   6.510  2.4262 -1.3348 -1.0778
 5751TIP3    H238817   1.404   3.808   6.497 -2.5773  0.0138  0.6879
 5752TIP3   OH238818   0.136   0.405   1.281 -0.0736 -0.0025  0.6455
 5752TIP3    H138819   0.136   0.310   1.289  0.4563 -0.2391 -1.5879
 5752TIP3    H238820   0.079   0.435   1.352  0.5744 -1.8977  2.0317
 5753TIP3   OH238821   3.379   3.360   6.873  0.3558 -0.6850  0.1912
 5753TIP3    H138822   3.459   3.320   6.837 -0.5471  0.4060 -3.4790
 5753TIP3    H238823   3.411   3.431   6.928  2.0643  0.6162 -2.2676
 5754TIP3   OH238824   0.225   4.031   1.107 -0.4974 -0.1486  0.3934
 5754TIP3    H138825   0.320   4.040   1.099 -0.4865 -0.4924  0.0942
 5754TIP3    H238826   0.203   3.958   1.050 -0.5923 -1.8792  2.4907
 5755TIP3   OH238827   0.145   2.770   6.789  0.1004 -0.1256  0.0999
 5755TIP3    H138828   0.067   2.794   6.740 -0.2020  0.8650  1.0173
 5755TIP3    H238829   0.142   2.674   6.795  0.4152 -0.3410 -2.1778
 5756TIP3   OH238830   6.631   1.525   1.415  0.1781 -0.6574  0.0341
 5756TIP3    H138831   6.723   1.549   1.424  0.5321 -2.2040  0.8548
 5756TIP3    H238832   6.603   1.501   1.504 -0.8953 -0.6306 -0.2741
 5757TIP3   OH238833   3.295   0.300   0.833 -0.2590  0.3077 -0.2298
 5757TIP3    H138834   3.363   0.358   0.800  1.0294 -1.4028 -0.7577
 5757TIP3    H238835   3.265   0.341   0.914  0.0661  2.0497 -0.9630
 5758TIP3   OH238836   3.024   3.503   0.913 -0.3473 -0.1716 -0.3326
 5758TIP3    H138837   3.060   3.537   0.995 -0.5837 -0.9376  0.1020
 5758TIP3    H238838   3.066   3.555   0.845  0.2342  0.1397  0.2515
 5759TIP3   OH238839   5.812   5.969   6.786 -0.7233 -0.3008 -0.9913
 5759TIP3    H138840   5.891   5.936   6.742 -0.1853  1.6169 -1.5701
 5759TIP3    H238841   5.752   5.990   6.715 -2.2058 -2.6250 -0.5245
 5760TIP3   OH238842   0.235   1.374   8.360 -0.0965  0.2040 -0.4623
 5760TIP3    H138843   0.246   1.299   8.301 -1.0593 -2.0666  2.0220
 5760TIP3    H238844   0.324   1.407   8.373  0.2658 -0.0072 -2.1819
 5761TIP3   OH238845   6.428   6.033   7.987 -0.9124  0.3045  0.1063
 5761TIP3    H138846   6.502   6.088   8.014  0.0036 -0.4247 -0.8368
 5761TIP3    H238847   6.467   5.966   7.931 -2.0573 -1.0777  0.8866
 5762TIP3   OH238848   3.543   6.141   0.042 -0.8262  0.3683  0.1564
 5762TIP3    H138849   3.561   6.187  -0.040 -0.9741  1.6443  0.8131
 5762TIP3    H238850   3.602   6.066   0.042  0.6548  1.4998 -0.1745
 5763TIP3   OH238851   3.942   4.115   1.674 -0.6533 -0.3974 -0.1787
 5763TIP3    H138852   3.973   4.089   1.760 -0.7056  1.5100  0.4763
 5763TIP3    H238853   3.987   4.057   1.613  1.3699 -0.1512  0.9951
 5764TIP3   OH238854   5.668   5.986   6.529 -0.0195  0.2266 -0.1031
 5764TIP3    H138855   5.591   5.930   6.529 -0.1809  0.4206  0.8921
 5764TIP3    H238856   5.634   6.073   6.508  0.5665 -0.3615 -4.3494
 5765TIP3   OH238857   3.782   2.890   2.334 -0.3076  0.2608 -0.4414
 5765TIP3    H138858   3.811   2.922   2.420  0.2606  2.3367 -1.3250
 5765TIP3    H238859   3.707   2.946   2.313 -0.2164  0.0172 -1.4373
 5766TIP3   OH238860   1.203   0.455   6.778 -0.3445  0.4913  0.6391
 5766TIP3    H138861   1.218   0.507   6.857 -0.3549 -0.4399  1.2681
 5766TIP3    H238862   1.236   0.368   6.800 -2.1808 -0.3195  0.3494
 5767TIP3   OH238863   5.710   5.690   1.980 -0.4344 -0.1648  0.2590
 5767TIP3    H138864   5.784   5.631   1.994  1.0785  1.8134  1.0254
 5767TIP3    H238865   5.655   5.679   2.057 -1.7010 -2.5676 -0.8772
 5768TIP3   OH238866   6.271   5.197   2.041 -0.2366  0.4754 -0.3558
 5768TIP3    H138867   6.214   5.274   2.042  1.9388  2.1747 -0.6779
 5768TIP3    H238868   6.269   5.164   2.131 -0.4918  1.4599  0.0073
 5769TIP3   OH238869   3.604   2.352   8.311  0.2227 -0.0776  0.5638
 5769TIP3    H138870   3.560   2.330   8.393  0.5740 -0.2108  0.7206
 5769TIP3    H238871   3.636   2.268   8.278  0.1934 -0.0069  0.3598
 5770TIP3   OH238872   2.183   2.591   0.725 -0.0177  0.1732 -0.0230
 5770TIP3    H138873   2.228   2.646   0.789 -1.4711  0.3287  0.9085
 5770TIP3    H238874   2.207   2.501   0.751 -0.7422  0.2256  0.8856
 5771TIP3   OH238875   2.108   6.073   1.175 -0.0631 -0.2242 -0.1539
 5771TIP3    H138876   2.027   6.044   1.217  1.1278 -2.4293  0.8295
 5771TIP3    H238877   2.161   6.108   1.247  0.6354 -0.7421 -0.4054
 5772TIP3   OH238878   1.477   1.364   0.183  0.8049 -0.5494  0.1181
 5772TIP3    H138879   1.563   1.322   0.186  0.9443 -0.1986  1.6361
 5772TIP3    H238880   1.416   1.295   0.208  1.0164  0.0197  2.4321
 5773TIP3   OH238881   2.772   2.940   5.958 -0.4254  0.4144  0.1280
 5773TIP3    H138882   2.762   2.945   6.053  0.4773  2.8495  0.1634
 5773TIP3    H238883   2.685   2.957   5.923 -0.2063  2.8011  0.5589
 5774TIP3   OH238884   1.677   4.020   7.278  0.9101  0.2038 -0.7228
 5774TIP3    H138885   1.699   4.113   7.286  0.0577  0.2691  1.5174
 5774TIP3    H238886   1.585   4.015   7.302  0.3292 -0.9956 -2.9035
 5775TIP3   OH238887   4.396   5.175   1.843  0.2158  0.0675 -0.5622
 5775TIP3    H138888   4.316   5.223   1.863  0.1803 -0.5409  0.8991
 5775TIP3    H238889   4.467   5.237   1.862  0.1244  0.6042 -1.8522
 5776TIP3   OH238890   5.154   1.491   6.570  0.0143 -0.5314 -0.1057
 5776TIP3    H138891   5.104   1.425   6.522 -0.8752  0.5146 -0.6596
 5776TIP3    H238892   5.135   1.573   6.525 -0.9342  0.5168  2.0657
 5777TIP3   OH238893   5.385   2.351   7.940  0.4308  0.7278  0.2870
 5777TIP3    H138894   5.329   2.275   7.921  0.6342  0.7029 -0.2267
 5777TIP3    H238895   5.353   2.383   8.025  0.4962 -0.0721  0.6304
 5778TIP3   OH238896   2.439   3.181   7.182 -0.3574 -0.2764 -0.1552
 5778TIP3    H138897   2.476   3.177   7.270  2.1333 -1.7533 -1.1533
 5778TIP3    H238898   2.345   3.163   7.194  0.0814 -1.4304  2.1068
 5779TIP3   OH238899   4.217   4.525   1.369  0.5678 -0.5370 -0.0651
 5779TIP3    H138900   4.197   4.547   1.460  0.1512  0.2824 -0.3478
 5779TIP3    H238901   4.223   4.610   1.325  0.4630 -0.9399 -0.8640
 5780TIP3   OH238902   4.003   5.333   7.108 -0.5289  0.5089 -0.3632
 5780TIP3    H138903   4.075   5.364   7.053  1.0055 -2.6316 -0.3458
 5780TIP3    H238904   3.947   5.284   7.048  0.9916 -2.6743  0.5733
 5781TIP3   OH238905   5.815   3.143   0.757 -0.2418 -0.3886 -0.0019
 5781TIP3    H138906   5.900   3.145   0.803 -0.5474 -0.5283  0.5843
 5781TIP3    H238907   5.766   3.073   0.801 -1.2307  0.7141  0.7078
 5782TIP3   OH238908   6.317   3.470   1.244 -0.1095  0.3285 -0.5012
 5782TIP3    H138909   6.299   3.388   1.292 -0.0365  0.8574  0.4586
 5782TIP3    H238910   6.396   3.451   1.194  0.8932  0.3193  1.0202
 5783TIP3   OH238911   0.766   1.826   1.083 -0.0019  0.0528  0.1278
 5783TIP3    H138912   0.747   1.740   1.045 -0.7126  0.1294  0.2845
 5783TIP3    H238913   0.789   1.881   1.008 -1.8414  0.3264 -0.2909
 5784TIP3   OH238914   3.812   2.519   8.350 -0.2461  0.0579 -0.0399
 5784TIP3    H138915   3.746   2.449   8.345  0.0532 -0.1598 -1.4114
 5784TIP3    H238916   3.895   2.474   8.336  0.3565  0.1753  2.6851
 5785TIP3   OH238917   0.831   3.481   7.796 -0.2624  0.9271  0.5155
 5785TIP3    H138918   0.899   3.455   7.857 -1.5028 -1.3476  1.0272
 5785TIP3    H238919   0.858   3.444   7.712 -1.5778 -1.4131  1.0533
 5786TIP3   OH238920   0.314   3.890   0.222  0.1044 -0.8291  0.4367
 5786TIP3    H138921   0.322   3.972   0.271  1.6455 -1.5653  1.5239
 5786TIP3    H238922   0.345   3.823   0.283  0.8843 -1.9588 -1.1264
 5787TIP3   OH238923   5.884   5.710   7.396  0.0591  0.4452 -0.5877
 5787TIP3    H138924   5.973   5.719   7.363  0.1249 -0.0717 -0.5617
 5787TIP3    H238925   5.854   5.625   7.364 -0.6132  0.8294 -1.0163
 5788TIP3   OH238926   0.166   5.466   7.102 -0.1498 -0.0866 -0.7601
 5788TIP3    H138927   0.090   5.515   7.070 -0.0614 -0.1487 -1.0698
 5788TIP3    H238928   0.190   5.509   7.184  0.6174  1.0837 -1.5801
 5789TIP3   OH238929   0.195   4.747   8.312 -0.0898  0.3065  0.0107
 5789TIP3    H138930   0.264   4.697   8.355 -0.9536 -1.3743 -0.4534
 5789TIP3    H238931   0.116   4.728   8.363 -0.5411  0.8098 -0.4718
 5790TIP3   OH238932   1.795   3.556   7.416 -0.3801 -0.0367 -0.0711
 5790TIP3    H138933   1.729   3.531   7.351 -0.9498  0.7573  0.1846
 5790TIP3    H238934   1.781   3.650   7.430  1.6236  0.4405 -0.9352
 5791TIP3   OH238935   1.311   0.963   0.595  0.5489  0.0300  0.2014
 5791TIP3    H138936   1.278   1.053   0.593  1.6825  0.4663 -2.0270
 5791TIP3    H238937   1.238   0.910   0.565  0.6849  0.5562 -1.1218
 5792TIP3   OH238938   1.993   3.554   1.808 -0.3790 -0.4758  0.0614
 5792TIP3    H138939   1.948   3.601   1.878  0.5931 -1.2776  1.2774
 5792TIP3    H238940   1.985   3.461   1.832 -1.7609 -0.9471 -1.9720
 5793TIP3   OH238941   5.072   0.002   0.664 -0.3835  0.8078 -0.4856
 5793TIP3    H138942   5.106  -0.082   0.634 -0.0625  1.1041 -0.9711
 5793TIP3    H238943   5.029  -0.018   0.747  0.4476  0.3120 -0.1566
 5794TIP3   OH238944   2.927   2.050   7.349 -0.1057  0.0865 -0.0023
 5794TIP3    H138945   2.941   1.973   7.405 -1.4340 -0.1028  0.0929
 5794TIP3    H238946   2.921   2.123   7.411  0.5968  0.1983 -0.0572
 5795TIP3   OH238947   4.265   4.427   0.183 -0.6360  0.2404  0.5181
 5795TIP3    H138948   4.358   4.449   0.186 -0.9007  1.4315  0.4109
 5795TIP3    H238949   4.238   4.424   0.274 -0.3359 -0.9182  0.5938
 5796TIP3   OH238950   3.720   6.174   8.178 -0.0741  0.5154  0.5096
 5796TIP3    H138951   3.789   6.221   8.225 -0.5797  1.5352  0.2624
 5796TIP3    H238952   3.764   6.096   8.143  0.7592  0.7362  1.0259
 5797TIP3   OH238953   6.107   2.621   0.870  0.0796 -0.2874  0.2910
 5797TIP3    H138954   6.188   2.653   0.831 -1.3946  2.1075 -1.1154
 5797TIP3    H238955   6.066   2.568   0.801 -0.9350  1.0949 -0.2126
 5798TIP3   OH238956   0.890   2.735   0.661  0.1424  0.6951 -0.0634
 5798TIP3    H138957   0.926   2.686   0.735  1.3111 -0.2645 -1.2236
 5798TIP3    H238958   0.944   2.815   0.657  0.4134  0.5070 -0.1868
 5799TIP3   OH238959   5.938   6.143   0.836 -0.2804 -0.2940  0.1695
 5799TIP3    H138960   5.910   6.231   0.859  1.1428 -0.1350  1.4881
 5799TIP3    H238961   6.033   6.150   0.828 -0.3822 -1.0862 -2.7333
 5800TIP3   OH238962   2.967   5.086   1.687  0.5266  0.3876 -0.0456
 5800TIP3    H138963   3.035   5.072   1.621  2.0700  1.1295  1.3048
 5800TIP3    H238964   2.978   5.177   1.713  0.4718 -0.0927  1.7619
 5801TIP3   OH238965   7.014   5.633   6.951  0.0065 -0.1709 -0.3173
 5801TIP3    H138966   6.959   5.563   6.915 -0.9162  0.2754  0.2123
 5801TIP3    H238967   6.965   5.713   6.935  0.8782  0.3215 -0.5600
 5802TIP3   OH238968   6.523   4.850   0.791 -0.6703 -0.3635 -0.0912
 5802TIP3    H138969   6.541   4.944   0.793 -0.3783 -0.2470 -3.3038
 5802TIP3    H238970   6.461   4.837   0.863 -0.2574  2.1257  0.8531
 5803TIP3   OH238971   3.651   1.414   0.526  0.2278  0.0722 -0.0664
 5803TIP3    H138972   3.601   1.333   0.513  0.7878 -0.2314 -0.3697
 5803TIP3    H238973   3.742   1.386   0.520  0.4210  0.8818 -1.1360
 5804TIP3   OH238974   1.884   1.107   0.902 -0.4456 -0.7829 -0.0923
 5804TIP3    H138975   1.806   1.144   0.943  0.5113  1.9083 -0.4723
 5804TIP3    H238976   1.864   1.108   0.808  0.3331  0.9357 -0.2942
 5805TIP3   OH238977   1.771   5.789   0.345  0.2997 -0.9896  0.3573
 5805TIP3    H138978   1.845   5.850   0.342  1.7454 -2.6595  0.4591
 5805TIP3    H238979   1.754   5.776   0.438 -0.8238  0.1484  0.3385
 5806TIP3   OH238980   5.313   4.926   7.061  0.2859  0.7576  0.8458
 5806TIP3    H138981   5.399   4.929   7.019 -0.3135  0.4321 -0.4420
 5806TIP3    H238982   5.260   4.988   7.012 -0.8730 -0.7937  0.0547
 5807TIP3   OH238983   3.681   5.580   1.877  0.0975  0.4839  0.4431
 5807TIP3    H138984   3.676   5.595   1.783 -0.0472 -2.0230 -0.0192
 5807TIP3    H238985   3.758   5.629   1.905  0.3929  0.9254 -1.0681
 5808TIP3   OH238986   2.434   0.532   0.873 -0.2414  0.3965 -0.1710
 5808TIP3    H138987   2.450   0.549   0.780 -2.4216 -0.6365 -0.7901
 5808TIP3    H238988   2.407   0.441   0.876 -0.7659  0.5816  1.3970
 5809TIP3   OH238989   1.183   0.181   1.146  0.4858  0.5056 -0.0601
 5809TIP3    H138990   1.181   0.179   1.241 -0.7342  0.1535 -0.0740
 5809TIP3    H238991   1.232   0.102   1.121  0.5202  0.4245  0.2658
 5810TIP3   OH238992   3.855   1.686   7.058  0.2213  0.3129 -0.4118
 5810TIP3    H138993   3.888   1.735   6.982  1.4880 -1.4409 -1.0630
 5810TIP3    H238994   3.934   1.648   7.098 -0.4403  1.0748  1.7225
 5811TIP3   OH238995   1.780   3.015   8.076  0.2885 -0.2855 -0.0222
 5811TIP3    H138996   1.860   3.067   8.066  0.7520 -1.2013 -1.4206
 5811TIP3    H238997   1.710   3.079   8.076  0.8657  0.3942 -1.4767
 5812TIP3   OH238998   4.937   0.133   0.473 -0.3558 -0.2313 -0.0168
 5812TIP3    H138999   4.903   0.043   0.477  0.0395 -0.4463 -1.1013
 5812TIP3    H239000   5.015   0.132   0.528 -1.1936 -0.1439  1.2067
 5813TIP3   OH239001   6.888   4.348   0.902 -0.2008 -0.3850 -0.4439
 5813TIP3    H139002   6.848   4.270   0.864  0.3120 -0.8003 -0.1563
 5813TIP3    H239003   6.829   4.419   0.879 -1.4913 -1.0668  0.5852
 5814TIP3   OH239004   0.968   0.529   1.573  0.3220  0.6236 -0.0515
 5814TIP3    H139005   0.958   0.582   1.494 -1.1570 -0.4032 -0.6010
 5814TIP3    H239006   1.055   0.489   1.564  1.1341  2.3216  0.0021
 5815TIP3   OH239007   3.949   6.402   7.968  0.1180 -0.3705 -0.2599
 5815TIP3    H139008   3.997   6.322   7.945 -0.0484 -0.2429 -1.0700
 5815TIP3    H239009   4.003   6.473   7.933 -0.3937 -0.1986 -0.7013
 5816TIP3   OH239010   1.598   4.933   7.841  0.3451 -0.2733  0.3467
 5816TIP3    H139011   1.616   5.027   7.846 -0.6233  0.0197 -1.0920
 5816TIP3    H239012   1.583   4.907   7.932  1.4981  0.7659  0.8655
 5817TIP3   OH239013   5.293   1.562   6.810  0.2185 -0.3564 -0.2605
 5817TIP3    H139014   5.317   1.484   6.861 -0.1290  0.1774  0.7420
 5817TIP3    H239015   5.255   1.527   6.729  2.8820 -1.2348 -1.2477
 5818TIP3   OH239016   2.518   6.922   0.954  0.0390 -0.3135  0.2080
 5818TIP3    H139017   2.601   6.933   1.000 -0.7574  0.8488  1.4092
 5818TIP3    H239018   2.526   6.975   0.875  0.3777 -0.0685  0.4084
 5819TIP3   OH239019   6.823   4.012   7.541  0.0105  0.5313  0.1592
 5819TIP3    H139020   6.830   3.984   7.449  1.0972 -0.6918  0.5820
 5819TIP3    H239021   6.750   4.074   7.541  0.8924  1.6569 -1.7849
 5820TIP3   OH239022   3.741   6.174   7.152  0.2609  0.3001  0.1614
 5820TIP3    H139023   3.818   6.127   7.185  1.1081  1.1807 -0.4922
 5820TIP3    H239024   3.706   6.218   7.230 -0.4768 -1.2642  0.7570
 5821TIP3   OH239025   5.811   3.540   7.800 -0.1640 -0.4919 -0.3634
 5821TIP3    H139026   5.774   3.541   7.712 -0.3840 -0.1887 -0.2686
 5821TIP3    H239027   5.777   3.619   7.841  1.4906  0.3986 -0.6353
 5822TIP3   OH239028   5.900   0.075   0.703  0.1284  0.3251  0.3002
 5822TIP3    H139029   5.964   0.006   0.683  0.8369  0.9391  0.4231
 5822TIP3    H239030   5.929   0.111   0.787 -0.5635  0.3999  0.5124
 5823TIP3   OH239031   4.774   5.233   1.465  0.0573 -0.5631 -0.4497
 5823TIP3    H139032   4.806   5.263   1.550 -1.2318  0.4646 -0.3028
 5823TIP3    H239033   4.830   5.277   1.402 -0.9174  1.1220 -0.1912
 5824TIP3   OH239034   1.687   3.926   7.739  0.2522  0.5474  0.1743
 5824TIP3    H139035   1.594   3.946   7.742 -0.3203 -1.6971 -0.7881
 5824TIP3    H239036   1.728   4.005   7.702 -1.2668  1.4726  0.4104
 5825TIP3   OH239037   5.462   2.568   6.885 -0.1415 -0.4903 -0.3152
 5825TIP3    H139038   5.475   2.491   6.830 -0.3479  1.6021 -3.5017
 5825TIP3    H239039   5.376   2.555   6.925 -1.5032 -0.7121 -3.0794
 5826TIP3   OH239040   4.560   6.427   1.048 -0.3140 -0.6525 -0.5164
 5826TIP3    H139041   4.559   6.343   1.093 -0.5943 -0.5953 -0.4122
 5826TIP3    H239042   4.467   6.450   1.039 -0.2709 -0.7911 -1.3586
 5827TIP3   OH239043   3.918   2.423   0.378  0.1051  0.6390  0.4930
 5827TIP3    H139044   3.898   2.513   0.352 -0.2928  0.0613 -1.3150
 5827TIP3    H239045   3.850   2.401   0.442  0.3577  1.6809  1.1503
 5828TIP3   OH239046   6.254   6.007   6.468 -0.0520  0.0605  0.2845
 5828TIP3    H139047   6.283   6.036   6.382  0.7757  1.7393  1.0743
 5828TIP3    H239048   6.208   6.082   6.505  2.3480  0.5951  2.5126
 5829TIP3   OH239049   0.954   6.687   6.642  0.3361  0.4811  0.2234
 5829TIP3    H139050   0.894   6.748   6.685 -2.1539  0.9546 -3.4391
 5829TIP3    H239051   0.914   6.601   6.655 -0.1074  0.5589 -0.5444
 5830TIP3   OH239052   0.272   3.825   8.334 -0.4441 -0.0927 -0.6577
 5830TIP3    H139053   0.315   3.856   8.414  0.1388  0.1018 -1.0431
 5830TIP3    H239054   0.235   3.740   8.358 -1.2822  0.4745  0.1490
 5831TIP3   OH239055   3.236   2.914   6.331 -0.0578  0.3587 -0.1939
 5831TIP3    H139056   3.156   2.908   6.383  0.5548  1.2867  0.9167
 5831TIP3    H239057   3.304   2.877   6.388  0.2690 -0.7074 -1.2408
 5832TIP3   OH239058   5.794   6.071   7.332 -0.0295  0.3747  0.0707
 5832TIP3    H139059   5.765   6.161   7.348 -1.5104  0.0994 -0.8492
 5832TIP3    H239060   5.782   6.059   7.237 -1.8220 -1.4071  0.4560
 5833TIP3   OH239061   2.726   4.057   1.936 -0.1746 -0.1313  0.1280
 5833TIP3    H139062   2.641   4.063   1.980  0.5607  2.5180  1.3912
 5833TIP3    H239063   2.724   4.126   1.871  1.0344 -0.0050  0.2094
 5834TIP3   OH239064   0.418   1.839   6.783 -0.1953 -0.0377  0.8663
 5834TIP3    H139065   0.421   1.836   6.879  3.9596 -1.9501  0.9048
 5834TIP3    H239066   0.500   1.882   6.758 -0.1537 -1.4573 -1.7919
 5835TIP3   OH239067   6.882   1.971   2.193 -0.3831 -0.4054  0.2850
 5835TIP3    H139068   6.794   1.996   2.219 -0.2536  0.2919  0.0818
 5835TIP3    H239069   6.869   1.916   2.115 -0.6171  0.2377 -0.1415
 5836TIP3   OH239070   4.761   6.826   7.263 -0.6939  0.1222  0.0574
 5836TIP3    H139071   4.750   6.762   7.333  0.6799  0.2362  0.3975
 5836TIP3    H239072   4.695   6.893   7.282  0.5489  0.8800  2.0978
 5837TIP3   OH239073   1.040   3.850   0.763 -0.2537 -0.4254  0.1326
 5837TIP3    H139074   1.128   3.845   0.799 -0.4175  0.0610  0.6051
 5837TIP3    H239075   0.985   3.875   0.837 -0.6503  0.1866 -0.3615
 5838TIP3   OH239076   6.683   3.460   0.817  0.5064  0.1674 -0.1955
 5838TIP3    H139077   6.758   3.502   0.775 -0.0321  0.0788 -1.2994
 5838TIP3    H239078   6.645   3.405   0.748  1.6177 -2.7895  1.3956
 5839TIP3   OH239079   4.698   6.563   1.326  0.4770 -0.5517 -0.0030
 5839TIP3    H139080   4.699   6.469   1.306 -0.2468 -0.6771  0.4940
 5839TIP3    H239081   4.730   6.605   1.247  2.0777 -1.2850  0.2113
 5840TIP3   OH239082   3.166   3.914   6.449 -0.0608  0.2558 -0.4338
 5840TIP3    H139083   3.103   3.985   6.461 -0.7670 -0.4178 -0.0795
 5840TIP3    H239084   3.244   3.957   6.415  0.4847  1.6340  2.3089
 5841TIP3   OH239085   5.425   1.977   7.160 -0.0118 -0.0226  0.3629
 5841TIP3    H139086   5.378   1.897   7.186  2.4381 -2.0333 -0.8793
 5841TIP3    H239087   5.397   1.993   7.070  0.4635 -0.2803  0.1655
 5842TIP3   OH239088   0.418   5.023   0.079 -0.2269  0.1562  0.4284
 5842TIP3    H139089   0.334   5.012   0.034 -0.1821 -0.2766  0.4462
 5842TIP3    H239090   0.483   4.992   0.016 -0.2514 -1.5784  1.2010
 5843TIP3   OH239091   0.240   0.103   0.077  0.9665  0.2747  0.4865
 5843TIP3    H139092   0.212   0.194   0.071  1.1313  0.4090  1.5171
 5843TIP3    H239093   0.222   0.066  -0.009 -2.1181  0.3999  0.9789
 5844TIP3   OH239094   4.961   3.055   1.766  0.4298 -0.1720 -0.1724
 5844TIP3    H139095   4.980   2.963   1.784  0.5393  0.1719  1.5746
 5844TIP3    H239096   4.983   3.101   1.846 -1.1422  1.1845 -0.4578
 5845TIP3   OH239097   5.600   0.002   8.209  0.2242  0.1082  0.0461
 5845TIP3    H139098   5.675   0.056   8.187 -0.4142  0.3670 -1.6180
 5845TIP3    H239099   5.550  -0.005   8.128 -2.0057  0.6780  1.2637
 5846TIP3   OH239100   4.402   3.345   0.923 -0.1820 -0.2393  0.0463
 5846TIP3    H139101   4.374   3.432   0.951  3.2992  0.8090  0.7446
 5846TIP3    H239102   4.432   3.302   1.004  1.7385 -0.5346 -0.7565
 5847TIP3   OH239103   0.447   3.025   7.290 -0.2147 -0.1116 -0.0457
 5847TIP3    H139104   0.475   2.997   7.203 -1.9209  0.1620 -0.7253
 5847TIP3    H239105   0.364   2.980   7.304 -0.4134  0.5562  1.0636
 5848TIP3   OH239106   0.916   4.447   7.307 -0.6600  0.0568  0.0971
 5848TIP3    H139107   0.986   4.445   7.373 -2.3592  1.3467  2.0652
 5848TIP3    H239108   0.882   4.358   7.306  1.3832 -0.7893 -1.4211
 5849TIP3   OH239109   2.895   6.402   0.541  0.0575 -0.0483  0.2039
 5849TIP3    H139110   2.855   6.387   0.627 -0.3151  3.1516  0.6980
 5849TIP3    H239111   2.982   6.437   0.561 -0.0946  0.8778 -0.7218
 5850TIP3   OH239112   1.742   3.848   6.279  0.5690 -0.3870 -0.0743
 5850TIP3    H139113   1.682   3.778   6.252  0.1018 -0.1568  0.3470
 5850TIP3    H239114   1.690   3.928   6.268  0.6603 -0.2202  0.6927
 5851TIP3   OH239115   6.043   1.111   6.649 -0.1621 -0.0281  0.5348
 5851TIP3    H139116   6.110   1.088   6.714 -0.8322  0.2173  1.3248
 5851TIP3    H239117   5.978   1.161   6.698 -1.6415 -1.4494  0.1015
 5852TIP3   OH239118   4.066   6.761   0.105 -0.6497 -0.3245 -0.6861
 5852TIP3    H139119   4.027   6.699   0.044 -1.4484  0.7200 -1.2691
 5852TIP3    H239120   4.023   6.844   0.086  1.4568  0.7822 -0.9777
 5853TIP3   OH239121   3.970   0.811   1.138 -0.2501 -0.3571 -0.8034
 5853TIP3    H139122   3.998   0.772   1.055 -0.0523  0.0387 -0.9213
 5853TIP3    H239123   4.024   0.889   1.147 -1.0731  0.2232 -0.8664
 5854TIP3   OH239124   1.670   3.500   8.232  0.4615 -0.4050 -0.6385
 5854TIP3    H139125   1.641   3.468   8.147  1.2565 -0.6747 -0.8090
 5854TIP3    H239126   1.744   3.558   8.212  0.6954 -0.5248 -0.1224
 5855TIP3   OH239127   3.665   5.802   6.977  0.1395 -0.2535 -0.3278
 5855TIP3    H139128   3.628   5.839   6.897 -1.1611 -1.5262 -0.3527
 5855TIP3    H239129   3.614   5.843   7.047  1.2231  0.7973 -0.1187
 5856TIP3   OH239130   4.391   5.637   0.621 -0.3922  0.3343  0.2513
 5856TIP3    H139131   4.325   5.582   0.579 -0.7019  0.3239  0.7447
 5856TIP3    H239132   4.345   5.676   0.695  0.2844 -0.0195  0.8598
 5857TIP3   OH239133   5.149   0.373   0.396  0.4668 -0.0462 -0.1593
 5857TIP3    H139134   5.167   0.280   0.386  1.6799  0.0713  0.6931
 5857TIP3    H239135   5.228   0.417   0.366  0.4207  0.6478  0.6771
 5858TIP3   OH239136   3.487   6.922   7.589 -0.0056  0.3745  1.3146
 5858TIP3    H139137   3.481   6.868   7.668 -0.9294 -0.3483  0.7617
 5858TIP3    H239138   3.419   6.888   7.531  1.1213  0.4298 -0.0813
 5859TIP3   OH239139   3.653   2.786   1.128  0.8942 -1.1357 -0.1286
 5859TIP3    H139140   3.607   2.756   1.050 -0.9965  0.3809  0.3174
 5859TIP3    H239141   3.583   2.819   1.185  2.5506  2.9522 -0.1171
 5860TIP3   OH239142   3.960   4.847   1.247  0.1255  0.4786  0.1371
 5860TIP3    H139143   3.909   4.811   1.320  0.0327 -0.6923 -0.4735
 5860TIP3    H239144   4.051   4.831   1.271  0.1474  1.2315  0.5607
 5861TIP3   OH239145   3.211   6.993   7.804  0.4045 -0.6809 -0.1748
 5861TIP3    H139146   3.298   6.952   7.805  1.6695  1.8248 -0.5729
 5861TIP3    H239147   3.209   7.047   7.883 -0.6201 -0.3653 -0.4044
 5862TIP3   OH239148   5.801   6.221   1.637 -0.1264 -0.1615 -0.3212
 5862TIP3    H139149   5.850   6.179   1.708 -1.5342 -2.7733 -0.7718
 5862TIP3    H239150   5.718   6.246   1.675  0.0245  0.6599 -0.5031
 5863TIP3   OH239151   1.520   5.599   7.053  0.4115  0.3345 -0.3239
 5863TIP3    H139152   1.606   5.556   7.057  0.3416  0.2286  0.2182
 5863TIP3    H239153   1.458   5.528   7.038  0.2065  0.0911  1.4177
 5864TIP3   OH239154   6.820   3.894   7.928  0.0265 -0.2926  0.2294
 5864TIP3    H139155   6.836   3.815   7.877  0.2959  0.4746 -0.9061
 5864TIP3    H239156   6.806   3.862   8.017 -1.5950 -1.7759 -0.4946
 5865TIP3   OH239157   2.926   5.394   6.689 -0.3985 -0.0107  0.2746
 5865TIP3    H139158   2.892   5.475   6.726 -1.0568 -0.6519  1.0987
 5865TIP3    H239159   2.943   5.338   6.765 -0.3651 -0.8073 -0.3090
 5866TIP3   OH239160   3.939   5.070   1.031 -0.2460 -0.3277 -0.2118
 5866TIP3    H139161   3.952   4.988   1.078  0.7432 -0.9689 -1.5539
 5866TIP3    H239162   3.894   5.045   0.951 -1.2782  0.6596  0.0310
 5867TIP3   OH239163   4.222   1.879   7.922 -0.1229  0.3890 -0.3208
 5867TIP3    H139164   4.146   1.865   7.979 -0.3467  2.3643 -0.0345
 5867TIP3    H239165   4.298   1.873   7.980 -0.1172 -0.5672 -0.4131
 5868TIP3   OH239166   5.558   3.005   1.568  0.0306 -0.2669  0.2915
 5868TIP3    H139167   5.543   3.100   1.561  0.6782  0.0015  2.0514
 5868TIP3    H239168   5.509   2.978   1.645  0.1950 -1.3086  0.0474
 5869TIP3   OH239169   0.165   5.764   7.374  0.7105  0.0756  0.8211
 5869TIP3    H139170   0.189   5.674   7.397  0.9502  0.1248  0.7647
 5869TIP3    H239171   0.217   5.783   7.295  0.3831  0.1343  0.6183
 5870TIP3   OH239172   4.206   6.716   0.359 -0.0956  0.1061 -0.0336
 5870TIP3    H139173   4.202   6.809   0.383 -1.4400  0.0680 -0.0203
 5870TIP3    H239174   4.145   6.708   0.286 -1.5974 -1.1240  1.2738
 5871TIP3   OH239175   4.528   1.135   6.725  0.5633  0.6190 -0.3030
 5871TIP3    H139176   4.457   1.129   6.789  0.7302  0.7628 -0.1005
 5871TIP3    H239177   4.602   1.169   6.776  1.4101 -1.5269  0.0142
 5872TIP3   OH239178   4.829   6.384   0.223 -0.3636 -0.1283 -0.2261
 5872TIP3    H139179   4.879   6.462   0.199 -0.2966  0.4781  1.7346
 5872TIP3    H239180   4.820   6.389   0.318 -1.5842 -1.7898 -0.2057
 5873TIP3   OH239181   1.974   2.798   0.869  0.0583 -0.1767 -0.0050
 5873TIP3    H139182   2.008   2.780   0.781  0.3886 -0.3492  0.1589
 5873TIP3    H239183   2.051   2.798   0.925 -0.2633 -1.2036  0.4684
 5874TIP3   OH239184   5.778   4.380   7.301  0.0541 -0.8998 -0.8743
 5874TIP3    H139185   5.710   4.360   7.366  0.1941 -0.2607 -0.5210
 5874TIP3    H239186   5.744   4.455   7.253  0.6252 -0.3822 -0.4977
 5875TIP3   OH239187   2.417   2.768   1.286  0.3935 -0.2129 -0.1713
 5875TIP3    H139188   2.424   2.714   1.207  0.7392  1.2734 -1.2164
 5875TIP3    H239189   2.504   2.763   1.326  0.8664  0.6264 -1.0322
 5876TIP3   OH239190   5.048   2.534   0.579  0.8868  0.1208  0.3947
 5876TIP3    H139191   5.036   2.441   0.594 -0.3535 -0.0218 -1.1191
 5876TIP3    H239192   5.032   2.575   0.664  0.2482 -0.9573  0.8121
 5877TIP3   OH239193   1.979   1.201   7.395  0.0366 -0.0318 -0.3634
 5877TIP3    H139194   1.959   1.242   7.311 -1.3084 -0.3375 -0.2070
 5877TIP3    H239195   1.988   1.108   7.374 -1.9616 -0.3540  0.0652
 5878TIP3   OH239196   1.984   2.047   1.148 -0.3705 -0.1764  0.2093
 5878TIP3    H139197   2.021   2.077   1.231 -0.1831 -0.8403  0.3727
 5878TIP3    H239198   2.059   2.042   1.089 -0.6996  1.6651 -0.4409
 5879TIP3   OH239199   3.513   1.120   0.461  0.1044  0.1084  0.2236
 5879TIP3    H139200   3.447   1.084   0.403 -1.1660  2.6809 -0.0609
 5879TIP3    H239201   3.589   1.136   0.405 -0.7537  1.5922 -0.5847
 5880TIP3   OH239202   0.721   1.667   7.998  0.4811  0.6535  0.0219
 5880TIP3    H139203   0.747   1.586   7.953  0.5226  0.2290  0.7896
 5880TIP3    H239204   0.701   1.639   8.088 -0.6489  1.3004 -0.0084
 5881TIP3   OH239205   0.931   6.807   0.697  0.3991 -0.3243  0.4708
 5881TIP3    H139206   1.011   6.835   0.743  2.3462 -1.0674 -2.2063
 5881TIP3    H239207   0.862   6.816   0.762  2.4464  1.4935  2.6050
 5882TIP3   OH239208   3.556   3.981   0.716  0.1907 -0.3332  0.4995
 5882TIP3    H139209   3.613   3.981   0.793  1.0385  0.4217 -0.0998
 5882TIP3    H239210   3.477   4.027   0.744  0.8147  0.6468  0.7170
 5883TIP3   OH239211   3.580   6.775   0.785  0.0331  0.1097  0.1636
 5883TIP3    H139212   3.513   6.801   0.848 -0.2811  2.0406 -0.8910
 5883TIP3    H239213   3.532   6.734   0.713  0.2294 -0.6356  0.4518
 5884TIP3   OH239214   6.730   0.995   1.349  0.3054  0.1978 -0.3587
 5884TIP3    H139215   6.746   1.089   1.359 -0.8454  0.2839  0.9851
 5884TIP3    H239216   6.635   0.987   1.341  0.4868 -0.7521 -2.0250
 5885TIP3   OH239217   0.922   0.582   7.407  0.0909 -0.3692  0.4494
 5885TIP3    H139218   1.011   0.597   7.441  1.0003  0.8069 -2.1903
 5885TIP3    H239219   0.933   0.580   7.312 -2.6524 -0.8782  0.0689
 5886TIP3   OH239220   6.884   6.252   7.549 -0.1928 -0.8469  0.2476
 5886TIP3    H139221   6.863   6.209   7.632 -1.2323 -1.2658 -0.2117
 5886TIP3    H239222   6.826   6.328   7.546  0.4566 -0.3396  0.2902
 5887TIP3   OH239223   0.475   6.688   0.808  0.2008  0.0774 -0.2294
 5887TIP3    H139224   0.564   6.664   0.835  0.5196  2.2028  0.7390
 5887TIP3    H239225   0.482   6.704   0.714  0.8972  0.4062 -0.1249
 5888TIP3   OH239226   3.199   2.402   0.096 -0.1033  0.1484  0.5626
 5888TIP3    H139227   3.233   2.339   0.160  2.9646  1.8940  0.8619
 5888TIP3    H239228   3.207   2.487   0.139 -1.0061  1.0861 -1.0095
 5889TIP3   OH239229   5.693   2.690   7.552  0.8370 -0.1461 -0.2374
 5889TIP3    H139230   5.603   2.701   7.584  1.4510  1.6090  0.9887
 5889TIP3    H239231   5.711   2.597   7.565  0.1221 -0.0250  2.1560
 5890TIP3   OH239232   0.625   5.483   6.912  0.3965 -0.2423  0.5420
 5890TIP3    H139233   0.706   5.490   6.962 -0.2897 -0.6460  1.7358
 5890TIP3    H239234   0.568   5.550   6.948  0.7687  1.2959 -1.5097
 5891TIP3   OH239235   4.892   5.381   0.386  0.2457 -0.1088 -0.1327
 5891TIP3    H139236   4.798   5.376   0.402  0.4264 -1.9694  0.6432
 5891TIP3    H239237   4.900   5.431   0.305 -1.2139  2.5054  1.2218
 5892TIP3   OH239238   1.191   2.614   1.466 -0.1671 -0.1522  0.1998
 5892TIP3    H139239   1.128   2.661   1.412  0.2440 -1.4298 -1.4448
 5892TIP3    H239240   1.183   2.523   1.439  0.1355 -0.8401  2.2440
 5893TIP3   OH239241   6.381   1.605   0.187 -0.4940  0.3839 -0.4571
 5893TIP3    H139242   6.473   1.629   0.188 -0.1860 -0.7292 -0.6536
 5893TIP3    H239243   6.349   1.630   0.274  0.6407 -1.5290  0.5893
 5894TIP3   OH239244   4.941   3.280   1.616  0.3371 -0.3536  0.0571
 5894TIP3    H139245   4.848   3.283   1.593  0.4194  0.5895 -0.1922
 5894TIP3    H239246   4.951   3.197   1.663 -0.9237  0.1691  1.3214
 5895TIP3   OH239247   5.216   4.966   7.332  0.1639 -0.3336 -0.0945
 5895TIP3    H139248   5.302   5.009   7.331  1.4335 -2.7407 -0.1666
 5895TIP3    H239249   5.197   4.948   7.240  0.1009 -0.7847  0.0063
 5896TIP3   OH239250   0.713   1.144   1.489 -0.2166 -0.2096  0.0600
 5896TIP3    H139251   0.625   1.108   1.502 -1.0821  0.4766 -3.1854
 5896TIP3    H239252   0.721   1.212   1.556 -2.1174 -0.3467  0.4781
 5897TIP3   OH239253   1.027   0.467   7.810 -0.7220  0.2235 -0.0907
 5897TIP3    H139254   1.070   0.549   7.788 -1.8828  0.4544 -1.6512
 5897TIP3    H239255   1.003   0.428   7.726  0.5018 -2.1391  0.5653
 5898TIP3   OH239256   1.525   1.200   7.843 -0.3854  0.1887  0.5233
 5898TIP3    H139257   1.526   1.188   7.748  0.7776 -0.8145  0.6415
 5898TIP3    H239258   1.573   1.281   7.857 -1.2865  0.7922  0.2180
 5899TIP3   OH239259   6.562   5.887   1.907  0.0959 -0.0242  0.1675
 5899TIP3    H139260   6.582   5.928   1.991  1.0626 -0.7278  0.2956
 5899TIP3    H239261   6.476   5.846   1.920  0.1693  0.0098  0.7662
 5900TIP3   OH239262   4.334   1.010   8.353  0.4139 -0.0865  0.0759
 5900TIP3    H139263   4.336   1.090   8.301 -0.3582  0.7110  1.2110
 5900TIP3    H239264   4.421   0.972   8.343  0.9640  1.1712 -0.0883
 5901TIP3   OH239265   3.190   0.948   8.143  0.1194 -0.3784 -0.1930
 5901TIP3    H139266   3.136   0.869   8.147  0.6562 -0.7038  0.8579
 5901TIP3    H239267   3.276   0.917   8.115  0.4816 -0.2474  0.7734
 5902TIP3   OH239268   6.095   0.963   6.291 -0.0863  0.2838 -0.3460
 5902TIP3    H139269   6.096   0.882   6.342 -1.0215  0.8145  0.5480
 5902TIP3    H239270   6.018   0.956   6.235 -1.2344  1.2938  1.0287
 5903TIP3   OH239271   3.902   6.415   6.664  1.0309 -0.0990 -0.1705
 5903TIP3    H139272   3.857   6.415   6.749 -2.3106 -0.5545 -1.8023
 5903TIP3    H239273   3.888   6.503   6.629  1.2853 -0.2999 -0.7835
 5904TIP3   OH239274   1.013   5.550   7.548 -0.2777 -0.0929 -0.2290
 5904TIP3    H139275   1.027   5.620   7.611  2.0461 -0.5137 -0.1742
 5904TIP3    H239276   1.043   5.471   7.594 -1.1792 -0.8505 -0.9073
 5905TIP3   OH239277   1.437   4.581   0.368  0.8334  0.1503 -0.4102
 5905TIP3    H139278   1.406   4.667   0.397  0.1979 -0.6444  1.4256
 5905TIP3    H239279   1.441   4.529   0.448 -0.6392 -2.1091 -1.7070
 5906TIP3   OH239280   6.405   0.559   7.415  0.1048  0.0130 -0.0881
 5906TIP3    H139281   6.310   0.555   7.426  0.1826 -1.3019  0.3128
 5906TIP3    H239282   6.433   0.630   7.473 -0.8106  1.7381 -1.7008
 5907TIP3   OH239283   1.120   5.924   7.239  0.2945 -0.1068  0.7163
 5907TIP3    H139284   1.044   5.902   7.185  0.0933 -1.5101  1.5328
 5907TIP3    H239285   1.085   5.981   7.307  0.6330  2.0572 -0.8353
 5908TIP3   OH239286   1.504   6.597   7.293 -0.1623  0.0632 -0.1925
 5908TIP3    H139287   1.518   6.687   7.322  1.4552 -0.0690 -0.4569
 5908TIP3    H239288   1.530   6.544   7.369  2.2454 -0.2267 -1.1249
 5909TIP3   OH239289   1.371   5.662   6.200 -0.3011  0.3961 -0.0269
 5909TIP3    H139290   1.377   5.757   6.202  0.0492  0.3993  2.3519
 5909TIP3    H239291   1.432   5.635   6.132  2.8571  1.7751  2.0051
 5910TIP3   OH239292   6.279   2.155   7.650  0.4436  0.5911  0.2342
 5910TIP3    H139293   6.236   2.085   7.700  0.5497  0.7158  0.5044
 5910TIP3    H239294   6.292   2.225   7.714 -0.2856  1.1310 -0.1887
 5911TIP3   OH239295   0.186   0.690   0.802 -0.1030 -0.4118 -0.6554
 5911TIP3    H139296   0.251   0.756   0.778  0.8093 -0.6819  0.9302
 5911TIP3    H239297   0.219   0.652   0.883 -2.3953 -0.3526  0.3991
 5912TIP3   OH239298   1.108   0.270   0.284  0.2262  0.1939  0.2356
 5912TIP3    H139299   1.080   0.179   0.296 -1.5288  0.5382 -0.9023
 5912TIP3    H239300   1.089   0.289   0.192  0.7317  1.6510  0.4062
 5913TIP3   OH239301   6.233   0.605   0.628  0.1489 -0.3896 -0.2804
 5913TIP3    H139302   6.266   0.520   0.599 -0.1644 -0.7921  0.5176
 5913TIP3    H239303   6.183   0.585   0.708  1.0373  0.6904  0.5661
 5914TIP3   OH239304   4.597   0.472   0.757 -0.8069 -0.1226 -0.2414
 5914TIP3    H139305   4.525   0.422   0.795 -3.1020  2.0827 -1.4467
 5914TIP3    H239306   4.567   0.494   0.669  1.6306  0.3659 -1.0211
 5915TIP3   OH239307   5.979   4.557   0.052 -0.2248  0.8735 -0.4802
 5915TIP3    H139308   5.951   4.503   0.125 -1.0159  1.3327 -0.4343
 5915TIP3    H239309   6.069   4.580   0.072 -1.5860  4.4916  2.5267
 5916TIP3   OH239310   1.504   2.802   0.018 -0.0269 -0.0490  0.2078
 5916TIP3    H139311   1.462   2.792  -0.068 -2.3685  0.8191  1.1969
 5916TIP3    H239312   1.573   2.735   0.018 -0.6101 -0.7352 -1.9509
 5917TIP3   OH239313   6.586   3.372   6.625 -0.0271  0.9118  0.3031
 5917TIP3    H139314   6.615   3.293   6.670  1.8719  0.4611 -1.5601
 5917TIP3    H239315   6.626   3.444   6.675 -0.1198  0.5940  0.8444
 5918TIP3   OH239316   6.102   3.119   0.199 -0.6673 -0.4930 -0.1230
 5918TIP3    H139317   6.016   3.125   0.240 -1.8748 -2.1193 -2.2129
 5918TIP3    H239318   6.107   3.029   0.166  1.3815 -0.1160 -1.0233
 5919TIP3   OH239319   3.350   3.074   1.158  0.1424  0.2710 -0.3475
 5919TIP3    H139320   3.391   3.155   1.187 -1.0954  0.3057  1.4332
 5919TIP3    H239321   3.332   3.026   1.238  1.0305 -1.9100 -1.3463
 5920TIP3   OH239322   5.256   0.041   6.905  0.0789  0.5204 -0.7508
 5920TIP3    H139323   5.345   0.012   6.925 -0.2813  0.0774  0.2697
 5920TIP3    H239324   5.208  -0.039   6.885  0.1106  0.8427 -2.1740
 5921TIP3   OH239325   2.452   4.986   1.329  0.2287 -0.1588  0.2369
 5921TIP3    H139326   2.376   4.962   1.383  2.2828  0.6954  3.7509
 5921TIP3    H239327   2.522   4.928   1.358  1.1580 -0.5753 -2.5531
 5922TIP3   OH239328   3.640   1.875   7.726  0.0884  0.2937 -0.2694
 5922TIP3    H139329   3.630   1.847   7.817  1.9348  1.6588  0.4203
 5922TIP3    H239330   3.665   1.795   7.679 -1.2106 -0.4860  0.3358
 5923TIP3   OH239331   3.280   6.434   1.589 -0.5955 -0.6166 -0.1228
 5923TIP3    H139332   3.185   6.430   1.586 -0.6435 -3.2810  1.2217
 5923TIP3    H239333   3.300   6.513   1.640 -2.1002 -0.2050 -0.1401
 5924TIP3   OH239334   4.222   4.744   0.034  0.1523  0.0880  0.3320
 5924TIP3    H139335   4.202   4.658   0.072  1.4632 -0.2123  0.3727
 5924TIP3    H239336   4.185   4.740  -0.054  1.5268 -1.1101 -0.2287
 5925TIP3   OH239337   2.730   1.275   0.432 -0.0529  0.0982  0.2380
 5925TIP3    H139338   2.710   1.345   0.494  1.0862  1.3045 -0.7158
 5925TIP3    H239339   2.658   1.276   0.369 -0.4767 -0.1852  0.7064
 5926TIP3   OH239340   3.176   6.777   1.181 -0.4560 -0.5152  0.2666
 5926TIP3    H139341   3.124   6.697   1.182 -0.6783 -0.4241 -1.4470
 5926TIP3    H239342   3.199   6.790   1.089 -0.0011  1.1187  0.5786
 5927TIP3   OH239343   4.823   5.048   0.356 -0.0009 -0.2611  0.2046
 5927TIP3    H139344   4.884   4.975   0.346 -1.0218 -1.1570  0.3024
 5927TIP3    H239345   4.866   5.108   0.417  1.3726 -0.1891 -0.7938
 5928TIP3   OH239346   5.541   1.158   7.249  0.3054  0.1908  0.0327
 5928TIP3    H139347   5.616   1.159   7.308  1.9259 -0.4239 -1.9101
 5928TIP3    H239348   5.557   1.085   7.190 -0.8489  1.2096 -1.6384
 5929TIP3   OH239349   1.531   2.529   7.729  0.6567  0.0205 -0.1018
 5929TIP3    H139350   1.593   2.483   7.786 -0.3503 -0.8106  0.3448
 5929TIP3    H239351   1.585   2.560   7.656  1.4062 -1.6469 -0.2930
 5930TIP3   OH239352   3.564   6.258   0.674  0.8533  0.1098 -0.2948
 5930TIP3    H139353   3.610   6.175   0.671 -0.1386 -0.5354  1.1189
 5930TIP3    H239354   3.608   6.307   0.744  0.5820  0.2227 -0.2002
 5931TIP3   OH239355   4.827   2.151   1.279 -0.1417 -0.0924 -0.6130
 5931TIP3    H139356   4.789   2.157   1.192 -1.5330 -0.2185 -0.0350
 5931TIP3    H239357   4.752   2.143   1.338  0.7924 -1.0313  0.5125
 5932TIP3   OH239358   5.838   6.028   1.052 -0.1689  0.4837  0.2295
 5932TIP3    H139359   5.763   5.975   1.024  0.2418 -1.1681  2.0415
 5932TIP3    H239360   5.880   6.055   0.970 -1.3038 -0.6937 -0.7940
 5933TIP3   OH239361   6.655   6.639   6.861  0.2139 -0.0639  0.1887
 5933TIP3    H139362   6.672   6.572   6.927 -2.3058 -0.3326  0.6602
 5933TIP3    H239363   6.692   6.603   6.780 -0.0163 -1.4728  0.6830
 5934TIP3   OH239364   2.148   2.965   6.983  0.3398 -0.4235  0.0376
 5934TIP3    H139365   2.093   3.021   7.038  1.2484  2.5523 -1.7858
 5934TIP3    H239366   2.234   3.007   6.985  2.0539 -3.6586  1.0318
 5935TIP3   OH239367   3.936   1.594   0.945  0.3465 -0.4826  0.0247
 5935TIP3    H139368   3.921   1.500   0.954 -1.6847 -0.1320  0.9590
 5935TIP3    H239369   3.892   1.618   0.864 -1.2415  0.0010  0.9862
 5936TIP3   OH239370   6.837   1.572   7.455  0.3919  0.2355 -0.0779
 5936TIP3    H139371   6.909   1.511   7.473 -0.5175 -0.6254  0.7498
 5936TIP3    H239372   6.810   1.551   7.366 -0.5359 -1.2608  0.5268
 5937TIP3   OH239373   0.599   4.201   7.413 -0.0133 -0.2069  1.1035
 5937TIP3    H139374   0.564   4.112   7.424 -0.0230 -0.5089 -0.9412
 5937TIP3    H239375   0.524   4.253   7.384  0.8236 -0.5775 -2.0646
 5938TIP3   OH239376   3.045   5.784   7.300 -0.8009 -0.3914 -0.3753
 5938TIP3    H139377   3.038   5.690   7.318 -1.6800 -0.2367  0.1531
 5938TIP3    H239378   3.017   5.826   7.381  0.6904  0.3506 -0.2057
 5939TIP3   OH239379   6.077   3.215   1.062  0.6187  0.2804  0.1531
 5939TIP3    H139380   6.137   3.172   1.001  0.3670  0.6992 -0.3968
 5939TIP3    H239381   6.008   3.150   1.078  0.3141  0.4208 -0.5653
 5940TIP3   OH239382   3.253   4.930   8.207 -0.2768 -0.0534 -0.2142
 5940TIP3    H139383   3.341   4.893   8.212  0.2606  1.3266  1.3340
 5940TIP3    H239384   3.255   4.986   8.130  0.7597  1.2631  0.7387
 5941TIP3   OH239385   5.839   3.671   1.155 -0.6143 -0.0548 -0.5183
 5941TIP3    H139386   5.927   3.696   1.183 -0.1844 -1.9416 -0.0596
 5941TIP3    H239387   5.842   3.672   1.060  0.4383 -1.6796 -0.5468
 5942TIP3   OH239388   1.346   0.152   0.710 -0.1940  0.3198 -0.1354
 5942TIP3    H139389   1.350   0.192   0.623 -0.4077 -1.1278 -0.8426
 5942TIP3    H239390   1.263   0.183   0.747  0.0037  1.1212 -0.3459
 5943TIP3   OH239391   0.791   5.525   0.525 -0.0321 -0.0133 -0.2433
 5943TIP3    H139392   0.862   5.466   0.550  0.7281  0.5909 -0.9202
 5943TIP3    H239393   0.713   5.486   0.563  0.6174 -0.8556  0.2604
 5944TIP3   OH239394   3.493   6.749   0.505  0.3340  0.5108  0.0524
 5944TIP3    H139395   3.527   6.834   0.477  0.4786 -0.0827 -1.6924
 5944TIP3    H239396   3.566   6.688   0.490  0.0760 -0.0063  0.8387
 5945TIP3   OH239397   2.190   6.918   7.193 -0.3247 -0.0194 -0.0637
 5945TIP3    H139398   2.268   6.957   7.154  1.0271 -0.0457  2.4274
 5945TIP3    H239399   2.160   6.854   7.128  2.0600 -0.4410 -0.8578
 5946TIP3   OH239400   6.274   3.679   0.659  0.2958 -0.2413 -0.2692
 5946TIP3    H139401   6.279   3.683   0.564 -0.2495 -0.3229 -0.3077
 5946TIP3    H239402   6.345   3.734   0.690  0.4069 -0.1282 -0.7264
 5947TIP3   OH239403   2.367   1.151   7.227 -0.3928  0.2888 -0.0447
 5947TIP3    H139404   2.444   1.095   7.235 -2.5048 -2.6018  1.8392
 5947TIP3    H239405   2.345   1.147   7.134  1.3327  0.7375 -0.5209
 5948TIP3   OH239406   1.073   4.673   0.336  0.3816  0.7165  0.0088
 5948TIP3    H139407   1.079   4.646   0.427 -0.8227 -1.5276 -0.5132
 5948TIP3    H239408   1.062   4.768   0.340 -0.3811  0.5948  2.2338
 5949TIP3   OH239409   1.486   1.927   0.857 -0.3698 -0.3098  0.0646
 5949TIP3    H139410   1.494   1.987   0.930 -0.0450 -0.9309  0.5540
 5949TIP3    H239411   1.557   1.864   0.870 -1.0072 -1.0945 -0.1397
 5950TIP3   OH239412   0.110   3.500   6.017 -0.3813 -0.0980  0.4471
 5950TIP3    H139413   0.030   3.467   6.059 -0.5236 -0.0568  0.2083
 5950TIP3    H239414   0.176   3.432   6.035 -0.6252 -0.4208  0.1281
 5951TIP3   OH239415   6.454   2.487   6.779 -0.1036 -0.0158  0.5453
 5951TIP3    H139416   6.424   2.437   6.703 -0.6453  0.0694  0.6967
 5951TIP3    H239417   6.420   2.439   6.854 -0.2492  0.3332  0.7045
 5952TIP3   OH239418   5.719   2.168   0.070 -0.5889 -0.0361  0.2066
 5952TIP3    H139419   5.717   2.182   0.165 -1.4856  0.4504  0.1266
 5952TIP3    H239420   5.680   2.081   0.058 -0.1565 -0.2470  0.3022
 5953TIP3   OH239421   4.746   2.181   6.621  0.4075 -0.5998  0.4137
 5953TIP3    H139422   4.759   2.097   6.577 -0.8845 -1.8266  2.2634
 5953TIP3    H239423   4.816   2.186   6.686 -0.4245 -1.0076  1.3664
 5954TIP3   OH239424   4.941   6.059   0.325  0.2699  0.2921  0.1487
 5954TIP3    H139425   4.869   6.023   0.273 -1.4588  1.8965  1.3012
 5954TIP3    H239426   4.941   6.007   0.405 -0.2569  0.8822  0.5435
 5955TIP3   OH239427   4.655   0.563   7.974  0.3764  0.0892 -0.4042
 5955TIP3    H139428   4.608   0.617   8.038  0.9344 -0.5328  0.5516
 5955TIP3    H239429   4.667   0.621   7.898 -2.4072  0.1151 -0.9259
 5956TIP3   OH239430   3.788   1.632   1.195 -0.0935 -0.3601  0.2663
 5956TIP3    H139431   3.849   1.599   1.262 -0.4169 -1.8176 -0.1304
 5956TIP3    H239432   3.827   1.604   1.112  0.4073  1.6025 -0.2084
 5957TIP3   OH239433   4.351   3.762   6.219  0.5420  0.1294  0.7070
 5957TIP3    H139434   4.278   3.807   6.263  0.5717  0.2188  0.6653
 5957TIP3    H239435   4.403   3.725   6.291  0.0836 -0.5153  0.7101
 5958TIP3   OH239436   4.152   5.878   0.038 -0.3972  0.7368  0.7346
 5958TIP3    H139437   4.133   5.895  -0.054  0.5854  1.0565  0.5761
 5958TIP3    H239438   4.090   5.933   0.086 -0.9640  0.5091  0.2652
 5959TIP3   OH239439   5.053   2.357   2.087  0.4661 -0.4242 -0.4651
 5959TIP3    H139440   5.109   2.338   2.162  0.2085  0.5233 -0.0226
 5959TIP3    H239441   4.992   2.284   2.084  0.2696 -0.3058  0.4522
 5960TIP3   OH239442   5.771   4.283   0.541  0.2851 -0.4073  0.0456
 5960TIP3    H139443   5.731   4.365   0.512  0.8340 -0.9059 -2.3759
 5960TIP3    H239444   5.726   4.262   0.622  0.5914  2.5893  1.1153
 5961TIP3   OH239445   4.929   5.289   7.557  0.0881 -0.1023  0.3297
 5961TIP3    H139446   4.985   5.361   7.529  1.1088 -1.2641 -0.7994
 5961TIP3    H239447   4.840   5.319   7.540  0.4528  1.0919  0.4392
 5962TIP3   OH239448   3.199   2.006   6.186 -0.4896  1.0146 -0.4547
 5962TIP3    H139449   3.238   1.919   6.181 -2.4457 -0.3135  3.5176
 5962TIP3    H239450   3.260   2.057   6.238 -1.3431  0.5891  1.0267
 5963TIP3   OH239451   0.195   0.076   6.802  0.2158  0.1639  0.0499
 5963TIP3    H139452   0.103   0.099   6.810  0.5265  1.8276 -0.6119
 5963TIP3    H239453   0.205  -0.003   6.854 -1.3851  0.4684  0.8862
 5964TIP3   OH239454   1.336   5.350   0.040  0.3179 -0.2720 -0.5657
 5964TIP3    H139455   1.361   5.430   0.086  0.5011 -1.0367  0.7011
 5964TIP3    H239456   1.365   5.365  -0.050 -2.3580  2.3421 -1.1596
 5965TIP3   OH239457   6.223   3.218   1.308  0.9493 -0.2118 -0.3952
 5965TIP3    H139458   6.187   3.245   1.224  0.8107 -0.3535 -0.3807
 5965TIP3    H239459   6.259   3.130   1.292  1.5654  0.0493 -0.4916
 5966TIP3   OH239460   5.976   1.703   8.272  0.2895  0.3180  0.1420
 5966TIP3    H139461   5.992   1.677   8.181  0.5396 -0.4637  0.4093
 5966TIP3    H239462   5.890   1.668   8.293  0.1702  0.6207  0.1656
 5967TIP3   OH239463   2.600   2.686   1.601  0.1850  0.0347 -0.2330
 5967TIP3    H139464   2.650   2.608   1.576 -0.4319 -0.5214  0.2425
 5967TIP3    H239465   2.524   2.652   1.647  0.4018  0.9724  0.8556
 5968TIP3   OH239466   3.336   1.897   7.307 -0.2545  0.2186  0.1517
 5968TIP3    H139467   3.386   1.880   7.226 -0.9445 -0.6806 -0.1009
 5968TIP3    H239468   3.395   1.951   7.360 -0.6645  2.8798 -1.8834
 5969TIP3   OH239469   5.470   1.071   1.138 -0.0997 -0.4576 -0.4270
 5969TIP3    H139470   5.473   1.092   1.045  0.8481  0.8342 -0.1416
 5969TIP3    H239471   5.437   1.151   1.179 -0.8534 -1.1380  0.3186
 5970TIP3   OH239472   5.398   0.004   7.982 -0.4299  0.7822 -0.3236
 5970TIP3    H139473   5.349   0.080   8.013  0.7060  1.6062 -0.4832
 5970TIP3    H239474   5.332  -0.064   7.970 -1.2841  1.3197  1.1152
 5971TIP3   OH239475   3.987   3.940   1.147 -0.2039 -0.0367 -0.5245
 5971TIP3    H139476   4.060   3.991   1.182  0.2624 -1.6335  0.9751
 5971TIP3    H239477   4.016   3.914   1.060  0.3727  0.5698 -0.5275
 5972TIP3   OH239478   6.693   5.005   1.017  0.0162  0.2780  0.2955
 5972TIP3    H139479   6.763   4.973   1.074 -0.4593  0.9789  1.2885
 5972TIP3    H239480   6.739   5.028   0.936  0.4324 -2.5180 -0.3752
 5973TIP3   OH239481   4.563   4.221   8.316  0.1210 -0.5580  0.3376
 5973TIP3    H139482   4.546   4.154   8.382 -1.1797  0.5040  1.1206
 5973TIP3    H239483   4.622   4.283   8.360  0.5757 -0.6899 -0.0728
 5974TIP3   OH239484   2.332   3.858   0.482 -0.3291  0.4638 -0.1549
 5974TIP3    H139485   2.251   3.806   0.485  0.4740 -0.7863  0.8895
 5974TIP3    H239486   2.389   3.811   0.421  0.2897  0.2613  0.5593
 5975TIP3   OH239487   6.733   1.889   1.920 -0.2943 -0.0576  0.2447
 5975TIP3    H139488   6.651   1.921   1.957  0.0541 -0.0555  1.0333
 5975TIP3    H239489   6.753   1.949   1.848 -1.3231 -0.4549 -0.4026
 5976TIP3   OH239490   3.945   4.199   0.571  0.3172 -0.0607 -0.0065
 5976TIP3    H139491   3.899   4.167   0.649  2.1457 -0.8009  0.8023
 5976TIP3    H239492   3.956   4.293   0.587  1.5272 -0.3688  1.1029
 5977TIP3   OH239493   6.681   2.107   7.468 -0.2347  0.0573  0.1262
 5977TIP3    H139494   6.595   2.149   7.465 -0.0600  0.4849  0.8373
 5977TIP3    H239495   6.681   2.060   7.551 -0.5257 -1.5874 -0.7766
 5978TIP3   OH239496   2.832   2.058   1.520  0.1035  0.2597 -0.2708
 5978TIP3    H139497   2.756   2.052   1.577  0.3919  0.5271  0.1476
 5978TIP3    H239498   2.904   2.085   1.578  0.5371 -0.0864 -0.6359
 5979TIP3   OH239499   4.172   2.003   1.292  0.2985 -0.1031  0.1140
 5979TIP3    H139500   4.124   1.991   1.209 -0.7603  1.3479  0.4676
 5979TIP3    H239501   4.137   2.085   1.327  2.1848  0.3514  1.0292
 5980TIP3   OH239502   5.652   1.993   0.704 -0.0147 -0.1157 -0.3979
 5980TIP3    H139503   5.679   1.936   0.776  0.7807  0.5792 -0.1292
 5980TIP3    H239504   5.731   2.043   0.682 -0.4072  0.1068 -1.3543
 5981TIP3   OH239505   5.127   0.654   7.638 -0.7714  0.5852  0.0778
 5981TIP3    H139506   5.044   0.636   7.682  0.0187  0.0573  1.4401
 5981TIP3    H239507   5.136   0.583   7.575  0.0170 -1.1952  2.0408
 5982TIP3   OH239508   5.165   4.662   7.721  0.1607 -0.2946 -0.6398
 5982TIP3    H139509   5.209   4.640   7.803  0.6125  0.2585 -0.7245
 5982TIP3    H239510   5.231   4.646   7.653 -0.6804 -2.1759 -1.0558
 5983TIP3   OH239511   5.304   0.143   0.355  0.1575 -0.5982 -0.5317
 5983TIP3    H139512   5.372   0.129   0.289 -0.8129 -2.0144 -1.3087
 5983TIP3    H239513   5.347   0.127   0.439  0.6125 -2.4145 -1.0566
 5984TIP3   OH239514   4.683   6.702   0.304  0.2218  0.0567 -0.2157
 5984TIP3    H139515   4.731   6.745   0.375  0.7870 -0.5601 -0.2228
 5984TIP3    H239516   4.687   6.609   0.324 -0.3780 -0.0559 -0.5902
 5985TIP3   OH239517   2.665   1.180   6.925  0.5516 -0.4284 -0.0896
 5985TIP3    H139518   2.616   1.190   7.006  1.1241  2.1936  0.0192
 5985TIP3    H239519   2.742   1.235   6.936  0.1768  0.8066 -2.7491
 5986TIP3   OH239520   6.934   4.922   0.025  0.7456  0.4079 -0.0657
 5986TIP3    H139521   6.953   4.851   0.088  1.9896  0.2862 -0.5491
 5986TIP3    H239522   6.855   4.964   0.059  0.1514 -1.0243  0.4002
 5987TIP3   OH239523   5.030   2.809   7.145 -0.3040  0.5088 -0.1500
 5987TIP3    H139524   5.067   2.816   7.057 -1.1385  2.0079 -0.4099
 5987TIP3    H239525   5.107   2.795   7.202  0.2528 -0.3037 -1.0746
 5988TIP3   OH239526   6.942   1.566   7.132 -0.5063  0.2901 -0.1573
 5988TIP3    H139527   6.900   1.569   7.046  0.5938 -0.1522 -0.7319
 5988TIP3    H239528   6.914   1.482   7.170 -0.4321  0.1613 -0.3853
 5989TIP3   OH239529   4.104   4.187   0.336 -0.2301  0.1645  0.2925
 5989TIP3    H139530   4.038   4.195   0.405 -0.3588  0.4254  0.1430
 5989TIP3    H239531   4.065   4.127   0.272 -0.5128  0.6510 -0.0050
 5990TIP3   OH239532   6.491   3.971   7.115  0.0659 -0.3567  0.0823
 5990TIP3    H139533   6.503   4.058   7.076 -0.2810 -0.6813 -0.7627
 5990TIP3    H239534   6.562   3.919   7.079 -1.0366 -1.0167 -1.2022
 5991TIP3   OH239535   5.079   0.855   1.025 -0.1864  0.0806 -0.4099
 5991TIP3    H139536   5.160   0.861   1.077 -0.9177  1.5870  0.6224
 5991TIP3    H239537   5.105   0.809   0.945  1.4028 -0.5914  0.4494
 5992TIP3   OH239538   2.610   6.855   1.786 -0.7246  0.7639 -0.2592
 5992TIP3    H139539   2.659   6.847   1.867  0.0201 -0.8101 -0.8230
 5992TIP3    H239540   2.553   6.931   1.799 -0.9662  0.2564  1.9019
 5993TIP3   OH239541   2.691   4.676   7.749  0.0469  0.0609  0.4691
 5993TIP3    H139542   2.604   4.714   7.767  0.7518  1.5732  0.8629
 5993TIP3    H239543   2.706   4.695   7.656 -0.3912 -0.9780  0.1730
 5994TIP3   OH239544   3.000   4.306   1.616  0.4416 -0.6339 -0.5781
 5994TIP3    H139545   3.027   4.214   1.620  2.2561 -0.1653 -1.2030
 5994TIP3    H239546   2.904   4.302   1.614  0.4830 -2.5388 -1.2676
 5995TIP3   OH239547   3.898   6.567   2.042  0.7473  0.1194  0.4240
 5995TIP3    H139548   3.918   6.583   2.135  2.9150  0.8940 -0.1165
 5995TIP3    H239549   3.805   6.590   2.034  0.6644  0.6337  2.2741
 5996TIP3   OH239550   2.773   2.087   1.120 -0.4445 -0.1873  0.6333
 5996TIP3    H139551   2.708   2.150   1.089 -1.4524 -0.9930  1.0452
 5996TIP3    H239552   2.804   2.043   1.042  0.3788  0.9044  0.3239
 5997TIP3   OH239553   6.685   4.584   8.097  0.4928 -0.1608  0.0882
 5997TIP3    H139554   6.735   4.533   8.034 -0.9051  0.2017 -1.3677
 5997TIP3    H239555   6.602   4.538   8.106 -0.5718  1.4642 -0.7943
 5998TIP3   OH239556   1.671   3.179   0.234  0.0677 -0.9316 -0.4540
 5998TIP3    H139557   1.682   3.089   0.204 -0.6515 -1.5252  0.9924
 5998TIP3    H239558   1.727   3.185   0.311  1.2825  0.3363 -1.3848
 5999TIP3   OH239559   4.138   4.753   8.133 -0.8874 -0.0166  0.1143
 5999TIP3    H139560   4.126   4.690   8.062 -1.7299 -0.2104  0.4192
 5999TIP3    H239561   4.067   4.816   8.122 -1.6115 -0.5758  1.3225
 6000TIP3   OH239562   6.692   6.952   1.264 -0.5587  0.2619 -0.2873
 6000TIP3    H139563   6.637   6.874   1.275 -0.3648 -0.0392 -1.3692
 6000TIP3    H239564   6.768   6.920   1.215  0.0864  0.8946  0.2881
 6001TIP3   OH239565   0.499   4.692   8.238 -0.1523  0.6626  0.3644
 6001TIP3    H139566   0.547   4.765   8.278 -1.1840  1.4196  0.2536
 6001TIP3    H239567   0.565   4.623   8.229  1.1916  2.0202 -0.7427
 6002TIP3   OH239568   2.613   3.440   7.196  0.3825 -0.0178  0.5356
 6002TIP3    H139569   2.619   3.508   7.264  0.4545  0.2088  0.3025
 6002TIP3    H239570   2.519   3.431   7.181  0.4086  0.7071 -0.1084
 6003TIP3   OH239571   6.951   6.098   6.323  0.4778  0.5024  0.1507
 6003TIP3    H139572   6.861   6.064   6.317  0.2115  0.8006  2.0681
 6003TIP3    H239573   7.003   6.035   6.272 -0.7104 -0.0029 -0.5001
 6004TIP3   OH239574   0.730   2.616   0.352 -0.0662  0.0962  0.0282
 6004TIP3    H139575   0.806   2.584   0.402  0.4010  1.2799  0.1106
 6004TIP3    H239576   0.748   2.591   0.262 -0.3490 -1.0234  0.2707
 6005TIP3   OH239577   6.421   4.181   1.763 -0.2466 -0.0244  0.9071
 6005TIP3    H139578   6.493   4.173   1.824 -0.5803 -0.9845  1.1929
 6005TIP3    H239579   6.368   4.253   1.796  0.9571  1.1785  0.2815
 6006TIP3   OH239580   1.366   2.203   8.078 -0.4983 -0.0081 -0.3555
 6006TIP3    H139581   1.334   2.113   8.081  0.2872 -0.2785  0.8794
 6006TIP3    H239582   1.462   2.194   8.082 -0.3959  0.8940  3.9140
 6007TIP3   OH239583   6.037   5.049   1.586  0.1872  0.5967 -0.0372
 6007TIP3    H139584   6.002   5.038   1.674 -0.2447 -1.2778 -0.4051
 6007TIP3    H239585   5.995   5.129   1.553 -2.6363 -0.6882  0.1235
 6008TIP3   OH239586   0.081   0.657   8.102  0.3985  0.0244 -0.0492
 6008TIP3    H139587   0.137   0.639   8.177 -3.0487 -1.0728  2.5721
 6008TIP3    H239588   0.084   0.577   8.050 -0.4287 -0.9518  1.3368
 6009TIP3   OH239589   6.660   4.864   6.632 -0.0548  0.7390 -0.4783
 6009TIP3    H139590   6.631   4.773   6.628  1.4612  0.1075  1.2671
 6009TIP3    H239591   6.675   4.889   6.541 -0.2932 -0.8257 -0.9659
 6010TIP3   OH239592   5.321   1.804   7.663 -0.5720 -0.0944 -0.5035
 6010TIP3    H139593   5.251   1.739   7.665 -0.7258  0.0874  0.0133
 6010TIP3    H239594   5.355   1.800   7.573 -1.3111 -0.1123 -0.7864
 6011TIP3   OH239595   7.007   6.491   0.400 -0.1990 -0.4813  0.4816
 6011TIP3    H139596   7.005   6.468   0.307  1.7172 -1.5406  0.6465
 6011TIP3    H239597   7.016   6.407   0.445 -0.2083  0.0843  1.5646
 6012TIP3   OH239598   3.636   3.616   8.322  0.6916 -0.3479 -0.8708
 6012TIP3    H139599   3.562   3.666   8.287  0.8870  1.9979  1.6765
 6012TIP3    H239600   3.612   3.525   8.310 -2.4688  0.3294 -0.4654
 6013TIP3   OH239601   5.753   0.042   1.136  0.0538  0.6552 -0.1142
 6013TIP3    H139602   5.780  -0.044   1.104 -0.0226  0.3904  0.5095
 6013TIP3    H239603   5.663   0.052   1.105  0.2454  0.7419 -0.6404
 6014TIP3   OH239604   1.500   6.572   0.196  0.0048 -0.0085 -0.2313
 6014TIP3    H139605   1.461   6.651   0.234  0.8198  0.5557 -0.5216
 6014TIP3    H239606   1.571   6.605   0.141 -2.0160 -0.6849 -3.4821
 6015TIP3   OH239607   5.682   4.065   8.345  0.3530 -0.1598 -0.1278
 6015TIP3    H139608   5.589   4.087   8.347  0.3985  0.0193  1.2370
 6015TIP3    H239609   5.716   4.096   8.429  1.0468 -2.7717  0.6508
 6016TIP3   OH239610   6.802   6.377   2.016  0.3582  0.3090 -0.0590
 6016TIP3    H139611   6.879   6.369   2.071 -0.9072 -0.5544  1.6813
 6016TIP3    H239612   6.739   6.425   2.069 -0.8255 -0.3131 -0.8443
 6017TIP3   OH239613   6.567   0.082   2.129  0.3263  0.1627  0.4289
 6017TIP3    H139614   6.545  -0.011   2.131  2.1464 -0.3017  0.4003
 6017TIP3    H239615   6.577   0.102   2.036  2.4180 -0.2910  0.5030
 6018TIP3   OH239616   4.732   5.884   7.180 -0.0864 -0.2754  0.2565
 6018TIP3    H139617   4.754   5.953   7.243 -0.9884  0.3299 -0.0644
 6018TIP3    H239618   4.770   5.913   7.098  1.2887 -1.1776  0.5414
 6019TIP3   OH239619   2.273   6.408   6.940  0.3620 -0.4910 -0.2271
 6019TIP3    H139620   2.245   6.327   6.981 -1.3237  1.1835  2.2271
 6019TIP3    H239621   2.350   6.436   6.990 -0.4544  0.5328  0.5027
 6020TIP3   OH239622   1.717   0.658   1.152  0.3883  0.1856  0.4237
 6020TIP3    H139623   1.687   0.748   1.150  1.4507  0.5500 -0.0732
 6020TIP3    H239624   1.780   0.652   1.079 -1.5929 -1.6483 -1.2929
 6021TIP3   OH239625   4.935   3.184   2.394 -0.4343 -0.4719  0.3086
 6021TIP3    H139626   4.861   3.189   2.334  0.1144  0.0975 -0.3493
 6021TIP3    H239627   4.973   3.272   2.392  0.4634 -0.8495  0.3490
 6022TIP3   OH239628   2.680   1.677   8.325  0.2885  0.8215 -0.0604
 6022TIP3    H139629   2.665   1.765   8.289  1.1416  1.9392  2.1357
 6022TIP3    H239630   2.771   1.678   8.354  0.9495 -1.5318 -1.7684
 6023TIP3   OH239631   6.722   5.186   2.527 -0.4208 -0.2751  0.2439
 6023TIP3    H139632   6.774   5.223   2.456  0.2539 -0.8421  0.4254
 6023TIP3    H239633   6.775   5.114   2.560 -1.4957 -1.1161  0.1959
 6024TIP3   OH239634   4.004   5.800   7.712  0.1207  0.0788  0.1203
 6024TIP3    H139635   3.915   5.770   7.728 -0.9618  3.0792  0.3318
 6024TIP3    H239636   4.011   5.809   7.617 -0.0378  0.4728  0.1451
 6025TIP3   OH239637   4.312   5.796   0.391 -0.3526  0.5067  0.1612
 6025TIP3    H139638   4.339   5.725   0.449 -0.0301 -0.1816 -0.8180
 6025TIP3    H239639   4.389   5.851   0.382  1.1116 -1.7739 -3.1134
 6026TIP3   OH239640   4.339   0.592   2.283  0.3927  0.1421  0.0432
 6026TIP3    H139641   4.371   0.623   2.367 -2.3478  1.0846  0.8580
 6026TIP3    H239642   4.384   0.645   2.218  0.0388  1.8481  1.1391
 6027TIP3   OH239643   1.058   2.253   2.193 -0.3063 -0.2679 -0.0813
 6027TIP3    H139644   0.988   2.290   2.247 -0.8517  0.1817 -1.0767
 6027TIP3    H239645   1.018   2.237   2.108  0.6490 -0.5689 -0.4935
 6028TIP3   OH239646   1.055   1.143   7.593 -0.1888  0.3960 -0.5293
 6028TIP3    H139647   1.146   1.115   7.589 -0.6371 -1.5777  1.2766
 6028TIP3    H239648   1.006   1.075   7.545 -0.8266  0.7556 -0.4045
 6029TIP3   OH239649   0.664   6.069   7.651  0.1734 -0.3949  0.2388
 6029TIP3    H139650   0.615   6.123   7.713  0.5722 -0.4727  0.6208
 6029TIP3    H239651   0.631   6.096   7.565 -1.0124 -0.8984  0.5122
 6030TIP3   OH239652   2.301   3.304   6.544  0.0807 -0.0905 -0.9219
 6030TIP3    H139653   2.214   3.323   6.578  0.6349  2.5251 -0.7518
 6030TIP3    H239654   2.285   3.261   6.460 -1.3259 -1.2198 -0.1069
 6031TIP3   OH239655   0.098   3.359   7.422 -0.2070 -0.8518  0.2478
 6031TIP3    H139656   0.049   3.440   7.431 -0.4075 -1.0186  0.6700
 6031TIP3    H239657   0.144   3.368   7.339 -1.1218 -0.7861 -0.2663
 6032TIP3   OH239658   0.135   3.733   5.886  0.5558 -0.0989  0.1335
 6032TIP3    H139659   0.116   3.648   5.925  0.4942  0.7005  1.9563
 6032TIP3    H239660   0.227   3.729   5.862  0.4188 -0.8567 -0.3025
 6033TIP3   OH239661   0.935   5.556   1.375  0.2786 -0.2402 -0.0331
 6033TIP3    H139662   0.972   5.645   1.378  1.9018 -0.9132  0.8959
 6033TIP3    H239663   0.890   5.553   1.290  0.4666  1.3576 -0.2376
 6034TIP3   OH239664   6.282   1.991   1.586 -0.4708  0.0713 -0.0494
 6034TIP3    H139665   6.190   1.982   1.610 -0.2408  0.8100  1.2011
 6034TIP3    H239666   6.330   1.968   1.665  0.5897 -3.2191 -1.4656
 6035TIP3   OH239667   6.797   5.135   6.679 -0.2117 -0.1935 -0.2052
 6035TIP3    H139668   6.773   5.043   6.683 -0.3311 -0.1197  1.6008
 6035TIP3    H239669   6.728   5.176   6.628  0.1396 -1.1608 -1.5164
 6036TIP3   OH239670   2.194   4.727   1.656 -0.0007 -0.4232 -0.7833
 6036TIP3    H139671   2.111   4.773   1.659 -1.1264 -2.3799  0.3296
 6036TIP3    H239672   2.176   4.648   1.604  0.8250 -1.3969  0.3301
 6037TIP3   OH239673   3.638   3.412   1.813  0.1543 -0.1585 -0.2936
 6037TIP3    H139674   3.629   3.506   1.799  1.3333 -0.0504 -0.3797
 6037TIP3    H239675   3.619   3.374   1.727 -0.5159 -0.0282 -0.2127
 6038TIP3   OH239676   5.751   2.666   1.914  0.0389 -0.2196  0.2051
 6038TIP3    H139677   5.721   2.678   1.824 -1.3857 -2.4052  0.3119
 6038TIP3    H239678   5.729   2.748   1.958  1.1494  1.0488 -1.4911
 6039TIP3   OH239679   3.150   0.336   7.657 -0.3285 -0.1049  0.0535
 6039TIP3    H139680   3.135   0.276   7.583 -0.5782  0.4765 -0.3782
 6039TIP3    H239681   3.062   0.352   7.692 -0.4134  0.9856 -0.6198
 6040TIP3   OH239682   1.907   0.069   7.049  0.4946  0.0953 -0.3046
 6040TIP3    H139683   1.830   0.076   6.994  0.2355  1.0738  0.1583
 6040TIP3    H239684   1.965   0.008   7.003 -1.3656 -2.2975  0.3132
 6041TIP3   OH239685   5.966   4.650   1.597 -1.3688 -0.3398  0.3384
 6041TIP3    H139686   5.951   4.560   1.627 -1.2199 -0.1459  1.0132
 6041TIP3    H239687   5.905   4.703   1.649 -0.4430  0.1100  1.0127
 6042TIP3   OH239688   3.267   6.326   6.867  0.0609  0.2796  0.0637
 6042TIP3    H139689   3.249   6.282   6.950 -4.3413 -2.0762 -1.8000
 6042TIP3    H239690   3.324   6.265   6.820 -0.9610 -0.4777 -0.2087
 6043TIP3   OH239691   5.076   3.156   0.024  0.2133 -0.4076  0.8406
 6043TIP3    H139692   5.111   3.120   0.106  0.4614 -0.4792  0.7031
 6043TIP3    H239693   5.153   3.175  -0.029  0.0812  0.2228  0.8617
 6044TIP3   OH239694   4.821   6.484   6.525  0.8462 -0.5033  0.6844
 6044TIP3    H139695   4.901   6.474   6.576  1.9403 -1.4011 -1.0870
 6044TIP3    H239696   4.849   6.466   6.435 -1.4224 -1.1881  0.0651
 6045TIP3   OH239697   1.269   0.676   2.088 -0.1944  0.2188 -0.5439
 6045TIP3    H139698   1.348   0.689   2.036 -0.0911  0.4825 -0.3195
 6045TIP3    H239699   1.220   0.609   2.040  0.3007 -0.1590 -0.5310
 6046TIP3   OH239700   0.693   4.754   1.915  0.3185  0.1739  0.4366
 6046TIP3    H139701   0.747   4.763   1.994  0.5915  0.2836  0.2380
 6046TIP3    H239702   0.628   4.823   1.923 -0.9072 -1.0380  1.5499
 6047TIP3   OH239703   1.718   3.581   0.261 -0.6749  0.0742 -0.3992
 6047TIP3    H139704   1.751   3.515   0.200 -1.0063  0.6117 -1.1777
 6047TIP3    H239705   1.785   3.587   0.329  0.7316  0.9774 -1.8116
 6048TIP3   OH239706   6.442   4.183   7.801  0.1111  0.1325  0.3222
 6048TIP3    H139707   6.530   4.206   7.833 -0.1228 -0.3436  1.3571
 6048TIP3    H239708   6.383   4.236   7.854 -0.2823 -0.4830  0.5042
 6049TIP3   OH239709   0.495   1.163   0.819  0.0249 -0.2440 -0.3095
 6049TIP3    H139710   0.523   1.082   0.777  0.1515 -0.9682  1.1229
 6049TIP3    H239711   0.564   1.182   0.883 -1.1685 -0.3197  1.0479
 6050TIP3   OH239712   4.721   1.314   6.796 -0.0440 -0.4345  0.2955
 6050TIP3    H139713   4.814   1.296   6.797  0.1935  0.7100  0.8080
 6050TIP3    H239714   4.715   1.410   6.792 -1.1969 -0.5304 -2.1910
 6051TIP3   OH239715   2.331   3.799   0.892  0.1261  0.4024  0.3722
 6051TIP3    H139716   2.238   3.812   0.914 -0.0792 -0.7781  0.2801
 6051TIP3    H239717   2.375   3.877   0.925 -0.8324  0.7297  0.9034
 6052TIP3   OH239718   3.531   4.107   8.115  0.0822  0.4768 -0.1934
 6052TIP3    H139719   3.538   4.136   8.206  1.0135  1.6792 -0.6266
 6052TIP3    H239720   3.459   4.158   8.079 -0.7309 -0.4780  0.0145
 6053TIP3   OH239721   4.752   2.058   1.021 -0.0911 -0.5458  0.4678
 6053TIP3    H139722   4.659   2.060   1.043  0.0696 -1.0071  1.2199
 6053TIP3    H239723   4.760   1.986   0.958 -0.3455 -0.0534 -0.1421
 6054TIP3   OH239724   0.655   6.890   0.336  0.3221 -0.4075 -0.2594
 6054TIP3    H139725   0.704   6.965   0.302 -1.1454  1.2431  1.1296
 6054TIP3    H239726   0.592   6.869   0.267  0.6870 -0.3309 -0.6184
 6055TIP3   OH239727   2.493   5.333   1.168  0.1767  0.2799  0.2435
 6055TIP3    H139728   2.432   5.359   1.099 -0.6603 -1.4387  0.2645
 6055TIP3    H239729   2.523   5.246   1.142  1.5871  0.5227  0.9413
 6056TIP3   OH239730   6.199   2.015   0.431  0.4338  0.2168  0.1537
 6056TIP3    H139731   6.206   1.944   0.495  1.4374  0.0846 -0.0891
 6056TIP3    H239732   6.284   2.016   0.386 -0.5544 -0.3016 -1.8407
 6057TIP3   OH239733   1.472   3.250   1.726  0.3240 -0.8189 -0.6566
 6057TIP3    H139734   1.484   3.283   1.815  0.0312 -1.4579 -0.3662
 6057TIP3    H239735   1.513   3.163   1.727  0.7389 -0.6366 -1.2831
 6058TIP3   OH239736   5.330   3.921   6.584 -0.2461 -0.0575  0.0658
 6058TIP3    H139737   5.252   3.891   6.538  0.4488 -0.5221 -0.8516
 6058TIP3    H239738   5.314   3.901   6.676 -0.0068 -2.9079 -0.4443
 6059TIP3   OH239739   3.058   6.641   7.817  0.1377  0.2288 -0.0095
 6059TIP3    H139740   3.044   6.733   7.794  2.0779  0.5920  0.0232
 6059TIP3    H239741   3.104   6.644   7.902  0.1597 -0.7688  0.0320
 6060TIP3   OH239742   3.270   5.417   0.510  0.1469  0.0526  0.1562
 6060TIP3    H139743   3.309   5.445   0.428 -0.2313  0.2002  0.0215
 6060TIP3    H239744   3.227   5.334   0.489 -0.4884  0.3996  0.0408
 6061TIP3   OH239745   0.126   4.238   7.815  0.0487  0.4469 -0.6759
 6061TIP3    H139746   0.106   4.272   7.728 -1.1057  0.1458 -0.5436
 6061TIP3    H239747   0.056   4.177   7.834  1.4168 -1.1054 -0.3890
 6062TIP3   OH239748   6.351   5.536   7.524  0.5839 -0.0969  0.2936
 6062TIP3    H139749   6.272   5.541   7.578  0.4824 -0.5079  0.1845
 6062TIP3    H239750   6.358   5.623   7.484  0.0729 -0.1195  0.1450
 6063TIP3   OH239751   0.942   3.300   2.282 -0.0483  0.3944  0.0634
 6063TIP3    H139752   1.001   3.369   2.252 -0.3433  0.4687 -0.3522
 6063TIP3    H239753   0.855   3.333   2.265 -0.1844 -0.6617 -1.5200
 6064TIP3   OH239754   6.154   0.362   8.086  0.4069  0.2286  0.4795
 6064TIP3    H139755   6.245   0.390   8.089  0.5739 -0.3474  1.0225
 6064TIP3    H239756   6.112   0.423   8.026  0.9478  1.0781  0.9525
 6065TIP3   OH239757   1.915   1.506   1.764 -0.1756  0.2293  0.4611
 6065TIP3    H139758   1.880   1.594   1.748 -1.4068 -0.4550 -0.8750
 6065TIP3    H239759   1.917   1.498   1.859  3.3778  2.9632  0.7994
 6066TIP3   OH239760   1.648   4.656   7.157  0.2218  0.3176 -0.1666
 6066TIP3    H139761   1.558   4.623   7.156  0.8381 -1.4675  0.3089
 6066TIP3    H239762   1.674   4.658   7.065 -0.7457  2.2652 -0.4609
 6067TIP3   OH239763   5.462   4.975   2.365 -0.3297  0.1281  0.8321
 6067TIP3    H139764   5.387   4.946   2.416  0.6887  0.8666  2.8768
 6067TIP3    H239765   5.512   4.895   2.349 -1.1827 -0.2658  0.0398
 6068TIP3   OH239766   6.890   0.305   7.921 -0.4449  0.1419  0.0082
 6068TIP3    H139767   6.934   0.306   8.006 -1.2870  0.7076  0.4476
 6068TIP3    H239768   6.944   0.363   7.867  0.3628 -0.5894  0.0004
 6069TIP3   OH239769   1.038   4.945   8.346 -0.3724 -0.6229 -0.1875
 6069TIP3    H139770   1.123   4.902   8.336 -0.2247  0.0100 -1.9888
 6069TIP3    H239771   1.056   5.021   8.401  0.2247 -0.5055 -0.5369
 6070TIP3   OH239772   2.008   0.584   7.768  0.0149 -0.7986 -0.4671
 6070TIP3    H139773   2.086   0.535   7.740 -0.4549 -0.5724 -2.2485
 6070TIP3    H239774   1.993   0.554   7.858  2.5692 -0.3061  0.1946
 6071TIP3   OH239775   4.521   3.071   7.933 -0.7177  0.0572 -0.6708
 6071TIP3    H139776   4.464   3.016   7.987 -1.1330  2.2001  1.1916
 6071TIP3    H239777   4.606   3.067   7.976 -0.8646  1.2126 -0.2511
 6072TIP3   OH239778   2.126   0.320   0.138  0.1361  0.3156  0.0479
 6072TIP3    H139779   2.153   0.383   0.205  0.3015 -0.5314  0.8072
 6072TIP3    H239780   2.206   0.302   0.088 -0.1361  1.4609 -0.8396
 6073TIP3   OH239781   3.675   1.356   7.174 -0.4027 -0.1291 -0.5925
 6073TIP3    H139782   3.693   1.275   7.126  0.9590 -0.1735 -0.0327
 6073TIP3    H239783   3.579   1.363   7.174 -0.5141 -1.4580 -1.0917
 6074TIP3   OH239784   6.286   4.054   2.082 -0.0475  0.3101  0.1080
 6074TIP3    H139785   6.367   4.008   2.059 -0.5755 -0.3363 -0.4663
 6074TIP3    H239786   6.315   4.126   2.139  1.1871  1.3282 -1.6924
 6075TIP3   OH239787   4.509   3.036   7.267  0.1945  0.0374  0.2679
 6075TIP3    H139788   4.507   3.110   7.328 -3.6232 -1.8483  2.7866
 6075TIP3    H239789   4.584   2.984   7.296  0.1939  0.6414  1.4470
 6076TIP3   OH239790   5.986   4.838   1.408  0.4093  0.2338  0.1952
 6076TIP3    H139791   5.993   4.759   1.461 -0.4470  0.6708  0.9860
 6076TIP3    H239792   5.966   4.908   1.471 -0.3468  0.8141 -0.6570
 6077TIP3   OH239793   6.664   4.937   0.131  0.3299  0.4517 -0.4778
 6077TIP3    H139794   6.571   4.957   0.144  0.1158 -1.9401  2.5965
 6077TIP3    H239795   6.668   4.899   0.043 -1.8321 -0.5861 -0.1799
 6078TIP3   OH239796   2.162   2.613   1.233 -0.1073  0.6585  0.1993
 6078TIP3    H139797   2.123   2.700   1.220 -0.8948  0.1920 -0.6697
 6078TIP3    H239798   2.251   2.631   1.264 -0.5881  1.7570  1.0084
 6079TIP3   OH239799   2.280   4.217   7.023  0.2422 -0.2694  0.3178
 6079TIP3    H139800   2.295   4.265   6.941 -0.8045 -0.9180 -0.2807
 6079TIP3    H239801   2.279   4.285   7.091 -2.6081  0.8440 -0.6509
 6080TIP3   OH239802   3.805   2.075   7.229 -0.0268 -0.5089  0.2351
 6080TIP3    H139803   3.735   2.084   7.293 -0.4177  0.1221 -0.2762
 6080TIP3    H239804   3.761   2.051   7.147  0.3594 -0.1731 -0.0766
 6081TIP3   OH239805   2.872   3.440   8.008 -0.1961 -0.2536 -0.0602
 6081TIP3    H139806   2.815   3.441   7.931  0.9096 -0.5523 -0.9106
 6081TIP3    H239807   2.958   3.465   7.974  0.1526  0.3624  1.2287
 6082TIP3   OH239808   4.180   2.216   6.722  0.9027  1.1045 -0.4128
 6082TIP3    H139809   4.118   2.244   6.790  1.2868  0.5571  0.1816
 6082TIP3    H239810   4.125   2.187   6.650  0.4881  1.8925 -0.4261
 6083TIP3   OH239811   1.345   6.407   1.054  0.3220  0.1562 -0.2982
 6083TIP3    H139812   1.400   6.336   1.021 -0.2339 -0.2374 -0.3755
 6083TIP3    H239813   1.395   6.486   1.035  1.2823 -0.2493  0.4411
 6084TIP3   OH239814   3.007   5.370   0.185  0.4510 -0.4660 -0.2789
 6084TIP3    H139815   3.085   5.376   0.130  0.4145 -3.4444 -0.8311
 6084TIP3    H239816   2.967   5.456   0.180  2.8046  0.6528 -1.3192
 6085TIP3   OH239817   4.641   1.385   7.558 -0.6179  0.1446 -0.1047
 6085TIP3    H139818   4.707   1.316   7.564 -0.2763  0.5503  1.1484
 6085TIP3    H239819   4.579   1.354   7.492 -1.5691 -2.3412  1.7882
 6086TIP3   OH239820   1.075   2.443   7.212  0.1572  0.4625  0.3699
 6086TIP3    H139821   1.086   2.491   7.129  3.8729 -0.7128  0.0415
 6086TIP3    H239822   1.108   2.503   7.279  0.5346  0.0582  0.5439
 6087TIP3   OH239823   4.093   5.156   7.313 -0.3921  0.1282  0.3950
 6087TIP3    H139824   4.089   5.228   7.251 -0.6217  0.4364  0.7693
 6087TIP3    H239825   4.177   5.113   7.294  0.5998  1.5817  1.3872
 6088TIP3   OH239826   3.703   5.103   7.549 -0.7611 -0.6302  0.2350
 6088TIP3    H139827   3.774   5.052   7.509 -0.1255  0.3746  0.0429
 6088TIP3    H239828   3.722   5.100   7.643  2.1109  3.1384  0.0075
 6089TIP3   OH239829   6.648   5.970   6.925  0.1155  0.0241  0.2749
 6089TIP3    H139830   6.675   5.883   6.954  0.0935 -0.2275 -0.4608
 6089TIP3    H239831   6.553   5.972   6.940 -0.3865 -1.1117 -2.2653
 6090TIP3   OH239832   1.527   6.936   7.086 -0.1691 -0.0687 -0.0186
 6090TIP3    H139833   1.439   6.937   7.123  0.0204  1.5050  0.4533
 6090TIP3    H239834   1.584   6.912   7.160  0.1118  2.1947  0.5845
 6091TIP3   OH239835   4.919   1.417   1.789  0.2939 -0.3165 -0.0850
 6091TIP3    H139836   4.889   1.328   1.805  0.1082  0.0119  1.6854
 6091TIP3    H239837   4.842   1.464   1.758  0.4974 -0.8527 -1.4485
 6092TIP3   OH239838   3.119   4.299   8.292  0.3158  0.0675 -0.1133
 6092TIP3    H139839   3.199   4.351   8.304  0.2363 -0.0488  1.0360
 6092TIP3    H239840   3.048   4.363   8.293  0.4253  0.2530 -1.8964
 6093TIP3   OH239841   6.737   4.210   8.228 -0.5003 -0.1630 -0.1072
 6093TIP3    H139842   6.799   4.242   8.162  2.6273 -1.1637  2.0959
 6093TIP3    H239843   6.666   4.171   8.177 -0.4491  2.8319 -2.8226
 6094TIP3   OH239844   2.132   0.343   6.319 -0.1378 -0.1796  0.6287
 6094TIP3    H139845   2.060   0.281   6.317 -0.5030  0.2451  0.2754
 6094TIP3    H239846   2.211   0.289   6.322 -0.4923 -0.6589  2.6467
 6095TIP3   OH239847   6.918   3.390   1.911  0.4402 -0.8850  0.4036
 6095TIP3    H139848   6.857   3.419   1.979  2.1298  0.3596  1.4815
 6095TIP3    H239849   6.938   3.299   1.933  0.4333 -0.7052  1.1876
 6096TIP3   OH239850   3.189   5.281   7.757 -0.2877  0.3323  0.1937
 6096TIP3    H139851   3.193   5.219   7.684  1.0262  1.5891 -0.8752
 6096TIP3    H239852   3.122   5.345   7.730  0.3969  0.9545 -0.0759
 6097TIP3   OH239853   1.926   3.318   1.981  0.5463  0.1165  0.0411
 6097TIP3    H139854   1.985   3.368   2.038 -0.2781  1.0525  0.1046
 6097TIP3    H239855   1.842   3.320   2.026  0.4669 -1.3142  0.0141
 6098TIP3   OH239856   1.576   6.148   6.927 -0.0261 -0.4163 -0.1928
 6098TIP3    H139857   1.484   6.172   6.921  0.3306  1.7163  1.5185
 6098TIP3    H239858   1.579   6.085   7.000 -0.0203  0.3256  0.4583
 6099TIP3   OH239859   2.530   3.087   1.126  0.6555  0.1128 -0.3835
 6099TIP3    H139860   2.485   3.166   1.096  1.9333  0.7765 -0.6350
 6099TIP3    H239861   2.585   3.061   1.052 -0.0551 -1.2742 -0.4588
 6100TIP3   OH239862   5.599   2.876   1.313 -0.0719 -1.1773  0.3794
 6100TIP3    H139863   5.555   2.892   1.397  0.9146 -1.5771  0.9905
 6100TIP3    H239864   5.692   2.871   1.335  0.0986 -2.6426 -0.5269
 6101TIP3   OH239865   4.947   6.146   7.029  0.0357  0.0257  0.3175
 6101TIP3    H139866   5.030   6.171   6.988  0.4518 -0.3962  0.8835
 6101TIP3    H239867   4.900   6.229   7.041 -0.1252  0.1563 -1.0448
 6102TIP3   OH239868   5.197   6.247   7.888 -0.4677  0.0782 -0.3938
 6102TIP3    H139869   5.282   6.223   7.851 -0.1023 -0.2616  0.6097
 6102TIP3    H239870   5.154   6.163   7.905 -0.3239  0.1869  0.5922
 6103TIP3   OH239871   1.564   5.506   0.488  0.2792  0.5317  0.4673
 6103TIP3    H139872   1.591   5.565   0.418 -1.5621  1.7136  0.6738
 6103TIP3    H239873   1.500   5.448   0.447 -0.3137  0.7990  0.9850
 6104TIP3   OH239874   6.150   3.024   2.266 -0.4247  0.2079 -0.0580
 6104TIP3    H139875   6.188   3.066   2.343 -0.1108  1.0404 -0.6442
 6104TIP3    H239876   6.225   2.983   2.222 -0.7388 -1.0664  0.5473
 6105TIP3   OH239877   1.241   2.477   7.985 -0.7158  0.0126 -0.4958
 6105TIP3    H139878   1.317   2.421   8.002 -0.7511 -0.2597 -1.1808
 6105TIP3    H239879   1.171   2.439   8.038 -0.0540  1.0771  1.2151
 6106TIP3   OH239880   1.075   6.963   0.856  0.2761 -0.0042 -0.6942
 6106TIP3    H139881   1.023   6.959   0.937 -0.9215 -0.4916 -1.4575
 6106TIP3    H239882   1.094   7.056   0.844  0.0674  0.1192 -0.0892
 6107TIP3   OH239883   0.511   1.737   0.538 -0.4069  0.2508 -0.1277
 6107TIP3    H139884   0.588   1.693   0.575 -0.1233  1.4025  0.7092
 6107TIP3    H239885   0.545   1.820   0.505 -1.0469  0.1342 -1.0869
 6108TIP3   OH239886   3.813   5.098   0.169  0.1139 -0.0284  0.1146
 6108TIP3    H139887   3.805   5.078   0.262 -0.1252  0.2147  0.1508
 6108TIP3    H239888   3.901   5.070   0.145 -0.1968 -1.0654  0.1663
 6109TIP3   OH239889   5.768   6.731   1.789 -0.4544  0.0717  0.0223
 6109TIP3    H139890   5.753   6.711   1.882 -1.1631  1.2969  0.1934
 6109TIP3    H239891   5.703   6.799   1.769  0.0117  0.1580 -1.2474
 6110TIP3   OH239892   5.458   5.942   1.854 -0.0557  0.1022 -0.5129
 6110TIP3    H139893   5.446   6.033   1.827 -0.0008  1.0017  2.1793
 6110TIP3    H239894   5.525   5.946   1.923 -0.8811 -1.8124  0.4888
 6111TIP3   OH239895   6.979   3.519   1.448 -0.1856 -0.2071  0.6846
 6111TIP3    H139896   7.048   3.461   1.482 -0.8227 -0.3896  1.7154
 6111TIP3    H239897   6.934   3.552   1.526  0.8657  2.6281  0.1978
 6112TIP3   OH239898   1.520   2.633   6.543 -0.2765  0.6327 -0.4192
 6112TIP3    H139899   1.566   2.596   6.618 -2.7888 -0.6716  0.5960
 6112TIP3    H239900   1.510   2.726   6.563  0.1976  0.5440  0.2485
 6113TIP3   OH239901   4.655   5.075   1.261 -0.8707 -0.2301 -0.0328
 6113TIP3    H139902   4.724   5.027   1.217 -1.0859 -0.0032 -0.6261
 6113TIP3    H239903   4.693   5.101   1.345 -0.8294 -1.6221  0.3986
 6114TIP3   OH239904   6.617   1.887   1.093  1.1923 -0.0937  0.1921
 6114TIP3    H139905   6.682   1.942   1.136 -0.3364  1.8400  0.1949
 6114TIP3    H239906   6.565   1.851   1.165 -0.0542  1.4630  0.1486
 6115TIP3   OH239907   0.406   1.811   8.118 -0.9844  0.1580 -0.2288
 6115TIP3    H139908   0.374   1.852   8.037 -3.0289  1.5201  1.1985
 6115TIP3    H239909   0.469   1.873   8.153 -2.4511  1.1272  0.7979
 6116TIP3   OH239910   5.012   3.916   2.262 -0.2954 -0.3049 -0.1024
 6116TIP3    H139911   5.000   3.979   2.333  0.0396 -0.7479  0.3590
 6116TIP3    H239912   5.091   3.946   2.216 -0.3774 -0.1497 -0.1392
 6117TIP3   OH239913   5.860   5.313   1.567 -0.4945 -0.5085 -0.6845
 6117TIP3    H139914   5.816   5.352   1.643  0.6634  1.8309 -1.1196
 6117TIP3    H239915   5.789   5.299   1.504 -1.2191 -0.9409  0.1903
 6118TIP3   OH239916   2.783   5.810   1.736 -0.4035 -0.5538 -0.7278
 6118TIP3    H139917   2.857   5.803   1.797 -0.5200  1.4880 -0.3090
 6118TIP3    H239918   2.748   5.721   1.732  0.7915 -1.1326  0.6924
 6119TIP3   OH239919   2.268   0.045   8.104 -0.5179 -0.4400  0.0403
 6119TIP3    H139920   2.232   0.004   8.183  1.2360 -0.7893  0.7069
 6119TIP3    H239921   2.282   0.136   8.129 -1.9370 -0.0114 -0.5936
 6120TIP3   OH239922   3.988   2.197   0.683 -0.1721 -0.5966  0.9432
 6120TIP3    H139923   4.005   2.138   0.757 -0.3176 -0.0561  1.4158
 6120TIP3    H239924   3.925   2.260   0.717  1.0052  0.6667  0.8874
 6121TIP3   OH239925   3.315   3.850   6.710 -0.3582 -0.0603 -0.1040
 6121TIP3    H139926   3.246   3.914   6.694 -1.3445 -0.5252  2.0186
 6121TIP3    H239927   3.394   3.903   6.722 -0.6776  0.5855 -0.7622
 6122TIP3   OH239928   4.003   0.485   7.648 -0.0593 -0.4844 -0.2421
 6122TIP3    H139929   4.007   0.455   7.738 -0.8826 -1.3446 -0.4754
 6122TIP3    H239930   3.949   0.564   7.651 -1.3203 -1.3191 -0.1573
 6123TIP3   OH239931   1.141   6.830   1.823 -0.0035  0.2129 -0.1656
 6123TIP3    H139932   1.205   6.874   1.879  0.7951 -0.1845 -0.7446
 6123TIP3    H239933   1.183   6.747   1.799 -0.4926  0.1924 -1.0101
 6124TIP3   OH239934   1.887   1.703   1.276 -0.0693 -0.3054  0.2140
 6124TIP3    H139935   1.838   1.670   1.351 -2.4385  1.6779 -0.3368
 6124TIP3    H239936   1.924   1.786   1.305 -1.0290  0.4962 -0.7534
 6125TIP3   OH239937   3.167   5.997   6.534  0.2685  0.0997  0.1251
 6125TIP3    H139938   3.097   5.935   6.556 -0.1383  0.2552 -0.6928
 6125TIP3    H239939   3.133   6.082   6.562  0.9386 -0.0523  1.5010
 6126TIP3   OH239940   2.408   1.665   0.545  0.2641 -0.5486  0.4632
 6126TIP3    H139941   2.488   1.694   0.501 -0.5688  0.0221 -0.6946
 6126TIP3    H239942   2.429   1.673   0.639  1.0979  0.8786  0.1858
 6127TIP3   OH239943   4.157   0.736   1.326 -0.0017 -0.0369 -0.1470
 6127TIP3    H139944   4.121   0.755   1.413 -0.4999 -3.7900  0.6436
 6127TIP3    H239945   4.086   0.752   1.265 -0.5796 -0.0791  0.5097
 6128TIP3   OH239946   1.025   5.636   1.753 -0.1499 -0.3094  0.7348
 6128TIP3    H139947   1.082   5.698   1.707 -0.8638  0.5952  1.0309
 6128TIP3    H239948   1.076   5.556   1.760  0.5568  0.0420 -0.2361
 6129TIP3   OH239949   5.762   4.139   1.396 -0.7265 -0.2141  0.3207
 6129TIP3    H139950   5.749   4.045   1.413  3.7931 -1.7002 -2.5717
 6129TIP3    H239951   5.857   4.150   1.399 -1.0952  4.4703  0.8648
 6130TIP3   OH239952   6.860   2.487   1.076  0.1206  0.2732 -0.5060
 6130TIP3    H139953   6.865   2.401   1.117 -2.7897 -0.1699 -0.8186
 6130TIP3    H239954   6.886   2.548   1.145 -0.9530 -0.7033  0.8120
 6131TIP3   OH239955   0.600   6.247   6.655 -0.1207  0.1127  0.0404
 6131TIP3    H139956   0.647   6.256   6.572 -1.1347  1.0485 -0.4562
 6131TIP3    H239957   0.668   6.229   6.719  0.8445  0.7391 -0.7745
 6132TIP3   OH239958   6.580   5.567   1.215  0.2515  0.2056  0.3058
 6132TIP3    H139959   6.665   5.607   1.196  0.8363 -0.9045  0.5436
 6132TIP3    H239960   6.593   5.520   1.297 -0.9291  0.9981  0.9775
 6133TIP3   OH239961   5.251   5.311   1.642 -0.0611  0.1574 -0.1077
 6133TIP3    H139962   5.303   5.391   1.643 -1.2417  0.9401  1.0806
 6133TIP3    H239963   5.259   5.276   1.730 -2.2158  0.7713  0.3837
 6134TIP3   OH239964   2.642   2.685   7.978  0.1747  0.4332 -0.4516
 6134TIP3    H139965   2.712   2.730   7.931 -0.8883  2.9115  0.1209
 6134TIP3    H239966   2.632   2.735   8.060  0.1057 -2.0344  1.1586
 6135TIP3   OH239967   2.693   4.687   6.855  0.2526  0.2107  0.0336
 6135TIP3    H139968   2.743   4.614   6.891  1.1883  1.3269  1.0602
 6135TIP3    H239969   2.759   4.749   6.823 -0.3466  2.1422  2.2561
 6136TIP3   OH239970   5.643   0.786   7.359  0.4106 -0.3302  0.5434
 6136TIP3    H139971   5.716   0.751   7.309  0.1539  2.3241 -1.9384
 6136TIP3    H239972   5.678   0.798   7.448  2.3700 -0.8551 -0.1143
 6137TIP3   OH239973   0.996   3.243   0.760 -0.0305 -0.9218 -0.4316
 6137TIP3    H139974   0.980   3.331   0.726  0.4092 -0.6459  0.0603
 6137TIP3    H239975   1.061   3.255   0.829 -0.4814 -1.5406  0.1208
 6138TIP3   OH239976   0.745   3.187   1.966 -0.4253  0.3327 -0.1544
 6138TIP3    H139977   0.730   3.115   2.028 -1.2259  0.3606 -0.3010
 6138TIP3    H239978   0.747   3.266   2.020 -0.0635  0.2490 -0.0478
 6139TIP3   OH239979   2.492   5.691   7.789  0.2189 -0.0107  0.1673
 6139TIP3    H139980   2.562   5.633   7.759 -0.1967 -0.3758 -0.1066
 6139TIP3    H239981   2.439   5.636   7.846  0.8298  0.5951  1.3475
 6140TIP3   OH239982   3.185   6.276   6.405  0.4466  0.1700 -0.4578
 6140TIP3    H139983   3.148   6.360   6.376 -1.1120 -0.8505 -1.5981
 6140TIP3    H239984   3.145   6.261   6.491  0.0670  0.1832 -0.6325
 6141TIP3   OH239985   3.752   6.877   1.002 -0.6536 -0.6885  0.0292
 6141TIP3    H139986   3.722   6.787   0.987 -0.4796 -0.5665 -1.1632
 6141TIP3    H239987   3.759   6.914   0.914 -2.4139  1.0525  0.5576
 6142TIP3   OH239988   2.580   3.896   1.161  0.1234 -0.1191 -0.6281
 6142TIP3    H139989   2.665   3.936   1.180 -0.7200  1.1833  0.6177
 6142TIP3    H239990   2.540   3.954   1.097 -0.0275 -0.4649 -0.8495
 6143TIP3   OH239991   3.545   6.456   1.700  0.2936 -0.4778 -0.4592
 6143TIP3    H139992   3.460   6.412   1.706  0.2535 -0.3413  0.0714
 6143TIP3    H239993   3.525   6.548   1.713  0.6946 -0.6055  1.5084
 6144TIP3   OH239994   5.287   4.539   2.287 -0.0075 -0.3346  0.3355
 6144TIP3    H139995   5.360   4.505   2.235  0.9362  1.7211  0.2402
 6144TIP3    H239996   5.293   4.634   2.279 -0.8676  0.0140  2.7704
 6145TIP3   OH239997   6.997   1.010   0.149  0.6614 -0.3529  0.7790
 6145TIP3    H139998   7.023   1.093   0.188 -2.0989  1.8260 -1.5204
 6145TIP3    H239999   7.034   1.011   0.061 -0.3889 -0.9487  0.3027
 6146TIP3   OH240000   5.948   4.901   0.205  0.2175  0.0652 -0.3424
 6146TIP3    H140001   5.893   4.978   0.216 -0.4167 -0.6683  2.1926
 6146TIP3    H240002   5.911   4.855   0.130 -0.9252  0.9813 -0.3576
 6147TIP3   OH240003   6.869   4.505   6.618  0.3008 -0.5465  0.0830
 6147TIP3    H140004   6.879   4.595   6.585  3.3005 -0.9852 -0.4733
 6147TIP3    H240005   6.826   4.458   6.547 -3.0973  0.7551  1.1059
 6148TIP3   OH240006   3.228   5.387   6.632 -0.0200  0.2695  0.0057
 6148TIP3    H140007   3.233   5.483   6.631 -0.5949  0.3065 -1.2009
 6148TIP3    H240008   3.135   5.368   6.644 -0.0793 -0.1194 -1.0015
 6149TIP3   OH240009   3.506   1.531   6.512  0.1823  0.5195  0.1009
 6149TIP3    H140010   3.454   1.588   6.455  0.6356  0.0898 -0.7610
 6149TIP3    H240011   3.586   1.580   6.528  0.5760  0.1427 -0.6476
 6150TIP3   OH240012   3.753   6.964   1.862  0.0439 -0.1039 -0.0611
 6150TIP3    H140013   3.799   7.033   1.910  0.8893 -1.1511  0.6689
 6150TIP3    H240014   3.783   6.882   1.902  0.4352 -1.0023 -2.0575
 6151TIP3   OH240015   0.254   0.362   6.914 -0.2900 -0.3047  0.2791
 6151TIP3    H140016   0.301   0.293   6.867 -1.4279 -0.4046 -0.7389
 6151TIP3    H240017   0.312   0.384   6.987  1.0566 -0.8512 -0.5860
 6152TIP3   OH240018   6.329   2.140   7.192  0.2716 -0.1658 -0.2192
 6152TIP3    H140019   6.383   2.118   7.116  0.0931  1.9991 -1.0497
 6152TIP3    H240020   6.257   2.078   7.189  0.1579 -0.0160 -1.9704
 6153TIP3   OH240021   5.087   3.122   0.641 -0.3334  0.0473 -0.4669
 6153TIP3    H140022   5.166   3.100   0.689 -1.0094 -0.2890  0.5116
 6153TIP3    H240023   5.102   3.212   0.610 -0.1161  0.4789  0.8476
 6154TIP3   OH240024   6.039   1.208   7.040 -0.3070 -0.0789 -0.0617
 6154TIP3    H140025   6.121   1.230   6.994  0.3823  1.4913  1.7627
 6154TIP3    H240026   6.063   1.137   7.099 -0.6677 -0.6957 -0.6545
 6155TIP3   OH240027   2.464   0.692   0.238 -0.8049  0.2301 -0.1736
 6155TIP3    H140028   2.401   0.764   0.228 -1.0819 -0.0094 -0.1688
 6155TIP3    H240029   2.547   0.728   0.207 -0.6642  0.9586  0.9725
 6156TIP3   OH240030   1.748   4.165   2.382 -0.5305  0.1049  0.0109
 6156TIP3    H140031   1.768   4.190   2.292 -0.4319  1.2746  0.3360
 6156TIP3    H240032   1.675   4.223   2.407 -1.1674 -0.8288  0.3915
 6157TIP3   OH240033   6.894   3.582   2.331  0.4641 -0.5353 -0.4205
 6157TIP3    H140034   6.826   3.570   2.398  1.3252 -0.9494  0.4066
 6157TIP3    H240035   6.970   3.535   2.366  2.0734  2.1792  0.0295
 6158TIP3   OH240036   1.320   5.770   2.200  0.4104  0.1435 -0.0244
 6158TIP3    H140037   1.238   5.721   2.198 -0.6950  1.8064  1.3806
 6158TIP3    H240038   1.335   5.797   2.109 -0.7323  0.0164 -0.2596
 6159TIP3   OH240039   3.987   1.420   1.482  0.0228 -0.1167  0.0736
 6159TIP3    H140040   4.008   1.382   1.396 -1.0850  2.1872 -1.3417
 6159TIP3    H240041   4.070   1.456   1.513  0.0868  0.8497 -1.0949
 6160TIP3   OH240042   5.727   0.857   0.923 -0.5814  0.3552  0.3146
 6160TIP3    H140043   5.779   0.813   0.989  0.0009 -0.5408 -0.7043
 6160TIP3    H240044   5.785   0.925   0.888  0.9698 -2.2176 -2.5626
 6161TIP3   OH240045   3.267   5.839   6.818 -0.3038 -0.0030  0.5197
 6161TIP3    H140046   3.221   5.808   6.896  0.7686 -1.8563  0.4869
 6161TIP3    H240047   3.342   5.888   6.853 -0.3467 -0.0216  0.6407
 6162TIP3   OH240048   2.509   3.565   7.989 -0.5925 -0.4101 -0.3852
 6162TIP3    H140049   2.524   3.655   8.017 -0.3890 -0.6993  0.4355
 6162TIP3    H240050   2.439   3.534   8.045 -3.0600  0.2806 -2.8446
 6163TIP3   OH240051   5.728   0.880   2.212 -0.1642 -0.4511 -0.4595
 6163TIP3    H140052   5.780   0.940   2.265 -0.2662 -1.4158  0.7814
 6163TIP3    H240053   5.706   0.930   2.133  0.2597  0.9139  0.2600
 6164TIP3   OH240054   4.106   1.337   0.920  0.3721 -0.0884 -0.0372
 6164TIP3    H140055   4.113   1.272   0.851  1.1002  0.1479 -0.1947
 6164TIP3    H240056   4.157   1.412   0.889 -1.3683  1.0188 -0.3628
 6165TIP3   OH240057   4.646   0.089   7.817  0.4254  0.0651  0.6114
 6165TIP3    H140058   4.735   0.098   7.851 -0.4056 -0.0651  2.9357
 6165TIP3    H240059   4.601   0.032   7.879 -1.3579  0.3022 -0.3829
 6166TIP3   OH240060   1.932   1.597   1.044  0.0633 -0.0281 -0.0685
 6166TIP3    H140061   1.850   1.604   0.994  0.2451 -2.3743 -0.8258
 6166TIP3    H240062   1.909   1.625   1.132 -1.5736 -0.6444 -0.2612
 6167TIP3   OH240063   4.999   6.368   1.632 -0.3572 -0.2450  0.2598
 6167TIP3    H140064   4.948   6.446   1.609  0.9355  0.6209  0.2636
 6167TIP3    H240065   5.016   6.377   1.726 -0.9163 -0.9735  0.4425
 6168TIP3   OH240066   3.369   1.161   6.945 -0.1531  0.3475  0.3266
 6168TIP3    H140067   3.413   1.230   6.896 -0.6177  0.6416  0.3134
 6168TIP3    H240068   3.364   1.087   6.885 -0.1696  0.4995  0.1406
 6169TIP3   OH240069   0.324   6.294   6.716 -0.2283  0.4966 -0.4405
 6169TIP3    H140070   0.287   6.359   6.657 -1.6489  1.1829  1.1404
 6169TIP3    H240071   0.418   6.292   6.694 -0.2432  2.6664 -0.8738
 6170TIP3   OH240072   0.470   2.610   8.024  0.1756 -0.5362 -0.4471
 6170TIP3    H140073   0.556   2.640   8.055 -0.4168  0.2177  0.4930
 6170TIP3    H240074   0.423   2.691   8.004 -0.3071 -0.9519 -0.9989
 6171TIP3   OH240075   6.752   4.773   1.847 -0.4575 -0.8491 -0.5806
 6171TIP3    H140076   6.832   4.721   1.849  0.2542  0.2373 -0.2523
 6171TIP3    H240077   6.734   4.793   1.939 -1.2523 -1.2801 -0.6267
 6172TIP3   OH240078   5.365   0.475   0.291  0.3444 -0.2194  0.0899
 6172TIP3    H140079   5.356   0.569   0.280  2.5522  0.2289  1.4577
 6172TIP3    H240080   5.444   0.452   0.243 -0.4456 -1.4996 -0.6549
 6173TIP3   OH240081   1.429   2.956   2.024  0.0856 -0.4841 -0.1564
 6173TIP3    H140082   1.497   2.889   2.022 -0.1251 -0.7293  0.7345
 6173TIP3    H240083   1.422   2.982   2.116  0.9376  1.5615 -0.6203
 6174TIP3   OH240084   2.204   4.896   1.392 -0.1739  0.1438  0.4300
 6174TIP3    H140085   2.166   4.807   1.391  1.0530 -0.4087  1.0392
 6174TIP3    H240086   2.186   4.928   1.480  0.9767 -0.2418  0.8294
 6175TIP3   OH240087   2.581   1.810   0.192 -0.2257  0.0382 -0.2069
 6175TIP3    H140088   2.658   1.866   0.187  0.5036 -0.9214 -0.0775
 6175TIP3    H240089   2.572   1.772   0.105 -0.3369 -0.1246 -0.1274
 6176TIP3   OH240090   1.702   4.339   7.875  0.0457  0.0633  0.6587
 6176TIP3    H140091   1.679   4.286   7.799 -1.8847  0.7493  0.7091
 6176TIP3    H240092   1.698   4.278   7.949 -0.1808 -0.1465  0.4734
 6177TIP3   OH240093   4.826   6.399   7.070  0.3018  0.2185  0.3085
 6177TIP3    H140094   4.781   6.351   7.140 -1.3697  0.1016 -0.7919
 6177TIP3    H240095   4.781   6.483   7.065  0.7993  0.4619 -0.2262
 6178TIP3   OH240096   1.994   0.768   1.313 -0.6937 -0.1621  0.3083
 6178TIP3    H140097   1.976   0.795   1.223 -0.7072 -2.4341 -0.4355
 6178TIP3    H240098   2.088   0.753   1.315 -0.3954  1.6065  1.2255
 6179TIP3   OH240099   1.328   4.714   2.091  0.3628  0.3989 -0.2922
 6179TIP3    H140100   1.405   4.770   2.082  0.4986  0.4282  0.8407
 6179TIP3    H240101   1.268   4.744   2.023  0.7637  1.3851 -0.2333
 6180TIP3   OH240102   5.910   5.932   2.023 -0.2804 -0.3315 -0.3544
 6180TIP3    H140103   5.935   5.931   2.116  0.9450  1.0858 -0.6268
 6180TIP3    H240104   5.815   5.939   2.024 -0.1629  2.2219  0.8865
 6181TIP3   OH240105   1.141   2.570   2.012 -0.3243 -0.2627 -0.3632
 6181TIP3    H140106   1.139   2.484   2.054  1.0324 -0.3388 -0.4295
 6181TIP3    H240107   1.176   2.629   2.078  1.3078 -0.2835 -1.1710
 6182TIP3   OH240108   5.352   2.511   7.501 -0.0089  0.5239 -0.0604
 6182TIP3    H140109   5.440   2.493   7.470 -0.0795 -0.7958  0.3967
 6182TIP3    H240110   5.295   2.458   7.445 -0.4437  0.8257  0.0844
 6183TIP3   OH240111   3.621   6.485   7.054 -0.7510  0.4793 -0.1166
 6183TIP3    H140112   3.546   6.544   7.044 -0.0581  1.2916 -0.5922
 6183TIP3    H240113   3.696   6.543   7.061  0.4564 -0.2779 -4.1822
 6184TIP3   OH240114   3.827   3.135   0.591 -0.0161 -0.0996  0.5257
 6184TIP3    H140115   3.802   3.089   0.511  3.9748 -1.1829 -0.3485
 6184TIP3    H240116   3.861   3.219   0.560  1.6392 -0.5634  0.9598
 6185TIP3   OH240117   5.914   2.754   7.056  0.4649  0.0549  0.0141
 6185TIP3    H140118   5.853   2.729   6.986  0.7186  0.6236 -0.4209
 6185TIP3    H240119   5.883   2.707   7.133  0.3424 -0.8038 -0.5431
 6186TIP3   OH240120   0.507   2.095   7.857  0.2943  0.4373  0.4324
 6186TIP3    H140121   0.570   2.028   7.884 -0.2353 -0.7748 -1.1676
 6186TIP3    H240122   0.441   2.096   7.927 -0.6806 -2.1016 -0.3553
 6187TIP3   OH240123   3.390   6.267   1.162  0.0064  0.0748 -0.1146
 6187TIP3    H140124   3.316   6.223   1.120  1.1905 -1.9342 -0.2408
 6187TIP3    H240125   3.373   6.259   1.256 -0.1344 -0.0058 -0.1470
 6188TIP3   OH240126   6.918   6.560   8.081 -0.1136  0.2167  0.2262
 6188TIP3    H140127   6.870   6.643   8.075 -0.8743 -0.1021  1.5363
 6188TIP3    H240128   6.993   6.580   8.137  1.4690  0.7605 -1.9654
 6189TIP3   OH240129   3.586   4.206   1.556  0.2631 -0.7024 -0.5029
 6189TIP3    H140130   3.497   4.172   1.561  0.1062 -0.2423 -0.1344
 6189TIP3    H240131   3.576   4.294   1.518  0.4647 -0.3045  0.3445
 6190TIP3   OH240132   0.105   5.026   7.924 -0.3925 -0.1874 -0.1119
 6190TIP3    H140133   0.022   5.040   7.878 -1.1756  2.2120  1.8329
 6190TIP3    H240134   0.084   4.964   7.994 -0.6267  0.5220  0.4630
 6191TIP3   OH240135   2.106   5.345   0.226  0.1005 -0.1745 -1.0022
 6191TIP3    H140136   2.015   5.372   0.239 -0.2783 -1.7109 -0.2814
 6191TIP3    H240137   2.136   5.317   0.312  1.7211  1.5080 -0.9315
 6192TIP3   OH240138   5.398   4.119   8.306  0.0283  0.5494 -0.1684
 6192TIP3    H140139   5.310   4.142   8.276  0.2427  0.7752 -0.6272
 6192TIP3    H240140   5.383   4.057   8.378 -0.5256  1.0878  0.1986
 6193TIP3   OH240141   4.315   0.621   8.236  0.0662  0.3288  0.1971
 6193TIP3    H140142   4.330   0.562   8.310  0.2368  1.9359  1.4827
 6193TIP3    H240143   4.243   0.677   8.264 -1.3572 -0.4517 -1.7508
 6194TIP3   OH240144   4.943   5.916   1.718  0.7801  0.2469  0.6206
 6194TIP3    H140145   4.959   5.992   1.775 -0.5276  1.4322 -0.5170
 6194TIP3    H240146   4.854   5.890   1.738  0.5196  0.2871 -0.4266
 6195TIP3   OH240147   2.890   1.472   0.892 -0.5905 -0.0079 -0.6530
 6195TIP3    H140148   2.851   1.492   0.806  1.1961  0.3323 -1.4275
 6195TIP3    H240149   2.828   1.507   0.955 -1.7871  0.0445 -1.8048
 6196TIP3   OH240150   1.531   0.525   0.681 -0.4232  0.2781 -0.3426
 6196TIP3    H140151   1.458   0.574   0.644 -0.0751 -0.6568 -2.4373
 6196TIP3    H240152   1.586   0.591   0.723 -1.7418  1.1724  0.0336
 6197TIP3   OH240153   1.629   1.553   6.387 -0.2045 -0.4189  0.2903
 6197TIP3    H140154   1.583   1.635   6.406  0.2774  0.3448 -1.5697
 6197TIP3    H240155   1.632   1.507   6.471 -2.5789  0.3780  0.9040
 6198TIP3   OH240156   1.040   4.516   0.090  0.4337  0.4607 -0.3435
 6198TIP3    H140157   0.951   4.532   0.060  0.0931 -1.0628 -0.2589
 6198TIP3    H240158   1.047   4.562   0.173  0.2347  1.8211 -1.0555
 6199TIP3   OH240159   5.346   3.992   0.148  0.2124 -0.1001  0.5298
 6199TIP3    H140160   5.374   4.046   0.221 -0.8029 -2.3929  2.8114
 6199TIP3    H240161   5.253   3.976   0.164 -0.2086 -0.1939 -1.6397
 6200TIP3   OH240162   6.275   0.564   6.919 -0.8704  0.4390  0.2439
 6200TIP3    H140163   6.228   0.481   6.926 -1.9886  1.0012 -0.3974
 6200TIP3    H240164   6.308   0.581   7.008  0.5160 -1.3221  0.1129
 6201TIP3   OH240165   6.682   3.566   6.777  0.0928 -0.0196 -0.5287
 6201TIP3    H140166   6.702   3.534   6.865  2.3700 -1.2700 -1.4166
 6201TIP3    H240167   6.730   3.648   6.770  0.8359 -0.4750 -0.9422
 6202TIP3   OH240168   0.406   1.384   7.787  0.1374  0.0089 -0.0687
 6202TIP3    H140169   0.466   1.318   7.823 -0.4554 -1.2491 -1.3274
 6202TIP3    H240170   0.349   1.407   7.861 -0.2146 -1.5420  0.1739
 6203TIP3   OH240171   6.199   3.642   0.383  0.0528 -0.6191 -0.5049
 6203TIP3    H140172   6.277   3.651   0.328  0.2320  0.3408 -0.1334
 6203TIP3    H240173   6.141   3.712   0.353  0.8084  0.9995  1.4994
 6204TIP3   OH240174   1.918   6.346   7.122 -0.2266  0.4421 -0.0407
 6204TIP3    H140175   1.927   6.271   7.062  2.5146  0.2101  0.5065
 6204TIP3    H240176   1.858   6.316   7.190 -0.6009 -0.5838 -0.8014
 6205TIP3   OH240177   2.913   2.883   0.427 -0.1779  0.5502  0.0295
 6205TIP3    H140178   2.890   2.837   0.508 -0.0895  1.3636  0.5351
 6205TIP3    H240179   2.995   2.927   0.448 -1.4032  2.8206  0.3500
 6206TIP3   OH240180   5.232   3.229   6.845  0.3673  0.1482  0.4153
 6206TIP3    H140181   5.261   3.294   6.910  0.1472  2.1994 -1.4025
 6206TIP3    H240182   5.140   3.248   6.831  1.1778  2.5994 -3.2902
 6207TIP3   OH240183   5.117   4.145   8.295 -0.1852 -0.0376  0.2082
 6207TIP3    H140184   5.115   4.164   8.389 -1.8791 -0.3735  0.2723
 6207TIP3    H240185   5.097   4.051   8.288 -0.2726  0.0216 -0.4836
 6208TIP3   OH240186   6.976   1.584   1.431  0.7654 -0.2823  0.0945
 6208TIP3    H140187   7.052   1.582   1.490  0.7950 -3.1305  0.1125
 6208TIP3    H240188   6.995   1.517   1.365 -1.4725 -0.7184 -0.1980
 6209TIP3   OH240189   0.782   2.152   7.960  0.5332 -1.1612  0.0031
 6209TIP3    H140190   0.782   2.246   7.978 -0.6414 -1.4025  1.3955
 6209TIP3    H240191   0.744   2.145   7.872  0.9863 -0.3199 -0.2730
 6210TIP3   OH240192   1.074   1.899   7.825  0.5012 -0.2360 -0.2829
 6210TIP3    H140193   1.058   1.987   7.860 -2.0331 -0.6939 -0.0898
 6210TIP3    H240194   1.162   1.878   7.854  0.3203  1.3492  1.6853
 6211TIP3   OH240195   3.241   2.631   6.258 -0.2384  0.1981 -0.1199
 6211TIP3    H140196   3.205   2.609   6.172 -1.2280  1.4723 -0.0601
 6211TIP3    H240197   3.209   2.719   6.276  1.7618  0.8472  0.5988
 6212TIP3   OH240198   0.588   2.912   0.157 -0.4895  0.0147  0.0401
 6212TIP3    H140199   0.648   2.868   0.217  0.0008 -0.1360 -0.5489
 6212TIP3    H240200   0.577   2.850   0.085  0.5172  0.9806 -0.9853
 6213TIP3   OH240201   5.426   4.936   0.102 -0.0469  0.0458  0.2231
 6213TIP3    H140202   5.482   4.944   0.180 -0.9843 -0.4572  0.9714
 6213TIP3    H240203   5.351   4.884   0.131 -1.4042  1.5048 -0.4704
 6214TIP3   OH240204   0.888   0.098   1.788 -0.0744 -0.1707 -0.6682
 6214TIP3    H140205   0.844   0.164   1.734 -1.0012  0.6244  0.9759
 6214TIP3    H240206   0.824   0.076   1.856  0.6493 -1.9456 -0.5234
 6215TIP3   OH240207   3.193   0.868   6.986 -0.3401  0.3862  0.0725
 6215TIP3    H140208   3.279   0.866   7.028  0.5123 -0.2281 -1.6100
 6215TIP3    H240209   3.141   0.806   7.036  0.7760 -0.6710 -0.0058
 6216TIP3   OH240210   5.725   3.226   0.478  0.0066 -0.5929 -0.6575
 6216TIP3    H140211   5.744   3.175   0.557 -0.7770  0.9756  0.5897
 6216TIP3    H240212   5.637   3.261   0.493  0.1992  0.4393 -1.8405
 6217TIP3   OH240213   1.179   3.985   1.118 -0.1544  0.0429 -0.0761
 6217TIP3    H140214   1.097   3.955   1.077  0.6898 -0.6777 -1.3358
 6217TIP3    H240215   1.222   3.904   1.146  0.6446  0.3042 -0.4984
 6218TIP3   OH240216   6.162   1.017   5.942 -0.5502 -0.5681  0.1567
 6218TIP3    H140217   6.202   1.104   5.937  0.7652 -1.0144  1.9236
 6218TIP3    H240218   6.078   1.032   5.985 -0.2527 -0.1869  0.6172
 6219TIP3   OH240219   4.122   3.979   6.340 -0.1937 -0.4185 -0.2495
 6219TIP3    H140220   4.176   4.002   6.415  0.9908 -0.0951 -1.1598
 6219TIP3    H240221   4.033   3.977   6.374  0.0777  1.5718  0.7677
 6220TIP3   OH240222   0.479   5.701   7.073 -0.5658  0.6875  0.7326
 6220TIP3    H140223   0.384   5.707   7.079 -0.5378  0.3819  1.5520
 6220TIP3    H240224   0.504   5.638   7.140  0.0367 -0.8270 -0.8247
 6221TIP3   OH240225   6.412   5.913   2.226 -0.3278 -0.0279  0.3231
 6221TIP3    H140226   6.430   6.000   2.260 -0.2279  0.1930 -0.2896
 6221TIP3    H240227   6.332   5.923   2.174 -0.2452 -0.2746  0.1428
 6222TIP3   OH240228   2.104   1.140   0.141  0.3067 -0.4279  0.3061
 6222TIP3    H140229   2.093   1.059   0.092  0.5312  0.3571 -1.1012
 6222TIP3    H240230   2.193   1.168   0.121  0.4234 -0.1099  1.2261
 6223TIP3   OH240231   3.455   4.770   7.475  0.3409  0.1582  0.0255
 6223TIP3    H140232   3.366   4.759   7.443 -0.3418  2.5823  0.8867
 6223TIP3    H240233   3.509   4.776   7.396 -0.7297  1.8000 -0.6302
 6224TIP3   OH240234   0.926   4.809   0.695  0.3337  0.4352  0.2769
 6224TIP3    H140235   1.011   4.826   0.736 -0.6253  1.1489  2.0626
 6224TIP3    H240236   0.909   4.887   0.642  0.2403  0.8380  0.8965
 6225TIP3   OH240237   3.835   6.377   1.103  0.0588 -0.0363 -0.4068
 6225TIP3    H140238   3.788   6.433   1.042  1.5176  2.1221  0.3163
 6225TIP3    H240239   3.918   6.423   1.120  0.2792 -1.1591  2.1610
 6226TIP3   OH240240   4.308   3.414   6.365 -0.1277  0.0267  0.1068
 6226TIP3    H140241   4.397   3.396   6.396 -0.0352  0.3634  0.0443
 6226TIP3    H240242   4.269   3.468   6.434  0.3952  1.5706 -0.7682
 6227TIP3   OH240243   0.439   1.490   6.274 -0.0499  0.2162  0.1920
 6227TIP3    H140244   0.414   1.449   6.357 -1.4609  0.7527  0.0566
 6227TIP3    H240245   0.362   1.481   6.219  0.8812 -0.1442 -1.0928
 6228TIP3   OH240246   3.189   4.753   7.419  0.3745 -0.0151  0.7872
 6228TIP3    H140247   3.165   4.664   7.442  3.1339 -1.2329 -0.6556
 6228TIP3    H240248   3.110   4.790   7.379 -0.3750 -2.3095  0.0103
 6229TIP3   OH240249   5.824   4.579   7.041 -0.1741  0.2121  0.5019
 6229TIP3    H140250   5.870   4.500   7.012  0.5077  0.7885 -0.0187
 6229TIP3    H240251   5.737   4.572   7.002 -0.1368 -0.3119  0.5091
 6230TIP3   OH240252   0.434   5.395   1.347 -0.8546 -0.0550 -0.0648
 6230TIP3    H140253   0.424   5.475   1.296 -0.3951  1.0410  1.5034
 6230TIP3    H240254   0.393   5.415   1.431 -1.1498 -1.6394  0.1922
 6231TIP3   OH240255   2.371   5.922   1.800 -0.1065  0.9123 -0.3996
 6231TIP3    H140256   2.399   5.841   1.759  2.2127  1.1181  0.6289
 6231TIP3    H240257   2.286   5.901   1.840  0.6774 -1.1341  0.2869
 6232TIP3   OH240258   2.862   1.055   8.249 -0.5184 -0.2303 -0.8157
 6232TIP3    H140259   2.904   1.123   8.302 -2.9031  0.5383  0.2348
 6232TIP3    H240260   2.863   1.091   8.160  0.4954  0.0105 -0.7219
 6233TIP3   OH240261   6.434   2.274   0.524 -0.2792 -0.1035 -0.2629
 6233TIP3    H140262   6.358   2.234   0.567 -1.1120 -0.1064 -1.6735
 6233TIP3    H240263   6.450   2.354   0.574 -1.2428 -0.0806  0.0407
 6234TIP3   OH240264   0.337   1.850   7.673  0.1046 -0.3741  0.1930
 6234TIP3    H140265   0.364   1.938   7.646  0.6662 -1.1365 -1.9468
 6234TIP3    H240266   0.317   1.858   7.766 -0.2869  2.1024 -0.0561
 6235TIP3   OH240267   0.507   6.856   7.597 -0.3586 -0.1668  0.4363
 6235TIP3    H140268   0.425   6.851   7.647  0.5870  0.1323  2.0738
 6235TIP3    H240269   0.527   6.765   7.575 -1.2580 -0.2218 -0.2450
 6236TIP3   OH240270   6.217   5.205   0.727  0.0833 -0.5661  0.8931
 6236TIP3    H140271   6.190   5.216   0.635 -0.5160 -1.9589  0.8803
 6236TIP3    H240272   6.173   5.276   0.773 -0.2024 -0.2856  0.2139
 6237TIP3   OH240273   2.040   0.649   1.900 -0.1338  0.3875  0.0444
 6237TIP3    H140274   2.066   0.736   1.927 -1.0764  0.4559  0.7904
 6237TIP3    H240275   1.946   0.656   1.883 -0.2534 -0.5162  0.2662
 6238TIP3   OH240276   1.281   5.468   0.913 -0.8751 -0.1149 -0.1995
 6238TIP3    H140277   1.187   5.481   0.924 -0.7416 -0.7809  2.6470
 6238TIP3    H240278   1.303   5.402   0.979  1.6694  0.4190 -0.4325
 6239TIP3   OH240279   4.096   6.327   6.164  0.6032 -0.2658  0.5652
 6239TIP3    H140280   4.070   6.332   6.256 -1.2475  0.4176  0.0375
 6239TIP3    H240281   4.035   6.265   6.124 -0.4912  1.5744 -0.7709
 6240TIP3   OH240282   6.313   5.983   1.658  0.2034 -0.0454 -0.8677
 6240TIP3    H140283   6.405   5.958   1.668  0.4570  1.3571  0.6481
 6240TIP3    H240284   6.314   6.049   1.588  0.3197 -0.1961 -1.0086
 6241TIP3   OH240285   1.569   2.335   0.493  0.1246 -0.1454 -0.4096
 6241TIP3    H140286   1.591   2.389   0.569 -1.4442  1.6848 -1.1630
 6241TIP3    H240287   1.525   2.259   0.531  0.7625 -0.0436  0.5880
 6242TIP3   OH240288   4.353   5.620   7.688  0.1230  0.5756  0.0463
 6242TIP3    H140289   4.371   5.561   7.762  0.4148  1.4694  0.7007
 6242TIP3    H240290   4.346   5.707   7.728  1.1102  1.1954 -1.0702
 6243TIP3   OH240291   1.573   1.724   0.574  0.1379 -0.1152 -0.2417
 6243TIP3    H140292   1.487   1.764   0.583  0.2583 -0.0782  0.8361
 6243TIP3    H240293   1.633   1.798   0.563 -0.0172 -0.1634 -1.5414
 6244TIP3   OH240294   5.655   1.871   7.060  0.5749  0.3145  0.4191
 6244TIP3    H140295   5.593   1.944   7.059  1.7646  1.3605 -0.6730
 6244TIP3    H240296   5.600   1.793   7.053 -0.6700  1.1616  0.4407
 6245TIP3   OH240297   4.271   3.397   1.693  0.2122  0.1692 -0.6593
 6245TIP3    H140298   4.293   3.310   1.725  0.9826  0.6841  0.2667
 6245TIP3    H240299   4.264   3.451   1.771 -2.1792  0.5605 -1.0825
 6246TIP3   OH240300   2.946   0.854   8.045  0.2480  0.3886  0.2378
 6246TIP3    H140301   2.936   0.921   7.978  3.1687 -0.8047 -1.5497
 6246TIP3    H240302   2.907   0.894   8.124  1.3242  3.9485 -0.8294
 6247TIP3   OH240303   5.823   6.272   8.066 -0.5435 -0.5053 -0.0965
 6247TIP3    H140304   5.816   6.193   8.120 -1.3073 -1.1147 -1.0327
 6247TIP3    H240305   5.918   6.288   8.060 -0.4472 -0.3071  1.5282
 6248TIP3   OH240306   3.755   2.797   0.629 -0.0875 -0.3242 -0.0275
 6248TIP3    H140307   3.687   2.840   0.681  0.7068  0.7535  0.1477
 6248TIP3    H240308   3.826   2.780   0.691  0.5107  0.1698 -0.5529
 6249TIP3   OH240309   3.041   3.864   1.371  1.0908 -0.2271  0.0977
 6249TIP3    H140310   3.094   3.787   1.393  0.1271 -1.0539 -0.3645
 6249TIP3    H240311   3.028   3.857   1.277  0.5947  0.2473  0.1290
 6250TIP3   OH240312   0.721   0.827   8.301 -0.1828 -0.3879 -0.3581
 6250TIP3    H140313   0.667   0.876   8.363  0.3415  0.3221 -0.4453
 6250TIP3    H240314   0.804   0.875   8.298 -0.4063 -0.0436 -2.0867
 6251TIP3   OH240315   5.705   5.421   1.770  0.9088 -0.1854  0.3155
 6251TIP3    H140316   5.649   5.438   1.846  2.0549  1.3533  0.8735
 6251TIP3    H240317   5.768   5.493   1.771  2.1912 -1.2503 -0.9440
 6252TIP3   OH240318   6.115   5.814   0.958  0.2919  0.3732  0.1536
 6252TIP3    H140319   6.188   5.754   0.946 -0.2935 -0.7203  1.7401
 6252TIP3    H240320   6.052   5.789   0.891  0.7429  0.3405 -0.2638
 6253TIP3   OH240321   3.938   5.331   1.129  0.3506 -0.5655 -0.5060
 6253TIP3    H140322   3.939   5.247   1.083  1.3488 -1.8550  1.7087
 6253TIP3    H240323   3.914   5.308   1.219  2.7350  1.1972  0.6648
 6254TIP3   OH240324   1.466   0.121   8.300 -0.3620  0.4631 -0.7889
 6254TIP3    H140325   1.514   0.155   8.376 -1.1025 -0.3810  0.0866
 6254TIP3    H240326   1.396   0.068   8.338 -0.0848 -0.8826 -2.0671
 6255TIP3   OH240327   5.297   5.843   7.777  0.0709  0.5414 -0.3450
 6255TIP3    H140328   5.328   5.831   7.687  1.2458 -0.4901  0.1744
 6255TIP3    H240329   5.263   5.757   7.802  0.1816  0.6984  0.3526
 6256TIP3   OH240330   6.762   1.883   6.470  0.6413 -0.0809 -0.7690
 6256TIP3    H140331   6.810   1.810   6.432  0.3147  0.1149 -1.5893
 6256TIP3    H240332   6.676   1.848   6.489  0.9355 -0.2912  0.2058
 6257TIP3   OH240333   1.665   4.582   8.010 -0.0109 -0.2427  0.3158
 6257TIP3    H140334   1.672   4.567   8.104  3.6491 -1.1597  0.0597
 6257TIP3    H240335   1.658   4.495   7.972 -0.5349  0.0643 -0.3117
 6258TIP3   OH240336   6.821   6.755   5.682 -0.4233 -0.4803 -0.2418
 6258TIP3    H140337   6.768   6.678   5.660 -1.5814  0.1732  0.1740
 6258TIP3    H240338   6.874   6.727   5.757 -0.0143 -1.2062 -0.7903
 6259TIP3   OH240339   3.965   3.846   0.898 -0.4690  0.5249  0.3248
 6259TIP3    H140340   3.987   3.765   0.944 -1.2882  0.3003  0.3299
 6259TIP3    H240341   3.908   3.818   0.826 -0.2270  1.0213 -0.0642
 6260TIP3   OH240342   4.823   4.535   7.157 -0.3205  0.0616 -0.8316
 6260TIP3    H140343   4.777   4.480   7.220  1.5088 -0.7613 -0.1655
 6260TIP3    H240344   4.753   4.580   7.109 -1.8120 -1.5320 -0.2297
 6261TIP3   OH240345   1.514   5.331   1.458 -0.1810 -0.0469  0.1903
 6261TIP3    H140346   1.578   5.401   1.468 -2.8602  2.6253 -0.1135
 6261TIP3    H240347   1.500   5.298   1.547 -0.4208  1.3180  0.6844
 6262TIP3   OH240348   6.061   5.027   2.168 -0.2270  0.0564  0.7990
 6262TIP3    H140349   6.009   4.952   2.198 -2.0302  1.4905  1.4630
 6262TIP3    H240350   5.999   5.100   2.165  0.7743  0.9741 -2.5478
 6263TIP3   OH240351   0.255   3.669   7.337 -0.0710 -0.2882 -0.3438
 6263TIP3    H140352   0.231   3.619   7.416 -0.2770  2.2794  1.3248
 6263TIP3    H240353   0.346   3.693   7.351 -0.4783  1.2870 -0.2071
 6264TIP3   OH240354   0.042   6.972   1.305  0.2649 -0.1875 -0.0225
 6264TIP3    H140355   0.102   6.902   1.331 -0.2161 -0.2664  0.9214
 6264TIP3    H240356   0.097   7.049   1.295  0.4433 -0.0890  1.5412
 6265TIP3   OH240357   3.015   3.284   0.633  0.7976 -0.6070  0.2046
 6265TIP3    H140358   3.036   3.236   0.714  1.4403 -2.4156 -0.9840
 6265TIP3    H240359   2.930   3.250   0.606  1.1493 -0.9185 -0.5298
 6266TIP3   OH240360   5.962   2.997   6.129  0.3396 -0.5189 -0.7579
 6266TIP3    H140361   5.986   3.083   6.164 -0.7130 -0.8177  0.7961
 6266TIP3    H240362   5.888   2.969   6.183 -0.8650 -1.3876 -2.7389
 6267TIP3   OH240363   0.989   0.147   8.302 -0.6966 -0.1941  0.0269
 6267TIP3    H140364   1.012   0.239   8.288 -4.3489  1.4908  3.2376
 6267TIP3    H240365   0.908   0.134   8.253 -0.9306 -1.3009  0.6661
 6268TIP3   OH240366   0.724   1.633   1.461 -0.2122 -0.3154 -0.3751
 6268TIP3    H140367   0.669   1.655   1.536 -0.9203 -0.5039 -0.8234
 6268TIP3    H240368   0.759   1.718   1.432 -0.0473 -0.2268  0.0816
 6269TIP3   OH240369   5.848   5.554   7.869  0.4046  0.1050  0.1164
 6269TIP3    H140370   5.839   5.574   7.776  0.5262  0.8968  0.2725
 6269TIP3    H240371   5.878   5.635   7.909  1.0769 -0.4328  0.7370
 6270TIP3   OH240372   5.342   1.753   0.784 -0.1082  0.6452 -0.2458
 6270TIP3    H140373   5.322   1.836   0.826 -1.6056  0.3999 -0.4130
 6270TIP3    H240374   5.363   1.776   0.693 -0.3755  0.8525 -0.2536
 6271TIP3   OH240375   2.860   4.386   0.307 -0.5114 -0.6029  0.0158
 6271TIP3    H140376   2.812   4.409   0.387  0.1191 -0.1039  0.2579
 6271TIP3    H240377   2.807   4.425   0.237 -0.0771  0.6230  0.3382
 6272TIP3   OH240378   5.623   3.725   7.052  0.3070  0.3839  0.2543
 6272TIP3    H140379   5.538   3.709   7.092 -0.0707 -0.1119 -0.7322
 6272TIP3    H240380   5.682   3.662   7.095 -0.0431  0.0135  0.1935
 6273TIP3   OH240381   4.475   3.376   1.218  0.0592 -0.3928  0.1372
 6273TIP3    H140382   4.564   3.411   1.206  0.1209 -0.1813  1.1605
 6273TIP3    H240383   4.456   3.391   1.310 -0.9353 -0.7042 -0.0136
 6274TIP3   OH240384   3.055   0.448   8.124  0.1134 -0.3769 -0.4546
 6274TIP3    H140385   3.136   0.407   8.092 -0.9623 -2.7213 -0.3577
 6274TIP3    H240386   3.080   0.539   8.141  2.2158 -0.5043 -2.3044
 6275TIP3   OH240387   5.117   1.697   0.039 -0.6029 -0.3400  0.1357
 6275TIP3    H140388   5.141   1.675  -0.051  0.5989  0.4092  0.2514
 6275TIP3    H240389   5.077   1.617   0.073 -1.2093 -0.5833 -1.1000
 6276TIP3   OH240390   2.300   1.281   8.203 -0.7574 -0.5809 -0.0325
 6276TIP3    H140391   2.206   1.268   8.206 -0.6593 -1.7096 -0.9235
 6276TIP3    H240392   2.333   1.247   8.286 -0.8945 -2.8956 -0.8386
 6277TIP3   OH240393   1.161   2.344   1.379 -0.7881 -0.0012  0.0399
 6277TIP3    H140394   1.242   2.308   1.341  0.0616  2.3647 -0.5711
 6277TIP3    H240395   1.107   2.267   1.397  1.1205 -1.5948 -0.6205
 6278TIP3   OH240396   1.663   4.023   1.779  0.2205 -0.2945 -0.0198
 6278TIP3    H140397   1.568   4.017   1.791  0.0373 -1.3219 -1.6852
 6278TIP3    H240398   1.678   3.996   1.688  2.1299 -0.4125  0.2823
 6279TIP3   OH240399   2.853   0.436   7.470  0.7887  0.2195  0.6459
 6279TIP3    H140400   2.804   0.354   7.460 -1.9283  1.7655  0.1979
 6279TIP3    H240401   2.910   0.439   7.393 -0.4192 -0.4188 -0.3057
 6280TIP3   OH240402   4.050   3.930   0.134  0.2570 -0.0630 -0.1371
 6280TIP3    H140403   4.029   3.880   0.055  0.1036  0.0049 -0.1405
 6280TIP3    H240404   4.088   4.011   0.103  0.8782 -0.3427 -0.1225
 6281TIP3   OH240405   0.098   1.314   6.461 -0.1647 -0.4224  0.2766
 6281TIP3    H140406   0.168   1.270   6.412  2.9397  2.0302  2.0832
 6281TIP3    H240407   0.058   1.374   6.398  0.1038 -1.0824 -0.5339
 6282TIP3   OH240408   3.735   0.708   1.843 -0.0688 -0.0684  0.0568
 6282TIP3    H140409   3.705   0.704   1.933 -0.4487  0.3815 -0.0517
 6282TIP3    H240410   3.657   0.691   1.790 -0.2177  1.3893 -0.2340
 6283TIP3   OH240411   1.817   2.286   7.621  0.4988 -0.3463 -0.3998
 6283TIP3    H140412   1.734   2.239   7.624  0.2569 -0.1257 -2.3653
 6283TIP3    H240413   1.876   2.226   7.575  0.8309  0.3631 -0.9055
 6284TIP3   OH240414   4.278   5.163   0.514  0.1046 -0.3710  0.0732
 6284TIP3    H140415   4.338   5.146   0.587  3.1193  0.8661 -1.9305
 6284TIP3    H240416   4.289   5.256   0.495 -1.4879 -0.4082 -1.2609
 6285TIP3   OH240417   3.076   4.492   5.838  0.4031  0.3688  0.4001
 6285TIP3    H140418   3.073   4.572   5.785 -1.1495  0.2173  0.2254
 6285TIP3    H240419   3.014   4.508   5.909 -0.1759 -0.8032  0.1792
 6286TIP3   OH240420   3.066   3.080   7.246 -0.0755  0.1698 -0.1682
 6286TIP3    H140421   3.066   3.006   7.184  0.5404 -0.0998  0.1433
 6286TIP3    H240422   3.073   3.038   7.332 -0.1637  0.5743  0.0342
 6287TIP3   OH240423   3.300   1.820   0.106 -0.4190  0.0682  0.1313
 6287TIP3    H140424   3.331   1.857   0.189  1.6994 -0.4144 -0.3871
 6287TIP3    H240425   3.254   1.740   0.131 -2.1454  1.2437  0.9881
 6288TIP3   OH240426   4.237   5.395   6.379 -0.5440 -0.5283 -0.6713
 6288TIP3    H140427   4.223   5.324   6.316 -0.3021 -1.7252  0.5827
 6288TIP3    H240428   4.332   5.401   6.388 -0.5806 -0.4971 -0.2867
 6289TIP3   OH240429   3.275   3.637   8.025  0.8359 -0.0095 -0.2339
 6289TIP3    H140430   3.202   3.692   8.055  0.0254 -2.0332  1.8339
 6289TIP3    H240431   3.344   3.700   8.000  0.3485  2.0191  2.9232
 6290TIP3   OH240432   2.520   1.333   7.101  0.5352 -0.8396  0.4247
 6290TIP3    H140433   2.452   1.293   7.154 -1.3795  1.5275 -0.0812
 6290TIP3    H240434   2.532   1.420   7.139 -0.2996  0.6168 -2.3756
 6291TIP3   OH240435   5.337   2.441   8.196 -0.3719  0.2127  0.0556
 6291TIP3    H140436   5.268   2.449   8.262  1.1251  0.0537  1.6948
 6291TIP3    H240437   5.417   2.424   8.246  0.6374 -1.0763 -1.8593
 6292TIP3   OH240438   3.713   4.966   1.331  0.4360  0.3949 -0.1243
 6292TIP3    H140439   3.745   4.969   1.421 -2.3536 -1.4773  1.0721
 6292TIP3    H240440   3.789   4.939   1.279  1.2492 -2.4345  2.2784
 6293TIP3   OH240441   6.274   2.388   7.827 -0.2802 -0.4360 -0.5344
 6293TIP3    H140442   6.237   2.419   7.910 -1.5631 -2.0019 -0.4729
 6293TIP3    H240443   6.227   2.437   7.760 -1.4678 -1.3536 -0.4052
 6294TIP3   OH240444   2.284   2.209   8.370 -0.7975  0.5966 -0.0019
 6294TIP3    H140445   2.361   2.172   8.327  0.0103  1.2298  0.8419
 6294TIP3    H240446   2.222   2.225   8.300 -0.3768 -0.4388 -0.6331
 6295TIP3   OH240447   1.589   4.956   0.265  0.6821 -0.8249 -0.5674
 6295TIP3    H140448   1.597   4.900   0.187 -0.5914 -0.2492 -1.1601
 6295TIP3    H240449   1.642   5.033   0.244 -1.9883  0.7240 -2.2777
 6296TIP3   OH240450   0.412   3.300   1.575 -0.8598 -0.4014 -0.0528
 6296TIP3    H140451   0.453   3.242   1.510  0.7593  1.9207 -1.2242
 6296TIP3    H240452   0.474   3.304   1.647 -0.8883 -0.0034 -0.0474
 6297TIP3   OH240453   0.609   1.064   0.238 -0.0656  0.3907  0.4695
 6297TIP3    H140454   0.675   1.123   0.201 -0.1809 -0.0606 -0.4749
 6297TIP3    H240455   0.601   1.092   0.329 -1.1008  2.7531 -0.2624
 6298TIP3   OH240456   5.244   3.269   0.436  0.0932 -0.0335 -0.1319
 6298TIP3    H140457   5.280   3.322   0.507 -1.5969 -1.2655  1.7603
 6298TIP3    H240458   5.243   3.328   0.360  4.5182  0.5161 -0.0171
 6299TIP3   OH240459   5.880   3.241   7.774  0.8941  0.2593  0.0156
 6299TIP3    H140460   5.822   3.297   7.723  2.3905  1.5211 -0.3740
 6299TIP3    H240461   5.844   3.242   7.862 -0.4493 -0.1358 -0.4993
 6300TIP3   OH240462   6.941   5.686   7.756  0.0731  0.4496  0.6906
 6300TIP3    H140463   7.020   5.721   7.715 -0.0903  0.7473  0.6335
 6300TIP3    H240464   6.871   5.745   7.730 -0.1903  0.1257  0.6547
 6301TIP3   OH240465   0.058   4.600   0.433  0.0760 -0.1469  0.3999
 6301TIP3    H140466   0.101   4.521   0.467 -0.4717 -1.0902 -1.0194
 6301TIP3    H240467  -0.035   4.585   0.451 -0.0253  0.1812  0.1491
 6302TIP3   OH240468   1.136   6.915   1.400  0.8666  0.7186 -0.0560
 6302TIP3    H140469   1.052   6.918   1.445  0.0860 -0.5603 -1.3459
 6302TIP3    H240470   1.166   7.006   1.398  0.8712  0.8669  2.8128
 6303TIP3   OH240471   3.402   2.521   7.533  0.4712 -0.0659  0.1891
 6303TIP3    H140472   3.363   2.607   7.550  0.3850 -0.1231  0.2857
 6303TIP3    H240473   3.446   2.499   7.615  1.7270  0.5297 -0.3051
 6304TIP3   OH240474   6.467   4.773   6.173  0.1093 -0.2053 -0.2271
 6304TIP3    H140475   6.399   4.712   6.144 -1.6543  0.6560  1.8506
 6304TIP3    H240476   6.538   4.716   6.205 -0.1473 -1.1212 -1.2109
 6305TIP3   OH240477   1.779   2.098   7.355 -0.3713 -0.4834  0.3375
 6305TIP3    H140478   1.739   2.072   7.272 -0.4635  0.6358  0.0229
 6305TIP3    H240479   1.705   2.118   7.412 -0.3337 -2.0525  0.9805
 6306TIP3   OH240480   6.340   6.020   0.587 -0.1856  0.2435 -0.2884
 6306TIP3    H140481   6.436   6.027   0.591 -0.2248  2.0598 -1.6366
 6306TIP3    H240482   6.324   5.928   0.566  1.3400  0.2570 -1.6823
 6307TIP3   OH240483   3.059   2.384   6.491 -0.0518  0.3697 -0.1733
 6307TIP3    H140484   3.019   2.439   6.423 -0.0832  0.3834 -0.1433
 6307TIP3    H240485   2.987   2.329   6.522  0.0057  0.2306 -0.2845
 6308TIP3   OH240486   3.017   6.531   1.216 -0.5800  0.0799 -0.9705
 6308TIP3    H140487   3.101   6.491   1.235 -0.0517  0.7332 -1.8683
 6308TIP3    H240488   2.974   6.470   1.156 -1.0504 -0.5877  0.0217
 6309TIP3   OH240489   5.570   6.206   0.127 -0.2371  0.1266  0.2832
 6309TIP3    H140490   5.485   6.171   0.099  0.3032  0.5110 -2.0279
 6309TIP3    H240491   5.571   6.296   0.095  1.7766 -0.4632 -1.5582
 6310TIP3   OH240492   2.398   4.861   7.118  0.0713  0.5332 -0.4820
 6310TIP3    H140493   2.388   4.767   7.136 -0.0641  0.6302 -0.0371
 6310TIP3    H240494   2.488   4.880   7.141  0.3600  0.3386 -1.3956
 6311TIP3   OH240495   4.299   3.654   0.267  0.0268 -0.1075 -0.3113
 6311TIP3    H140496   4.312   3.559   0.272  1.3787  0.1224  1.5498
 6311TIP3    H240497   4.226   3.671   0.326 -0.2218  0.0229 -0.6519
 6312TIP3   OH240498   6.372   0.042   6.959 -0.1160  0.0819  0.4185
 6312TIP3    H140499   6.401   0.066   7.047  3.5605  3.8547 -1.4543
 6312TIP3    H240500   6.290   0.089   6.947 -0.3969 -0.0754  1.6391
 6313TIP3   OH240501   2.245   2.933   6.427  0.2446  0.2746  0.2384
 6313TIP3    H140502   2.319   2.952   6.484 -0.0561 -1.6786  1.3345
 6313TIP3    H240503   2.270   2.854   6.380 -0.2263  0.8990 -1.1222
 6314TIP3   OH240504   1.073   3.837   7.070  0.6222 -0.6439 -1.1137
 6314TIP3    H140505   1.022   3.758   7.053 -0.6987  0.0091 -0.2821
 6314TIP3    H240506   1.148   3.806   7.121 -0.2891 -1.2572 -0.1166
 6315TIP3   OH240507   1.050   3.652   7.367  0.6262  0.2612 -0.0971
 6315TIP3    H140508   1.079   3.606   7.289 -1.6699  0.8397 -1.3803
 6315TIP3    H240509   1.051   3.745   7.342 -0.9472  0.3933  0.2325
 6316TIP3   OH240510   1.554   6.761   0.756 -1.0784 -0.6812  0.5679
 6316TIP3    H140511   1.561   6.718   0.671  2.3007  0.5878  0.0012
 6316TIP3    H240512   1.536   6.691   0.818 -1.1338 -2.0413 -0.9257
 6317TIP3   OH240513   4.465   4.133   2.525 -0.1516  0.4607 -0.2393
 6317TIP3    H140514   4.444   4.048   2.564 -1.0335  0.3857 -0.8612
 6317TIP3    H240515   4.380   4.175   2.511  0.2518  1.2317 -0.4296
 6318TIP3   OH240516   6.897   1.862   1.464 -0.4966  0.2567 -0.0085
 6318TIP3    H140517   6.967   1.800   1.444 -1.2422  0.0356 -2.1585
 6318TIP3    H240518   6.907   1.880   1.558  0.3926 -2.2670  0.4490
 6319TIP3   OH240519   3.925   1.520   8.168  0.4729  0.2711 -0.1185
 6319TIP3    H140520   3.985   1.447   8.182  2.2736  1.8168  0.7609
 6319TIP3    H240521   3.934   1.542   8.075  1.6114  0.7216  0.0818
 6320TIP3   OH240522   5.984   6.126   1.822  0.9734 -0.0116  0.7004
 6320TIP3    H140523   5.957   6.120   1.914 -1.4610  2.4842  0.2718
 6320TIP3    H240524   6.067   6.175   1.824  0.4875  0.8040  1.5428
 6321TIP3   OH240525   0.540   0.661   7.068  0.0097 -0.0507 -0.3972
 6321TIP3    H140526   0.478   0.666   6.995 -0.8179  0.7694  0.3361
 6321TIP3    H240527   0.563   0.752   7.086 -0.5023 -0.1683  0.9381
 6322TIP3   OH240528   5.051   0.396   1.739 -0.6143 -0.1003  0.2161
 6322TIP3    H140529   5.113   0.374   1.808  0.4560 -0.9683 -0.9688
 6322TIP3    H240530   5.092   0.468   1.692 -1.4780  0.6884  0.6436
 6323TIP3   OH240531   3.260   1.414   8.310 -0.2979  0.2051  0.2800
 6323TIP3    H140532   3.309   1.442   8.387  0.1360 -3.3236  1.4596
 6323TIP3    H240533   3.326   1.395   8.244 -0.5517  1.3958 -0.3424
 6324TIP3   OH240534   2.307   0.537   7.005 -0.4622  0.5569 -0.2366
 6324TIP3    H140535   2.302   0.454   7.052  1.0833  0.6042  0.0714
 6324TIP3    H240536   2.362   0.518   6.929  0.1274  1.3537 -0.0250
 6325TIP3   OH240537   3.334   2.865   1.348  0.0130 -0.1981 -0.2209
 6325TIP3    H140538   3.350   2.849   1.441  3.5241  0.9099 -0.4996
 6325TIP3    H240539   3.333   2.778   1.308  0.5405 -0.5869  0.5950
 6326TIP3   OH240540   2.804   0.916   7.112  0.6305  0.9611 -0.0790
 6326TIP3    H140541   2.785   0.830   7.149  0.3447  0.6758 -0.8753
 6326TIP3    H240542   2.786   0.907   7.019  0.8738  1.8064 -0.2177
 6327TIP3   OH240543   0.690   0.309   1.389 -0.0989 -0.1789  0.0588
 6327TIP3    H140544   0.625   0.350   1.332 -1.7576 -1.3248  1.0433
 6327TIP3    H240545   0.762   0.286   1.331 -0.2513  1.7016 -0.9562
 6328TIP3   OH240546   2.009   1.395   6.651 -0.1937  0.1759 -0.6867
 6328TIP3    H140547   2.011   1.302   6.675  1.1561  0.3984  0.2018
 6328TIP3    H240548   1.918   1.421   6.667  0.2618 -0.0103  3.3315
 6329TIP3   OH240549   5.090   2.332   7.573 -0.6583  0.1147  0.5125
 6329TIP3    H140550   5.086   2.377   7.657 -0.9289 -0.0836  0.6078
 6329TIP3    H240551   5.049   2.247   7.589 -1.8911  0.5610 -0.1314
 6330TIP3   OH240552   3.777   4.069   7.375 -0.7147 -0.2890 -0.0740
 6330TIP3    H140553   3.840   3.999   7.392 -0.3096 -0.8335 -3.2313
 6330TIP3    H240554   3.814   4.146   7.418  1.3638 -0.9351 -0.6122
 6331TIP3   OH240555   1.461   3.860   8.197  0.2915 -0.1948  0.2938
 6331TIP3    H140556   1.522   3.934   8.190 -0.7065  0.6348  0.1551
 6331TIP3    H240557   1.416   3.874   8.281 -0.4900 -0.1709 -0.1165
 6332TIP3   OH240558   6.506   4.442   7.477 -0.0325  0.5414  0.7775
 6332TIP3    H140559   6.559   4.516   7.446 -0.5249  1.0332  1.0876
 6332TIP3    H240560   6.418   4.478   7.486 -0.9547 -0.8064 -1.8605
 6333TIP3   OH240561   5.445   2.820   7.898  0.2543  0.2239 -0.5011
 6333TIP3    H140562   5.500   2.781   7.967  1.0446  0.6441 -0.8764
 6333TIP3    H240563   5.374   2.757   7.885  0.0975  0.1284  0.6884
 6334TIP3   OH240564   4.072   5.647   7.216  0.4038 -0.0300 -0.8275
 6334TIP3    H140565   4.000   5.600   7.257 -0.1712 -0.2855 -2.0738
 6334TIP3    H240566   4.056   5.639   7.122  1.1130  1.3853 -1.1052
 6335TIP3   OH240567   1.133   0.510   6.154  0.3174  0.9784 -0.3357
 6335TIP3    H140568   1.105   0.450   6.085  0.3700  1.8689 -1.1437
 6335TIP3    H240569   1.224   0.532   6.131  0.3907  1.1501  0.1078
 6336TIP3   OH240570   2.178   0.221   1.022 -0.3846 -0.5343 -0.1328
 6336TIP3    H140571   2.241   0.179   1.080 -1.0785 -1.6307 -0.1535
 6336TIP3    H240572   2.092   0.195   1.057 -0.8402  0.6739 -0.2885
 6337TIP3   OH240573   4.990   3.476   6.651 -0.1385 -0.1523 -0.0851
 6337TIP3    H140574   4.996   3.562   6.609  1.2472 -1.5224 -2.9719
 6337TIP3    H240575   5.007   3.414   6.580 -0.4765 -2.8142  2.0242
 6338TIP3   OH240576   2.635   2.241   0.931 -0.1385  0.2577 -0.4915
 6338TIP3    H140577   2.600   2.161   0.890 -1.8787 -0.7794  2.6663
 6338TIP3    H240578   2.562   2.303   0.926 -0.5800 -0.0638  1.3370
 6339TIP3   OH240579   6.046   3.814   0.769  0.0399 -0.3269 -0.2778
 6339TIP3    H140580   6.067   3.813   0.862  0.3676  0.5424 -0.3337
 6339TIP3    H240581   6.108   3.751   0.731  1.4133  0.8986 -0.1868
 6340TIP3   OH240582   4.552   5.590   8.017  0.0018 -0.5282 -0.0318
 6340TIP3    H140583   4.552   5.498   7.990 -1.4259 -0.4500 -0.3538
 6340TIP3    H240584   4.469   5.601   8.063 -0.5853  0.9850 -1.3832
 6341TIP3   OH240585   3.513   6.491   1.049  0.0148  0.0348 -0.5238
 6341TIP3    H140586   3.518   6.554   1.121 -1.5692 -0.1226 -0.2282
 6341TIP3    H240587   3.480   6.411   1.089 -0.1621 -0.2860 -1.2845
 6342TIP3   OH240588   0.889   2.521   1.287 -0.2203 -0.3081 -0.8941
 6342TIP3    H140589   0.878   2.465   1.364  0.7368  1.0589  0.2912
 6342TIP3    H240590   0.916   2.461   1.218  2.5031 -1.1830  0.7358
 6343TIP3   OH240591   6.580   5.565   0.682 -0.0154 -0.8312 -0.0168
 6343TIP3    H140592   6.505   5.513   0.652 -1.4639  0.4149  1.3104
 6343TIP3    H240593   6.608   5.614   0.605 -2.2856  0.6805  0.0404
 6344TIP3   OH240594   3.560   4.513   0.184  0.0713 -0.3741  0.0681
 6344TIP3    H140595   3.594   4.458   0.254  1.5832 -0.4831 -0.6917
 6344TIP3    H240596   3.619   4.589   0.183 -2.4123  1.7236  1.5973
 6345TIP3   OH240597   0.615   4.246   8.032  0.4419  0.3081 -0.2768
 6345TIP3    H140598   0.704   4.215   8.013  0.8736  0.0266  1.9177
 6345TIP3    H240599   0.569   4.241   7.948  1.9911 -1.2843 -1.0928
 6346TIP3   OH240600   1.199   0.535   0.959 -0.8437 -0.4737  0.2579
 6346TIP3    H140601   1.244   0.553   0.876 -0.9322  1.1963  0.5380
 6346TIP3    H240602   1.106   0.536   0.936 -0.8666 -0.0567  0.3622
 6347TIP3   OH240603   2.942   6.892   7.765 -0.1933  0.2368 -0.7378
 6347TIP3    H140604   2.861   6.941   7.771 -0.7525 -0.5566 -1.5564
 6347TIP3    H240605   3.010   6.958   7.750 -0.3986  1.0934  1.7106
 6348TIP3   OH240606   5.248   3.260   7.201 -0.5364  0.0825  0.3982
 6348TIP3    H140607   5.290   3.189   7.153  0.6959 -0.2036  1.8111
 6348TIP3    H240608   5.173   3.285   7.148  0.9491  0.0499 -1.8364
 6349TIP3   OH240609   1.853   3.073   1.311 -0.1519 -0.0074  0.5223
 6349TIP3    H140610   1.832   3.023   1.390 -1.8649 -0.7208 -0.3310
 6349TIP3    H240611   1.919   3.137   1.340 -0.3197 -0.6126  2.3865
 6350TIP3   OH240612   6.739   1.583   6.925  0.4388  0.1518  0.3346
 6350TIP3    H140613   6.710   1.570   7.015 -0.2050  1.8998  0.4171
 6350TIP3    H240614   6.662   1.619   6.880  0.7166 -0.8048 -0.9493
 6351TIP3   OH240615   1.434   0.016   6.715  0.3928  0.6615  0.3968
 6351TIP3    H140616   1.529   0.006   6.708  0.2024 -0.9827 -0.3106
 6351TIP3    H240617   1.404   0.022   6.625 -0.2051  0.8783  0.6108
 6352TIP3   OH240618   4.979   2.619   2.034  0.0151 -0.0184  0.2455
 6352TIP3    H140619   5.032   2.540   2.043  2.1097  1.2809 -0.0397
 6352TIP3    H240620   4.987   2.664   2.118 -0.0948  0.5037 -0.0141
 6353TIP3   OH240621   2.910   0.710   7.338 -0.2261  0.3324  0.1334
 6353TIP3    H140622   2.815   0.722   7.341 -0.1497  2.2354 -2.2110
 6353TIP3    H240623   2.946   0.799   7.344  1.3718 -0.2494 -0.2162
 6354TIP3   OH240624   1.306   0.973   0.069  0.1644 -0.6670 -0.5030
 6354TIP3    H140625   1.212   0.959   0.058 -0.8555  2.4069  2.3792
 6354TIP3    H240626   1.326   1.048   0.013  0.7469 -0.8990 -0.6149
 6355TIP3   OH240627   4.812   3.165   0.858  0.6552 -0.1931  0.2289
 6355TIP3    H140628   4.812   3.235   0.793  0.2651  0.7375  1.1869
 6355TIP3    H240629   4.723   3.130   0.856  0.4187  0.3501  0.7661
 6356TIP3   OH240630   0.044   1.065   1.531  0.1169 -0.0823 -0.2413
 6356TIP3    H140631   0.109   0.995   1.527  1.7673  1.2650  1.4090
 6356TIP3    H240632  -0.030   1.026   1.578  1.2884 -0.5981  1.2796
 6357TIP3   OH240633   5.949   5.112   1.271  0.2882 -0.5056  0.0911
 6357TIP3    H140634   5.971   5.031   1.316 -0.0300 -0.5721  0.1320
 6357TIP3    H240635   5.876   5.148   1.321 -0.9492 -1.2364 -1.1076
 6358TIP3   OH240636   4.115   6.216   1.638  0.2558  0.0274  0.5560
 6358TIP3    H140637   4.030   6.197   1.599  0.2494 -0.6895  0.9005
 6358TIP3    H240638   4.139   6.135   1.684  0.4606  0.6988  1.6712
 6359TIP3   OH240639   6.089   6.756   0.398  0.2792 -0.3338 -0.4316
 6359TIP3    H140640   6.181   6.770   0.376  0.8057 -1.9825  0.5378
 6359TIP3    H240641   6.087   6.671   0.441 -1.3807  0.5788  1.4985
 6360TIP3   OH240642   2.853   3.962   7.499  0.0325  0.5551  0.9188
 6360TIP3    H140643   2.760   3.986   7.493 -0.2702 -0.6333  0.5337
 6360TIP3    H240644   2.862   3.921   7.585  0.1312  0.4405  0.8553
 6361TIP3   OH240645   3.537   1.049   1.735 -0.1267 -0.1671  0.2776
 6361TIP3    H140646   3.614   1.074   1.684 -0.5109 -0.3502 -0.4195
 6361TIP3    H240647   3.485   1.129   1.741  1.0057  0.4723  2.4394
 6362TIP3   OH240648   6.134   5.789   0.306  0.4432 -0.3962  1.1292
 6362TIP3    H140649   6.174   5.708   0.274 -0.1588  0.0186 -0.8112
 6362TIP3    H240650   6.052   5.796   0.256  0.0404  0.9481  1.9315
 6363TIP3   OH240651   6.209   6.139   0.791  0.1541  0.7163  0.4205
 6363TIP3    H140652   6.219   6.087   0.711  1.6780 -1.2533  1.7942
 6363TIP3    H240653   6.294   6.135   0.834 -0.5882  1.7874  2.1171
 6364TIP3   OH240654   2.794   6.660   1.490 -0.8798 -0.0272 -0.3899
 6364TIP3    H140655   2.764   6.750   1.504 -0.5117  0.0771 -0.2557
 6364TIP3    H240656   2.714   6.609   1.480 -1.1571  0.0611  1.1465
 6365TIP3   OH240657   5.456   0.085   0.112  0.0589  0.3305 -0.4744
 6365TIP3    H140658   5.474  -0.008   0.101  0.8598  0.6846 -2.3934
 6365TIP3    H240659   5.466   0.123   0.025 -0.3663  2.2046  0.2390
 6366TIP3   OH240660   5.010   0.766   7.288  0.3904  0.1086 -0.1756
 6366TIP3    H140661   5.069   0.832   7.325  0.1244  0.0373  0.3755
 6366TIP3    H240662   4.947   0.816   7.237 -0.1099  0.3281  0.6470
 6367TIP3   OH240663   3.773   0.798   1.513  0.1459 -0.1961  0.0901
 6367TIP3    H140664   3.698   0.774   1.567 -0.1073  1.4090  0.5172
 6367TIP3    H240665   3.754   0.761   1.427 -0.5591 -0.8165  0.5046
 6368TIP3   OH240666   6.175   4.421   7.613  0.2234  0.1616  0.2787
 6368TIP3    H140667   6.079   4.424   7.614  0.2152  0.1551 -0.3182
 6368TIP3    H240668   6.200   4.436   7.704 -0.3803 -1.0403  0.6575
 6369TIP3   OH240669   1.462   2.502   0.316 -0.6554  0.6241 -0.0436
 6369TIP3    H140670   1.367   2.514   0.319 -0.9889 -1.6910  1.0708
 6369TIP3    H240671   1.480   2.439   0.386  1.9023  1.9882  0.6750
 6370TIP3   OH240672   1.808   4.797   7.923  0.0182  0.3110  0.8308
 6370TIP3    H140673   1.768   4.712   7.941  0.1024  0.3573  1.2368
 6370TIP3    H240674   1.740   4.846   7.878 -0.6025  0.6064  2.0722
 6371TIP3   OH240675   5.817   1.769   7.552 -0.0271  0.0571 -0.0975
 6371TIP3    H140676   5.748   1.748   7.615  0.3107  0.9313  0.5844
 6371TIP3    H240677   5.772   1.780   7.468 -1.2905  3.9487  0.9040
 6372TIP3   OH240678   2.102   2.130   1.398  0.1844  0.3392 -0.1179
 6372TIP3    H140679   2.012   2.164   1.403  0.8499  2.1400  0.4490
 6372TIP3    H240680   2.135   2.140   1.488  1.9132  2.6277 -0.9034
 6373TIP3   OH240681   1.067   1.746   6.398  0.3253  0.3681 -0.3425
 6373TIP3    H140682   1.129   1.753   6.326 -0.0704  0.3895 -0.6849
 6373TIP3    H240683   1.049   1.837   6.423 -0.7200  0.4220 -1.2460
 6374TIP3   OH240684   3.023   5.327   1.791 -0.3500 -0.1185  0.2254
 6374TIP3    H140685   3.095   5.388   1.802 -0.7846  0.4027  0.1996
 6374TIP3    H240686   2.962   5.347   1.863 -0.0578 -1.1557  0.7931
 6375TIP3   OH240687   0.329   4.640   6.704  0.7032  0.2988 -0.0760
 6375TIP3    H140688   0.390   4.568   6.685  0.3525 -0.4105  1.3429
 6375TIP3    H240689   0.267   4.639   6.632  1.4964  0.0584 -0.7673
 6376TIP3   OH240690   2.905   3.152   2.028 -0.1363  0.4342  0.0258
 6376TIP3    H140691   2.988   3.190   2.000 -0.3130  0.8909  0.1075
 6376TIP3    H240692   2.917   3.133   2.122 -1.0970  3.3224  0.8378
 6377TIP3   OH240693   6.672   4.235   7.572  0.1618 -0.3520 -0.2647
 6377TIP3    H140694   6.674   4.234   7.668  1.6372  0.4408 -0.2530
 6377TIP3    H240695   6.597   4.291   7.551 -0.9717 -1.5643  0.3775
 6378TIP3   OH240696   4.028   6.929   7.295  0.6943  0.1022 -0.0253
 6378TIP3    H140697   4.086   6.862   7.331  0.7100 -0.3700 -0.9010
 6378TIP3    H240698   3.993   6.974   7.372 -0.3484 -1.7632  0.6604
 6379TIP3   OH240699   5.726   2.676   0.002 -0.7122 -0.3403 -0.1896
 6379TIP3    H140700   5.771   2.616   0.061  0.9802  2.0920  1.2137
 6379TIP3    H240701   5.727   2.760   0.048 -3.8656  0.6184 -1.5673
 6380TIP3   OH240702   0.658   4.997   7.181 -0.3408 -0.1276  0.3784
 6380TIP3    H140703   0.644   5.022   7.272 -1.3240  2.4493 -0.3735
 6380TIP3    H240704   0.737   5.045   7.155 -0.9459  0.4235 -0.5088
 6381TIP3   OH240705   1.144   1.512   8.045  0.1994  0.3313 -0.2617
 6381TIP3    H140706   1.116   1.425   8.015  0.3989  0.7971 -1.9041
 6381TIP3    H240707   1.063   1.563   8.048  0.0467  0.0545  0.9352
 6382TIP3   OH240708   2.175   1.934   6.664 -0.4984  0.2127  0.0248
 6382TIP3    H140709   2.090   1.907   6.632 -0.7402  0.7871  0.1669
 6382TIP3    H240710   2.199   1.868   6.729 -0.1392 -0.7855 -1.1065
 6383TIP3   OH240711   4.332   1.946   6.886 -0.3193  0.7285 -0.4190
 6383TIP3    H140712   4.283   1.976   6.810  1.6199  1.2619 -1.5141
 6383TIP3    H240713   4.311   2.010   6.955 -3.3231 -0.6241  0.0816
 6384TIP3   OH240714   4.256   5.549   6.639  0.3548  0.5983 -0.8205
 6384TIP3    H140715   4.206   5.554   6.558 -0.3686 -0.0616 -0.4236
 6384TIP3    H240716   4.200   5.593   6.704 -0.9238 -2.3012  0.1906
 6385TIP3   OH240717   3.272   0.636   1.180 -0.0895  0.0110  0.4201
 6385TIP3    H140718   3.238   0.550   1.153 -0.1372  0.0494  0.3559
 6385TIP3    H240719   3.223   0.658   1.259 -0.0745 -0.0238  0.4387
 6386TIP3   OH240720   4.251   0.250   7.212 -0.1528 -1.0289 -0.6634
 6386TIP3    H140721   4.174   0.299   7.180  2.1910  2.6274 -1.2765
 6386TIP3    H240722   4.263   0.281   7.301  1.9847  0.4391 -1.4016
 6387TIP3   OH240723   4.866   4.860   1.332 -0.7526 -0.2919  0.2771
 6387TIP3    H140724   4.921   4.792   1.374 -0.7577 -0.9452 -0.7388
 6387TIP3    H240725   4.925   4.905   1.272 -0.8862  0.2513  0.5473
 6388TIP3   OH240726   0.802   6.717   7.879 -0.5530  0.4473 -0.2421
 6388TIP3    H140727   0.835   6.782   7.817 -2.6034  0.9676 -0.8501
 6388TIP3    H240728   0.881   6.677   7.915  0.7203  0.7770 -2.4849
 6389TIP3   OH240729   2.993   6.911   1.861  0.1434 -0.6383 -0.3677
 6389TIP3    H140730   2.898   6.911   1.869 -0.3694  0.7821 -4.2693
 6389TIP3    H240731   3.015   6.824   1.827 -0.0514 -0.3384 -1.2935
 6390TIP3   OH240732   5.684   0.736   1.389  0.6247  0.2236 -0.3791
 6390TIP3    H140733   5.608   0.695   1.346  1.0681  0.2347 -1.2076
 6390TIP3    H240734   5.679   0.828   1.363  1.6341 -0.0192 -1.5517
 6391TIP3   OH240735   5.767   5.689   6.532 -0.0201 -0.6269  0.2815
 6391TIP3    H140736   5.853   5.676   6.493 -0.2400 -1.2572  0.0054
 6391TIP3    H240737   5.759   5.784   6.540  1.8861 -0.5947  2.9665
 6392TIP3   OH240738   6.343   6.082   6.769  0.1631  0.3476 -0.0136
 6392TIP3    H140739   6.439   6.089   6.775  0.2235 -0.4127  0.0516
 6392TIP3    H240740   6.324   6.085   6.675  0.0174  2.9871  0.0300
 6393TIP3   OH240741   1.958   3.132   2.403 -0.3712  0.0144 -0.3350
 6393TIP3    H140742   1.895   3.074   2.360 -1.9432  1.0557  0.4717
 6393TIP3    H240743   2.010   3.073   2.459 -2.2700 -0.6267  0.8550
 6394TIP3   OH240744   5.894   0.899   7.517 -0.1490  0.1781 -0.8964
 6394TIP3    H140745   5.912   0.811   7.551 -0.5194 -0.3618 -2.0623
 6394TIP3    H240746   5.940   0.957   7.577  0.0984 -0.8098 -0.1015
 6395TIP3   OH240747   0.027   1.583   0.857  0.2841 -0.7019 -0.7129
 6395TIP3    H140748  -0.051   1.609   0.906  2.0283  2.1047  0.8608
 6395TIP3    H240749   0.025   1.636   0.778  1.1319  0.3243 -0.0820
 6396TIP3   OH240750   4.421   1.957   0.284 -0.1062 -0.1780 -0.5580
 6396TIP3    H140751   4.427   1.995   0.371  0.2325  0.5699 -0.8996
 6396TIP3    H240752   4.347   1.897   0.288 -0.1277 -0.0997  0.2230
 6397TIP3   OH240753   6.926   6.180   7.169 -0.1999  0.0536  0.4552
 6397TIP3    H140754   6.991   6.250   7.162 -1.7712  1.4187 -2.1609
 6397TIP3    H240755   6.852   6.220   7.214 -1.1305  0.1558 -1.1042
 6398TIP3   OH240756   0.296   4.179   2.072  0.0825 -0.4727 -0.0437
 6398TIP3    H140757   0.389   4.202   2.068 -0.1354  0.7007  1.0316
 6398TIP3    H240758   0.267   4.181   1.981  0.8872  0.1576 -0.2981
 6399TIP3   OH240759   5.481   0.739   7.042 -0.2615 -0.4334  0.1563
 6399TIP3    H140760   5.387   0.741   7.058  0.0273  1.1123  2.0090
 6399TIP3    H240761   5.516   0.675   7.104  0.0048 -0.3049  0.1445
 6400TIP3   OH240762   1.583   1.229   1.542  0.0207  0.2795  0.5636
 6400TIP3    H140763   1.530   1.285   1.600 -2.5986 -0.3986 -0.9911
 6400TIP3    H240764   1.559   1.140   1.566 -0.9687 -0.0229 -1.3257
 6401TIP3   OH240765   2.004   1.650   6.310 -0.2398 -0.5174  0.0588
 6401TIP3    H140766   2.059   1.572   6.318 -0.1089 -0.4309  0.0023
 6401TIP3    H240767   2.022   1.701   6.388  0.7592  0.1486 -0.5825
 6402TIP3   OH240768   6.740   5.415   2.327  0.2519  0.4766 -0.1707
 6402TIP3    H140769   6.719   5.492   2.380 -2.0991 -0.0023 -0.2701
 6402TIP3    H240770   6.751   5.449   2.238 -1.7963  0.6573 -0.4062
 6403TIP3   OH240771   0.785   2.231   0.617 -0.4773 -0.1806 -0.7264
 6403TIP3    H140772   0.722   2.175   0.663  0.4593 -0.1829  0.6195
 6403TIP3    H240773   0.733   2.277   0.552 -1.7338 -0.7298 -0.1427
 6404TIP3   OH240774   6.946   2.853   0.891  0.3017 -0.3857 -0.2250
 6404TIP3    H140775   6.937   2.862   0.986  0.8909 -0.9364 -0.1120
 6404TIP3    H240776   6.858   2.833   0.861 -0.3844  2.0486 -0.0830
 6405TIP3   OH240777   6.400   7.002   0.927 -0.5134  0.1248 -0.2117
 6405TIP3    H140778   6.348   7.063   0.981 -0.3216 -0.4917  0.6962
 6405TIP3    H240779   6.335   6.956   0.874 -0.9679 -0.8316  1.1084
 6406TIP3   OH240780   3.984   0.156   1.389 -0.3197  0.2361 -0.3496
 6406TIP3    H140781   3.903   0.179   1.344 -0.8551  0.0803  0.5332
 6406TIP3    H240782   3.974   0.064   1.412 -0.1256  0.3601  0.2476
 6407TIP3   OH240783   2.984   5.856   0.018 -0.6245  0.0863 -0.6218
 6407TIP3    H140784   3.040   5.934   0.022 -1.4332  0.6602  3.1715
 6407TIP3    H240785   3.007   5.815  -0.065  1.0810  3.4193 -2.0094
 6408TIP3   OH240786   4.406   2.695   7.124  0.0982  0.7840 -0.0043
 6408TIP3    H140787   4.485   2.649   7.096 -1.2191 -3.0687  1.8790
 6408TIP3    H240788   4.419   2.709   7.218 -0.7629  1.7259 -0.0125
 6409TIP3   OH240789   1.264   6.081   0.054  0.6155  0.3792 -0.1551
 6409TIP3    H140790   1.314   6.140  -0.001  0.1885  0.7041 -0.2068
 6409TIP3    H240791   1.265   5.998   0.008  0.9338  0.4367 -0.2537
 6410TIP3   OH240792   2.182   4.904   7.364  0.2542  0.2480 -0.0921
 6410TIP3    H140793   2.096   4.913   7.324  1.2890  2.1048 -2.0799
 6410TIP3    H240794   2.237   4.967   7.318  2.3491  0.1700  2.1075
 6411TIP3   OH240795   6.971   2.721   7.575  0.0258  0.1549 -0.7470
 6411TIP3    H140796   7.044   2.715   7.513  1.6995 -3.1654  1.2459
 6411TIP3    H240797   6.911   2.652   7.548 -0.3227  0.1556  0.0054
 6412TIP3   OH240798   3.494   5.159   1.355  0.4358  0.5192  0.0295
 6412TIP3    H140799   3.581   5.119   1.363  0.4142  0.5414  0.4103
 6412TIP3    H240800   3.466   5.138   1.266  0.6634  0.1680  0.0368
 6413TIP3   OH240801   4.272   0.120   7.734 -0.0690 -0.0507 -0.0011
 6413TIP3    H140802   4.236   0.082   7.814  0.8854  1.0131  0.9712
 6413TIP3    H240803   4.299   0.208   7.759 -0.8570  0.7679 -1.8182
 6414TIP3   OH240804   3.742   5.450   7.584  0.3297  0.1401  0.0447
 6414TIP3    H140805   3.773   5.362   7.562  0.0435 -0.5784  2.2706
 6414TIP3    H240806   3.677   5.470   7.516  0.3222 -1.3998 -0.4454
 6415TIP3   OH240807   0.057   2.422   8.347  0.0566 -0.3462 -0.3689
 6415TIP3    H140808  -0.005   2.493   8.363  0.5638  0.3788 -1.4780
 6415TIP3    H240809   0.139   2.452   8.384  0.3858 -0.1417 -1.2425
 6416TIP3   OH240810   0.835   4.896   1.704 -0.2102  0.0043 -0.1957
 6416TIP3    H140811   0.777   4.823   1.725 -0.6570  0.0026 -1.3506
 6416TIP3    H240812   0.897   4.860   1.641  0.6199  0.1924  0.5011
 6417TIP3   OH240813   0.489   6.437   6.287  0.1198 -0.4677 -0.0284
 6417TIP3    H140814   0.439   6.370   6.241 -0.8738 -1.9606  2.9783
 6417TIP3    H240815   0.567   6.392   6.318 -0.5931 -0.3132  2.0910
 6418TIP3   OH240816   6.406   3.611   8.097 -0.1444 -0.2951  0.5117
 6418TIP3    H140817   6.396   3.697   8.056 -3.4191  0.6632  2.8495
 6418TIP3    H240818   6.345   3.555   8.050  2.5006 -1.6869 -1.4794
 6419TIP3   OH240819   3.854   2.728   8.111 -0.3112 -0.2338  0.4639
 6419TIP3    H140820   3.775   2.781   8.123  0.4977  0.9981  0.5105
 6419TIP3    H240821   3.900   2.733   8.195  0.1621 -0.3654  0.2197
 6420TIP3   OH240822   1.906   6.739   1.580  0.1090 -0.0806 -0.2884
 6420TIP3    H140823   1.868   6.720   1.666 -3.9548 -1.5076 -2.1211
 6420TIP3    H240824   1.991   6.695   1.581  0.9443  1.2613  3.4035
 6421TIP3   OH240825   2.410   1.813   7.428  0.0446  0.0529  0.3415
 6421TIP3    H140826   2.431   1.906   7.434  0.1230  0.0783 -0.2709
 6421TIP3    H240827   2.477   1.769   7.480  1.2890  0.1785 -1.0937
 6422TIP3   OH240828   1.331   2.838   0.609  0.5468  0.0603 -0.2752
 6422TIP3    H140829   1.331   2.743   0.598 -1.7350 -0.2069  1.4255
 6422TIP3    H240830   1.336   2.851   0.703 -3.2066  1.4340 -0.1210
 6423TIP3   OH240831   5.376   5.455   0.730 -0.2290 -0.0048  0.0456
 6423TIP3    H140832   5.371   5.551   0.732  1.6827  0.1895 -1.7422
 6423TIP3    H240833   5.443   5.433   0.794 -1.1827 -0.2452  0.9944
 6424TIP3   OH240834   2.826   6.864   0.389 -0.2408  0.2140  0.5024
 6424TIP3    H140835   2.907   6.915   0.396  1.5170 -2.3124  0.1329
 6424TIP3    H240836   2.804   6.866   0.296 -0.8431  1.1588  0.6455
 6425TIP3   OH240837   2.294   0.983   6.231  0.7179 -0.0478 -0.0506
 6425TIP3    H140838   2.310   0.891   6.211 -0.0639 -0.7621  2.2437
 6425TIP3    H240839   2.266   1.022   6.149 -0.3988 -2.2154 -0.7550
 6426TIP3   OH240840   1.559   0.860   7.679  0.0785 -0.5577  0.6187
 6426TIP3    H140841   1.614   0.862   7.601  0.4143  1.6361  0.8700
 6426TIP3    H240842   1.610   0.807   7.742  1.5343  0.6604  0.5365
 6427TIP3   OH240843   3.761   3.065   7.020 -0.2051 -0.0608  0.7268
 6427TIP3    H140844   3.825   3.027   6.960 -0.2313  1.6178 -0.4207
 6427TIP3    H240845   3.782   3.158   7.021 -0.7660  0.0839  2.6698
 6428TIP3   OH240846   1.160   6.890   8.145 -0.3703  0.3853  0.0986
 6428TIP3    H140847   1.080   6.943   8.147 -0.8711 -0.3408 -0.1885
 6428TIP3    H240848   1.217   6.930   8.211 -1.1203  0.6790  0.5804
 6429TIP3   OH240849   1.088   5.610   7.951 -0.6153  0.2068  0.6095
 6429TIP3    H140850   1.033   5.652   8.017 -0.4398 -1.5628  1.9686
 6429TIP3    H240851   1.082   5.516   7.971  1.1964 -0.2103 -0.5277
 6430TIP3   OH240852   5.926   0.590   0.459 -0.5512  0.0297  0.2445
 6430TIP3    H140853   5.845   0.543   0.437  1.3034 -1.8785 -3.3672
 6430TIP3    H240854   5.930   0.660   0.393  1.9657 -1.6470 -1.5484
 6431TIP3   OH240855   6.036   1.120   7.640  0.2132  0.0316  0.5455
 6431TIP3    H140856   6.128   1.138   7.617  0.0747 -0.1996 -0.2152
 6431TIP3    H240857   6.034   1.126   7.736  1.0940 -0.2689  0.5982
 6432TIP3   OH240858   2.262   5.639   1.244  0.3791  0.1183 -0.0756
 6432TIP3    H140859   2.236   5.605   1.159 -0.2634 -1.9605  0.8931
 6432TIP3    H240860   2.180   5.645   1.294  0.9832 -0.6453  1.0464
 6433TIP3   OH240861   5.119   1.081   1.994 -0.1852  0.7392  0.1067
 6433TIP3    H140862   5.175   1.023   2.045 -0.5268 -1.8870 -2.2951
 6433TIP3    H240863   5.172   1.104   1.917 -2.2517 -1.9507 -2.3072
 6434TIP3   OH240864   6.393   3.859   8.028 -0.4258 -0.3557 -0.4603
 6434TIP3    H140865   6.313   3.911   8.035 -0.7642 -0.9708  0.5614
 6434TIP3    H240866   6.445   3.885   8.105 -0.3392 -1.0919 -0.2639
 6435TIP3   OH240867   1.775   2.183   0.985  0.2429 -0.1459 -0.1607
 6435TIP3    H140868   1.839   2.173   1.055 -0.9631  0.7188  1.1246
 6435TIP3    H240869   1.726   2.262   1.009 -0.2192  0.1558 -1.9759
 6436TIP3   OH240870   2.746   1.548   7.004  0.1043  0.0102 -0.0024
 6436TIP3    H140871   2.803   1.608   6.958 -0.5374  0.2433 -0.5070
 6436TIP3    H240872   2.698   1.502   6.935  0.2459 -0.7473  0.3883
 6437TIP3   OH240873   4.844   4.190   1.803 -0.2340 -0.0203  0.2595
 6437TIP3    H140874   4.765   4.238   1.830  0.6177  1.2244  0.5972
 6437TIP3    H240875   4.867   4.228   1.718 -0.9920 -1.6265 -0.7158
 6438TIP3   OH240876   2.783   1.335   0.052 -0.1685 -0.3776 -0.8241
 6438TIP3    H140877   2.719   1.372   0.114  0.9568 -2.5166  1.8067
 6438TIP3    H240878   2.737   1.261   0.012 -0.1024 -0.4993 -0.6764
 6439TIP3   OH240879   3.258   6.620   0.100 -0.4058 -0.1147 -0.0525
 6439TIP3    H140880   3.205   6.637   0.178 -1.3418 -1.4068 -0.3734
 6439TIP3    H240881   3.243   6.696   0.044  0.8310  1.1832  1.2752
 6440TIP3   OH240882   1.137   3.604   6.174 -0.0062 -0.0488 -0.3194
 6440TIP3    H140883   1.226   3.569   6.171 -0.1532 -0.3924 -0.6567
 6440TIP3    H240884   1.138   3.675   6.109 -0.3993 -1.0354 -1.4185
 6441TIP3   OH240885   0.378   0.545   1.467 -0.3221 -0.1616 -0.0597
 6441TIP3    H140886   0.299   0.538   1.521 -0.0640  1.0313  0.5053
 6441TIP3    H240887   0.347   0.527   1.378 -1.3270  0.6892  0.0902
 6442TIP3   OH240888   5.518   5.252   1.140  0.4383  0.4010 -0.3825
 6442TIP3    H140889   5.431   5.280   1.113  0.4703  2.2003  1.2296
 6442TIP3    H240890   5.509   5.158   1.158 -1.1414  0.5620 -0.2645
 6443TIP3   OH240891   2.106   1.418   1.161 -0.1558  0.3156 -0.3905
 6443TIP3    H140892   2.110   1.333   1.116  1.6555  1.1358 -1.9266
 6443TIP3    H240893   2.044   1.470   1.109 -0.0806  0.4199 -0.3765
 6444TIP3   OH240894   3.081   6.183   7.700  0.1519 -0.6230  0.3865
 6444TIP3    H140895   2.993   6.217   7.683 -0.0536 -0.0509  2.3713
 6444TIP3    H240896   3.139   6.256   7.676 -0.0424 -0.2998  0.8890
 6445TIP3   OH240897   0.681   0.716   0.769  0.4709 -0.2427  0.7032
 6445TIP3    H140898   0.676   0.795   0.823  1.8592 -0.1337  0.7084
 6445TIP3    H240899   0.774   0.707   0.750  0.7428 -3.2705  2.7875
 6446TIP3   OH240900   6.307   3.428   0.797  0.1426 -0.2198 -0.1811
 6446TIP3    H140901   6.294   3.514   0.756 -1.3263 -0.1280  0.4163
 6446TIP3    H240902   6.250   3.369   0.748  0.3114 -0.6391  0.1190
 6447TIP3   OH240903   3.876   5.812   0.471  0.8712 -0.0108  0.1100
 6447TIP3    H140904   3.818   5.739   0.449 -0.5516  0.4522  2.0902
 6447TIP3    H240905   3.839   5.849   0.551  2.5590  1.8167  0.1163
 6448TIP3   OH240906   4.563   3.319   6.418  0.4223 -0.3355  0.1165
 6448TIP3    H140907   4.623   3.390   6.442  1.5678 -0.6032 -1.7940
 6448TIP3    H240908   4.618   3.241   6.417 -0.4499 -0.9610  0.4747
 6449TIP3   OH240909   1.624   0.302   6.735 -0.0437 -0.3430  0.4207
 6449TIP3    H140910   1.605   0.224   6.787  1.7908 -1.7172 -0.7959
 6449TIP3    H240911   1.708   0.333   6.769  0.6473 -0.6329 -0.9234
 6450TIP3   OH240912   2.775   5.014   0.830  0.8207 -0.7259 -0.7326
 6450TIP3    H140913   2.724   4.946   0.786 -0.4667 -0.0300 -0.3791
 6450TIP3    H240914   2.781   5.085   0.766 -0.2144 -0.1009 -0.1630
 6451TIP3   OH240915   1.699   2.167   0.307  0.2360  0.7471 -0.0202
 6451TIP3    H140916   1.682   2.088   0.358  1.7742 -1.0258 -2.0571
 6451TIP3    H240917   1.635   2.231   0.338  1.2710 -0.0255  4.3102
 6452TIP3   OH240918   1.984   2.210   0.246 -0.2065  0.1137 -0.6463
 6452TIP3    H140919   1.893   2.232   0.269 -0.4554 -0.3460 -1.1668
 6452TIP3    H240920   2.027   2.295   0.234  0.2024  0.4578  2.3821
 6453TIP3   OH240921   6.659   5.611   1.827  0.2471  0.1522  0.2228
 6453TIP3    H140922   6.588   5.570   1.778  1.7602 -1.3769 -0.7602
 6453TIP3    H240923   6.629   5.701   1.841 -0.9646  0.1605 -2.0242
 6454TIP3   OH240924   2.005   4.366   0.374  0.1672 -0.7405  0.2638
 6454TIP3    H140925   2.025   4.460   0.372  1.0847 -0.9262 -0.0594
 6454TIP3    H240926   2.026   4.339   0.463  0.5679 -0.7645  0.1657
 6455TIP3   OH240927   0.500   3.735   7.249  0.6606 -0.2096 -0.5068
 6455TIP3    H140928   0.569   3.730   7.182  4.6129  2.7039  2.8184
 6455TIP3    H240929   0.521   3.663   7.309 -1.0151 -0.9952 -0.8220
 6456TIP3   OH240930   0.745   1.268   7.525  0.4232 -0.6963  0.2823
 6456TIP3    H140931   0.821   1.267   7.465  1.3786 -1.1275  1.4540
 6456TIP3    H240932   0.729   1.361   7.541 -1.1854 -0.4492 -2.2241
 6457TIP3   OH240933   0.101   0.597   0.346  0.1309  0.0918 -0.3698
 6457TIP3    H140934   0.113   0.636   0.259  0.3887  0.7740 -0.0347
 6457TIP3    H240935   0.053   0.516   0.329 -1.9082  1.3403 -0.9417
 6458TIP3   OH240936   0.642   1.382   0.649 -0.2789  0.9897  0.0049
 6458TIP3    H140937   0.588   1.427   0.714 -1.1454 -1.8921  1.3987
 6458TIP3    H240938   0.713   1.343   0.699 -0.7179 -0.9152 -0.7924
 6459TIP3   OH240939   0.056   0.671   6.458 -0.2011  0.4248  0.2712
 6459TIP3    H140940  -0.032   0.709   6.458 -0.2623  0.3089 -0.8876
 6459TIP3    H240941   0.045   0.584   6.419  0.0662 -0.5564  2.2038
 6460TIP3   OH240942   2.854   6.495   2.308  0.3079  0.0616 -0.6861
 6460TIP3    H140943   2.774   6.541   2.281  0.4065  0.6326 -0.0070
 6460TIP3    H240944   2.923   6.560   2.299  0.3983  0.1676  0.6007
 6461TIP3   OH240945   2.038   4.382   0.649 -0.4623 -0.5627 -0.2849
 6461TIP3    H140946   2.041   4.291   0.680 -0.6604 -1.2982 -2.2861
 6461TIP3    H240947   2.023   4.434   0.728 -1.5567 -2.3629  0.7473
 6462TIP3   OH240948   3.990   1.943   1.528 -1.0190  0.3179  0.4638
 6462TIP3    H140949   3.955   1.947   1.439  1.6400 -1.1931 -0.7666
 6462TIP3    H240950   3.957   1.861   1.563 -1.6248  0.6491  0.6750
 6463TIP3   OH240951   0.933   4.188   6.660 -0.4869 -0.6567  0.2279
 6463TIP3    H140952   0.969   4.253   6.601 -0.5360 -1.8591 -1.1859
 6463TIP3    H240953   1.004   4.167   6.720 -0.3382  0.3428  0.4249
 6464TIP3   OH240954   6.105   1.007   0.019  0.1096 -0.3354 -0.4175
 6464TIP3    H140955   6.123   0.922   0.058 -2.2797 -0.8788 -0.3400
 6464TIP3    H240956   6.010   1.014   0.018  0.1950  2.8042  0.5703
 6465TIP3   OH240957   2.509   4.106   2.304 -0.2047  0.5784 -0.1310
 6465TIP3    H140958   2.429   4.145   2.270  0.1514 -0.5166 -2.3985
 6465TIP3    H240959   2.558   4.180   2.341 -1.9858  1.3334  0.8250
 6466TIP3   OH240960   3.808   1.121   7.595  0.0670 -0.0898 -0.0891
 6466TIP3    H140961   3.747   1.057   7.558  0.4983 -0.0886 -0.8198
 6466TIP3    H240962   3.836   1.083   7.678 -0.1435 -0.5686 -0.2387
 6467TIP3   OH240963   4.226   4.378   1.124 -0.0021 -0.0201 -0.9263
 6467TIP3    H140964   4.207   4.413   1.211 -0.3398  2.0769 -1.7789
 6467TIP3    H240965   4.222   4.454   1.066  1.5173 -1.1184 -2.6031
 6468TIP3   OH240966   0.854   0.974   2.265  0.0036 -0.3986  0.0353
 6468TIP3    H140967   0.848   0.880   2.245 -1.3000 -0.3616  0.1207
 6468TIP3    H240968   0.857   1.016   2.180 -0.0918 -0.4923 -0.0156
 6469TIP3   OH240969   0.306   1.612   1.287  0.2586 -0.1060 -0.1729
 6469TIP3    H140970   0.380   1.668   1.267  1.0607 -0.5263  1.4310
 6469TIP3    H240971   0.302   1.550   1.214  1.4711 -0.0519 -0.2987
 6470TIP3   OH240972   1.123   2.751   0.394  0.1682 -0.1349  0.1518
 6470TIP3    H140973   1.181   2.813   0.349 -0.7342 -0.4036 -1.4523
 6470TIP3    H240974   1.108   2.790   0.480 -2.5707  3.3896 -1.6833
 6471TIP3   OH240975   6.074   3.017   2.581 -0.2104  0.5118 -0.1334
 6471TIP3    H140976   6.019   3.090   2.555 -0.4205 -0.3167 -2.2041
 6471TIP3    H240977   6.163   3.046   2.562 -0.3184  0.1449 -1.2947
 6472TIP3   OH240978   5.838   2.317   6.651 -0.1923  0.0311 -0.0746
 6472TIP3    H140979   5.860   2.404   6.683  4.1225 -0.5292 -0.8218
 6472TIP3    H240980   5.835   2.326   6.556 -0.5551 -0.4621 -0.1129
 6473TIP3   OH240981   4.081   0.188   0.649  0.2814 -0.2380 -0.2732
 6473TIP3    H140982   4.084   0.103   0.694  1.0023  0.9326  2.0115
 6473TIP3    H240983   4.159   0.188   0.593 -0.2497 -1.4248 -1.0688
 6474TIP3   OH240984   1.251   6.654   7.640  0.1639 -0.7548  0.3298
 6474TIP3    H140985   1.225   6.717   7.573  0.2575 -0.9321  0.1283
 6474TIP3    H240986   1.246   6.703   7.722  2.9034  0.3762 -0.0515
 6475TIP3   OH240987   0.147   4.895   7.619  0.3003  0.4433  0.3012
 6475TIP3    H140988   0.081   4.964   7.619 -2.4307 -1.9779  1.0332
 6475TIP3    H240989   0.188   4.901   7.533 -1.8613  1.2066 -0.7348
 6476TIP3   OH240990   6.623   1.298   8.023 -0.1570 -0.3278  0.4220
 6476TIP3    H140991   6.538   1.257   8.041  0.2254 -1.4462 -0.2154
 6476TIP3    H240992   6.602   1.390   8.010 -1.1319 -0.4029  1.2754
 6477TIP3   OH240993   2.446   5.919   8.183 -0.3399  0.6113  0.0434
 6477TIP3    H140994   2.486   5.986   8.127 -0.5653  1.2259  0.6083
 6477TIP3    H240995   2.410   5.855   8.122 -0.7619  1.3763 -0.5250
 6478TIP3   OH240996   1.363   5.353   6.919 -0.4749 -0.3975 -0.6031
 6478TIP3    H140997   1.273   5.320   6.929 -0.9934  1.1347  0.2558
 6478TIP3    H240998   1.352   5.439   6.877  0.5940 -0.2391 -0.5733
 6479TIP3   OH240999   0.900   2.389   6.779  0.2731  0.1463  0.4822
 6479TIP3    H141000   0.939   2.309   6.813 -3.1950 -1.3214  1.5031
 6479TIP3    H241001   0.874   2.367   6.689 -0.9968 -0.0565  0.8778
 6480TIP3   OH241002   6.759   5.783   0.033  0.4225 -0.2828  0.4362
 6480TIP3    H141003   6.735   5.752   0.120  0.1286 -0.5719  0.2541
 6480TIP3    H241004   6.747   5.707  -0.024 -0.2257  0.1436 -0.0083
 6481TIP3   OH241005   4.168   2.473   6.996  0.2946  0.2083  0.2789
 6481TIP3    H141006   4.255   2.460   7.033  0.0464  1.2443  1.2835
 6481TIP3    H241007   4.122   2.527   7.060 -1.2210 -0.6216 -0.0621
 6482TIP3   OH241008   4.040   2.140   6.502  0.2310 -0.0005  0.0166
 6482TIP3    H141009   3.983   2.210   6.471 -2.3681 -0.8430  2.4484
 6482TIP3    H241010   4.049   2.081   6.427 -1.4848  0.5739 -0.6970
 6483TIP3   OH241011   1.379   6.929   1.570 -0.3717 -0.3962  0.2682
 6483TIP3    H141012   1.372   6.968   1.658 -0.0929 -0.0227  0.1240
 6483TIP3    H241013   1.469   6.897   1.565  0.2224  1.2502 -0.5603
 6484TIP3   OH241014   1.200   1.657   0.410  0.0444 -0.2355 -0.3689
 6484TIP3    H141015   1.144   1.658   0.332 -1.5558 -0.0952  0.7364
 6484TIP3    H241016   1.288   1.667   0.375 -0.8098  3.9541 -2.0042
 6485TIP3   OH241017   5.992   0.423   1.665  0.3369  0.1108 -0.3685
 6485TIP3    H141018   6.018   0.417   1.757  0.8238 -1.6367 -0.5896
 6485TIP3    H241019   5.897   0.430   1.667  0.3823  0.5944  0.2742
 6486TIP3   OH241020   2.132   0.165   7.824  0.1827  0.6224 -0.1475
 6486TIP3    H141021   2.061   0.179   7.761 -0.5486 -1.1266  0.2389
 6486TIP3    H241022   2.112   0.226   7.895 -0.6372  0.5150 -0.2786
 6487TIP3   OH241023   4.298   6.461   0.022  0.2271 -0.2485  0.2232
 6487TIP3    H141024   4.360   6.394  -0.008  0.6677  0.0277  0.4952
 6487TIP3    H241025   4.329   6.484   0.109  0.2127  0.4650  0.0442
 6488TIP3   OH241026   3.966   3.351   6.866  0.0684  0.2894 -0.2797
 6488TIP3    H141027   3.921   3.334   6.783 -0.1872 -0.2995 -0.0261
 6488TIP3    H241028   3.906   3.407   6.914  0.5631  1.3005 -0.7975
 6489TIP3   OH241029   2.090   0.884   0.021 -0.0369 -0.1903 -0.2423
 6489TIP3    H141030   2.066   0.877  -0.072 -1.0772 -0.7459  0.0501
 6489TIP3    H241031   2.176   0.844   0.026  0.8539  1.4968 -1.2652
 6490TIP3   OH241032   6.715   6.324   0.531  0.2692 -0.1098  0.1897
 6490TIP3    H141033   6.747   6.367   0.611  1.2432  0.7103 -0.6075
 6490TIP3    H241034   6.714   6.231   0.553 -2.1643  0.2379  2.0628
 6491TIP3   OH241035   3.266   2.592   1.452 -0.0465  0.1359 -0.6756
 6491TIP3    H141036   3.212   2.514   1.443 -1.2352  1.0274 -1.8359
 6491TIP3    H241037   3.322   2.591   1.375  0.6297 -0.0657 -0.1877
 6492TIP3   OH241038   4.143   5.951   6.975  0.6038  0.0552  0.5501
 6492TIP3    H141039   4.127   5.967   7.068 -0.4695 -1.7789  0.7183
 6492TIP3    H241040   4.064   5.982   6.931  0.9705  0.6022  0.2463
 6493TIP3   OH241041   1.324   6.282   7.906  0.2056 -0.0111  0.7457
 6493TIP3    H141042   1.388   6.352   7.913  1.5599 -1.1987  0.7144
 6493TIP3    H241043   1.334   6.231   7.986 -0.1494 -0.6594  0.3932
 6494TIP3   OH241044   6.694   4.075   0.270  0.0746  0.3788 -0.4570
 6494TIP3    H141045   6.619   4.113   0.224  1.2610  1.0339 -1.9408
 6494TIP3    H241046   6.740   4.025   0.203  0.2835 -1.0791  0.7387
 6495TIP3   OH241047   3.300   5.563   1.407 -1.0859 -0.2742  0.2268
 6495TIP3    H141048   3.354   5.508   1.351 -0.0786 -0.7904  1.6553
 6495TIP3    H241049   3.210   5.539   1.385 -0.6807 -1.6832  0.0276
 6496TIP3   OH241050   4.613   0.585   1.036  0.0428  0.5180 -0.0691
 6496TIP3    H141051   4.653   0.585   0.948  0.1343 -2.3205 -0.1261
 6496TIP3    H241052   4.524   0.554   1.022  0.1853 -0.3716  0.8512
 6497TIP3   OH241053   2.784   6.928   1.575 -0.3861  0.1371  0.1282
 6497TIP3    H141054   2.739   6.921   1.659 -0.0567  1.3687  0.4230
 6497TIP3    H241055   2.770   7.019   1.547 -0.3559 -0.2075 -1.0796
 6498TIP3   OH241056   2.089   5.627   2.124 -0.1074 -0.2608  0.9851
 6498TIP3    H141057   2.171   5.628   2.173  0.3944  2.3974  0.2537
 6498TIP3    H241058   2.093   5.706   2.070 -2.4069 -0.9772 -0.3415
 6499TIP3   OH241059   0.651   6.150   1.216 -0.4389 -0.1461 -0.2688
 6499TIP3    H141060   0.676   6.151   1.308 -0.8051 -1.8203 -0.1040
 6499TIP3    H241061   0.605   6.066   1.205 -0.1849 -0.0974 -2.0272
 6500TIP3   OH241062   0.126   4.231   2.470 -0.0564  0.2218  0.0657
 6500TIP3    H141063   0.053   4.174   2.494 -0.7326  1.0001 -0.0958
 6500TIP3    H241064   0.184   4.174   2.418  0.3486 -0.8734  1.6249
 6501TIP3   OH241065   3.156   5.714   6.304 -0.4959  0.2012 -0.1288
 6501TIP3    H141066   3.159   5.776   6.231 -0.7578  0.4398  0.0580
 6501TIP3    H241067   3.071   5.731   6.346 -0.7285 -0.5310 -0.2904
 6502TIP3   OH241068   2.518   0.090   1.788  0.0413 -0.4433  0.3838
 6502TIP3    H141069   2.540   0.156   1.853 -1.7401  0.2754  0.3233
 6502TIP3    H241070   2.523   0.136   1.704 -2.8228  0.2084  0.4482
 6503TIP3   OH241071   6.026   5.393   0.832  0.1400  0.2925  0.1314
 6503TIP3    H141072   5.954   5.420   0.775  0.0045 -1.2480 -0.4793
 6503TIP3    H241073   5.985   5.377   0.917 -0.2659 -0.6165 -0.2240
 6504TIP3   OH241074   0.629   4.527   1.753  0.1278  0.0234 -0.3921
 6504TIP3    H141075   0.701   4.466   1.772 -1.1860 -1.1667  1.0119
 6504TIP3    H241076   0.657   4.610   1.793 -0.2245 -1.0299  2.1915
 6505TIP3   OH241077   3.252   1.181   7.981  0.6070 -0.5224  0.0295
 6505TIP3    H141078   3.210   1.096   7.995 -1.0195 -0.1082 -1.8403
 6505TIP3    H241079   3.289   1.176   7.893  1.4467  0.3621  0.3034
 6506TIP3   OH241080   4.048   5.892   1.337  0.2190 -0.3488 -0.1772
 6506TIP3    H141081   4.130   5.920   1.296  0.0608 -0.6682 -0.7326
 6506TIP3    H241082   4.048   5.933   1.423  0.7362  0.0450 -0.3620
 6507TIP3   OH241083   1.270   3.094   7.202 -0.1349 -0.4351 -0.5331
 6507TIP3    H141084   1.255   3.024   7.265 -0.1210 -0.0032 -0.0421
 6507TIP3    H241085   1.190   3.097   7.149  0.0599 -1.1396 -0.8816
 6508TIP3   OH241086   2.941   2.518   0.761 -0.2195 -0.2931 -0.2058
 6508TIP3    H141087   2.896   2.442   0.798 -1.7951  1.9329  2.8437
 6508TIP3    H241088   3.010   2.537   0.824 -1.2680  2.0701  0.3191
 6509TIP3   OH241089   6.896   5.391   8.176 -0.3858  0.0919 -0.0821
 6509TIP3    H141090   6.958   5.456   8.210 -1.1960  0.3114  1.0466
 6509TIP3    H241091   6.951   5.317   8.151  0.3014 -0.0146  1.5753
 6510TIP3   OH241092   0.042   0.411   7.288  0.7212  0.1815  0.4839
 6510TIP3    H141093  -0.038   0.381   7.245  0.3230  0.0442  1.2985
 6510TIP3    H241094   0.112   0.357   7.250  0.7104  1.4602 -1.4954
 6511TIP3   OH241095   3.572   0.883   6.201  0.3847  0.1878  0.0199
 6511TIP3    H141096   3.597   0.790   6.206 -0.5783 -0.0530  0.6641
 6511TIP3    H241097   3.524   0.890   6.118 -0.3301 -0.1054  0.3982
 6512TIP3   OH241098   0.297   6.551   7.550  0.4867  0.0815 -0.3606
 6512TIP3    H141099   0.283   6.562   7.644 -1.0008  2.1062 -0.7389
 6512TIP3    H241100   0.386   6.582   7.535  0.3984  0.6710  0.2741
 6513TIP3   OH241101   5.165   4.082   2.517 -0.5280 -0.0675 -0.4302
 6513TIP3    H141102   5.181   4.176   2.511 -0.0713 -0.1571 -0.7189
 6513TIP3    H241103   5.079   4.074   2.557  1.1645  0.4797  3.9016
 6514TIP3   OH241104   5.525   3.868   1.235 -0.5528  0.2042 -0.1611
 6514TIP3    H141105   5.524   3.961   1.214 -0.5570  0.1527 -0.3941
 6514TIP3    H241106   5.592   3.859   1.303 -1.3120  0.5378  0.6561
 6515TIP3   OH241107   5.568   5.314   0.311 -0.1514 -0.3665  0.4715
 6515TIP3    H141108   5.483   5.277   0.288 -0.9893  3.0576 -3.1808
 6515TIP3    H241109   5.550   5.407   0.326  2.9246  0.6234 -1.1322
 6516TIP3   OH241110   4.969   2.560   1.336 -0.8342 -0.1635 -0.1813
 6516TIP3    H141111   4.944   2.509   1.413 -0.2945  0.0673  0.1457
 6516TIP3    H241112   5.056   2.528   1.313 -1.0146 -0.2744 -0.7387
 6517TIP3   OH241113   5.321   1.850   1.088 -1.0165  0.3287  0.1473
 6517TIP3    H141114   5.359   1.764   1.068  0.9624  0.5722  2.3766
 6517TIP3    H241115   5.245   1.830   1.142 -0.0423 -0.0740  1.4325
 6518TIP3   OH241116   5.322   1.674   1.428 -0.4514 -0.0153  0.0734
 6518TIP3    H141117   5.298   1.593   1.473 -0.1019  0.7545  1.7286
 6518TIP3    H241118   5.398   1.651   1.375 -0.0099 -0.6529  0.9588
 6519TIP3   OH241119   5.765   0.560   1.168 -0.5391 -0.1617 -0.2180
 6519TIP3    H141120   5.745   0.620   1.240 -0.2159 -0.4137  0.0879
 6519TIP3    H241121   5.774   0.474   1.210  0.6680 -0.1450 -0.3871
 6520TIP3   OH241122   0.715   3.462   0.107  0.0035 -0.7237  0.3144
 6520TIP3    H141123   0.765   3.395   0.155  0.6794 -0.0979  0.5135
 6520TIP3    H241124   0.762   3.473   0.025  0.5438  0.2697  0.7346
 6521TIP3   OH241125   1.718   4.502   0.408 -0.3398  0.0539  0.0062
 6521TIP3    H141126   1.633   4.525   0.370 -1.7962 -2.3620  1.5424
 6521TIP3    H241127   1.725   4.556   0.486 -1.0485 -0.5563  0.5069
 6522TIP3   OH241128   3.223   3.112   0.215  0.3559 -0.4190 -0.5645
 6522TIP3    H141129   3.283   3.037   0.215 -0.6096 -1.2085 -0.6463
 6522TIP3    H241130   3.253   3.166   0.288  0.7879 -1.1229 -0.2115
 6523TIP3   OH241131   3.359   4.045   6.962 -0.7907 -0.6762 -0.1499
 6523TIP3    H141132   3.341   4.065   7.054  2.0460 -1.3766  0.6730
 6523TIP3    H241133   3.380   3.951   6.962 -1.9800 -0.9851 -1.7762
 6524TIP3   OH241134   6.397   4.956   0.440 -0.7718  0.5283 -0.2040
 6524TIP3    H141135   6.367   4.968   0.350 -1.2648  0.5955 -0.0322
 6524TIP3    H241136   6.466   5.022   0.452 -0.2093  0.0438 -0.7573
 6525TIP3   OH241137   6.537   4.950   5.948 -0.0839 -0.2737 -0.8638
 6525TIP3    H141138   6.466   4.893   5.975  0.7028 -0.6792  0.4646
 6525TIP3    H241139   6.592   4.896   5.892  0.3961 -0.7041 -0.0042
 6526TIP3   OH241140   4.891   3.659   7.494 -0.4200  0.0060 -0.7959
 6526TIP3    H141141   4.808   3.708   7.490 -0.6609 -0.4070 -0.8957
 6526TIP3    H241142   4.887   3.614   7.578  0.9542  2.1701  0.5246
 6527TIP3   OH241143   4.200   1.601   6.083 -0.3747 -0.3611  0.4177
 6527TIP3    H141144   4.121   1.553   6.057 -0.9238  0.4803  0.4847
 6527TIP3    H241145   4.188   1.688   6.044  0.7270 -0.3556  0.0716
 6528TIP3   OH241146   6.129   5.577   7.681 -0.3295 -0.3563  0.4264
 6528TIP3    H141147   6.146   5.608   7.770  1.0528  1.5779 -0.4302
 6528TIP3    H241148   6.064   5.637   7.647  0.4313  0.0221 -0.4091
 6529TIP3   OH241149   4.347   1.132   7.456  0.3079 -0.1751 -0.1507
 6529TIP3    H141150   4.413   1.081   7.502 -0.2465 -0.8921 -0.1270
 6529TIP3    H241151   4.395   1.207   7.420  0.9631 -0.2323  0.5809
 6530TIP3   OH241152   2.955   2.674   7.326  0.0445  0.1509  0.2233
 6530TIP3    H141153   3.036   2.624   7.323 -0.0606  0.0359 -1.1299
 6530TIP3    H241154   2.969   2.746   7.265 -0.4364  0.8286  0.8874
 6531TIP3   OH241155   1.737   5.799   0.619  0.6345 -0.2833 -0.3202
 6531TIP3    H141156   1.798   5.729   0.644  2.1774  1.5913  1.5860
 6531TIP3    H241157   1.657   5.779   0.668  1.3195 -0.3595  0.8174
 6532TIP3   OH241158   6.764   2.868   0.346  0.1919 -0.5864  0.2981
 6532TIP3    H141159   6.842   2.924   0.340  1.1585 -1.5307  2.5807
 6532TIP3    H241160   6.700   2.921   0.393  0.5194 -0.7771  0.9819
 6533TIP3   OH241161   3.233   4.438   7.777 -0.4255 -0.3352 -0.3408
 6533TIP3    H141162   3.143   4.462   7.753 -0.4240  1.5058  1.2670
 6533TIP3    H241163   3.233   4.342   7.773 -2.5165 -0.3960 -0.2770
 6534TIP3   OH241164   4.182   0.194   1.712 -0.1251  0.4722  0.4455
 6534TIP3    H141165   4.115   0.243   1.759 -1.0979  1.9142 -2.2012
 6534TIP3    H241166   4.265   0.224   1.749 -0.8387  1.5387  1.2232
 6535TIP3   OH241167   6.114   2.537   7.975  0.0593  0.2068  0.3181
 6535TIP3    H141168   6.103   2.621   7.929 -1.1588 -0.5594 -0.8818
 6535TIP3    H241169   6.040   2.534   8.036 -1.4156 -1.0512 -1.4303
 6536TIP3   OH241170   4.000   2.590   7.195 -0.7096  0.4339  0.2783
 6536TIP3    H141171   4.022   2.676   7.231 -0.1608  0.3853  0.0740
 6536TIP3    H241172   3.927   2.607   7.135  1.1501  1.2741 -1.9443
 6537TIP3   OH241173   5.620   2.929   0.877  0.1532  0.4817 -0.1387
 6537TIP3    H141174   5.632   2.841   0.840  0.3459  1.2068 -1.9083
 6537TIP3    H241175   5.571   2.914   0.958  1.2146 -1.3450  0.2322
 6538TIP3   OH241176   2.374   0.381   1.557 -0.0178  0.0727 -0.2431
 6538TIP3    H141177   2.295   0.419   1.595  1.2319  2.0705  0.4890
 6538TIP3    H241178   2.437   0.453   1.555  1.1842 -0.9438 -2.6464
 6539TIP3   OH241179   2.127   2.790   0.287 -0.1375 -0.5566 -0.6959
 6539TIP3    H141180   2.147   2.783   0.381 -0.2111 -0.4058 -0.6680
 6539TIP3    H241181   2.056   2.728   0.273 -1.5684  0.9078 -0.2237
 6540TIP3   OH241182   0.269   3.644   1.934  0.1230 -0.2808 -0.2934
 6540TIP3    H141183   0.251   3.641   1.840 -1.2738 -0.4436 -0.0399
 6540TIP3    H241184   0.337   3.710   1.943  0.0304 -0.0181 -1.3842
 6541TIP3   OH241185   1.428   3.720   7.443 -0.3248 -0.2183 -0.5825
 6541TIP3    H141186   1.363   3.671   7.493 -0.6118  1.0540  0.3308
 6541TIP3    H241187   1.495   3.744   7.507  0.1071  0.0704 -1.1295
 6542TIP3   OH241188   0.340   6.236   1.030  0.3385  0.0962  0.0364
 6542TIP3    H141189   0.342   6.322   1.074 -0.4064  0.4962 -0.6838
 6542TIP3    H241190   0.288   6.181   1.088  1.7521 -0.2224  1.0718
 6543TIP3   OH241191   6.068   3.778   7.929 -0.4399  0.3317 -0.6986
 6543TIP3    H141192   6.122   3.851   7.958  0.9993 -1.4315  1.4868
 6543TIP3    H241193   6.007   3.763   8.001 -1.0133 -0.3022 -1.3032
 6544TIP3   OH241194   1.902   1.839   6.499 -0.5265 -0.7053 -0.1978
 6544TIP3    H141195   1.845   1.765   6.521 -0.2960 -0.3614  1.6700
 6544TIP3    H241196   1.846   1.897   6.446 -1.2606 -1.3546 -0.1522
 6545TIP3   OH241197   2.720   5.555   1.664  0.1153  0.0348 -0.1157
 6545TIP3    H141198   2.722   5.470   1.709  3.5978 -0.4532 -0.8680
 6545TIP3    H241199   2.711   5.533   1.572 -0.4187  0.6095 -0.2058
 6546TIP3   OH241200   6.135   2.638   7.398  0.1733 -0.3036  0.1183
 6546TIP3    H141201   6.045   2.623   7.371  0.4795  0.3575 -1.3802
 6546TIP3    H241202   6.186   2.627   7.317  1.4660 -0.9603  0.9942
 6547TIP3   OH241203   3.189   5.574   7.052  0.1297 -0.5539 -0.1196
 6547TIP3    H141204   3.215   5.502   6.995 -2.0295 -1.0882 -0.5154
 6547TIP3    H241205   3.169   5.532   7.136  0.2197 -0.2156  0.0716
 6548TIP3   OH241206   2.258   0.521   6.021 -0.4497 -0.2778  0.2874
 6548TIP3    H141207   2.279   0.487   5.935 -1.0779  0.0583 -0.0120
 6548TIP3    H241208   2.262   0.445   6.079  1.0745 -0.3059  0.1774
 6549TIP3   OH241209   2.202   6.097   0.724  0.2044  0.2714 -0.1091
 6549TIP3    H141210   2.131   6.157   0.746  1.1371  1.2861  0.2442
 6549TIP3    H241211   2.251   6.087   0.806 -0.8879 -2.3732  0.3355
 6550TIP3   OH241212   2.258   3.765   7.300  0.3388 -0.0130 -0.0140
 6550TIP3    H141213   2.322   3.834   7.319 -0.8216  1.2012 -0.3908
 6550TIP3    H241214   2.309   3.696   7.257  1.3782  0.9629 -0.3936
 6551TIP3   OH241215   0.541   6.078   0.886 -0.6052  0.3557 -0.1047
 6551TIP3    H141216   0.518   6.113   0.800 -0.1784  0.4791 -0.1708
 6551TIP3    H241217   0.519   6.149   0.947  0.4301  0.8201 -0.2572
 6552TIP3   OH241218   4.659   5.306   1.092 -0.5611 -0.4438  0.4716
 6552TIP3    H141219   4.646   5.223   1.137 -1.2430 -0.9489 -0.6208
 6552TIP3    H241220   4.668   5.283   1.000 -3.1663  0.8317 -0.1912
 6553TIP3   OH241221   4.292   0.430   0.090 -0.0226 -0.6139 -0.3242
 6553TIP3    H141222   4.203   0.409   0.118 -0.4469 -2.2911 -2.6340
 6553TIP3    H241223   4.346   0.361   0.129  0.1075 -0.3173  0.0358
 6554TIP3   OH241224   6.164   4.679   1.943 -0.3658  0.6290  0.4485
 6554TIP3    H141225   6.214   4.705   2.020 -0.7461  2.0964  0.2284
 6554TIP3    H241226   6.076   4.660   1.976 -0.3336  0.5231  0.4749
 6555TIP3   OH241227   4.871   4.316   7.337  0.1271  0.3065  0.3698
 6555TIP3    H141228   4.783   4.353   7.340  0.9596  2.3455  1.0305
 6555TIP3    H241229   4.928   4.384   7.373  1.9847 -0.9807  0.0398
 6556TIP3   OH241230   5.530   6.809   0.595 -0.0129  0.0697  0.2309
 6556TIP3    H141231   5.536   6.819   0.500 -2.2056  0.4676  0.0936
 6556TIP3    H241232   5.502   6.718   0.608 -1.1788  0.4420  0.4021
 6557TIP3   OH241233   5.917   6.693   7.906  0.1751  0.5158  0.7934
 6557TIP3    H141234   5.834   6.646   7.917  0.3701  0.0600  0.3515
 6557TIP3    H241235   5.891   6.778   7.872  0.0299 -0.8174 -2.8626
 6558TIP3   OH241236   4.848   5.690   0.533  0.2742  0.3787  0.0290
 6558TIP3    H141237   4.926   5.659   0.488  1.8562  1.8054  1.6115
 6558TIP3    H241238   4.806   5.611   0.566  0.1562 -0.5300 -2.1276
 6559TIP3   OH241239   6.162   5.693   8.235  0.0754  0.1850  0.3281
 6559TIP3    H141240   6.114   5.613   8.257 -1.0592  0.9813  0.8095
 6559TIP3    H241241   6.238   5.691   8.293  0.2227 -0.6803  0.1302
 6560TIP3   OH241242   6.569   3.308   0.601  0.1996 -0.1365 -0.2916
 6560TIP3    H141243   6.636   3.241   0.585 -0.2041 -0.4494 -0.6889
 6560TIP3    H241244   6.493   3.279   0.551 -0.5396 -0.2444  0.8607
 6561TIP3   OH241245   2.980   6.288   2.176  0.0634  0.0195 -0.3790
 6561TIP3    H141246   2.942   6.363   2.222  1.2592 -0.6004  1.7754
 6561TIP3    H241247   2.908   6.226   2.166 -0.1696 -0.0225  1.1860
 6562TIP3   OH241248   1.228   1.831   8.197  0.2551  0.0382 -0.1543
 6562TIP3    H141249   1.203   1.778   8.272  0.1595 -0.4642 -0.5377
 6562TIP3    H241250   1.148   1.877   8.171  0.0886 -0.4103 -0.4462
 6563TIP3   OH241251   4.572   4.194   7.061  0.3711 -0.3884  0.0636
 6563TIP3    H141252   4.557   4.166   7.152  0.0861 -0.7764 -0.1020
 6563TIP3    H241253   4.511   4.266   7.048  0.9979  0.2199  0.4425
 6564TIP3   OH241254   3.371   2.781   1.613 -0.5947 -0.6713 -0.7015
 6564TIP3    H141255   3.439   2.748   1.672 -0.4539 -0.4922 -0.7596
 6564TIP3    H241256   3.335   2.704   1.571 -1.4979 -0.9230  0.4685
 6565TIP3   OH241257   4.540   5.480   2.095 -0.6973 -0.4890 -0.4695
 6565TIP3    H141258   4.567   5.454   2.183 -1.7637 -0.1642 -0.0304
 6565TIP3    H241259   4.446   5.498   2.103 -0.8796 -0.7881 -1.7530
 6566TIP3   OH241260   4.288   6.025   1.239 -0.1403 -0.4506  0.4100
 6566TIP3    H141261   4.260   6.088   1.173  0.6914  1.0217  1.4082
 6566TIP3    H241262   4.366   5.983   1.201  1.7881  2.0872  1.3251
 6567TIP3   OH241263   3.170   2.610   0.248 -0.1218 -0.3298 -0.0441
 6567TIP3    H141264   3.212   2.644   0.328  0.2276  1.9499 -1.1305
 6567TIP3    H241265   3.163   2.685   0.190 -0.8801 -1.8072 -1.9935
 6568TIP3   OH241266   0.351   3.419   7.845  0.3171  0.2677 -0.1718
 6568TIP3    H141267   0.349   3.325   7.862 -1.8397  0.3489  0.2490
 6568TIP3    H241268   0.400   3.426   7.763  2.8509 -0.9249  1.1080
 6569TIP3   OH241269   5.524   1.998   1.228  0.1125 -0.6289 -0.1831
 6569TIP3    H141270   5.457   1.934   1.205 -0.3693 -1.3302  2.6711
 6569TIP3    H241271   5.601   1.971   1.178  0.1111 -3.9596  1.2933
 6570TIP3   OH241272   5.966   5.424   7.015 -0.0596 -0.0451  0.5318
 6570TIP3    H141273   5.990   5.411   6.923  0.9597 -0.2513  0.8067
 6570TIP3    H241274   5.902   5.356   7.033 -1.6401  1.1082 -0.4944
 6571TIP3   OH241275   2.560   1.434   6.479 -0.1406  0.2042 -0.2815
 6571TIP3    H141276   2.533   1.518   6.517 -0.9145  0.0891 -0.5636
 6571TIP3    H241277   2.507   1.426   6.400  0.3828 -0.2617 -0.5900
 6572TIP3   OH241278   2.465   5.551   0.487 -0.6522  0.3796 -0.0735
 6572TIP3    H141279   2.506   5.582   0.568 -0.5121  1.9794 -0.7233
 6572TIP3    H241280   2.371   5.553   0.505 -0.6593  1.5189 -0.2077
 6573TIP3   OH241281   1.312   1.687   7.576  0.4177  0.2004 -0.1507
 6573TIP3    H141282   1.249   1.615   7.573 -0.8012  1.2308 -2.2917
 6573TIP3    H241283   1.259   1.765   7.559  2.2060  1.1361 -1.9142
 6574TIP3   OH241284   5.593   2.317   0.631 -0.2842 -0.3916  0.1395
 6574TIP3    H141285   5.500   2.338   0.640 -0.4061 -1.6445  2.3018
 6574TIP3    H241286   5.636   2.366   0.701  1.0670  1.8349 -2.0579
 6575TIP3   OH241287   5.101   6.604   7.698  0.2626  1.2062 -0.3541
 6575TIP3    H141288   5.061   6.570   7.618  0.4476  0.2988 -0.0754
 6575TIP3    H241289   5.087   6.699   7.694  0.2690  1.1710 -1.4591
 6576TIP3   OH241290   6.326   0.630   7.166  0.1941 -0.4666 -0.0241
 6576TIP3    H141291   6.291   0.719   7.163 -0.2028 -0.6030  0.4869
 6576TIP3    H241292   6.382   0.629   7.243 -2.2124 -1.5199  1.8181
 6577TIP3   OH241293   1.068   4.843   1.553  0.0868  0.5582  0.1709
 6577TIP3    H141294   1.115   4.924   1.534 -0.2205  1.0839  1.5634
 6577TIP3    H241295   1.138   4.779   1.569  0.3384  0.3921 -1.3523
 6578TIP3   OH241296   1.258   2.771   2.198  0.4190 -0.3813 -0.2452
 6578TIP3    H141297   1.350   2.796   2.203  0.5469 -0.6576 -1.0133
 6578TIP3    H241298   1.210   2.847   2.231  0.9070 -0.1185 -0.1328
 6579TIP3   OH241299   5.778   0.493   0.889  0.3035  0.4692 -0.1723
 6579TIP3    H141300   5.733   0.533   0.964 -0.8120  0.6966 -0.9379
 6579TIP3    H241301   5.712   0.438   0.848  1.1940 -0.4263 -0.4294
 6580TIP3   OH241302   3.876   6.318   8.358 -0.1776  0.0861  0.4923
 6580TIP3    H141303   3.849   6.380   8.425  4.1765  1.8103  0.9881
 6580TIP3    H241304   3.875   6.233   8.401 -0.2667  0.7528  1.8431
 6581TIP3   OH241305   1.370   0.027   1.820  0.0905  0.3049  0.3005
 6581TIP3    H141306   1.402   0.112   1.790  2.4525 -0.9703 -1.1056
 6581TIP3    H241307   1.388   0.026   1.914 -1.5846  1.9563  0.6998
 6582TIP3   OH241308   3.455   5.263   1.609 -0.5546  0.7643  0.1992
 6582TIP3    H141309   3.439   5.248   1.516 -0.7952  1.5470  0.1097
 6582TIP3    H241310   3.402   5.197   1.653 -2.1275  1.7194 -0.1707
 6583TIP3   OH241311   3.067   3.797   8.135  0.0913  0.0537  0.7932
 6583TIP3    H141312   3.027   3.855   8.199 -0.8576 -0.2237  0.4740
 6583TIP3    H241313   3.023   3.819   8.052  0.7511 -0.1175  0.3890
 6584TIP3   OH241314   1.031   5.862   0.180 -0.5495  0.1334  0.2583
 6584TIP3    H141315   1.028   5.792   0.244  0.3633  0.5989  0.8397
 6584TIP3    H241316   1.076   5.934   0.225  0.9476  0.1654 -1.1739
 6585TIP3   OH241317   6.117   2.913   5.881  0.1565  0.1248 -0.0265
 6585TIP3    H141318   6.081   2.969   5.950  2.1391  0.5921  0.6960
 6585TIP3    H241319   6.132   2.829   5.924 -2.1231 -0.8371 -0.9242
 6586TIP3   OH241320   1.332   2.888   0.257 -0.2622  0.0554 -0.1563
 6586TIP3    H141321   1.402   2.893   0.322 -1.4578 -0.8330  1.2594
 6586TIP3    H241322   1.375   2.850   0.180  0.7019 -1.1297  0.9067
 6587TIP3   OH241323   5.110   0.865   1.400  0.2365  0.2106  0.7655
 6587TIP3    H141324   5.200   0.837   1.415  0.5120  0.3929 -0.4391
 6587TIP3    H241325   5.063   0.785   1.376  0.5446  0.4045 -0.5695
 6588TIP3   OH241326   6.261   5.110   6.888  0.2265 -0.3484  0.0925
 6588TIP3    H141327   6.326   5.045   6.862 -0.9230 -1.6795  0.4163
 6588TIP3    H241328   6.312   5.187   6.911  1.6574 -1.2050 -0.0958
 6589TIP3   OH241329   6.829   1.390   1.147 -0.0580 -0.7488 -0.0196
 6589TIP3    H141330   6.746   1.350   1.175  0.4286 -2.0450 -0.3625
 6589TIP3    H241331   6.814   1.484   1.157 -0.7502 -1.0325  2.2234
 6590TIP3   OH241332   4.787   0.913   7.830 -0.2182 -0.0527 -0.3399
 6590TIP3    H141333   4.850   0.863   7.882 -1.3474 -0.1234  0.9990
 6590TIP3    H241334   4.729   0.848   7.792  0.0965  0.0587 -1.0311
 6591TIP3   OH241335   0.015   5.289   0.176 -0.5165 -0.5580  0.4679
 6591TIP3    H141336   0.017   5.380   0.145  2.9532 -0.0044  1.8138
 6591TIP3    H241337  -0.067   5.282   0.225 -0.4589  2.2209  1.1445
 6592TIP3   OH241338   1.569   1.533   1.068  0.7810 -0.5995 -0.1554
 6592TIP3    H141339   1.561   1.458   1.125  1.2563 -0.5850 -0.0630
 6592TIP3    H241340   1.543   1.608   1.122 -0.9064 -0.8235 -0.6133
 6593TIP3   OH241341   0.137   6.799   7.171  0.0923  0.3796 -0.3074
 6593TIP3    H141342   0.163   6.720   7.217 -0.4918  0.0789 -0.4886
 6593TIP3    H241343   0.183   6.795   7.087 -1.1148 -0.5587 -0.9691
 6594TIP3   OH241344   6.083   5.406   0.522 -0.1296 -0.4746  0.2386
 6594TIP3    H141345   6.110   5.431   0.434  2.8631 -1.0319  0.8860
 6594TIP3    H241346   6.001   5.453   0.537 -0.5440 -0.1028 -2.6728
 6595TIP3   OH241347   3.164   5.135   8.000  0.8270 -0.1302  0.5461
 6595TIP3    H141348   3.149   5.047   7.966  0.4307 -0.6516  2.0053
 6595TIP3    H241349   3.192   5.186   7.923 -0.9459 -0.9995 -0.7417
 6596TIP3   OH241350   5.643   4.785   2.259  0.0762 -0.3590 -0.1689
 6596TIP3    H141351   5.734   4.796   2.232  0.2422 -0.9610  0.1162
 6596TIP3    H241352   5.621   4.696   2.231 -0.0339 -0.6620  0.8423
 6597TIP3   OH241353   0.987   5.341   0.629  0.5402  0.3423  0.1659
 6597TIP3    H141354   0.944   5.374   0.709  2.0968  0.3912  1.0255
 6597TIP3    H241355   1.050   5.410   0.606  2.3000 -1.0204  0.7166
 6598TIP3   OH241356   3.007   1.986   1.905  0.4443  0.8745  0.3077
 6598TIP3    H141357   3.042   2.020   1.823  0.7924  0.6729  0.3704
 6598TIP3    H241358   2.987   2.064   1.957 -1.6117  1.0906 -0.6948
 6599TIP3   OH241359   0.080   4.436   7.399  0.4022  0.0538  0.5721
 6599TIP3    H141360   0.109   4.502   7.462  0.4421  0.2413  0.3597
 6599TIP3    H241361   0.038   4.369   7.452  0.1373  0.3730  0.7725
 6600TIP3   OH241362   2.487   4.080   6.196  0.2742 -0.0069 -0.5496
 6600TIP3    H141363   2.397   4.075   6.165  0.0665 -0.0821  0.0492
 6600TIP3    H241364   2.505   3.992   6.230  1.1159 -0.4746 -2.1142
 6601TIP3   OH241365   0.371   2.690   0.775  1.0047  0.4430 -0.3034
 6601TIP3    H141366   0.352   2.700   0.869 -1.0901 -2.9888 -0.1954
 6601TIP3    H241367   0.458   2.651   0.773  1.1847  0.8006  0.2019
 6602TIP3   OH241368   3.073   1.038   7.189  0.4004  0.0772 -0.3163
 6602TIP3    H141369   3.098   0.999   7.105  0.3039 -0.2277 -0.2064
 6602TIP3    H241370   2.978   1.047   7.184  0.3632 -0.2024 -0.1318
 6603TIP3   OH241371   3.393   6.602   6.523  0.2135 -0.3213 -0.3494
 6603TIP3    H141372   3.448   6.525   6.536  1.2090  0.6420  1.5315
 6603TIP3    H241373   3.307   6.566   6.502  0.6453 -1.9423  0.4765
 6604TIP3   OH241374   2.388   2.844   7.509 -0.8018 -0.2261 -0.4808
 6604TIP3    H141375   2.476   2.862   7.541 -0.9340  0.4350 -0.4885
 6604TIP3    H241376   2.396   2.759   7.465 -0.6877 -1.3178  1.5323
 6605TIP3   OH241377   3.393   5.599   1.721 -0.2066 -0.5501  0.1683
 6605TIP3    H141378   3.319   5.569   1.773  0.0501 -0.8544  0.3554
 6605TIP3    H241379   3.375   5.567   1.633 -0.9405  0.4709 -0.0694
 6606TIP3   OH241380   1.405   6.486   5.761 -0.7367  0.2948  0.3183
 6606TIP3    H141381   1.319   6.505   5.722 -2.9449 -4.2355  2.2595
 6606TIP3    H241382   1.395   6.510   5.853 -1.2117 -3.0475  1.2508
 6607TIP3   OH241383   4.009   5.250   0.593  0.1307  0.6617  0.1839
 6607TIP3    H141384   4.010   5.328   0.648  1.9342  1.7963 -1.3665
 6607TIP3    H241385   4.101   5.230   0.577 -0.2199 -2.2439  1.0797
 6608TIP3   OH241386   0.771   6.903   0.917 -0.1147 -0.3126  0.0664
 6608TIP3    H141387   0.725   6.972   0.868 -1.6870  0.0514  1.9101
 6608TIP3    H241388   0.810   6.949   0.991  0.0525 -1.2028  0.5413
 6609TIP3   OH241389   0.867   3.254   0.242 -0.1917 -0.1560  0.2002
 6609TIP3    H141390   0.859   3.266   0.337  0.2703 -1.3685  0.4046
 6609TIP3    H241391   0.958   3.276   0.223  0.2148 -1.6591  0.3288
 6610TIP3   OH241392   2.388   2.450   7.098 -0.2094 -0.2254  0.3759
 6610TIP3    H141393   2.461   2.403   7.138  1.3478  2.2770  0.6642
 6610TIP3    H241394   2.381   2.531   7.148 -0.8406  1.1998 -1.8645
 6611TIP3   OH241395   4.875   0.278   5.893  0.0338 -0.2180  0.4328
 6611TIP3    H141396   4.781   0.264   5.881  0.2127  0.5548 -2.7543
 6611TIP3    H241397   4.915   0.197   5.864  0.3936 -0.7449  2.2898
 6612TIP3   OH241398   5.793   3.317   7.324 -0.3561  0.3114 -0.0493
 6612TIP3    H141399   5.813   3.385   7.260 -2.8002 -0.2030 -1.4805
 6612TIP3    H241400   5.772   3.365   7.404 -1.4044  1.2480 -0.8558
 6613TIP3   OH241401   4.196   6.423   7.142  0.0559  0.7795  0.5410
 6613TIP3    H141402   4.157   6.337   7.152 -1.4099  1.3592  0.0710
 6613TIP3    H241403   4.277   6.419   7.193 -0.8473 -0.3207  1.9668
 6614TIP3   OH241404   3.443   2.471   6.124 -0.9103 -0.4599  0.5694
 6614TIP3    H141405   3.391   2.549   6.106  0.1309  0.0224 -0.5059
 6614TIP3    H241406   3.412   2.406   6.061  0.0181 -0.0431 -0.3515
 6615TIP3   OH241407   6.215   0.426   0.065  0.6599  0.1471  0.6903
 6615TIP3    H141408   6.141   0.428   0.127 -0.2264 -0.2491 -0.3286
 6615TIP3    H241409   6.185   0.479  -0.009 -0.1003 -2.8296 -1.3169
 6616TIP3   OH241410   3.979   6.117   7.508  0.0709 -0.2635 -0.5517
 6616TIP3    H141411   3.885   6.096   7.506 -0.1582  0.5343  0.7288
 6616TIP3    H241412   4.008   6.090   7.595  0.9953 -0.3031 -0.8618
 6617TIP3   OH241413   1.370   5.200   8.107  0.6769  0.7192 -0.1867
 6617TIP3    H141414   1.368   5.204   8.011  2.4840 -0.4387 -0.3136
 6617TIP3    H241415   1.462   5.214   8.129  0.9465 -2.4308  1.1516
 6618TIP3   OH241416   4.762   6.971   6.585 -0.3489 -0.3807  0.2661
 6618TIP3    H141417   4.668   6.976   6.602 -0.5625 -1.4216 -0.5233
 6618TIP3    H241418   4.779   6.878   6.570  0.4472  0.0131 -1.5443
 6619TIP3   OH241419   5.902   6.695   1.551 -0.6038  0.2159 -1.0711
 6619TIP3    H141420   5.928   6.603   1.558 -2.7531 -0.7247 -3.5070
 6619TIP3    H241421   5.905   6.728   1.640  2.1758 -1.5997 -0.3774
 6620TIP3   OH241422   2.650   3.679   7.351 -0.1626  0.6387  0.0514
 6620TIP3    H141423   2.716   3.692   7.283 -0.4557  0.4384 -0.2771
 6620TIP3    H241424   2.695   3.628   7.419 -0.1923 -0.1832 -0.5245
 6621TIP3   OH241425   1.788   3.901   8.326 -0.5886  0.3095 -0.1728
 6621TIP3    H141426   1.866   3.861   8.363 -0.6026  0.5052  0.0672
 6621TIP3    H241427   1.792   3.880   8.232  0.4258  1.4155 -0.3950
 6622TIP3   OH241428   6.401   5.479   2.064 -0.6978  0.1706  0.0007
 6622TIP3    H141429   6.402   5.449   1.973 -0.8690  1.1050 -0.3216
 6622TIP3    H241430   6.366   5.568   2.060  0.7698  0.8202  0.7963
 6623TIP3   OH241431   0.307   2.696   1.043  0.1463  0.0990  0.4775
 6623TIP3    H141432   0.314   2.615   1.092 -0.7694 -0.8882 -0.9561
 6623TIP3    H241433   0.233   2.742   1.081 -1.2662 -1.1714 -0.6098
 6624TIP3   OH241434   0.795   5.017   6.818  0.2024 -0.0777 -0.0282
 6624TIP3    H141435   0.791   5.110   6.796  0.9970  0.0469  0.3237
 6624TIP3    H241436   0.729   5.006   6.887  0.2868  0.2730  0.1084
 6625TIP3   OH241437   2.986   3.378   1.165 -0.5989  0.2735 -0.2865
 6625TIP3    H141438   3.078   3.367   1.141 -1.0131 -2.0067 -1.0364
 6625TIP3    H241439   2.943   3.403   1.083 -1.4558 -4.1536 -1.4202
 6626TIP3   OH241440   6.731   2.513   7.218 -0.3045 -0.2878  0.6735
 6626TIP3    H141441   6.727   2.607   7.235 -1.2316 -0.3392  0.8048
 6626TIP3    H241442   6.647   2.492   7.178 -0.2709 -1.1307  1.0161
 6627TIP3   OH241443   0.633   5.902   7.006 -0.2172 -0.2536  0.3426
 6627TIP3    H141444   0.584   5.835   7.053 -0.4390 -1.4971 -1.5418
 6627TIP3    H241445   0.593   5.904   6.919  0.9246  1.0935 -0.1869
 6628TIP3   OH241446   0.984   2.421   8.103  0.2116 -0.4056 -0.6552
 6628TIP3    H141447   0.977   2.505   8.147 -1.2272 -1.4319  1.1783
 6628TIP3    H241448   0.944   2.435   8.017 -0.5848  0.6202 -0.1254
 6629TIP3   OH241449   5.456   1.859   1.585 -0.5632 -0.0977  0.1781
 6629TIP3    H141450   5.407   1.801   1.528 -0.0873  0.5649 -0.9526
 6629TIP3    H241451   5.393   1.927   1.610 -1.0405 -0.9225  1.2711
 6630TIP3   OH241452   2.430   6.144   0.509  0.6420  0.1840  0.7591
 6630TIP3    H141453   2.435   6.236   0.483  0.5853  0.0950  0.4195
 6630TIP3    H241454   2.379   6.145   0.590 -0.3171  0.3557  0.1831
 6631TIP3   OH241455   0.022   0.144   2.148 -0.8475  0.2583 -0.2789
 6631TIP3    H141456  -0.034   0.067   2.141 -2.6287  1.6016 -1.4911
 6631TIP3    H241457   0.076   0.142   2.068 -1.1524  0.4671 -0.4895
 6632TIP3   OH241458   6.765   5.024   1.494  0.4930  0.5519  0.3749
 6632TIP3    H141459   6.697   4.972   1.536  0.6243 -1.6735 -1.9327
 6632TIP3    H241460   6.845   5.002   1.542  0.5963 -1.7319 -0.6853
 6633TIP3   OH241461   0.143   3.658   1.661 -0.1281 -0.8604  0.5535
 6633TIP3    H141462   0.084   3.587   1.637 -0.3602 -0.0752 -1.3697
 6633TIP3    H241463   0.220   3.645   1.605  0.0489  0.0910  0.5661
 6634TIP3   OH241464   4.335   4.388   1.649 -0.7681 -0.2855  0.1504
 6634TIP3    H141465   4.417   4.427   1.680 -0.9026  1.7545 -1.7623
 6634TIP3    H241466   4.273   4.401   1.720  0.5731 -2.1109  1.7434
 6635TIP3   OH241467   3.534   0.853   2.331  0.2430 -0.0346 -0.1233
 6635TIP3    H141468   3.449   0.896   2.326 -0.3402 -0.9459  1.3025
 6635TIP3    H241469   3.597   0.920   2.307 -0.8811  0.5923 -1.4418
 6636TIP3   OH241470   6.034   6.098   7.751  0.3933 -0.1779  0.0664
 6636TIP3    H141471   6.075   6.011   7.748  1.3496  0.2373  0.7276
 6636TIP3    H241472   6.032   6.127   7.660  0.1949 -0.8358 -0.1441
 6637TIP3   OH241473   2.628   6.102   0.940  0.4269 -0.5442 -0.1360
 6637TIP3    H141474   2.540   6.070   0.920 -0.2578  1.3351 -0.2375
 6637TIP3    H241475   2.686   6.037   0.899 -0.9135 -0.1621 -2.8899
 6638TIP3   OH241476   2.641   0.039   0.264  0.0440 -0.2149 -0.1657
 6638TIP3    H141477   2.702   0.037   0.337  0.9009  1.7852 -0.7495
 6638TIP3    H241478   2.669  -0.032   0.206 -0.6576 -1.8341  1.3949
 6639TIP3   OH241479   2.351   5.157   8.218 -0.0821  0.7447 -0.5396
 6639TIP3    H141480   2.268   5.115   8.197 -0.8128  1.0901  1.4176
 6639TIP3    H241481   2.367   5.135   8.310  2.5713 -0.2107 -1.1373
 6640TIP3   OH241482   1.507   5.620   6.513  0.4580 -0.3317  0.2315
 6640TIP3    H141483   1.562   5.553   6.474 -0.4221 -0.8330 -0.1685
 6640TIP3    H241484   1.476   5.672   6.439  0.5985  0.1150  0.4794
 6641TIP3   OH241485   5.472   4.562   6.594  0.7895 -0.0687  0.0254
 6641TIP3    H141486   5.376   4.570   6.600  0.8560  0.2545  0.7886
 6641TIP3    H241487   5.487   4.521   6.509 -0.0225  0.0281 -0.1782
 6642TIP3   OH241488   0.109   0.419   1.576 -0.2861 -0.2028  0.6626
 6642TIP3    H141489   0.058   0.500   1.568  2.1812  1.4915  0.8027
 6642TIP3    H241490   0.090   0.388   1.665 -1.6820 -0.1166  0.4209
 6643TIP3   OH241491   2.169   1.889   7.567 -0.3958  0.1191  0.3188
 6643TIP3    H141492   2.190   1.810   7.617 -0.7678 -0.7180 -0.8128
 6643TIP3    H241493   2.235   1.892   7.498 -0.4062  0.7890  0.3285
 6644TIP3   OH241494   6.479   5.253   1.263 -0.0501  0.4279 -0.6414
 6644TIP3    H141495   6.484   5.174   1.318  0.0169  0.3404 -0.7702
 6644TIP3    H241496   6.568   5.287   1.263 -0.0869  0.5232 -0.5579
 6645TIP3   OH241497   4.562   6.902   7.974 -0.3681  0.2286  0.0678
 6645TIP3    H141498   4.558   6.809   7.996 -1.4925  0.1863 -0.2419
 6645TIP3    H241499   4.584   6.946   8.056  0.7226 -0.3425  0.0991
 6646TIP3   OH241500   2.380   0.472   0.094 -0.1283 -0.5168 -0.9100
 6646TIP3    H141501   2.459   0.424   0.119 -1.4091 -2.2613  0.0571
 6646TIP3    H241502   2.379   0.548   0.153  1.5160  0.3255 -1.9060
 6647TIP3   OH241503   5.213   5.468   0.225  0.2251  0.9723 -0.6318
 6647TIP3    H141504   5.305   5.481   0.248 -0.1612  3.1540 -0.0481
 6647TIP3    H241505   5.165   5.522   0.288 -1.4369  0.2273 -1.1980
 6648TIP3   OH241506   5.587   6.448   7.676 -0.5683  0.3710 -0.3574
 6648TIP3    H141507   5.678   6.478   7.666 -0.7292  1.1598  0.4240
 6648TIP3    H241508   5.563   6.474   7.765 -1.1665 -0.9316 -0.1207
 6649TIP3   OH241509   1.965   4.816   0.847 -0.5005  0.0851 -0.1130
 6649TIP3    H141510   2.036   4.880   0.843 -1.3700  1.4460  3.0318
 6649TIP3    H241511   1.889   4.862   0.811 -0.9953  0.7033  1.6309
 6650TIP3   OH241512   3.387   1.352   1.495 -0.3599 -0.3008  0.0892
 6650TIP3    H141513   3.393   1.344   1.590 -0.2475 -0.7736  0.0418
 6650TIP3    H241514   3.477   1.346   1.465 -0.3058  0.7037  0.0148
 6651TIP3   OH241515   6.261   6.402   8.283 -0.1331  0.0624 -0.1079
 6651TIP3    H141516   6.303   6.458   8.348  0.1250 -1.5961  1.2163
 6651TIP3    H241517   6.177   6.378   8.323  1.0893 -3.0480  0.8706
 6652TIP3   OH241518   5.450   2.688   7.192  0.1336 -0.2165  0.0211
 6652TIP3    H141519   5.474   2.667   7.102  0.7666  0.1847  0.0957
 6652TIP3    H241520   5.411   2.607   7.225 -1.2031 -0.0137 -0.9743
 6653TIP3   OH241521   1.693   5.546   0.943  0.3454 -0.0621  0.1257
 6653TIP3    H141522   1.715   5.513   0.856  1.6384 -1.4230  0.9176
 6653TIP3    H241523   1.665   5.468   0.992  1.9130  0.2137  1.5818
 6654TIP3   OH241524   4.142   3.570   1.339  0.3714 -0.6790 -0.5923
 6654TIP3    H141525   4.227   3.572   1.383  1.2611  0.2384 -2.2158
 6654TIP3    H241526   4.078   3.573   1.409  1.7106  1.2066  0.6610
 6655TIP3   OH241527   4.780   3.138   6.462  0.2811  0.3849 -0.0850
 6655TIP3    H141528   4.815   3.065   6.513  0.0376  0.4629  0.1967
 6655TIP3    H241529   4.857   3.178   6.422  0.6539  1.2055  1.3705
 6656TIP3   OH241530   0.466   5.531   7.294 -0.4484 -0.1456 -0.3899
 6656TIP3    H141531   0.505   5.444   7.292 -2.1877 -0.9446 -1.3668
 6656TIP3    H241532   0.383   5.520   7.339 -0.2717  1.2253  0.3416
 6657TIP3   OH241533   3.521   5.114   0.077 -0.2434  0.3825  0.3653
 6657TIP3    H141534   3.611   5.143   0.088 -0.4834  1.2360  0.1428
 6657TIP3    H241535   3.505   5.120  -0.017  0.1138 -1.7808  0.1216
 6658TIP3   OH241536   2.133   3.277   1.146 -0.2732  0.1029  0.6688
 6658TIP3    H141537   2.190   3.209   1.183 -1.2637  0.5174  3.1390
 6658TIP3    H241538   2.137   3.349   1.208 -0.8223  1.5306 -0.8722
 6659TIP3   OH241539   4.276   2.981   7.152  0.2017 -0.1613 -0.7467
 6659TIP3    H141540   4.274   2.888   7.129 -1.8767 -1.1437  2.6579
 6659TIP3    H241541   4.364   2.994   7.187  0.2539 -1.1204 -0.4701
 6660TIP3   OH241542   3.549   6.970   5.964  0.0885  0.4647  0.2679
 6660TIP3    H141543   3.634   6.930   5.982  1.1760  0.7155 -3.4588
 6660TIP3    H241544   3.565   7.064   5.970  0.1323  0.5163 -0.6047
 6661TIP3   OH241545   0.330   2.159   6.646 -0.0593  0.3892 -0.0743
 6661TIP3    H141546   0.297   2.231   6.593 -1.3142 -0.0905  0.0274
 6661TIP3    H241547   0.355   2.092   6.582 -0.9812  0.0564 -0.0939
 6662TIP3   OH241548   4.005   2.281   8.303  0.1573  0.0515  0.9644
 6662TIP3    H141549   4.041   2.275   8.215  0.3439  1.9333  0.8722
 6662TIP3    H241550   4.079   2.309   8.358 -0.4000  0.8651  1.3327
 6663TIP3   OH241551   6.826   4.914   2.566 -0.2962  0.3196  0.0552
 6663TIP3    H141552   6.840   4.949   2.478  1.6677  0.6634  0.4727
 6663TIP3    H241553   6.776   4.833   2.552 -0.8013  0.8318 -1.2802
 6664TIP3   OH241554   5.545   5.889   2.287  0.1590  0.1630  0.4073
 6664TIP3    H141555   5.547   5.796   2.265 -0.7743  0.4181 -0.8297
 6664TIP3    H241556   5.453   5.913   2.281  0.4016  1.1902  0.6294
 6665TIP3   OH241557   0.175   1.370   6.168 -0.0480 -0.6413  0.3650
 6665TIP3    H141558   0.149   1.436   6.233 -1.1721 -1.4369  0.7591
 6665TIP3    H241559   0.186   1.420   6.087 -1.0994  0.0063  0.6005
 6666TIP3   OH241560   2.557   6.129   8.065 -0.2404  0.1193 -0.0147
 6666TIP3    H141561   2.500   6.201   8.040  1.6257  2.1232  1.2086
 6666TIP3    H241562   2.608   6.162   8.139  1.0234 -2.3042  0.3224
 6667TIP3   OH241563   2.163   6.798   8.276 -0.2021  0.6798  0.0228
 6667TIP3    H141564   2.134   6.861   8.343 -1.5654  0.0427  0.0682
 6667TIP3    H241565   2.202   6.727   8.326  0.2289  0.9214  0.0380
 6668TIP3   OH241566   3.185   5.836   1.478  0.0832 -0.5503  0.2952
 6668TIP3    H141567   3.200   5.743   1.494  0.7256 -0.2356  1.6054
 6668TIP3    H241568   3.153   5.870   1.561  3.4204  1.1379  1.0386
 6669TIP3   OH241569   4.409   4.818   1.090  0.0631 -0.7387  0.0956
 6669TIP3    H141570   4.424   4.905   1.054 -0.4957 -0.1457  1.2376
 6669TIP3    H241571   4.496   4.788   1.118  0.3005 -0.6722 -0.5621
 6670TIP3   OH241572   0.020   4.151   1.251 -0.2128  0.4182  0.2210
 6670TIP3    H141573   0.093   4.098   1.218 -1.5789 -1.7297  0.4857
 6670TIP3    H241574   0.046   4.173   1.341  0.6651  0.7866 -0.1104
 6671TIP3   OH241575   4.704   6.956   8.208 -0.4733 -0.0394  0.5233
 6671TIP3    H141576   4.703   7.028   8.270  0.5857 -0.0106  0.5316
 6671TIP3    H241577   4.669   6.881   8.256 -1.4894  0.4311  0.5414
 6672TIP3   OH241578   3.277   1.320   0.587  0.2630  0.6040 -0.3164
 6672TIP3    H141579   3.351   1.262   0.572 -0.0510 -0.1230  0.8245
 6672TIP3    H241580   3.218   1.270   0.642  0.0215  2.0239  0.7866
 6673TIP3   OH241581   5.821   5.125   0.777 -0.0961 -0.1731  0.6022
 6673TIP3    H141582   5.769   5.175   0.715 -0.6033  0.6659  1.6597
 6673TIP3    H241583   5.840   5.043   0.732  1.0513  1.0630 -1.3074
 6674TIP3   OH241584   6.213   0.276   6.346 -0.3652 -0.4609 -0.5291
 6674TIP3    H141585   6.141   0.213   6.354 -0.9008 -0.2856 -2.9935
 6674TIP3    H241586   6.177   0.347   6.292  0.8086  1.0390  0.5736
 6675TIP3   OH241587   5.670   1.462   2.371 -0.1335  0.0606 -0.0157
 6675TIP3    H141588   5.671   1.468   2.275 -2.3074 -0.9792 -0.1656
 6675TIP3    H241589   5.734   1.527   2.400  2.1962 -1.0590 -2.1963
 6676TIP3   OH241590   3.908   1.986   0.370 -0.1773  0.9953  0.3557
 6676TIP3    H141591   3.943   1.913   0.318 -1.2988  0.5369  0.2148
 6676TIP3    H241592   3.973   2.056   0.360 -0.5663  1.1080 -2.0799
 6677TIP3   OH241593   1.735   1.946   7.936 -0.5508  0.2716 -0.1223
 6677TIP3    H141594   1.648   1.915   7.915 -0.7066  0.0414  0.8116
 6677TIP3    H241595   1.724   1.996   8.017  0.1742  0.2810 -0.0219
 6678TIP3   OH241596   3.233   6.623   8.033 -0.6257 -0.1612 -0.5106
 6678TIP3    H141597   3.302   6.567   8.068 -1.0148 -0.7520 -0.6786
 6678TIP3    H241598   3.251   6.709   8.071 -0.8348 -0.7024  0.8830
 6679TIP3   OH241599   2.506   1.956   7.743  0.0552  0.4467 -0.0951
 6679TIP3    H141600   2.473   2.009   7.670 -0.4411  1.8679  1.1051
 6679TIP3    H241601   2.580   2.007   7.777 -0.2057  0.2025  0.8668
 6680TIP3   OH241602   3.744   6.893   6.951  0.2835 -0.0918  0.2921
 6680TIP3    H141603   3.659   6.913   6.911 -0.0057 -2.3645 -0.4065
 6680TIP3    H241604   3.787   6.978   6.959 -0.8837  0.8359 -2.0409
 6681TIP3   OH241605   2.635   0.184   1.549 -0.0108  0.4866  0.0011
 6681TIP3    H141606   2.657   0.203   1.458  2.1675 -0.4138  0.2775
 6681TIP3    H241607   2.639   0.269   1.592 -1.6175  1.0081 -0.8049
 6682TIP3   OH241608   6.909   2.358   0.550 -1.1869 -0.0497  0.2070
 6682TIP3    H141609   6.885   2.432   0.607 -1.5533  1.7977 -2.1756
 6682TIP3    H241610   6.841   2.356   0.483 -0.1324 -1.3545 -0.8722
 6683TIP3   OH241611   0.070   3.184   7.906  0.5652  0.5820  0.0314
 6683TIP3    H141612   0.153   3.165   7.863  1.8324  2.8178  1.3645
 6683TIP3    H241613   0.024   3.242   7.845  0.2211 -0.1399 -0.4150
 6684TIP3   OH241614   3.730   1.604   7.656  0.1948 -0.1718 -0.3474
 6684TIP3    H141615   3.717   1.512   7.632  2.2179 -1.1479  1.8337
 6684TIP3    H241616   3.797   1.635   7.595 -1.2153  0.2675 -1.7661
 6685TIP3   OH241617   4.529   4.119   7.325  0.1863 -0.2435 -0.3044
 6685TIP3    H141618   4.595   4.158   7.383  0.0532  0.1983 -0.4442
 6685TIP3    H241619   4.505   4.037   7.367  0.2769 -0.0461  0.1353
 6686TIP3   OH241620   6.796   6.054   0.550 -0.7913 -0.1921 -0.2592
 6686TIP3    H141621   6.847   5.974   0.539 -0.8091 -0.0336 -1.6791
 6686TIP3    H241622   6.762   6.073   0.462 -1.9360  0.6108  0.3344
 6687TIP3   OH241623   6.657   0.966   7.859 -0.1813  0.5945  0.3100
 6687TIP3    H141624   6.572   0.924   7.865  0.2425 -0.2652  0.4520
 6687TIP3    H241625   6.660   1.001   7.770  0.1129 -1.1607 -0.4128
 6688TIP3   OH241626   5.625   6.011   2.057 -0.3547  0.1625 -0.1149
 6688TIP3    H141627   5.681   6.087   2.074 -1.7991  1.0091  1.0776
 6688TIP3    H241628   5.595   5.983   2.144  0.8533 -2.3730 -0.4339
 6689TIP3   OH241629   2.960   4.020   1.597 -0.4060 -0.1515  0.3256
 6689TIP3    H141630   2.872   4.024   1.560 -0.0583 -1.5246 -0.7419
 6689TIP3    H241631   3.012   3.973   1.531  0.0589 -3.5533  2.8272
 6690TIP3   OH241632   5.051   2.843   1.876  0.1251 -0.1034 -0.1566
 6690TIP3    H141633   5.145   2.827   1.867  0.6405  0.9345  2.5462
 6690TIP3    H241634   5.017   2.763   1.916  0.1857  0.2228  0.5463
 6691TIP3   OH241635   2.421   6.750   6.797 -0.8753 -0.5260  0.9335
 6691TIP3    H141636   2.437   6.773   6.706 -0.4939 -0.3128  1.0496
 6691TIP3    H241637   2.487   6.683   6.817 -1.3636 -1.0321  0.8733
 6692TIP3   OH241638   3.978   4.723   0.879  0.0018 -0.2067  0.2402
 6692TIP3    H141639   3.898   4.760   0.917  0.7305  0.1642  1.4588
 6692TIP3    H241640   3.991   4.772   0.798 -0.2821  0.6390  0.7031
 6693TIP3   OH241641   5.204   2.950   1.086 -0.1757  0.0880  0.0844
 6693TIP3    H141642   5.110   2.931   1.084 -0.4475  1.3450  0.0274
 6693TIP3    H241643   5.211   3.030   1.138  0.8177  0.2369 -0.2649
 6694TIP3   OH241644   1.273   5.028   7.507 -0.3575 -0.2196 -0.0486
 6694TIP3    H141645   1.195   5.015   7.561  0.0440 -0.6204  0.4472
 6694TIP3    H241646   1.257   5.111   7.462  0.0712  1.1082  2.0902
 6695TIP3   OH241647   1.382   5.798   0.342 -0.3461 -0.0021  0.1026
 6695TIP3    H141648   1.298   5.843   0.332 -0.1241  0.2708 -0.6212
 6695TIP3    H241649   1.396   5.794   0.437 -0.6889  0.8786  0.2037
 6696TIP3   OH241650   2.410   6.803   6.263  0.0307 -0.3313  0.1471
 6696TIP3    H141651   2.420   6.708   6.268 -0.3197 -0.4460 -0.9373
 6696TIP3    H241652   2.475   6.830   6.198  1.7147  0.4787  2.0836
 6697TIP3   OH241653   0.665   1.666   1.732 -0.0927  0.2738 -0.4529
 6697TIP3    H141654   0.634   1.586   1.773 -0.4735 -0.2745 -1.7647
 6697TIP3    H241655   0.589   1.701   1.686 -0.3018  2.1206  1.1553
 6698TIP3   OH241656   6.504   1.718   1.626 -0.3392  0.0566  0.1147
 6698TIP3    H141657   6.433   1.663   1.660 -0.7775 -0.5334 -1.6305
 6698TIP3    H241658   6.470   1.807   1.631 -0.8100 -0.1269  0.2102
 6699TIP3   OH241659   0.874   6.205   6.781  0.0028 -0.3855  0.1298
 6699TIP3    H141660   0.861   6.124   6.732  0.8193 -1.2118  1.2324
 6699TIP3    H241661   0.948   6.187   6.838  0.5369  1.3290  0.0334
 6700TIP3   OH241662   6.840   1.707   0.360 -0.0573 -0.4840 -0.0299
 6700TIP3    H141663   6.800   1.695   0.274  2.0472 -1.4913 -0.9428
 6700TIP3    H241664   6.766   1.720   0.419 -1.5261  1.8678 -2.1911
 6701TIP3   OH241665   1.707   2.427   7.919  0.3859 -0.7936  0.2272
 6701TIP3    H141666   1.786   2.375   7.931 -0.4994 -1.8460  1.9087
 6701TIP3    H241667   1.697   2.475   8.002  0.0814  0.5238 -0.5341
 6702TIP3   OH241668   5.605   4.504   1.630  0.2794 -0.0536  0.5528
 6702TIP3    H141669   5.607   4.499   1.726 -1.0834  0.6766  0.6441
 6702TIP3    H241670   5.528   4.558   1.611  1.2420  0.8787 -0.9117
 6703TIP3   OH241671   0.736   4.639   7.389  0.3426 -0.2698  0.6821
 6703TIP3    H141672   0.811   4.580   7.378  1.1826  0.3273  2.6409
 6703TIP3    H241673   0.773   4.717   7.431 -1.1905  0.5312  0.6194
 6704TIP3   OH241674   0.625   5.218   1.544  0.3109  0.1580  0.3863
 6704TIP3    H141675   0.677   5.194   1.468  0.3663 -0.0274  0.4816
 6704TIP3    H241676   0.656   5.305   1.569 -0.2746  0.5742 -0.2991
 6705TIP3   OH241677   5.385   6.624   7.252  0.2567  0.1882 -0.2204
 6705TIP3    H141678   5.301   6.590   7.219  0.1443  1.0633 -0.8836
 6705TIP3    H241679   5.378   6.615   7.347 -0.7700  0.6172 -0.2350
 6706TIP3   OH241680   4.996   2.112   1.805 -0.2660  0.0922 -0.3013
 6706TIP3    H141681   4.967   2.151   1.888 -0.4288  1.4881 -0.9929
 6706TIP3    H241682   4.915   2.087   1.761 -0.3832  2.0069 -1.2784
 6707TIP3   OH241683   2.880   3.171   8.053 -0.5642 -0.4336  0.4538
 6707TIP3    H141684   2.801   3.222   8.072 -0.5816  0.1599 -1.0950
 6707TIP3    H241685   2.940   3.234   8.013  0.3163 -1.1092  0.6931
 6708TIP3   OH241686   2.044   2.770   0.548  0.4889 -0.0451  0.2749
 6708TIP3    H141687   2.066   2.863   0.547  0.5259 -0.0380  1.2907
 6708TIP3    H241688   2.123   2.726   0.581  0.6850 -0.5056 -0.7586
 6709TIP3   OH241689   0.567   2.144   7.382 -0.3241  0.0312 -0.1977
 6709TIP3    H141690   0.503   2.133   7.453  0.4825 -0.7170  0.4254
 6709TIP3    H241691   0.526   2.208   7.323 -0.9969  0.6996  0.9514
 6710TIP3   OH241692   2.748   0.851   1.551  0.3280  0.4618 -0.4793
 6710TIP3    H141693   2.809   0.782   1.578 -2.3177 -1.5695  0.6811
 6710TIP3    H241694   2.688   0.808   1.491 -0.1792  2.3518 -1.4252
 6711TIP3   OH241695   3.446   2.217   1.362  0.1041  0.1315  0.2598
 6711TIP3    H141696   3.404   2.251   1.283  0.3173 -2.9587 -1.3655
 6711TIP3    H241697   3.537   2.200   1.335 -0.0195 -1.7063  0.8430
 6712TIP3   OH241698   6.226   1.657   1.413 -0.0568 -0.3226 -1.2019
 6712TIP3    H141699   6.286   1.619   1.348  3.8808  0.5402  1.5540
 6712TIP3    H241700   6.257   1.623   1.497 -0.7591  3.3947  0.7854
 6713TIP3   OH241701   5.891   5.838   0.818  0.0641  0.0833 -0.1257
 6713TIP3    H141702   5.901   5.921   0.772  0.6602  0.5843  0.8795
 6713TIP3    H241703   5.805   5.844   0.860 -0.2001 -0.1046 -0.6405
 6714TIP3   OH241704   1.774   6.178   1.042 -0.0021  0.2463  0.2442
 6714TIP3    H141705   1.698   6.181   0.984  0.9710  0.0361 -1.0754
 6714TIP3    H241706   1.764   6.095   1.090  0.1356 -0.5174 -0.9925
 6715TIP3   OH241707   6.406   1.176   0.561  0.2440  0.0822 -0.1830
 6715TIP3    H141708   6.395   1.217   0.475 -2.7987 -0.3799 -0.1477
 6715TIP3    H241709   6.468   1.232   0.607 -0.5416  2.2215 -1.5834
 6716TIP3   OH241710   5.280   1.437   1.571 -0.2057 -0.0766  0.5951
 6716TIP3    H141711   5.259   1.365   1.630 -0.8999 -2.1894 -2.0700
 6716TIP3    H241712   5.236   1.415   1.489  3.9190  0.5872 -2.0872
 6717TIP3   OH241713   0.726   0.966   0.846 -0.3941  0.2557  0.1185
 6717TIP3    H141714   0.808   0.970   0.797  0.0104  3.9696  0.8311
 6717TIP3    H241715   0.752   0.978   0.938 -1.6443  0.2249  0.4976
 6718TIP3   OH241716   5.372   2.228   1.234 -0.0775 -0.5350 -0.3111
 6718TIP3    H141717   5.385   2.276   1.315 -1.7586 -3.2617  1.7826
 6718TIP3    H241718   5.429   2.151   1.242 -0.4324 -0.9624 -1.6021
 6719TIP3   OH241719   4.225   4.157   0.066  0.1820 -0.3435 -0.0166
 6719TIP3    H141720   4.261   4.240   0.098  0.2346  0.4272 -1.8951
 6719TIP3    H241721   4.292   4.092   0.085  0.6411  0.2690  0.4823
 6720TIP3   OH241722   1.963   3.936   1.486 -0.4525  0.1551  0.2300
 6720TIP3    H141723   1.991   3.893   1.405 -0.3189 -0.4275  0.5822
 6720TIP3    H241724   1.922   3.867   1.538  0.9564  0.1270  1.3754
 6721TIP3   OH241725   3.520   2.505   0.297  0.1807 -0.1948 -0.0717
 6721TIP3    H141726   3.519   2.427   0.241  0.7296 -0.4758  0.2990
 6721TIP3    H241727   3.566   2.571   0.245 -0.1812 -0.1435 -0.3383
 6722TIP3   OH241728   0.040   5.831   6.220 -0.8386 -0.1011  0.3390
 6722TIP3    H141729  -0.036   5.828   6.162 -0.1126 -0.1196 -0.6411
 6722TIP3    H241730   0.064   5.739   6.234  0.9066 -0.0836 -1.9831
 6723TIP3   OH241731   2.061   3.338   5.903  0.1977 -0.1095  0.5634
 6723TIP3    H141732   2.131   3.356   5.965 -0.7944 -0.4573  1.8230
 6723TIP3    H241733   2.019   3.258   5.936 -0.0967 -0.5433 -0.7926
 6724TIP3   OH241734   5.424   6.172   7.758 -0.2231 -0.1562  0.3669
 6724TIP3    H141735   5.507   6.215   7.739 -0.5223  0.8017  1.1518
 6724TIP3    H241736   5.398   6.132   7.675  0.1879  0.9680 -0.3233
 6725TIP3   OH241737   1.080   4.547   6.789  0.5523  0.1704 -0.0009
 6725TIP3    H141738   1.006   4.539   6.728  0.0410  2.9761  0.0962
 6725TIP3    H241739   1.051   4.505   6.869 -0.6401  0.5409 -0.2275
 6726TIP3   OH241740   2.209   1.261   0.820 -0.3845 -0.3439 -0.6865
 6726TIP3    H141741   2.180   1.170   0.823 -0.5318 -0.2773  1.2294
 6726TIP3    H241742   2.130   1.311   0.796 -1.1743 -0.4514  1.4930
 6727TIP3   OH241743   1.596   1.256   8.262 -0.1900 -0.4468 -0.2759
 6727TIP3    H141744   1.542   1.192   8.217 -0.1671 -0.6124 -0.0714
 6727TIP3    H241745   1.538   1.331   8.275 -0.0634 -0.2191 -0.9814
 6728TIP3   OH241746   0.120   6.621   7.844  0.8418  0.1517 -0.4780
 6728TIP3    H141747   0.107   6.532   7.877 -0.5494  0.1195 -1.0226
 6728TIP3    H241748   0.052   6.632   7.778  0.9687  1.6287 -0.4034
 6729TIP3   OH241749   6.016   5.003   0.997 -0.5030  0.5070 -0.1169
 6729TIP3    H141750   6.015   5.047   1.082 -0.2136  0.2801  0.0072
 6729TIP3    H241751   5.989   5.070   0.935  1.9287  1.5134 -0.2221
 6730TIP3   OH241752   5.183   1.799   8.044 -0.2844 -0.1216  0.5584
 6730TIP3    H141753   5.159   1.715   8.083  0.2106  0.0900  1.3392
 6730TIP3    H241754   5.254   1.832   8.100  0.4025  0.2165 -0.4935
 6731TIP3   OH241755   2.211   3.198   6.316 -0.5467 -0.7028 -0.5582
 6731TIP3    H141756   2.182   3.121   6.367 -0.0627  0.1732  1.1094
 6731TIP3    H241757   2.253   3.161   6.239  0.6014 -2.1805  0.7082
 6732TIP3   OH241758   1.359   0.251   0.454 -0.4574  0.6391  0.0746
 6732TIP3    H141759   1.278   0.256   0.402 -0.2593  0.2345 -0.2809
 6732TIP3    H241760   1.425   0.294   0.400  0.1915 -1.4826 -0.9087
 6733TIP3   OH241761   6.328   0.054   0.542  0.1980  0.2883 -0.1318
 6733TIP3    H141762   6.275   0.095   0.474 -0.9697  0.8017  1.0513
 6733TIP3    H241763   6.316  -0.040   0.528  0.1305  0.3806 -0.7430
 6734TIP3   OH241764   2.180   1.368   6.092  0.0623 -0.5738 -0.1219
 6734TIP3    H141765   2.257   1.326   6.051 -0.0379 -1.2562  0.3674
 6734TIP3    H241766   2.147   1.302   6.153 -0.1857  0.1869  0.5762
 6735TIP3   OH241767   5.357   2.563   7.795 -0.8110 -0.0015  0.1542
 6735TIP3    H141768   5.368   2.484   7.847  0.4520 -0.4502 -0.7514
 6735TIP3    H241769   5.374   2.536   7.705  0.8120  1.4942 -0.0603
 6736TIP3   OH241770   1.408   2.412   2.096 -0.6290 -0.0988 -0.3417
 6736TIP3    H141771   1.463   2.487   2.073 -1.7079  0.4521 -1.1956
 6736TIP3    H241772   1.373   2.433   2.183 -1.2178  0.5755 -0.7301
 6737TIP3   OH241773   5.350   5.937   6.845 -0.6208  0.2769  0.0545
 6737TIP3    H141774   5.426   5.978   6.803  0.4606 -0.3271  1.3291
 6737TIP3    H241775   5.295   5.908   6.772 -0.9397  2.9874 -0.8945
 6738TIP3   OH241776   3.010   6.175   1.345  0.2912  0.1612 -0.4514
 6738TIP3    H141777   2.955   6.173   1.422  0.9814 -1.9913  0.0528
 6738TIP3    H241778   2.949   6.165   1.271 -0.5221  3.5897 -0.3999
 6739TIP3   OH241779   3.310   0.966   0.359 -0.4622  0.3293 -0.7276
 6739TIP3    H141780   3.240   0.952   0.423 -0.3136  2.1393 -0.1045
 6739TIP3    H241781   3.345   0.879   0.342 -0.1054 -0.1869  2.1384
 6740TIP3   OH241782   2.110   1.650   8.345 -0.1169  0.0300  0.1380
 6740TIP3    H141783   2.146   1.612   8.265  0.1035 -0.5396  0.5020
 6740TIP3    H241784   2.167   1.724   8.364  0.7411 -0.7118  0.5652
 6741TIP3   OH241785   0.508   0.927   6.279  0.3212  0.3962 -0.1408
 6741TIP3    H141786   0.589   0.877   6.285 -0.2502 -0.4843  0.4260
 6741TIP3    H241787   0.467   0.917   6.365 -0.7819  0.1494 -0.6737
 6742TIP3   OH241788   2.415   6.368   7.972 -0.4547 -0.0820  0.4287
 6742TIP3    H141789   2.325   6.390   7.995 -0.2721  0.1924  0.8927
 6742TIP3    H241790   2.414   6.362   7.876 -0.9085  0.1767  0.4117
 6743TIP3   OH241791   6.807   6.854   8.088 -0.4166 -0.7986 -0.1936
 6743TIP3    H141792   6.727   6.879   8.134  0.7180  0.2871  1.2464
 6743TIP3    H241793   6.813   6.915   8.015 -0.4016 -0.2594  0.2560
 6744TIP3   OH241794   0.022   5.456   2.125 -0.1907  0.2488  0.0345
 6744TIP3    H141795  -0.015   5.467   2.037  0.6524 -1.2009 -0.5601
 6744TIP3    H241796   0.056   5.542   2.148  0.0529  0.5430 -1.3129
 6745TIP3   OH241797   0.393   3.656   1.583  0.3288  0.0290 -0.2516
 6745TIP3    H141798   0.429   3.567   1.576 -1.0210 -0.8077  2.1260
 6745TIP3    H241799   0.459   3.704   1.633 -0.1848 -0.5181  1.0158
 6746TIP3   OH241800   2.116   1.278   1.712  0.7539  0.0995  0.2005
 6746TIP3    H141801   2.145   1.307   1.626 -0.8643  0.6459 -0.2001
 6746TIP3    H241802   2.038   1.331   1.730 -0.0929 -1.3960  1.1140
 6747TIP3   OH241803   1.671   0.632   6.949  0.1054  0.0171  0.2852
 6747TIP3    H141804   1.718   0.604   6.870  2.8692 -0.1689  1.8591
 6747TIP3    H241805   1.585   0.660   6.918  0.7486 -0.9563 -2.6338
 6748TIP3   OH241806   6.289   1.503   7.710  0.2646 -0.0414 -0.1910
 6748TIP3    H141807   6.349   1.576   7.729  0.7193 -0.1158 -1.2919
 6748TIP3    H241808   6.202   1.542   7.718  0.4966  0.5263 -0.3559
 6749TIP3   OH241809   4.112   4.610   1.626 -0.7224 -0.4104  0.0714
 6749TIP3    H141810   4.051   4.684   1.616 -0.5287 -0.3208 -0.4897
 6749TIP3    H241811   4.121   4.599   1.721 -0.5876  0.4320  0.1675
 6750TIP3   OH241812   2.396   5.502   7.040  0.5622 -0.1273 -0.2045
 6750TIP3    H141813   2.450   5.571   7.000  2.4330 -1.3900  0.0318
 6750TIP3    H241814   2.404   5.518   7.134 -0.1398  0.1317 -0.1812
 6751TIP3   OH241815   1.113   0.928   2.066  0.4549  0.1610  0.3810
 6751TIP3    H141816   1.132   0.851   2.119  2.2101 -0.5575 -1.1768
 6751TIP3    H241817   1.065   0.894   1.990 -0.6751  0.9581  0.6968
 6752TIP3   OH241818   1.985   6.450   1.955 -1.1557  0.3883 -0.3485
 6752TIP3    H141819   1.967   6.522   1.894  0.4710  0.1191 -1.1993
 6752TIP3    H241820   2.005   6.492   2.038 -0.6775  0.9076 -0.7206
 6753TIP3   OH241821   6.113   2.903   1.404  0.5600 -0.3211  0.2985
 6753TIP3    H141822   6.186   2.841   1.412 -0.3046 -1.4294 -0.1977
 6753TIP3    H241823   6.154   2.985   1.376  1.6128 -0.9474 -0.0498
 6754TIP3   OH241824   0.377   1.040   7.277 -0.7530  0.2582  0.3749
 6754TIP3    H141825   0.433   1.103   7.233 -0.2842  0.1446  0.7987
 6754TIP3    H241826   0.365   0.969   7.213  0.3671 -0.1649  0.6082
 6755TIP3   OH241827   1.073   2.091   0.305  0.0150  0.3346 -0.1300
 6755TIP3    H141828   1.154   2.140   0.311 -0.6867  1.7241 -1.3615
 6755TIP3    H241829   1.081   2.040   0.225 -0.1265  0.1147 -0.0056
 6756TIP3   OH241830   4.284   0.640   1.691 -0.4997 -0.6541  0.0066
 6756TIP3    H141831   4.205   0.645   1.637  0.4391 -1.2897 -1.4859
 6756TIP3    H241832   4.252   0.618   1.779 -1.9451 -1.3431 -0.6654
 6757TIP3   OH241833   2.424   2.567   7.368  0.2374 -0.4207 -0.2934
 6757TIP3    H141834   2.380   2.482   7.372  0.3940 -0.6169 -2.0937
 6757TIP3    H241835   2.514   2.549   7.392  0.4233 -0.8973 -1.3155
 6758TIP3   OH241836   3.461   5.006   0.326  0.3575 -0.3664 -0.0440
 6758TIP3    H141837   3.544   4.976   0.363 -0.2500 -0.5442  1.2248
 6758TIP3    H241838   3.485   5.047   0.242  1.7806  0.0122  0.5222
 6759TIP3   OH241839   2.733   3.224   1.845 -0.2294  0.1683  0.4101
 6759TIP3    H141840   2.644   3.215   1.878 -0.3004 -0.4574  0.0565
 6759TIP3    H241841   2.789   3.194   1.916 -0.3194  0.1065  0.4543
 6760TIP3   OH241842   0.000   1.792   7.911 -0.0193  0.6175  0.1876
 6760TIP3    H141843   0.017   1.750   7.995 -3.0451  1.2813  1.2685
 6760TIP3    H241844  -0.059   1.732   7.866  1.8038  0.1269 -1.6741
 6761TIP3   OH241845   1.297   1.768   6.687 -0.4756 -0.3996  0.1588
 6761TIP3    H141846   1.307   1.690   6.632 -1.1815  0.1635 -0.8071
 6761TIP3    H241847   1.308   1.842   6.627  1.2650  0.2882  1.2483
 6762TIP3   OH241848   4.203   2.424   0.603  0.3533 -0.6249  0.3005
 6762TIP3    H141849   4.227   2.482   0.531 -0.4600  0.9052  1.2122
 6762TIP3    H241850   4.108   2.421   0.601  0.3842 -2.4173 -0.0563
 6763TIP3   OH241851   0.828   5.205   0.041  0.0754  0.5830  1.2043
 6763TIP3    H141852   0.900   5.193   0.103 -0.4272 -1.5297  1.4623
 6763TIP3    H241853   0.752   5.167   0.084 -0.3410 -0.7395 -0.5466
 6764TIP3   OH241854   6.957   2.236   0.206 -0.1878  0.1694 -0.9448
 6764TIP3    H141855   6.961   2.290   0.128  1.6262  2.1968  0.4650
 6764TIP3    H241856   7.008   2.158   0.184  1.7971  1.4980 -1.2564
 6765TIP3   OH241857   1.686   4.109   6.519  0.2185  0.1302  0.1810
 6765TIP3    H141858   1.781   4.111   6.514  0.3186  0.3425  1.6455
 6765TIP3    H241859   1.657   4.081   6.432  1.6608 -1.3117  0.1354
 6766TIP3   OH241860   5.866   6.037   1.429  0.2812  0.1079 -0.1553
 6766TIP3    H141861   5.956   6.060   1.404  0.1451  0.4966 -0.2968
 6766TIP3    H241862   5.841   6.106   1.490  0.9295 -1.2994  1.7940
 6767TIP3   OH241863   6.669   4.059   6.160 -0.3540  0.1748 -0.3510
 6767TIP3    H141864   6.628   4.037   6.077 -0.3384  0.1049 -0.3398
 6767TIP3    H241865   6.609   4.124   6.199 -1.0097 -0.7033  0.1436
 6768TIP3   OH241866   5.153   6.865   6.090  0.8699  0.1871  0.1196
 6768TIP3    H141867   5.228   6.819   6.052 -1.7004 -2.5375 -2.2143
 6768TIP3    H241868   5.102   6.796   6.133 -0.6459  1.8011  1.0375
 6769TIP3   OH241869   3.331   0.308   1.783  0.4416  0.1820 -0.1829
 6769TIP3    H141870   3.416   0.279   1.818  0.4745 -1.2294 -1.3529
 6769TIP3    H241871   3.269   0.241   1.813  0.4879 -1.1432 -2.7909
 6770TIP3   OH241872   3.082   2.828   1.971  0.2185  0.0884  0.1691
 6770TIP3    H141873   3.128   2.911   1.979 -2.2301  1.6605 -1.1089
 6770TIP3    H241874   3.015   2.830   2.039 -0.1811 -0.6421 -0.1879
 6771TIP3   OH241875   0.527   4.417   0.806  0.1558 -0.2850  0.4644
 6771TIP3    H141876   0.542   4.372   0.723 -0.2982  1.3715 -0.5577
 6771TIP3    H241877   0.478   4.495   0.782  0.2863  0.3898  2.2704
 6772TIP3   OH241878   4.668   1.908   0.085 -0.2284 -0.0180  0.5817
 6772TIP3    H141879   4.620   1.899   0.167  1.0590 -1.0492  1.2550
 6772TIP3    H241880   4.600   1.901   0.017 -1.6391  2.9608  1.4958
 6773TIP3   OH241881   6.594   1.781   0.471 -0.4173  0.3250 -0.1494
 6773TIP3    H141882   6.598   1.875   0.487  3.4163  0.1094  1.1016
 6773TIP3    H241883   6.501   1.764   0.453 -1.2875  4.2566 -0.3133
 6774TIP3   OH241884   2.802   3.154   0.466 -0.5298 -0.2950 -0.3027
 6774TIP3    H141885   2.826   3.064   0.489 -0.9080 -0.6342 -1.1850
 6774TIP3    H241886   2.858   3.174   0.390 -1.2713 -0.2116 -0.8339
 6775TIP3   OH241887   6.304   0.058   7.854 -0.1631  0.1034  0.2746
 6775TIP3    H141888   6.301   0.145   7.814 -1.0066  0.1570  0.4312
 6775TIP3    H241889   6.321   0.075   7.947 -3.7590  0.4021  1.0368
 6776TIP3   OH241890   4.597   3.553   0.001 -0.3286  0.5973  0.0739
 6776TIP3    H141891   4.647   3.550  -0.081 -0.3005  0.5091  0.0939
 6776TIP3    H241892   4.575   3.461   0.019 -0.3784  0.6219  0.1383
 6777TIP3   OH241893   6.489   2.575   1.224  0.0910  0.2600 -0.2722
 6777TIP3    H141894   6.539   2.493   1.219  0.8590  0.6887  0.0771
 6777TIP3    H241895   6.410   2.558   1.173  0.1007 -0.7920  0.0312
 6778TIP3   OH241896   4.231   2.012   7.655  0.4353  0.5844  0.1814
 6778TIP3    H141897   4.255   1.992   7.746 -0.4423 -0.7897  0.1208
 6778TIP3    H241898   4.314   2.006   7.607  0.3875 -2.4118  0.2789
 6779TIP3   OH241899   0.817   2.307   1.496  0.3358 -0.5732  0.1670
 6779TIP3    H141900   0.787   2.251   1.568  1.6092 -0.7850  0.5690
 6779TIP3    H241901   0.865   2.378   1.540  1.4735 -0.9184 -0.4694
 6780TIP3   OH241902   4.305   2.854   7.574 -1.0474  0.4690 -0.0447
 6780TIP3    H141903   4.382   2.910   7.574 -0.6177 -0.0825  1.4469
 6780TIP3    H241904   4.270   2.862   7.485  0.7739  0.6578 -0.7882
 6781TIP3   OH241905   0.798   4.841   0.002 -0.1036 -0.1238  0.7684
 6781TIP3    H141906   0.887   4.878   0.003  1.0583 -2.4485 -1.9677
 6781TIP3    H241907   0.742   4.914  -0.023  1.9262  0.3229 -3.3842
 6782TIP3   OH241908   0.167   0.641   7.177 -0.4661 -0.0294  0.4909
 6782TIP3    H141909   0.232   0.588   7.131 -0.6082  0.2959 -0.0874
 6782TIP3    H241910   0.116   0.577   7.227 -2.2993 -0.8057 -2.1810
 6783TIP3   OH241911   2.884   4.140   7.854 -0.0653  0.2832  0.0993
 6783TIP3    H141912   2.898   4.049   7.830  1.0566  0.8033 -1.3852
 6783TIP3    H241913   2.970   4.172   7.880 -0.3666  1.0247  0.2051
 6784TIP3   OH241914   3.924   1.966   7.825  0.0543  0.0956  0.1153
 6784TIP3    H141915   3.927   1.914   7.744  0.4377 -0.3037  0.3827
 6784TIP3    H241916   3.963   1.910   7.891 -0.3510  0.3864  0.6044
 6785TIP3   OH241917   6.650   1.570   7.180 -0.2650 -0.1646 -0.5190
 6785TIP3    H141918   6.599   1.643   7.144  0.0055  2.3173  3.5694
 6785TIP3    H241919   6.584   1.506   7.208 -0.8716  0.7534  0.2029
 6786TIP3   OH241920   1.986   0.118   6.290 -0.4513 -0.0733 -0.3887
 6786TIP3    H141921   2.051   0.049   6.308  0.3792 -0.1671 -3.3298
 6786TIP3    H241922   1.928   0.080   6.224 -2.1849  0.8246  0.5510
 6787TIP3   OH241923   5.765   6.013   8.218  0.0028 -0.3665  0.1251
 6787TIP3    H141924   5.734   5.926   8.193 -1.1761 -0.2668  1.1577
 6787TIP3    H241925   5.858   6.000   8.238 -0.1280 -1.3665  0.1359
 6788TIP3   OH241926   6.621   0.591   7.014 -0.1932 -0.2849 -0.5264
 6788TIP3    H141927   6.617   0.614   7.107 -0.1605 -1.8147 -0.1158
 6788TIP3    H241928   6.558   0.519   7.005  0.3921 -0.6913 -1.5234
 6789TIP3   OH241929   5.888   5.059   7.650  0.1737  0.0940  0.1165
 6789TIP3    H141930   5.886   5.098   7.562  0.0807  2.3586  1.0670
 6789TIP3    H241931   5.801   5.020   7.660  0.9261 -2.3038 -1.6108
 6790TIP3   OH241932   4.775   4.315   5.911 -0.4569  0.2586 -1.0319
 6790TIP3    H141933   4.685   4.345   5.925 -0.3683 -0.2134  0.7981
 6790TIP3    H241934   4.767   4.224   5.883 -0.5538  0.3659 -1.3599
 6791TIP3   OH241935   4.851   5.522   0.149  0.0285  0.0190 -0.2633
 6791TIP3    H141936   4.896   5.553   0.070 -0.0515  0.2792 -0.2056
 6791TIP3    H241937   4.759   5.512   0.121  0.1979 -0.9547 -0.5105
 6792TIP3   OH241938   1.141   6.224   6.483 -0.2310  0.0600 -0.0876
 6792TIP3    H141939   1.118   6.276   6.405 -0.4510  0.5516  0.3017
 6792TIP3    H241940   1.151   6.135   6.450  0.3632  0.3813 -0.8085
 6793TIP3   OH241941   2.786   4.730   0.504 -0.8287 -0.2997  0.4489
 6793TIP3    H141942   2.794   4.819   0.470 -0.7640 -0.5229 -0.1332
 6793TIP3    H241943   2.875   4.694   0.501 -0.9859 -0.6529 -0.0701
 6794TIP3   OH241944   6.656   4.979   7.143  0.1278  0.0349 -0.2831
 6794TIP3    H141945   6.629   5.027   7.221 -1.5483 -0.0194 -0.7732
 6794TIP3    H241946   6.612   5.024   7.071 -0.2319 -1.2737 -0.9230
 6795TIP3   OH241947   4.367   5.346   7.184 -0.1991 -0.1695 -0.4548
 6795TIP3    H141948   4.439   5.374   7.128 -0.9252  1.6049 -0.5893
 6795TIP3    H241949   4.288   5.360   7.131 -0.7337 -0.8954  0.1179
 6796TIP3   OH241950   2.482   0.657   1.111  0.2259  0.1360  0.7080
 6796TIP3    H141951   2.402   0.709   1.107  0.3503  0.4075  1.5477
 6796TIP3    H241952   2.483   0.608   1.029 -0.8113  0.1008  0.7086
 6797TIP3   OH241953   5.361   4.312   7.698 -0.1176  0.0226  0.2402
 6797TIP3    H141954   5.269   4.288   7.698 -0.3310  0.7606  1.1933
 6797TIP3    H241955   5.394   4.283   7.613 -1.3309  0.1629 -0.2940
 6798TIP3   OH241956   1.248   6.894   2.297  0.1431  0.7149  0.1532
 6798TIP3    H141957   1.252   6.965   2.361 -0.4585  1.1060 -0.2345
 6798TIP3    H241958   1.158   6.895   2.265  0.1438 -0.1921  0.1011
 6799TIP3   OH241959   1.936   6.466   7.746 -0.6130 -0.4553 -0.1781
 6799TIP3    H141960   2.004   6.529   7.773  0.7173 -2.6022  1.8373
 6799TIP3    H241961   1.985   6.387   7.724 -2.3532 -1.3313 -1.0308
 6800TIP3   OH241962   6.310   4.135   6.630  0.5066 -0.3786 -0.2551
 6800TIP3    H141963   6.322   4.075   6.704 -0.1116  1.6435  1.5828
 6800TIP3    H241964   6.352   4.090   6.556  3.0280 -1.6193  1.7527
 6801TIP3   OH241965   3.592   2.927   6.745  0.0202  0.3776  0.2958
 6801TIP3    H141966   3.677   2.970   6.739  0.5144 -0.8035 -2.1661
 6801TIP3    H241967   3.600   2.870   6.823  2.3208 -1.2915 -1.0224
 6802TIP3   OH241968   6.575   0.919   7.321 -0.1154  0.3460  0.3671
 6802TIP3    H141969   6.561   1.013   7.304  1.0635  0.0933 -2.6021
 6802TIP3    H241970   6.655   0.898   7.273 -0.6586 -2.3266  0.5108
 6803TIP3   OH241971   3.914   4.282   7.882 -0.3830  0.0144 -0.5732
 6803TIP3    H141972   3.961   4.199   7.879 -0.4794 -0.0307 -0.8341
 6803TIP3    H241973   3.822   4.257   7.885 -0.7621  0.0598 -4.9910
 6804TIP3   OH241974   3.633   2.549   8.034 -0.4810  0.2600 -0.1007
 6804TIP3    H141975   3.718   2.588   8.016  1.2262 -3.0600 -0.1107
 6804TIP3    H241976   3.643   2.511   8.122 -0.4871 -3.4040 -1.5291
 6805TIP3   OH241977   3.090   0.341   7.366 -0.1278  0.0046 -0.6159
 6805TIP3    H141978   3.116   0.318   7.277  1.8489 -0.7588  0.1070
 6805TIP3    H241979   3.130   0.426   7.382 -1.0649  0.4704 -0.6694
 6806TIP3   OH241980   5.796   0.700   7.131  0.6287  0.2294 -0.0707
 6806TIP3    H141981   5.742   0.637   7.084 -0.2295 -0.4153  1.6688
 6806TIP3    H241982   5.881   0.658   7.139  0.5951  0.0816 -0.4912
 6807TIP3   OH241983   1.013   6.147   1.439  0.0037 -0.0713  0.2164
 6807TIP3    H141984   1.062   6.110   1.513  0.9104 -0.3163 -0.4853
 6807TIP3    H241985   0.958   6.076   1.408 -0.1890 -0.0451  0.4980
 6808TIP3   OH241986   5.510   1.805   8.121 -0.0538 -0.0097  0.3991
 6808TIP3    H141987   5.537   1.832   8.033 -3.5377 -1.6316 -1.3787
 6808TIP3    H241988   5.496   1.887   8.168 -1.3656  1.0886 -1.7266
 6809TIP3   OH241989   3.924   0.919   0.485 -0.1218  0.3964 -0.2517
 6809TIP3    H141990   3.855   0.856   0.464  1.1723 -0.7936 -1.0163
 6809TIP3    H241991   3.886   0.973   0.556 -0.9814 -1.7312  0.9933
 6810TIP3   OH241992   6.778   0.636   0.742 -0.0715  0.2969  0.6079
 6810TIP3    H141993   6.750   0.580   0.814 -0.1174 -1.0358 -0.4003
 6810TIP3    H241994   6.699   0.647   0.688  0.0121  1.0946  0.6427
 6811TIP3   OH241995   4.711   2.526   1.182 -0.2578  0.3579  0.5916
 6811TIP3    H141996   4.617   2.530   1.196 -0.4754 -1.9516  0.1424
 6811TIP3    H241997   4.744   2.466   1.249  0.6169 -0.2541 -0.3465
 6812TIP3   OH241998   2.422   5.026   0.084 -0.3760  0.1193  0.0240
 6812TIP3    H141999   2.329   5.046   0.099 -0.6923 -0.7579 -0.7213
 6812TIP3    H242000   2.426   4.931   0.081  0.3831  0.1686 -0.9684
 6813TIP3   OH242001   0.256   1.967   2.134 -0.1943 -0.5073  0.8715
 6813TIP3    H142002   0.241   1.971   2.229 -1.6040  0.9047  0.6421
 6813TIP3    H242003   0.202   1.893   2.105  1.0181 -1.5735  1.2689
 6814TIP3   OH242004   3.530   6.115   0.334  0.2186 -0.2329 -0.2460
 6814TIP3    H142005   3.616   6.079   0.356  0.0413 -0.8564 -0.5320
 6814TIP3    H242006   3.534   6.131   0.239 -0.2557 -1.0920 -0.4297
 6815TIP3   OH242007   1.704   1.865   8.297  0.0633  0.7794  0.3637
 6815TIP3    H142008   1.652   1.889   8.220 -1.3244  0.0839  1.0605
 6815TIP3    H242009   1.712   1.946   8.347 -2.9519  0.3443  1.7363
 6816TIP3   OH242010   4.899   5.293   1.706  0.2801 -0.5823 -0.2941
 6816TIP3    H142011   4.963   5.364   1.699 -0.5750  0.0700 -2.4770
 6816TIP3    H242012   4.930   5.239   1.779  3.6613 -0.6483 -1.6101
 6817TIP3   OH242013   4.658   5.406   8.309  0.5363 -0.1973  0.1187
 6817TIP3    H142014   4.692   5.343   8.245 -1.1957 -1.0197 -0.0622
 6817TIP3    H242015   4.568   5.423   8.280 -1.0093 -2.0572  3.3251
 6818TIP3   OH242016   5.874   0.781   8.315  0.4944  0.2528 -0.2081
 6818TIP3    H142017   5.873   0.685   8.310  0.2733  0.1789  0.9526
 6818TIP3    H242018   5.794   0.803   8.363  1.7004  0.8569  1.6178
 6819TIP3   OH242019   0.453   6.893   0.148 -0.4335  0.6608  0.2679
 6819TIP3    H142020   0.372   6.914   0.101 -1.8407 -1.2008  1.6694
 6819TIP3    H242021   0.464   6.799   0.134  1.0089  0.7297  0.8267
 6820TIP3   OH242022   0.698   2.852   0.534 -0.2529 -0.0946  0.3182
 6820TIP3    H142023   0.709   2.824   0.443 -1.3211  1.1404 -0.2107
 6820TIP3    H242024   0.761   2.798   0.582  1.9681  0.7905 -1.4144
 6821TIP3   OH242025   3.993   1.820   6.866  0.1257 -0.2716  0.2495
 6821TIP3    H142026   3.990   1.840   6.773  0.1222 -0.7304  0.1511
 6821TIP3    H242027   4.074   1.770   6.878  0.5061  0.4151  0.6173
 6822TIP3   OH242028   3.409   6.863   1.288  0.1657 -0.5846  0.1335
 6822TIP3    H142029   3.476   6.797   1.272 -1.3488 -2.1084 -0.1630
 6822TIP3    H242030   3.338   6.841   1.228 -0.3082  1.4710 -0.1303
 6823TIP3   OH242031   6.098   0.286   1.442  0.1080 -0.0467 -0.1007
 6823TIP3    H142032   6.053   0.325   1.517 -0.2919  1.0956 -0.9159
 6823TIP3    H242033   6.029   0.244   1.391  0.0475  1.0130 -0.9276
 6824TIP3   OH242034   0.395   2.991   0.980 -0.3539  0.3128  0.1053
 6824TIP3    H142035   0.464   2.974   0.916  0.0661 -0.2551  0.7057
 6824TIP3    H242036   0.316   2.952   0.940 -0.6156  1.9524 -1.1087
 6825TIP3   OH242037   0.118   6.782   0.016  0.1321 -0.1544 -0.5145
 6825TIP3    H142038   0.121   6.694  -0.022 -1.3357 -0.9746  1.1417
 6825TIP3    H242039   0.192   6.828  -0.025 -0.3257 -1.4545 -3.0204
 6826TIP3   OH242040   5.949   1.898   0.454 -0.3179 -0.0435  0.2153
 6826TIP3    H142041   5.939   1.808   0.485  1.4388 -0.5289 -0.4619
 6826TIP3    H242042   6.044   1.910   0.448 -0.5244  1.8850  0.3403
 6827TIP3   OH242043   1.439   4.310   0.534 -0.8147 -0.5013  0.4180
 6827TIP3    H142044   1.392   4.333   0.454 -1.7351 -0.3585  0.9843
 6827TIP3    H242045   1.423   4.216   0.545  0.4741 -0.8308 -0.2962
 6828TIP3   OH242046   1.254   3.732   1.201  0.3127 -0.4502 -0.0087
 6828TIP3    H142047   1.294   3.668   1.142 -1.5724 -2.1211  0.3970
 6828TIP3    H242048   1.317   3.741   1.272  1.6855  0.0287 -1.2322
 6829TIP3   OH242049   5.391   4.712   1.228  0.6805  0.4545  0.3029
 6829TIP3    H142050   5.428   4.721   1.140 -0.1401  0.8427 -0.0162
 6829TIP3    H242051   5.343   4.629   1.226 -0.4772  1.1027 -0.0681
 6830TIP3   OH242052   3.891   0.727   0.082  0.1056  0.1763  0.3970
 6830TIP3    H142053   3.980   0.761   0.070 -0.4006  1.4828  0.1510
 6830TIP3    H242054   3.868   0.752   0.172  0.7247 -2.0112  1.2311
 6831TIP3   OH242055   4.706   6.442   7.604  0.1304 -0.1701 -0.0777
 6831TIP3    H142056   4.767   6.368   7.605 -0.5884 -0.8030  1.5252
 6831TIP3    H242057   4.623   6.405   7.636  0.3233  1.7348  3.0798
 6832TIP3   OH242058   5.902   4.821   7.428  0.7839  0.4787  0.2166
 6832TIP3    H142059   5.863   4.908   7.421  0.6236  0.4735  0.9803
 6832TIP3    H242060   5.828   4.761   7.421  1.0195  0.3386 -1.5131
 6833TIP3   OH242061   2.928   5.154   6.523 -0.3678 -0.2306 -0.4792
 6833TIP3    H142062   2.949   5.246   6.538 -0.4711 -0.5208  1.9136
 6833TIP3    H242063   2.836   5.146   6.549 -0.9185 -0.6878 -2.4177
 6834TIP3   OH242064   2.377   6.913   0.491 -0.4568  0.4424 -0.3741
 6834TIP3    H142065   2.299   6.928   0.545  1.9571  2.4560  2.9520
 6834TIP3    H242066   2.404   7.001   0.464  2.4477  0.2875  1.5726
 6835TIP3   OH242067   5.065   4.436   7.086 -0.1483  0.2285  0.7841
 6835TIP3    H142068   5.102   4.471   7.006 -1.2378 -0.6915 -0.1659
 6835TIP3    H242069   4.987   4.489   7.103  0.1562  0.5133  1.3261
 6836TIP3   OH242070   0.177   2.200   0.612 -0.4975 -0.2609  0.0943
 6836TIP3    H142071   0.139   2.286   0.596  0.7544  0.1405 -0.8911
 6836TIP3    H242072   0.260   2.218   0.656 -0.5391 -1.0084  0.4922
 6837TIP3   OH242073   6.915   0.478   7.526 -0.0550  0.3436  0.6216
 6837TIP3    H142074   6.972   0.447   7.455 -1.2773  1.3522 -0.8751
 6837TIP3    H242075   6.883   0.398   7.567  1.8514 -0.2491  1.0394
 6838TIP3   OH242076   4.816   2.919   0.721 -0.3619  0.2018 -0.3415
 6838TIP3    H142077   4.859   2.854   0.776  0.6917 -1.0058 -2.4445
 6838TIP3    H242078   4.826   3.001   0.769 -0.8289 -0.9866  1.9108
 6839TIP3   OH242079   6.333   2.936   7.067 -0.7755 -0.1269 -0.1512
 6839TIP3    H142080   6.397   2.979   7.010  0.2080  0.1339  1.1058
 6839TIP3    H242081   6.290   3.009   7.113 -3.0117 -0.2044 -1.9893
 6840TIP3   OH242082   0.277   5.488   0.729 -0.5307  0.5663  0.1818
 6840TIP3    H142083   0.264   5.579   0.757 -0.5387  0.3260  0.9909
 6840TIP3    H242084   0.223   5.437   0.789 -0.5421  0.0245 -0.2803
 6841TIP3   OH242085   4.232   6.492   7.462  0.2102 -0.0793 -0.2116
 6841TIP3    H142086   4.290   6.437   7.410  0.2439 -0.1278 -0.1222
 6841TIP3    H242087   4.153   6.500   7.409  0.0609 -0.5232 -0.0558
 6842TIP3   OH242088   1.736   5.307   2.033 -0.1172  0.4860  0.2464
 6842TIP3    H142089   1.784   5.228   2.058  0.5227  0.4436 -1.0449
 6842TIP3    H242090   1.782   5.378   2.077 -0.3921  0.2004  1.0124
 6843TIP3   OH242091   1.667   4.998   6.768  0.2605  0.2022  0.0782
 6843TIP3    H142092   1.635   4.909   6.782  0.6210 -0.2500 -1.7250
 6843TIP3    H242093   1.606   5.036   6.704  0.0037  1.3266  0.9558
 6844TIP3   OH242094   6.427   0.725   0.197  0.1932  0.3377  0.4520
 6844TIP3    H142095   6.510   0.683   0.219 -0.4248 -0.2485  1.7754
 6844TIP3    H242096   6.409   0.784   0.271  0.0604  1.4603 -0.4372
 6845TIP3   OH242097   0.801   6.742   1.483  0.3175  0.5950  0.1214
 6845TIP3    H142098   0.839   6.813   1.535 -1.0565  1.9726 -0.6950
 6845TIP3    H242099   0.844   6.663   1.517  0.7040  1.6078  2.1789
 6846TIP3   OH242100   6.876   6.985   0.599 -0.5920  0.0097  0.2381
 6846TIP3    H142101   6.926   7.015   0.675 -1.1896  0.3475  0.5088
 6846TIP3    H242102   6.792   7.031   0.607 -0.1993  1.0580 -1.3379
 6847TIP3   OH242103   6.254   6.271   1.169  0.1849  0.1217  0.4349
 6847TIP3    H142104   6.344   6.288   1.194 -0.0874  0.8238  0.9447
 6847TIP3    H242105   6.254   6.178   1.144  0.8231 -0.1666  1.4322
 6848TIP3   OH242106   2.950   6.715   7.462 -0.3845  0.0109  0.1026
 6848TIP3    H142107   3.013   6.651   7.496  2.0914  1.8491 -0.7175
 6848TIP3    H242108   2.928   6.770   7.536  1.2079  1.0483 -0.1571
 6849TIP3   OH242109   4.922   1.880   8.285  0.4398 -0.2039 -0.3581
 6849TIP3    H142110   4.866   1.885   8.363 -1.1787  2.3043 -1.5325
 6849TIP3    H242111   5.004   1.843   8.317  0.1501  1.4361  2.7498
 6850TIP3   OH242112   1.928   5.117   1.109 -0.1757 -0.2947 -0.1413
 6850TIP3    H142113   2.007   5.160   1.076 -0.7164  0.4719 -0.4667
 6850TIP3    H242114   1.904   5.168   1.187  0.5943 -1.5518  0.9474
 6851TIP3   OH242115   6.134   4.032   1.660  0.4535 -0.3009  0.2797
 6851TIP3    H142116   6.218   4.066   1.691  0.8307 -0.1280 -0.8974
 6851TIP3    H242117   6.129   4.060   1.569 -0.0148 -1.9211 -0.2172
 6852TIP3   OH242118   6.890   4.733   7.853  0.5257  0.4129  0.7495
 6852TIP3    H142119   6.796   4.743   7.838 -0.2761 -3.8193  1.6350
 6852TIP3    H242120   6.912   4.800   7.918 -1.4272  2.6023 -0.7204
 6853TIP3   OH242121   1.669   5.609   2.031 -0.4932 -0.2758  0.2097
 6853TIP3    H142122   1.728   5.578   2.100  0.1964 -0.6081 -0.5191
 6853TIP3    H242123   1.625   5.684   2.070 -2.0260 -1.9592  1.9431
 6854TIP3   OH242124   0.109   4.452   0.081  0.4871 -0.1112  0.5168
 6854TIP3    H142125   0.203   4.464   0.075  0.3005  2.1731  1.4740
 6854TIP3    H242126   0.082   4.435  -0.010  1.6597  0.5203  0.0248
 6855TIP3   OH242127   0.862   5.507   7.076 -0.2264  0.8771  0.3979
 6855TIP3    H142128   0.851   5.426   7.126 -1.0233  0.5063 -0.3488
 6855TIP3    H242129   0.921   5.560   7.129 -0.7974  0.3701  1.5851
 6856TIP3   OH242130   0.058   2.825   7.989  0.0041 -0.0921 -0.4465
 6856TIP3    H142131  -0.008   2.793   7.927  0.4113  0.6125 -1.2541
 6856TIP3    H242132   0.030   2.914   8.009  0.1695 -0.1373 -0.0240
 6857TIP3   OH242133   2.435   2.536   6.817 -0.7144  0.2904  0.4783
 6857TIP3    H142134   2.415   2.504   6.905 -1.0439 -1.1812 -0.1066
 6857TIP3    H242135   2.351   2.566   6.782 -1.3697 -2.5045 -0.6256
 6858TIP3   OH242136   3.147   3.018   0.555 -0.6246 -0.0416 -0.0857
 6858TIP3    H142137   3.215   3.065   0.507 -0.7121  0.3158  0.1346
 6858TIP3    H242138   3.143   3.062   0.639  0.0281 -1.1148  0.5312
 6859TIP3   OH242139   4.743   3.414   1.225 -0.0553  0.4651  0.3720
 6859TIP3    H142140   4.777   3.325   1.218  0.1242  0.5160  0.6079
 6859TIP3    H242141   4.773   3.445   1.310 -1.7784  0.0425  1.1838
 6860TIP3   OH242142   5.757   4.858   6.882  0.2407  0.0291 -0.0830
 6860TIP3    H142143   5.803   4.801   6.943  0.5724  1.6624  1.2757
 6860TIP3    H242144   5.824   4.918   6.849 -0.3327  0.4659 -0.4766
 6861TIP3   OH242145   2.599   1.612   1.051 -0.1954 -0.5226  0.0110
 6861TIP3    H142146   2.561   1.526   1.070 -0.6339 -0.2305  0.4832
 6861TIP3    H242147   2.647   1.634   1.131 -1.0596  0.1870  0.3571
 6862TIP3   OH242148   5.858   1.047   1.126  0.1137  0.1755  0.2372
 6862TIP3    H142149   5.886   1.137   1.106  2.1100 -0.7253 -1.4787
 6862TIP3    H242150   5.928   1.012   1.181 -0.9371 -0.1898  1.3760
 6863TIP3   OH242151   1.939   4.675   8.328  0.0609  0.1105  1.0411
 6863TIP3    H142152   1.867   4.616   8.352  0.2343 -0.0677  1.1245
 6863TIP3    H242153   1.969   4.711   8.412  0.1932  0.0393  1.0247
 6864TIP3   OH242154   5.913   3.878   8.341  1.4635  0.2389  0.0198
 6864TIP3    H142155   5.828   3.833   8.336  1.5151 -0.1917  2.0646
 6864TIP3    H242156   5.892   3.970   8.325  0.5107  0.1925  0.8594
 6865TIP3   OH242157   1.073   4.931   6.878 -0.0237 -0.1251 -0.1501
 6865TIP3    H142158   1.013   4.988   6.925 -1.4584 -0.7864 -1.1012
 6865TIP3    H242159   1.137   4.990   6.839 -1.0400  0.7687 -0.4985
 6866TIP3   OH242160   4.002   1.224   1.879 -0.4111 -0.4353 -0.8109
 6866TIP3    H142161   3.920   1.191   1.916 -2.0749 -0.2100 -3.9606
 6866TIP3    H242162   3.990   1.319   1.875  0.5234 -0.2775 -0.2678
 6867TIP3   OH242163   6.898   1.273   0.554 -0.2343 -0.2531 -0.0749
 6867TIP3    H142164   6.951   1.352   0.555 -1.8770  0.9035 -0.7656
 6867TIP3    H242165   6.823   1.295   0.500 -1.5884 -1.7261  1.1225
 6868TIP3   OH242166   6.152   3.892   6.213  0.5342  0.0009 -0.6334
 6868TIP3    H142167   6.167   3.834   6.287  2.0290  0.0502 -0.8797
 6868TIP3    H242168   6.139   3.834   6.138  2.0810 -0.0388 -0.8899
 6869TIP3   OH242169   4.085   2.175   0.330 -0.0741 -0.2930  0.3773
 6869TIP3    H142170   4.019   2.236   0.364  0.9684 -0.2977  2.5669
 6869TIP3    H242171   4.131   2.225   0.262  0.0144  1.0102  1.3476
 6870TIP3   OH242172   2.588   5.370   7.280 -0.1858 -0.0059  0.0587
 6870TIP3    H142173   2.561   5.462   7.281 -2.1841 -0.5201 -1.4509
 6870TIP3    H242174   2.539   5.330   7.352  0.4469  0.0077  0.5139
 6871TIP3   OH242175   1.962   5.287   8.290 -0.0526  0.0750  0.1862
 6871TIP3    H142176   1.958   5.371   8.243 -0.4455  0.1548  0.3567
 6871TIP3    H242177   1.906   5.300   8.367  0.6050 -0.0435  0.6992
 6872TIP3   OH242178   5.162   1.496   6.193 -0.4933 -0.1573 -0.3683
 6872TIP3    H142179   5.123   1.533   6.272 -0.8952 -2.2822  0.5036
 6872TIP3    H242180   5.229   1.559   6.167 -1.0454  1.0869  1.0730
 6873TIP3   OH242181   0.063   1.476   0.598  0.0960 -0.4413 -0.0135
 6873TIP3    H142182   0.088   1.567   0.579 -1.8316  0.4984  1.5973
 6873TIP3    H242183   0.079   1.467   0.692  0.0007 -1.7034 -0.1113
 6874TIP3   OH242184   3.701   4.315   1.794 -0.4625  0.3556 -0.3254
 6874TIP3    H142185   3.629   4.316   1.858 -1.0787  0.5431 -1.0129
 6874TIP3    H242186   3.666   4.268   1.719 -0.2344  1.3788 -1.0924
 6875TIP3   OH242187   0.294   6.535   7.278  0.2747  0.2303 -0.3590
 6875TIP3    H142188   0.299   6.443   7.253  4.1026  0.2274 -0.2680
 6875TIP3    H242189   0.304   6.535   7.373  0.6144  0.7130 -0.3849
 6876TIP3   OH242190   1.759   1.327   2.323 -0.2697  0.1889  1.3352
 6876TIP3    H142191   1.853   1.324   2.306 -0.2056  2.2103  1.0176
 6876TIP3    H242192   1.724   1.249   2.281  0.9270  0.8441 -1.0552
 6877TIP3   OH242193   0.916   2.743   7.274 -0.4510 -0.3310 -0.1349
 6877TIP3    H142194   0.843   2.773   7.328  0.4237  0.8201  0.4515
 6877TIP3    H242195   0.892   2.770   7.185 -0.9130 -0.3019 -0.0039
 6878TIP3   OH242196   0.146   2.439   2.178  0.3839 -0.7803  0.2728
 6878TIP3    H142197   0.136   2.484   2.094  2.0376  0.1055  0.5003
 6878TIP3    H242198   0.060   2.446   2.220 -0.1522 -0.2488 -0.8735
 6879TIP3   OH242199   3.946   2.966   1.932 -0.1038  0.1058 -0.2262
 6879TIP3    H142200   3.893   2.892   1.960 -2.0615  2.0410  1.7099
 6879TIP3    H242201   3.978   3.004   2.014  2.1859  0.5287 -1.2376
 6880TIP3   OH242202   5.802   5.222   7.098 -0.3917 -0.2139  0.1596
 6880TIP3    H142203   5.707   5.229   7.109 -0.6038 -1.9275 -0.1812
 6880TIP3    H242204   5.813   5.154   7.031  1.0759 -0.0065  0.1502
 6881TIP3   OH242205   4.986   0.772   7.993  0.5004  0.0187  0.2888
 6881TIP3    H142206   4.979   0.686   8.034 -0.8224  0.5093  1.1379
 6881TIP3    H242207   5.040   0.823   8.053 -1.8793  0.9016  1.8209
 6882TIP3   OH242208   2.654   0.985   1.229 -0.0008 -0.0901  0.3933
 6882TIP3    H142209   2.632   1.020   1.316 -0.1507  2.4254 -0.5639
 6882TIP3    H242210   2.589   1.023   1.171  0.4640 -1.2377 -0.9324
 6883TIP3   OH242211   4.077   0.540   6.744  0.1960 -0.1161 -0.0118
 6883TIP3    H142212   4.126   0.458   6.742  2.5053  1.2125 -1.2908
 6883TIP3    H242213   4.014   0.528   6.816 -0.1081 -3.2541 -0.6372
 6884TIP3   OH242214   4.461   3.491   7.545 -0.4133 -0.1815 -0.0227
 6884TIP3    H142215   4.460   3.397   7.525 -1.4338 -0.3807  0.8622
 6884TIP3    H242216   4.392   3.502   7.611  0.9225  0.8918  1.2694
 6885TIP3   OH242217   5.317   1.098   0.674  0.3288 -0.7160  0.4250
 6885TIP3    H142218   5.376   1.081   0.748  1.1387  1.2363  0.2934
 6885TIP3    H242219   5.374   1.091   0.597  0.3082  0.6436  0.2579
 6886TIP3   OH242220   3.876   3.351   7.330  0.6212  0.0363  0.1540
 6886TIP3    H142221   3.818   3.427   7.336 -0.7498 -0.9108 -0.4069
 6886TIP3    H242222   3.961   3.386   7.305  0.2068  1.4436  0.6512
 6887TIP3   OH242223   5.428   3.085   7.980  0.4319 -0.5828  0.4673
 6887TIP3    H142224   5.408   3.002   7.937 -2.0175 -0.8098  1.8123
 6887TIP3    H242225   5.516   3.107   7.951  0.0988 -2.2184 -2.1645
 6888TIP3   OH242226   1.140   1.591   8.325 -0.4990  0.4488 -0.2128
 6888TIP3    H142227   1.172   1.560   8.240  0.8039  1.4597 -0.1325
 6888TIP3    H242228   1.045   1.580   8.320 -0.5999  1.5884 -2.3014
 6889TIP3   OH242229   4.084   1.691   2.371  0.0285  0.2372  0.1396
 6889TIP3    H142230   4.015   1.633   2.403  1.4202 -1.1643  0.7233
 6889TIP3    H242231   4.078   1.686   2.276 -1.2376  0.8562  0.1681
 6890TIP3   OH242232   0.185   2.274   7.699 -0.4625  0.1746 -0.0178
 6890TIP3    H142233   0.145   2.337   7.759 -0.6515  0.3363 -0.3141
 6890TIP3    H242234   0.111   2.239   7.649 -0.1124  1.4273 -1.4863
 6891TIP3   OH242235   4.957   0.158   1.613 -0.1502 -0.0104  0.2059
 6891TIP3    H142236   4.884   0.170   1.552 -0.5187  0.2797  0.6992
 6891TIP3    H242237   4.988   0.247   1.631  0.8084 -0.1726 -0.5726
 6892TIP3   OH242238   4.717   0.913   6.066  0.3535 -0.4737 -0.4049
 6892TIP3    H142239   4.733   0.836   6.121 -1.0820 -0.7836 -0.4035
 6892TIP3    H242240   4.634   0.896   6.024 -0.7333  1.7036  0.6871
 6893TIP3   OH242241   6.098   4.922   7.782  0.0212  0.8345  0.0129
 6893TIP3    H142242   6.131   4.999   7.827  1.0087  1.1693 -1.2263
 6893TIP3    H242243   6.034   4.957   7.719 -0.7687  0.4573  0.5928
 6894TIP3   OH242244   5.000   5.460   8.221  0.2109 -0.0245 -0.3211
 6894TIP3    H142245   4.932   5.401   8.254  1.1185  0.3665  2.5053
 6894TIP3    H242246   4.982   5.466   8.127 -3.1000 -0.6216  0.1296
 6895TIP3   OH242247   2.957   4.399   1.219  0.0752 -0.1938  0.5577
 6895TIP3    H142248   2.912   4.469   1.266  0.5736  0.4688  0.0695
 6895TIP3    H242249   3.046   4.400   1.254  1.1247  1.7819 -1.8254
 6896TIP3   OH242250   1.135   4.327   1.660 -0.5311 -0.4859 -0.2865
 6896TIP3    H142251   1.227   4.307   1.644 -0.2614 -0.5207  1.1464
 6896TIP3    H242252   1.121   4.306   1.752 -1.5631  1.0133 -0.0544
 6897TIP3   OH242253   3.227   0.109   0.471 -0.0425  0.6315 -0.1516
 6897TIP3    H142254   3.152   0.156   0.507 -0.7529  0.1294 -0.9328
 6897TIP3    H242255   3.248   0.042   0.537  0.2832  1.3184  0.4610
 6898TIP3   OH242256   5.839   4.007   8.050 -0.3323 -0.1459  0.5510
 6898TIP3    H142257   5.893   4.042   8.121 -0.5982 -0.2468  0.8024
 6898TIP3    H242258   5.752   4.042   8.067  0.1134  2.1647 -1.2647
 6899TIP3   OH242259   2.615   2.487   6.608 -0.3850 -0.4645 -0.2492
 6899TIP3    H142260   2.558   2.520   6.677  0.5731 -0.6078  0.6402
 6899TIP3    H242261   2.558   2.478   6.532 -0.5942  3.9101 -0.8485
 6900TIP3   OH242262   0.161   0.430   1.943  0.2642  0.0722  0.3203
 6900TIP3    H142263   0.089   0.425   2.006 -0.7928  0.6354 -0.7839
 6900TIP3    H242264   0.150   0.352   1.889 -0.3951  0.8645 -0.7240
 6901TIP3   OH242265   4.546   3.224   8.267  0.3231  0.5828 -0.1175
 6901TIP3    H142266   4.625   3.180   8.298  0.1781  0.4555  0.0690
 6901TIP3    H242267   4.487   3.224   8.342 -0.1701 -0.0561 -0.4885
 6902TIP3   OH242268   1.232   7.012   8.352 -0.0118 -0.6372  0.0790
 6902TIP3    H142269   1.161   7.072   8.331  0.5627  0.7422  1.8347
 6902TIP3    H242270   1.220   6.992   8.445  2.0603 -0.0868  0.5136
 6903TIP3   OH242271   2.999   3.175   2.339  0.1428 -0.3152 -0.1728
 6903TIP3    H142272   3.092   3.194   2.323  0.0569 -0.9310 -1.5340
 6903TIP3    H242273   2.955   3.258   2.320  0.4053  0.0493  0.7027
 6904TIP3   OH242274   1.210   2.877   1.254 -0.0427  0.1449  0.1954
 6904TIP3    H142275   1.144   2.905   1.317  0.9385  0.4553  1.1266
 6904TIP3    H242276   1.188   2.924   1.174 -1.9002 -1.0082 -0.0291
 6905TIP3   OH242277   2.952   6.469   0.841  0.0575 -0.2421 -0.2737
 6905TIP3    H142278   2.953   6.552   0.794  0.2135  0.4801  0.9698
 6905TIP3    H242279   2.860   6.445   0.845 -0.2547  1.0620  1.3556
 6906TIP3   OH242280   0.222   1.512   1.559  0.2424 -0.4468  0.4541
 6906TIP3    H142281   0.275   1.433   1.571  1.9113  0.7801  1.6237
 6906TIP3    H242282   0.264   1.558   1.486 -0.0686 -0.1054  0.4863
 6907TIP3   OH242283   4.828   6.035   7.460  0.4801  0.1739  0.5536
 6907TIP3    H142284   4.845   6.124   7.491  0.8538 -0.1227  1.2266
 6907TIP3    H242285   4.819   5.983   7.540 -0.7303 -0.2230  0.1914
 6908TIP3   OH242286   1.974   1.538   7.128  0.6524 -0.0369  0.5658
 6908TIP3    H142287   2.064   1.552   7.097  0.2666 -0.5075 -0.8188
 6908TIP3    H242288   1.970   1.586   7.211  1.2845  2.5830 -0.8212
 6909TIP3   OH242289   3.987   3.853   7.407  0.3718  0.0920 -0.1298
 6909TIP3    H142290   4.049   3.835   7.478 -0.9241 -1.4093  0.6922
 6909TIP3    H242291   4.040   3.892   7.338  1.7458  1.2684  1.5078
 6910TIP3   OH242292   0.316   3.113   1.195  0.2294 -0.0386 -0.1149
 6910TIP3    H142293   0.345   3.051   1.128  0.6997 -0.4680  0.4762
 6910TIP3    H242294   0.372   3.096   1.270  0.2402  0.9795  0.1309
 6911TIP3   OH242295   5.939   2.885   2.257  0.0219 -0.0522  0.1562
 6911TIP3    H142296   5.997   2.957   2.278  0.6940 -0.6474  0.3771
 6911TIP3    H242297   5.857   2.905   2.303  0.1794  0.5841  0.1672
 6912TIP3   OH242298   3.466   1.906   7.056 -0.2946  0.2509  0.3712
 6912TIP3    H142299   3.520   1.975   7.018 -1.9415  0.8529 -0.9373
 6912TIP3    H242300   3.528   1.854   7.108  1.4180  1.2681 -0.5750
 6913TIP3   OH242301   3.110   5.895   2.169 -0.4198  0.3023  0.4125
 6913TIP3    H142302   3.159   5.814   2.158 -2.2968 -0.9455  0.7214
 6913TIP3    H242303   3.177   5.963   2.176  1.1791 -1.0012 -1.3331
 6914TIP3   OH242304   6.874   5.631   7.454 -0.3037  0.2845  0.0718
 6914TIP3    H142305   6.829   5.547   7.461 -1.9552  1.0618 -0.7001
 6914TIP3    H242306   6.956   5.612   7.408 -2.5213 -0.3524 -4.0657
 6915TIP3   OH242307   2.012   1.151   0.426  0.3591 -0.0736 -1.0011
 6915TIP3    H142308   2.005   1.107   0.341 -1.7082 -0.5496 -0.6318
 6915TIP3    H242309   1.925   1.188   0.441  1.1822  1.5369  0.1137
 6916TIP3   OH242310   3.632   4.980   8.017 -0.0521  0.0069  0.2854
 6916TIP3    H142311   3.570   4.917   8.053 -1.3137  0.9232 -0.2132
 6916TIP3    H242312   3.640   5.047   8.085 -0.6513  0.5579 -0.1708
 6917TIP3   OH242313   6.926   4.254   6.734  0.1360  0.0294 -0.0946
 6917TIP3    H142314   6.988   4.309   6.783 -0.3630  1.5397 -1.0793
 6917TIP3    H242315   6.866   4.317   6.694 -0.7815 -1.2936 -0.8490
 6918TIP3   OH242316   6.404   0.942   2.027  0.2707 -0.8512  0.0817
 6918TIP3    H142317   6.447   1.024   2.003 -1.5315 -0.3550 -1.7820
 6918TIP3    H242318   6.454   0.874   1.983 -0.4741 -0.3211 -1.7010
 6919TIP3   OH242319   6.824   6.912   6.795  0.1244 -0.7851 -0.1150
 6919TIP3    H142320   6.814   6.974   6.868 -1.1713  0.8372 -1.6027
 6919TIP3    H242321   6.917   6.888   6.798  0.3341  0.0454  1.4317
 6920TIP3   OH242322   6.437   4.205   0.174 -0.1838  0.1688  0.3518
 6920TIP3    H142323   6.386   4.255   0.238 -2.9536  0.3376 -1.7440
 6920TIP3    H242324   6.467   4.271   0.112  1.2900 -0.1354  0.7236
 6921TIP3   OH242325   1.387   1.556   6.535  0.1024  0.2255 -0.2076
 6921TIP3    H142326   1.370   1.515   6.451 -1.3727 -0.1649  0.2348
 6921TIP3    H242327   1.392   1.482   6.597 -1.7482  0.6051  0.4640
 6922TIP3   OH242328   3.307   2.610   6.544 -0.1284  0.2250 -0.1537
 6922TIP3    H142329   3.384   2.618   6.488 -1.1586 -1.1214 -1.8533
 6922TIP3    H242330   3.232   2.610   6.484 -1.3849  0.0867  1.3212
 6923TIP3   OH242331   2.420   4.316   0.722 -0.0852 -0.1746 -0.1976
 6923TIP3    H142332   2.447   4.383   0.785  2.8098 -0.6170 -0.8127
 6923TIP3    H242333   2.387   4.365   0.647  0.5946  0.5320 -0.0481
 6924TIP3   OH242334   1.954   1.135   6.750 -0.6195  0.0567  0.0866
 6924TIP3    H142335   1.982   1.102   6.664  1.1446  0.2949  0.5131
 6924TIP3    H242336   1.972   1.063   6.810 -0.1417  0.5168  0.5046
 6925TIP3   OH242337   5.768   1.472   1.200 -0.6637  0.3685  0.0019
 6925TIP3    H142338   5.820   1.500   1.125 -1.1641 -0.2812 -0.5932
 6925TIP3    H242339   5.810   1.391   1.229 -0.1620  0.8780  0.7564
 6926TIP3   OH242340   2.023   3.847   0.883  0.2158  0.4188  0.1345
 6926TIP3    H142341   2.008   3.936   0.852 -2.2335 -0.3720 -1.2644
 6926TIP3    H242342   1.994   3.791   0.811  1.6589 -1.5485  0.9696
 6927TIP3   OH242343   5.388   5.347   1.909 -0.1420 -0.7231 -0.3989
 6927TIP3    H142344   5.431   5.346   1.994 -0.9754  0.6680  0.0722
 6927TIP3    H242345   5.353   5.259   1.899 -1.5110 -0.4528  1.4934
 6928TIP3   OH242346   0.986   6.562   7.996  0.5764  0.3198  0.7508
 6928TIP3    H142347   0.985   6.488   7.936 -1.5736  0.3627  0.6355
 6928TIP3    H242348   1.078   6.576   8.017  1.3675  0.0076 -2.1408
 6929TIP3   OH242349   6.180   3.490   7.973 -0.3437  0.4733 -0.8045
 6929TIP3    H142350   6.118   3.560   7.992  0.5782  1.2769 -0.6555
 6929TIP3    H242351   6.155   3.458   7.886 -2.2709 -0.6939  0.1195
 6930TIP3   OH242352   1.915   0.155   1.093  0.6543  0.4356 -0.5864
 6930TIP3    H142353   1.840   0.112   1.051  0.8623 -0.2008 -0.3150
 6930TIP3    H242354   1.877   0.223   1.147  0.3356  0.8041 -1.2572
 6931TIP3   OH242355   0.414   1.732   1.944  0.3623  0.1687 -0.0124
 6931TIP3    H142356   0.467   1.654   1.960  0.2359  0.5159  2.4500
 6931TIP3    H242357   0.332   1.699   1.909  0.2658 -0.8383  1.1068
 6932TIP3   OH242358   1.709   6.496   7.540  0.0106  0.1645  0.1955
 6932TIP3    H142359   1.762   6.537   7.608 -0.0848  0.5804  0.0260
 6932TIP3    H242360   1.687   6.410   7.575  3.3296 -1.3027 -0.9608
 6933TIP3   OH242361   0.081   5.349   0.890 -0.1383  0.0731  0.6745
 6933TIP3    H142362   0.094   5.270   0.942  1.5940  0.1758  0.4531
 6933TIP3    H242363  -0.011   5.346   0.864  0.0934 -2.3449 -0.1008
 6934TIP3   OH242364   0.309   6.929   6.968  0.0952 -0.1136 -0.3497
 6934TIP3    H142365   0.359   6.851   6.993  0.8579  0.9721  1.8088
 6934TIP3    H242366   0.358   7.002   7.006 -1.2953  1.3189 -1.1791
 6935TIP3   OH242367   5.974   1.834   1.297 -0.5319  0.0343  0.0079
 6935TIP3    H142368   6.029   1.776   1.349 -0.4367 -0.5242 -0.6890
 6935TIP3    H242369   6.022   1.844   1.214 -0.7155  0.8295 -0.0100
 6936TIP3   OH242370   1.447   1.688   1.809 -0.1839 -0.1399 -0.4796
 6936TIP3    H142371   1.422   1.732   1.891 -1.3034  0.3533 -1.0650
 6936TIP3    H242372   1.520   1.631   1.834 -0.9637 -0.5400  1.0273
 6937TIP3   OH242373   0.427   5.067   6.274  0.3047 -0.5799 -0.0428
 6937TIP3    H142374   0.519   5.088   6.259 -0.1003  0.6253 -0.9194
 6937TIP3    H242375   0.416   4.981   6.233  0.7401 -0.1620 -1.0671
 6938TIP3   OH242376   0.132   6.576   8.227  0.7038 -0.1708 -0.6068
 6938TIP3    H142377   0.217   6.585   8.184  0.3598 -0.6587 -1.4115
 6938TIP3    H242378   0.118   6.482   8.233  1.1052 -0.1524  1.3562
 6939TIP3   OH242379   2.302   1.726   0.901  0.0782  0.1621 -0.1840
 6939TIP3    H142380   2.307   1.800   0.962  0.8584  0.2726 -0.3669
 6939TIP3    H242381   2.209   1.716   0.884 -0.2311 -0.3760  1.6254
 6940TIP3   OH242382   3.222   0.069   1.080  0.0894  0.4158  0.0980
 6940TIP3    H142383   3.314   0.096   1.071 -0.0779  1.3409  1.0183
 6940TIP3    H242384   3.221  -0.021   1.047  1.3698  0.3128  0.2692
 6941TIP3   OH242385   1.669   4.727   2.016  0.4244  0.2625 -0.1270
 6941TIP3    H142386   1.610   4.802   2.005 -0.0508 -0.1349 -0.2986
 6941TIP3    H242387   1.679   4.693   1.927  1.2945  0.6116 -0.1737
 6942TIP3   OH242388   2.946   2.676   1.101 -0.0603 -0.1205  0.2265
 6942TIP3    H142389   3.003   2.612   1.058 -0.0988 -0.1244  0.1810
 6942TIP3    H242390   2.999   2.709   1.174  0.6667  1.1580 -0.8245
 6943TIP3   OH242391   5.459   4.941   0.611  0.1696 -0.2542  0.3494
 6943TIP3    H142392   5.452   4.848   0.632  0.3427 -0.3876 -0.1797
 6943TIP3    H242393   5.375   4.978   0.637 -0.6105 -0.8902 -1.1237
 6944TIP3   OH242394   3.041   4.856   0.892 -0.2597 -0.3867  0.0778
 6944TIP3    H142395   2.990   4.936   0.881  0.8463  0.3497  0.1386
 6944TIP3    H242396   3.114   4.882   0.948  0.0629 -1.4679  0.1743
 6945TIP3   OH242397   5.719   3.760   7.975 -0.6008  0.3695 -0.0437
 6945TIP3    H142398   5.642   3.710   8.003 -0.0429  0.3648  1.5536
 6945TIP3    H242399   5.727   3.831   8.038 -0.0900  1.1907 -1.0039
 6946TIP3   OH242400   1.001   6.526   7.604 -0.4107 -0.1322  0.1154
 6946TIP3    H142401   0.923   6.472   7.619  0.0342 -1.3949 -1.6910
 6946TIP3    H242402   1.053   6.515   7.684 -0.7286 -1.7588  0.1470
 6947TIP3   OH242403   2.970   1.995   6.314 -0.3480  0.3426 -0.3362
 6947TIP3    H142404   3.056   2.010   6.274 -0.6674 -0.1974 -1.2402
 6947TIP3    H242405   2.974   1.905   6.345 -0.5081  0.3997 -0.1484
 6948TIP3   OH242406   5.616   5.264   7.739 -0.5191 -0.6071 -0.4557
 6948TIP3    H142407   5.610   5.282   7.833 -1.0007  0.3144 -0.6533
 6948TIP3    H242408   5.682   5.326   7.707 -1.0535 -0.2508 -0.8839
 6949TIP3   OH242409   2.246   0.187   7.588  0.8373  0.9459  0.2183
 6949TIP3    H142410   2.259   0.281   7.577 -0.6790  1.1455 -0.1649
 6949TIP3    H242411   2.216   0.177   7.678 -0.1431  1.0013 -0.0826
 6950TIP3   OH242412   1.248   2.459   2.328  0.4734 -0.1563 -0.0719
 6950TIP3    H142413   1.187   2.410   2.383 -0.8840  0.2555 -1.1309
 6950TIP3    H242414   1.283   2.528   2.385  0.7183 -1.0016  0.8212
 6951TIP3   OH242415   2.334   0.726   6.191 -0.4858 -0.1035  0.1267
 6951TIP3    H142416   2.299   0.670   6.122  0.6358  1.1922 -1.5548
 6951TIP3    H242417   2.429   0.727   6.176 -0.3036  0.8117  1.2133
 6952TIP3   OH242418   3.804   6.320   7.384 -0.5401 -0.0089 -0.2258
 6952TIP3    H142419   3.869   6.305   7.453 -1.2307 -2.3445  0.0346
 6952TIP3    H242420   3.849   6.374   7.319  1.2580 -0.5335  0.5104
 6953TIP3   OH242421   5.491   2.688   0.291 -0.2297  0.2143  0.1333
 6953TIP3    H142422   5.405   2.698   0.248 -0.2200 -2.2810 -0.6388
 6953TIP3    H242423   5.550   2.666   0.219  0.1359 -2.3642  1.1201
 6954TIP3   OH242424   5.728   3.677   1.671  0.0147 -0.2731  0.8111
 6954TIP3    H142425   5.756   3.587   1.687  2.1824 -0.1962 -1.7556
 6954TIP3    H242426   5.764   3.727   1.744  1.4154 -1.1067  0.7296
 6955TIP3   OH242427   3.505   4.949   7.725  0.0185 -0.3140  0.5765
 6955TIP3    H142428   3.559   4.922   7.650 -0.1923  0.5340  0.1054
 6955TIP3    H242429   3.567   4.953   7.798  0.7136  1.0390 -0.0426
 6956TIP3   OH242430   4.697   4.294   6.804 -0.4956 -0.0645 -0.2169
 6956TIP3    H142431   4.761   4.227   6.828  0.0578  0.5880  0.1538
 6956TIP3    H242432   4.640   4.302   6.880 -0.2377  0.2492 -0.0500
 6957TIP3   OH242433   3.489   5.611   2.453  0.2123  0.2012 -0.0177
 6957TIP3    H142434   3.397   5.584   2.457  0.0745  0.6351 -0.1184
 6957TIP3    H242435   3.493   5.690   2.508  0.2339  0.9518 -1.0642
 6958TIP3   OH242436   2.151   3.184   2.189  0.3792  0.2263  0.2599
 6958TIP3    H142437   2.164   3.279   2.185  1.6011  0.1100  0.8519
 6958TIP3    H242438   2.092   3.172   2.263 -0.0157  0.5455 -0.0000
 6959TIP3   OH242439   1.378   5.791   7.652 -0.5077 -0.3102  0.0017
 6959TIP3    H142440   1.412   5.855   7.714  0.6755 -1.6052  0.7466
 6959TIP3    H242441   1.373   5.709   7.702  0.8417 -1.4861 -1.6835
 6960TIP3   OH242442   5.856   3.031   6.750  0.0294  0.3817 -0.0980
 6960TIP3    H142443   5.876   3.047   6.657 -1.1351 -0.3033 -0.4800
 6960TIP3    H242444   5.933   2.984   6.783 -1.2332 -3.2231 -1.8089
 6961TIP3   OH242445   3.176   5.671   7.612  0.0577 -0.0759  0.3552
 6961TIP3    H142446   3.250   5.678   7.552 -0.2645  2.3615  0.1360
 6961TIP3    H242447   3.217   5.654   7.697  1.0187  2.2266  0.4224
 6962TIP3   OH242448   3.170   3.408   0.353  0.1693 -0.0871  0.1515
 6962TIP3    H142449   3.086   3.428   0.312  0.2813  0.6555  0.2768
 6962TIP3    H242450   3.147   3.347   0.424 -0.0664 -1.0759 -0.7523
 6963TIP3   OH242451   0.762   0.222   0.866 -0.3669  0.8010  0.6070
 6963TIP3    H142452   0.773   0.143   0.813  0.5180  1.2568  0.0862
 6963TIP3    H242453   0.723   0.191   0.948  1.5495 -0.4477  1.1246
 6964TIP3   OH242454   1.526   5.325   1.737 -0.3136 -0.5563 -0.1662
 6964TIP3    H142455   1.435   5.300   1.721  0.0388 -0.7439 -2.0822
 6964TIP3    H242456   1.553   5.271   1.811 -1.4829 -1.1728 -0.1667
 6965TIP3   OH242457   5.552   2.265   0.958 -0.1466  0.0095 -0.1316
 6965TIP3    H142458   5.578   2.237   0.870 -1.1997 -1.3734 -0.0525
 6965TIP3    H242459   5.475   2.211   0.978  0.6680 -0.4630  2.0433
 6966TIP3   OH242460   4.231   1.992   8.180 -0.3461  0.1843  0.0630
 6966TIP3    H142461   4.149   1.998   8.229  1.8057  1.5183  3.9212
 6966TIP3    H242462   4.258   2.084   8.168  1.1706 -0.2379  0.0203
 6967TIP3   OH242463   6.719   2.844   2.638 -0.5929  0.6926  0.0546
 6967TIP3    H142464   6.648   2.803   2.589 -0.2515 -1.9710  1.6025
 6967TIP3    H242465   6.796   2.831   2.583 -0.6333 -0.0436  0.1614
 6968TIP3   OH242466   6.006   5.704   1.899 -0.1270  0.0324  0.0768
 6968TIP3    H142467   5.931   5.757   1.928 -0.4744 -0.1823 -0.4201
 6968TIP3    H242468   5.983   5.615   1.925 -0.1194 -0.0558 -0.2186
 6969TIP3   OH242469   6.571   5.956   0.385  0.4396 -0.2237 -0.5532
 6969TIP3    H142470   6.513   5.968   0.309  0.4811 -2.6763 -1.0741
 6969TIP3    H242471   6.645   5.905   0.351  1.6355  0.6452  0.6634
 6970TIP3   OH242472   6.635   3.630   2.461  0.5534 -0.2914 -0.0984
 6970TIP3    H142473   6.629   3.708   2.406 -0.3398 -1.4252 -1.6992
 6970TIP3    H242474   6.583   3.651   2.538  0.0857  0.6126 -0.6368
 6971TIP3   OH242475   1.873   1.661   8.091  0.0183  0.3211  0.5854
 6971TIP3    H142476   1.902   1.571   8.110  1.2122  0.7166  0.7297
 6971TIP3    H242477   1.823   1.687   8.169  0.1165 -0.0394  0.7708
 6972TIP3   OH242478   2.246   6.683   7.033  0.3189 -0.5661  0.1038
 6972TIP3    H142479   2.182   6.655   6.967 -0.4649 -0.7437  0.9229
 6972TIP3    H242480   2.329   6.689   6.985 -0.2132 -0.8054 -0.8689
 6973TIP3   OH242481   4.974   5.748   7.379  0.4925 -0.1913  0.4854
 6973TIP3    H142482   4.885   5.777   7.400  0.2616 -1.0432  0.7435
 6973TIP3    H242483   5.020   5.828   7.355 -0.5566  0.1646 -0.4537
 6974TIP3   OH242484   6.314   6.749   0.809  0.2176  0.3357 -0.3009
 6974TIP3    H142485   6.321   6.666   0.855  1.6515  0.5683 -0.0379
 6974TIP3    H242486   6.398   6.758   0.762  0.7771  2.3450  0.9459
 6975TIP3   OH242487   2.802   2.740   0.690 -0.0851  0.4839 -0.0284
 6975TIP3    H142488   2.825   2.651   0.717 -2.0288  0.3796  1.5117
 6975TIP3    H242489   2.840   2.796   0.758 -0.0140  0.7126 -0.2574
 6976TIP3   OH242490   1.860   6.276   1.281  0.2616 -0.4943  0.0941
 6976TIP3    H142491   1.949   6.302   1.256  0.4769 -1.3529 -0.0371
 6976TIP3    H242492   1.822   6.239   1.201 -0.1311 -0.3611  0.2164
 6977TIP3   OH242493   0.579   6.291   7.782 -0.4554  0.0968 -0.7999
 6977TIP3    H142494   0.614   6.285   7.871 -1.9848  1.5177 -0.0437
 6977TIP3    H242495   0.493   6.331   7.793 -1.3889 -1.2333 -2.7816
 6978TIP3   OH242496   4.777   7.001   6.197 -0.4108 -0.1763  0.3292
 6978TIP3    H142497   4.808   7.037   6.114  0.8088 -1.7871  0.0437
 6978TIP3    H242498   4.705   6.942   6.173  0.4735 -1.2666  0.3095
 6979TIP3   OH242499   4.497   2.624   0.820  0.2870  0.6592  0.2779
 6979TIP3    H142500   4.493   2.720   0.823  1.9853  0.7409  1.0524
 6979TIP3    H242501   4.591   2.604   0.825  0.0259 -1.0308 -0.8531
 6980TIP3   OH242502   3.622   0.074   8.284 -0.3449  0.0720  0.1524
 6980TIP3    H142503   3.653   0.085   8.194 -0.2977 -1.7395 -0.0876
 6980TIP3    H242504   3.611   0.164   8.317  2.4446  0.8053 -0.6696
 6981TIP3   OH242505   4.589   5.800   7.844  0.5757  0.1753 -0.5658
 6981TIP3    H142506   4.562   5.856   7.917 -0.3146 -0.2319 -0.5676
 6981TIP3    H242507   4.586   5.711   7.879  2.0900  0.1116 -0.5318
 6982TIP3   OH242508   1.911   3.072   7.391 -0.1157 -0.0114  0.2616
 6982TIP3    H142509   1.962   3.009   7.442  0.7539 -0.0463 -0.6109
 6982TIP3    H242510   1.937   3.158   7.426 -0.6221 -0.0893  0.8437
 6983TIP3   OH242511   3.980   1.355   7.742 -0.4954 -0.0812 -0.1847
 6983TIP3    H142512   3.916   1.313   7.684 -0.6687  3.2066 -2.6736
 6983TIP3    H242513   4.059   1.363   7.689  0.0838  1.0492  0.8060
 6984TIP3   OH242514   1.028   3.037   7.046 -0.6873 -0.0483  0.3245
 6984TIP3    H142515   1.035   3.112   6.988 -2.1392  1.3897  1.8940
 6984TIP3    H242516   0.972   2.975   6.999  0.6539 -0.2729 -1.0528
 6985TIP3   OH242517   1.430   1.264   0.513 -0.1779  0.1828 -0.5752
 6985TIP3    H142518   1.382   1.340   0.546 -1.0243 -0.4620 -0.2957
 6985TIP3    H242519   1.486   1.237   0.585  0.4325  0.7821 -0.8149
 6986TIP3   OH242520   6.749   2.966   7.035 -0.3149 -0.0151  0.6018
 6986TIP3    H142521   6.811   2.895   7.016 -0.4219 -0.0810  0.5014
 6986TIP3    H242522   6.684   2.961   6.965  1.8533  2.7604 -1.8308
 6987TIP3   OH242523   1.384   1.731   7.846  0.0552  0.3664 -0.2850
 6987TIP3    H142524   1.437   1.761   7.772 -0.2549  1.2340 -0.1656
 6987TIP3    H242525   1.338   1.654   7.813  0.4817  0.3089 -0.7618
 6988TIP3   OH242526   3.673   5.535   0.360 -0.1622  0.2538 -0.5084
 6988TIP3    H142527   3.662   5.597   0.288  0.3072  0.7002 -0.1986
 6988TIP3    H242528   3.767   5.516   0.361 -0.0577  0.7543  0.3952
 6989TIP3   OH242529   1.753   6.962   7.262 -0.0798 -0.5934  0.1785
 6989TIP3    H142530   1.742   7.043   7.311  0.2594  0.7493 -1.8447
 6989TIP3    H242531   1.834   6.974   7.213 -0.1416 -2.0769 -0.3492
 6990TIP3   OH242532   4.003   3.792   6.789  0.3312 -0.7420  0.4331
 6990TIP3    H142533   4.059   3.718   6.810  0.4370 -0.6349  0.5224
 6990TIP3    H242534   3.923   3.752   6.753  1.4481 -0.8551 -2.1741
 6991TIP3   OH242535   2.161   6.462   8.090  0.0527 -0.2237  0.2933
 6991TIP3    H142536   2.096   6.528   8.064 -0.1039 -0.6458 -0.4432
 6991TIP3    H242537   2.138   6.386   8.037  0.6956 -0.6194  0.5837
 6992TIP3   OH242538   5.676   2.485   2.151 -0.1135  0.0185  0.2421
 6992TIP3    H142539   5.760   2.467   2.195  0.5981  2.5546  0.0606
 6992TIP3    H242540   5.662   2.578   2.164 -2.3995 -0.1431 -0.7071
 6993TIP3   OH242541   4.558   2.470   7.113 -0.5291 -0.0347  0.2122
 6993TIP3    H142542   4.555   2.375   7.107 -2.1579 -0.0640  0.7992
 6993TIP3    H242543   4.632   2.489   7.171 -0.2939 -0.9391  0.2116
 6994TIP3   OH242544   2.544   5.291   0.430 -0.7313  0.1262 -0.1109
 6994TIP3    H142545   2.512   5.380   0.444 -0.3604  0.2568 -0.1044
 6994TIP3    H242546   2.583   5.292   0.343 -1.4758 -0.2466 -0.4631
 6995TIP3   OH242547   3.504   4.954   0.855  0.4587  0.3135 -0.5507
 6995TIP3    H142548   3.465   5.007   0.785 -1.6826  0.8962  0.9585
 6995TIP3    H242549   3.428   4.913   0.898  1.6057  0.4790  1.7845
 6996TIP3   OH242550   1.181   0.640   7.468  0.1533 -0.2057  0.2706
 6996TIP3    H142551   1.232   0.571   7.424 -1.2316 -0.5726 -0.8559
 6996TIP3    H242552   1.240   0.715   7.471  0.9992 -0.8213 -0.3535
 6997TIP3   OH242553   6.320   0.303   1.285 -0.6246  0.7813 -0.4842
 6997TIP3    H142554   6.278   0.285   1.201 -0.9444 -0.8185 -0.0231
 6997TIP3    H242555   6.248   0.325   1.344 -0.2917  3.3175 -0.8933
 6998TIP3   OH242556   3.653   2.368   0.485  0.3698 -0.1253 -0.5034
 6998TIP3    H142557   3.602   2.287   0.488  0.2725 -0.0494  0.0895
 6998TIP3    H242558   3.604   2.424   0.425  0.8324 -0.7622 -1.4850
 6999TIP3   OH242559   1.951   0.461   7.330  0.7179 -0.5414  0.4835
 6999TIP3    H142560   1.954   0.534   7.268  0.9267  0.0877  1.2062
 6999TIP3    H242561   1.911   0.389   7.282 -2.6417  1.0100  0.6832
 7000TIP3   OH242562   0.645   4.682   6.770 -0.6289  0.0123 -0.5867
 7000TIP3    H142563   0.581   4.689   6.841  1.3796 -0.8028  1.4206
 7000TIP3    H242564   0.649   4.588   6.752  1.7770 -0.2992  1.1462
 7001TIP3   OH242565   0.982   6.040   1.842  0.2558 -0.2088  0.6870
 7001TIP3    H142566   0.965   6.129   1.873  0.5757  0.0463  0.1308
 7001TIP3    H242567   1.052   6.049   1.778 -0.1380 -0.7741  0.1574
 7002TIP3   OH242568   4.539   1.780   7.362  0.0940 -0.0025 -0.0979
 7002TIP3    H142569   4.632   1.768   7.345  0.4583  0.2904  1.5347
 7002TIP3    H242570   4.502   1.806   7.277  1.9019  2.1236 -0.3350
 7003TIP3   OH242571   6.841   5.028   7.863  0.2214 -0.4378  0.4042
 7003TIP3    H142572   6.746   5.032   7.851  0.3298  1.3758 -0.1033
 7003TIP3    H242573   6.877   5.033   7.775  0.8086 -0.0710  0.6604
 7004TIP3   OH242574   6.444   3.650   2.683 -0.0065  0.0813  0.2031
 7004TIP3    H142575   6.453   3.610   2.769  0.7101 -2.7084 -1.0645
 7004TIP3    H242576   6.351   3.641   2.662 -0.0844  0.2845  0.4567
 7005TIP3   OH242577   6.299   0.236   1.759  0.1159  0.0105  0.4914
 7005TIP3    H142578   6.267   0.161   1.710 -1.2544  0.6035  0.4505
 7005TIP3    H242579   6.224   0.267   1.809  0.9322  0.7257  1.3270
 7006TIP3   OH242580   4.871   5.669   6.930  0.7220  0.0610 -0.2775
 7006TIP3    H142581   4.953   5.704   6.965 -0.2289  1.0070  1.0997
 7006TIP3    H242582   4.808   5.740   6.943 -0.5356 -1.0064 -0.4239
 7007TIP3   OH242583   6.355   3.357   0.428  0.4500  0.4285  0.0615
 7007TIP3    H142584   6.368   3.442   0.469  1.8543  0.0338  0.4760
 7007TIP3    H242585   6.352   3.375   0.334 -1.9054  1.2286  0.2123
 7008TIP3   OH242586   0.385   1.676   6.557  0.5887  0.1893 -0.6902
 7008TIP3    H142587   0.293   1.690   6.538  0.0271 -1.0318  0.8483
 7008TIP3    H242588   0.399   1.719   6.641  1.5084  0.6240 -1.0556
 7009TIP3   OH242589   3.233   1.274   7.139 -0.4420 -0.6282 -0.2044
 7009TIP3    H142590   3.285   1.221   7.078 -0.7284 -1.3871  0.2028
 7009TIP3    H242591   3.164   1.216   7.169 -1.5058  0.3529 -0.6794
 7010TIP3   OH242592   0.966   4.178   0.358 -0.4634 -0.1210  0.8104
 7010TIP3    H142593   0.983   4.251   0.418  0.5469  0.1273  0.2411
 7010TIP3    H242594   0.885   4.203   0.312  0.1420  0.8988  0.2613
 7011TIP3   OH242595   5.640   0.619   0.349  0.1796 -0.4998 -0.3440
 7011TIP3    H142596   5.615   0.556   0.416 -3.4223  0.6948 -0.3488
 7011TIP3    H242597   5.609   0.703   0.383  1.1037  0.6459 -2.1583
 7012TIP3   OH242598   5.249   4.341   2.462  0.5728  0.1676  0.8730
 7012TIP3    H142599   5.309   4.287   2.410  1.8840  1.8782  0.5026
 7012TIP3    H242600   5.257   4.429   2.424 -2.0044  0.5324  1.0018
 7013TIP3   OH242601   2.540   2.602   0.770  0.1706  0.2157  0.2813
 7013TIP3    H142602   2.611   2.660   0.743  0.1480  0.5336  0.8973
 7013TIP3    H242603   2.536   2.611   0.865  1.3100 -2.1179  0.6125
 7014TIP3   OH242604   4.232   4.237   2.413  0.2360 -0.5445  0.1518
 7014TIP3    H142605   4.215   4.144   2.399  0.2143 -0.4393 -0.5517
 7014TIP3    H242606   4.166   4.282   2.359  1.8768 -0.1245 -1.5885
 7015TIP3   OH242607   0.158   6.237   1.313  0.2099  0.2544  0.4066
 7015TIP3    H142608   0.240   6.188   1.318  0.6991  1.0322  0.1503
 7015TIP3    H242609   0.169   6.309   1.375 -0.6934 -0.2079  1.1378
 7016TIP3   OH242610   1.597   0.044   7.857 -0.1971  0.2899  0.1736
 7016TIP3    H142611   1.534   0.112   7.831  0.7241  1.6487  1.2995
 7016TIP3    H242612   1.670   0.093   7.895  0.9682 -1.3118  0.0917
 7017TIP3   OH242613   5.830   4.598   8.033 -0.6059  0.0730 -0.2278
 7017TIP3    H142614   5.742   4.621   8.004 -1.0084 -1.0666  0.0602
 7017TIP3    H242615   5.876   4.682   8.038 -1.2649  0.5411 -1.6883
 7018TIP3   OH242616   5.212   2.896   6.931  0.7279 -0.1680  0.4808
 7018TIP3    H142617   5.214   2.989   6.957  0.1912  0.0915 -0.3653
 7018TIP3    H242618   5.173   2.897   6.844 -0.4541 -1.3174  0.9751
 7019TIP3   OH242619   0.998   1.858   7.571 -0.1763  0.1349  0.2269
 7019TIP3    H142620   1.016   1.860   7.665 -0.2214  1.6454  0.2184
 7019TIP3    H242621   1.083   1.868   7.530  0.0006 -1.7419  0.0640
 7020TIP3   OH242622   3.300   3.966   0.017  0.4320  0.5900 -0.6891
 7020TIP3    H142623   3.216   4.009   0.002  0.1810 -0.2773 -1.9551
 7020TIP3    H242624   3.295   3.932   0.106  0.0478  1.8523 -0.2175
 7021TIP3   OH242625   4.651   4.342   2.445  0.0800 -0.1058 -0.3874
 7021TIP3    H142626   4.639   4.401   2.519  0.5730  0.8414 -1.0486
 7021TIP3    H242627   4.599   4.265   2.467  0.2330  0.1521  0.9482
 7022TIP3   OH242628   4.197   5.190   1.013  0.4305 -0.1222 -0.6215
 7022TIP3    H142629   4.223   5.156   1.099 -1.0243  0.5121  0.1078
 7022TIP3    H242630   4.119   5.140   0.990  0.3597  0.2518 -1.2078
 7023TIP3   OH242631   5.921   2.386   6.382 -0.0126  0.4600  0.4432
 7023TIP3    H142632   5.915   2.477   6.352 -0.4910 -0.7463 -3.8108
 7023TIP3    H242633   6.014   2.375   6.403  0.3331  1.5818 -0.3666
 7024TIP3   OH242634   5.556   2.968   0.265  0.7342 -0.5573 -0.2402
 7024TIP3    H142635   5.491   2.900   0.246  0.9691 -0.4254 -1.6040
 7024TIP3    H242636   5.514   3.023   0.332 -0.0232 -1.2335 -0.1427
 7025TIP3   OH242637   5.470   3.645   1.529 -0.0614  0.0279 -0.3317
 7025TIP3    H142638   5.524   3.682   1.600  0.6029 -3.6857  1.3314
 7025TIP3    H242639   5.532   3.632   1.457 -0.5573  2.9841 -1.4460
 7026TIP3   OH242640   4.104   2.299   8.061 -0.3116  0.1209  0.7712
 7026TIP3    H142641   4.083   2.288   7.969  0.0547 -0.6346  0.7632
 7026TIP3    H242642   4.129   2.391   8.070  1.9011 -0.3078 -0.3707
 7027TIP3   OH242643   3.847   4.122   0.848 -0.2714  0.2551 -0.3104
 7027TIP3    H142644   3.902   4.054   0.887  0.7532  1.2083 -0.0300
 7027TIP3    H242645   3.870   4.202   0.895 -2.9627  0.4792  0.8300
 7028TIP3   OH242646   1.271   6.025   6.661 -0.5109  0.9685  0.0453
 7028TIP3    H142647   1.207   6.073   6.608 -0.3973  0.9866 -0.0757
 7028TIP3    H242648   1.269   5.936   6.626 -2.3386  0.2822  1.6884
 7029TIP3   OH242649   3.528   4.972   2.006 -0.2755 -0.2081 -0.2034
 7029TIP3    H142650   3.569   4.889   1.983  0.1939  0.0630 -0.3428
 7029TIP3    H242651   3.589   5.013   2.067 -0.1395  0.3810 -0.7259
 7030TIP3   OH242652   3.217   5.443   0.016  0.3603 -0.3082  0.3113
 7030TIP3    H142653   3.188   5.532  -0.006 -0.8346 -0.3621  1.5503
 7030TIP3    H242654   3.310   5.443  -0.006  0.7870  1.7827  1.7532
 7031TIP3   OH242655   1.037   6.827   1.141  0.1666  0.6012  0.5773
 7031TIP3    H142656   1.045   6.857   1.232  0.7965  0.1766  0.6658
 7031TIP3    H242657   1.027   6.732   1.148  1.9823  0.3426  0.1363
 7032TIP3   OH242658   6.653   1.040   1.937 -0.7975 -0.5108  0.4509
 7032TIP3    H142659   6.719   0.979   1.969 -0.4846  0.2812  1.3755
 7032TIP3    H242660   6.688   1.127   1.958 -0.6790  0.0819 -1.8419
 7033TIP3   OH242661   5.947   5.325   1.091  0.0806 -0.1848  0.2729
 7033TIP3    H142662   5.969   5.407   1.136 -0.9458  0.6312 -0.6446
 7033TIP3    H242663   5.962   5.257   1.156  0.6894  0.7538  1.1479
 7034TIP3   OH242664   1.597   2.961   7.384  0.3077  0.0432 -0.3951
 7034TIP3    H142665   1.669   2.911   7.346 -0.2751 -0.4622 -0.8576
 7034TIP3    H242666   1.564   3.015   7.312  0.6878  0.8320  0.0037
 7035TIP3   OH242667   0.905   0.132   7.454 -0.1981  0.4693 -0.5614
 7035TIP3    H142668   0.864   0.052   7.487  1.4941 -0.7529 -1.2997
 7035TIP3    H242669   0.839   0.170   7.395 -1.2253 -0.0757  0.2064
 7036TIP3   OH242670   5.587   1.570   0.417 -0.0022  0.2688 -0.2007
 7036TIP3    H142671   5.508   1.624   0.417 -0.5238 -0.4494 -1.7537
 7036TIP3    H242672   5.627   1.587   0.503 -0.2323  2.9471 -0.5315
 7037TIP3   OH242673   3.418   5.996   6.996  0.8505 -0.1333 -0.0835
 7037TIP3    H142674   3.467   6.071   6.963 -0.2025  0.8037  0.4488
 7037TIP3    H242675   3.457   5.978   7.081 -0.1189  1.0353  0.6385
 7038TIP3   OH242676   0.195   0.223   7.150 -0.8604 -0.0373 -0.0642
 7038TIP3    H142677   0.276   0.263   7.120 -0.0443 -2.9673 -2.3322
 7038TIP3    H242678   0.222   0.140   7.190 -2.6243 -0.1964  0.8943
 7039TIP3   OH242679   5.080   4.478   0.348  0.0236 -0.2451  0.5134
 7039TIP3    H142680   5.021   4.473   0.423  0.6873  0.8941  1.1364
 7039TIP3    H242681   5.146   4.542   0.373  1.3733 -1.2728 -0.2884
 7040TIP3   OH242682   4.641   1.901   1.724 -0.1783  0.3815  0.4636
 7040TIP3    H142683   4.696   1.973   1.693  0.0317  0.1873  0.3847
 7040TIP3    H242684   4.703   1.840   1.764 -0.2792 -0.0597 -0.0415
 7041TIP3   OH242685   6.382   1.831   7.303 -0.2770 -0.4213  0.9547
 7041TIP3    H142686   6.440   1.811   7.376  0.1669 -0.0936  0.6934
 7041TIP3    H242687   6.432   1.808   7.225 -0.1773  0.6196  0.6936
 7042TIP3   OH242688   6.411   1.915   8.054  0.0128 -0.0617 -0.5936
 7042TIP3    H142689   6.493   1.895   8.010  0.0469  0.6244 -0.8563
 7042TIP3    H242690   6.427   1.895   8.146  1.1854  2.1101 -0.2867
 7043TIP3   OH242691   3.567   2.897   0.770  0.7006 -0.5039  0.2112
 7043TIP3    H142692   3.495   2.834   0.773  1.4021 -1.3101  0.6825
 7043TIP3    H242693   3.525   2.982   0.760 -0.2615 -1.1025 -1.3377
 7044TIP3   OH242694   3.703   3.457   7.664  0.2603  0.0053  0.4914
 7044TIP3    H142695   3.671   3.534   7.617 -5.0024 -1.6979  0.6225
 7044TIP3    H242696   3.723   3.489   7.752  0.9782  1.6500 -0.2393
 7045TIP3   OH242697   2.127   1.368   6.399 -0.0263  0.3066 -0.3856
 7045TIP3    H142698   2.083   1.354   6.483  0.3185 -0.2157 -0.2853
 7045TIP3    H242699   2.070   1.326   6.335 -0.1226  0.4142 -0.3702
 7046TIP3   OH242700   0.734   5.528   7.451 -0.3749  0.5757  0.1368
 7046TIP3    H142701   0.826   5.518   7.473 -0.4028  0.3691  0.1640
 7046TIP3    H242702   0.728   5.613   7.409 -0.1277  0.4714 -0.1096
 7047TIP3   OH242703   3.070   1.819   0.716  0.0748 -0.3727  0.0481
 7047TIP3    H142704   3.153   1.773   0.709  0.6699  0.5449  0.7810
 7047TIP3    H242705   3.004   1.755   0.690  1.1234 -0.5895 -2.3362
 7048TIP3   OH242706   6.178   1.190   1.862  0.0821  0.0834 -0.5743
 7048TIP3    H142707   6.152   1.272   1.820  1.1395  0.2121 -0.9986
 7048TIP3    H242708   6.269   1.179   1.838  0.6078 -0.0572  1.3437
 7049TIP3   OH242709   4.255   6.961   6.807  0.2842  0.1451 -0.3996
 7049TIP3    H142710   4.280   7.006   6.887  1.1681  0.3479 -0.7726
 7049TIP3    H242711   4.179   6.908   6.831 -0.2597  1.1956  0.2508
 7050TIP3   OH242712   5.231   4.268   6.524 -0.7447  0.1523  0.2287
 7050TIP3    H142713   5.175   4.223   6.460  0.0716  0.2775 -0.5922
 7050TIP3    H242714   5.309   4.292   6.474  0.1631 -0.2547  1.4131
 7051TIP3   OH242715   2.535   1.549   7.264 -0.5034 -0.5837 -0.3711
 7051TIP3    H142716   2.460   1.588   7.309 -1.4842 -0.7334 -1.8385
 7051TIP3    H242717   2.609   1.603   7.291 -0.9522 -0.9274  1.7676
 7052TIP3   OH242718   6.189   1.172   0.195  0.3058 -0.4293 -0.0708
 7052TIP3    H142719   6.145   1.120   0.127  0.6000 -0.0005 -0.5969
 7052TIP3    H242720   6.170   1.263   0.172 -2.9946 -0.2264  2.6666
 7053TIP3   OH242721   5.746   5.880   0.523 -0.6748 -0.8165  0.1692
 7053TIP3    H142722   5.783   5.966   0.542 -0.0442 -1.0813  0.1687
 7053TIP3    H242723   5.817   5.832   0.482 -1.8624 -0.3837 -2.6170
 7054TIP3   OH242724   0.816   2.730   7.787  0.1958  0.6159  0.1250
 7054TIP3    H142725   0.775   2.734   7.873 -0.7590 -0.3518 -0.2594
 7054TIP3    H242726   0.743   2.729   7.725  0.8243  0.1325 -0.6350
 7055TIP3   OH242727   6.765   5.246   1.314  0.0271  0.3089 -0.3865
 7055TIP3    H142728   6.732   5.182   1.377 -1.1408 -0.2522 -1.5188
 7055TIP3    H242729   6.764   5.329   1.363 -0.5055 -0.1650  0.4489
 7056TIP3   OH242730   2.422   0.078   7.052 -0.2223  0.0975 -0.0498
 7056TIP3    H142731   2.494   0.019   7.031  0.0665  0.9074 -1.4348
 7056TIP3    H242732   2.407   0.128   6.972 -1.1071  1.2248  0.7808
 7057TIP3   OH242733   2.114   2.328   0.932  0.1771 -0.3868  0.5015
 7057TIP3    H142734   2.082   2.335   1.022  3.0803 -1.7367  1.7607
 7057TIP3    H242735   2.110   2.235   0.912  0.3734 -0.1993 -0.4582
 7058TIP3   OH242736   6.764   3.085   7.661 -0.2680  0.6816  0.1246
 7058TIP3    H142737   6.759   3.144   7.735 -1.1134  0.0426  0.5971
 7058TIP3    H242738   6.857   3.073   7.645 -0.0497  2.9630 -0.6766
 7059TIP3   OH242739   4.046   3.417   2.010  0.3132  0.0462 -0.1964
 7059TIP3    H142740   4.121   3.465   1.974 -0.1153 -0.0856 -1.3239
 7059TIP3    H242741   4.084   3.358   2.075  1.3267 -0.6035 -1.3207
 7060TIP3   OH242742   2.850   6.256   8.305 -0.0317 -0.4153  0.1456
 7060TIP3    H142743   2.861   6.278   8.212 -0.1353 -1.6070 -0.1768
 7060TIP3    H242744   2.928   6.204   8.326 -0.3983 -0.8204  0.5058
 7061TIP3   OH242745   5.537   5.132   7.229 -0.8203  0.4589  0.5358
 7061TIP3    H142746   5.472   5.113   7.162 -0.8475  1.8909  0.1368
 7061TIP3    H242747   5.497   5.102   7.311 -1.5042  0.2882  0.1423
 7062TIP3   OH242748   1.855   2.313   1.415 -0.1597  0.5537  0.4655
 7062TIP3    H142749   1.893   2.316   1.503 -0.6455 -1.6621  0.8106
 7062TIP3    H242750   1.763   2.339   1.427 -0.4027 -0.4047  0.7547
 7063TIP3   OH242751   5.624   6.771   7.119 -0.3115  0.1090  0.1609
 7063TIP3    H142752   5.679   6.705   7.077 -0.4262 -0.0038  0.1907
 7063TIP3    H242753   5.555   6.722   7.162 -0.4966  0.2589  0.0366
 7064TIP3   OH242754   4.539   2.204   7.080  0.3111  0.1136  0.2586
 7064TIP3    H142755   4.576   2.177   6.995  1.2770 -0.6697  0.8893
 7064TIP3    H242756   4.458   2.154   7.087  0.0526  0.4390 -0.3518
 7065TIP3   OH242757   3.689   3.524   7.940  0.0240  0.0628 -0.1515
 7065TIP3    H142758   3.746   3.452   7.967 -1.4712 -1.6536 -1.3764
 7065TIP3    H242759   3.600   3.493   7.957 -0.7803  0.6448 -2.7839
 7066TIP3   OH242760   5.030   6.799   1.129 -0.0425  0.2688  0.0275
 7066TIP3    H142761   4.964   6.831   1.191 -0.9535 -1.7226  0.1558
 7066TIP3    H242762   5.031   6.705   1.142  0.2754 -0.1363 -2.5169
 7067TIP3   OH242763   1.508   3.232   7.274 -0.0971  0.6178 -0.2869
 7067TIP3    H142764   1.510   3.222   7.369 -0.0861 -1.0659 -0.4336
 7067TIP3    H242765   1.418   3.209   7.249  0.1146  0.2545 -0.7475
 7068TIP3   OH242766   5.343   5.179   0.344  0.1637  0.5483  0.4239
 7068TIP3    H142767   5.260   5.205   0.383  0.6945  1.4063  1.0370
 7068TIP3    H242768   5.370   5.102   0.393 -1.1411 -0.8836 -1.0075
 7069TIP3   OH242769   2.858   0.244   6.864 -0.4943  0.6113  0.1692
 7069TIP3    H142770   2.857   0.334   6.898 -0.1882  0.6260  0.1396
 7069TIP3    H242771   2.934   0.204   6.905  0.6211  0.9909 -1.4223
 7070TIP3   OH242772   6.310   5.998   1.102 -0.0946 -0.5552  0.4706
 7070TIP3    H142773   6.236   5.957   1.057  0.4754  0.1269 -1.1670
 7070TIP3    H242774   6.387   5.953   1.066  0.5181  1.5452 -1.0441
 7071TIP3   OH242775   1.301   2.834   1.590 -0.2912  0.0047 -0.2527
 7071TIP3    H142776   1.339   2.829   1.678  0.3546 -1.2891 -0.5847
 7071TIP3    H242777   1.267   2.747   1.574 -1.4945  0.5579 -0.8311
 7072TIP3   OH242778   0.434   4.798   1.088  0.2924 -0.4043  0.3264
 7072TIP3    H142779   0.456   4.716   1.133 -0.0755  0.0586  1.3874
 7072TIP3    H242780   0.499   4.861   1.120  0.4577 -0.2282 -0.3392
 7073TIP3   OH242781   3.235   2.909   0.944 -0.4419  0.3359 -0.0170
 7073TIP3    H142782   3.300   2.953   0.999 -0.5889  1.9153 -1.0213
 7073TIP3    H242783   3.275   2.826   0.921 -0.5625 -0.6149  2.7942
 7074TIP3   OH242784   4.357   3.980   6.567  0.3861  0.2749 -0.4765
 7074TIP3    H142785   4.406   4.041   6.622 -0.1790 -0.5815  1.0273
 7074TIP3    H242786   4.397   3.895   6.582 -0.0658 -0.0543 -1.0516
 7075TIP3   OH242787   3.722   2.187   1.371 -0.3308 -0.5615  0.1608
 7075TIP3    H142788   3.726   2.134   1.450  0.1900  1.0574  1.2660
 7075TIP3    H242789   3.810   2.181   1.333  0.5476  1.5139  1.7010
 7076TIP3   OH242790   0.308   0.869   7.068 -0.1575  0.4329  0.0857
 7076TIP3    H142791   0.300   0.832   6.980 -0.9019  1.3615 -0.2597
 7076TIP3    H242792   0.267   0.805   7.125  2.6203 -1.4631  0.1693
 7077TIP3   OH242793   4.164   5.656   0.180  0.5517 -0.2156 -0.3326
 7077TIP3    H142794   4.158   5.744   0.143 -0.8950  1.0779  2.6736
 7077TIP3    H242795   4.218   5.665   0.258 -0.4528 -1.7417  0.6135
 7078TIP3   OH242796   2.707   1.512   7.674 -0.5600 -0.6872  0.3650
 7078TIP3    H142797   2.649   1.560   7.615  0.8243 -0.8702 -1.2305
 7078TIP3    H242798   2.752   1.449   7.617 -0.1504 -1.8097  1.8735
 7079TIP3   OH242799   3.823   4.629   0.112 -0.1974  0.1882 -0.4956
 7079TIP3    H142800   3.848   4.692   0.179 -1.5745 -1.1054  1.3545
 7079TIP3    H242801   3.873   4.550   0.134  0.1294  0.0531 -1.6599
 7080TIP3   OH242802   0.184   0.500   0.576  0.2453  0.1754  0.0753
 7080TIP3    H142803   0.137   0.552   0.642 -1.7101 -0.7489 -0.4936
 7080TIP3    H242804   0.145   0.526   0.493  1.1180 -0.2850 -0.4883
 7081TIP3   OH242805   5.363   3.111   6.290 -0.0534 -0.0387  0.6047
 7081TIP3    H142806   5.385   3.174   6.221 -2.0409  1.2473  1.0469
 7081TIP3    H242807   5.316   3.041   6.244  0.3388 -0.1522  0.3803
 7082TIP3   OH242808   1.587   4.554   1.670  0.2361 -0.5973 -0.0564
 7082TIP3    H142809   1.668   4.537   1.717 -1.1723 -1.0270  2.3983
 7082TIP3    H242810   1.568   4.647   1.688  1.0499  0.0386 -2.1628
 7083TIP3   OH242811   5.436   2.907   8.295  0.0516 -0.5330  0.1778
 7083TIP3    H142812   5.515   2.946   8.259 -0.0164  0.6255  1.2210
 7083TIP3    H242813   5.368   2.974   8.283 -0.8941 -1.6510 -1.0446
 7084TIP3   OH242814   3.618   3.146   8.345  0.2112  1.0857  0.3993
 7084TIP3    H142815   3.656   3.091   8.413 -0.2693  0.3505  0.0865
 7084TIP3    H242816   3.608   3.087   8.270 -1.0551  1.3870  0.3054
 7085TIP3   OH242817   5.170   0.318   7.027  0.1558  0.1517 -0.0583
 7085TIP3    H142818   5.233   0.246   7.015  0.8335  0.9458 -1.4892
 7085TIP3    H242819   5.084   0.276   7.020  0.5363 -0.6105 -0.3216
 7086TIP3   OH242820   2.469   6.413   0.390 -0.2770  0.2593  0.3696
 7086TIP3    H142821   2.423   6.492   0.418 -0.5760 -0.1619  1.1248
 7086TIP3    H242822   2.560   6.440   0.379 -0.5702  0.9534 -0.4739
 7087TIP3   OH242823   4.626   3.209   1.540 -0.1705 -0.4643 -0.3786
 7087TIP3    H142824   4.583   3.150   1.478 -1.1729  0.0458 -0.1785
 7087TIP3    H242825   4.635   3.157   1.620 -2.2569  0.0321  0.2274
 7088TIP3   OH242826   0.413   6.681   7.037 -0.3711  0.6143  0.2586
 7088TIP3    H142827   0.507   6.670   7.045 -0.6641 -2.3337  0.6058
 7088TIP3    H242828   0.377   6.646   7.118 -1.8022  1.1959 -0.0838
 7089TIP3   OH242829   1.721   1.638   1.510 -0.4433 -0.3932 -0.6944
 7089TIP3    H142830   1.644   1.692   1.497 -1.0965 -1.3546 -0.9325
 7089TIP3    H242831   1.765   1.676   1.586 -1.5966 -0.3218 -0.0461
 7090TIP3   OH242832   3.186   3.220   1.394 -0.4024 -0.1934 -0.3860
 7090TIP3    H142833   3.262   3.278   1.399 -1.1891  0.9094 -0.7359
 7090TIP3    H242834   3.169   3.210   1.300  0.4353 -1.9887 -0.3775
 7091TIP3   OH242835   3.632   0.083   1.106  0.2295 -0.5603 -0.1610
 7091TIP3    H142836   3.663  -0.006   1.086 -0.6232 -1.0514  0.6317
 7091TIP3    H242837   3.569   0.102   1.037 -0.2898 -0.9553  0.1980
 7092TIP3   OH242838   4.590   4.924   0.628  0.2471 -0.0646  0.0302
 7092TIP3    H142839   4.653   4.853   0.641 -0.5581 -0.5062  1.8150
 7092TIP3    H242840   4.515   4.883   0.587  0.7798  0.3028 -1.3516
 7093TIP3   OH242841   4.060   2.014   0.869 -0.2690 -0.1038 -0.0508
 7093TIP3    H142842   3.986   1.988   0.924  1.5767 -0.4682  2.4468
 7093TIP3    H242843   4.060   1.950   0.797 -1.3672 -1.1354  0.8267
 7094TIP3   OH242844   3.057   1.805   0.298  0.2190 -0.5181 -0.5977
 7094TIP3    H142845   3.028   1.723   0.337  0.3010 -0.4581 -0.4097
 7094TIP3    H242846   3.032   1.872   0.361 -0.6038 -0.3074 -1.1345
   7.01845   7.01845   8.37198
