;;
;; Generated by CHARMM-GUI (http://www.charmm-gui.org) v1.7
;;
;; psf2itp_mol.py
;;
;; Correspondance:
;; jul316@lehigh.edu or wonpil@lehigh.edu
;;
;; GROMACS topology file for LIG
;;


[ moleculetype ]
; name	nrexcl
LIG	     3

[ atoms ]
; nr	type	resnr	residu	atom	cgnr	charge	mass
     1      OG311      1      LIG      O      1     -0.497    15.9994   ; qtot -0.497
     2      NG301      1      LIG      N      2     -0.744    14.0070   ; qtot -1.241
     3      CG311      1      LIG     C1      3     -0.099    12.0110   ; qtot -1.340
     4      CG301      1      LIG     C2      4      0.105    12.0110   ; qtot -1.235
     5      CG321      1      LIG     C3      5     -0.191    12.0110   ; qtot -1.426
     6      CG321      1      LIG     C4      6     -0.191    12.0110   ; qtot -1.617
     7      CG321      1      LIG     C5      7     -0.209    12.0110   ; qtot -1.826
     8      CG321      1      LIG     C6      8     -0.189    12.0110   ; qtot -2.015
     9      CG321      1      LIG     C7      9     -0.189    12.0110   ; qtot -2.204
    10      CG321      1      LIG     C8     10     -0.134    12.0110   ; qtot -2.338
    11      CG321      1      LIG     C9     11      0.075    12.0110   ; qtot -2.263
    12     CG2R61      1      LIG    C10     12      0.093    12.0110   ; qtot -2.170
    13      CG321      1      LIG    C11     13      0.068    12.0110   ; qtot -2.102
    14      CG321      1      LIG    C12     14      0.068    12.0110   ; qtot -2.034
    15      CG321      1      LIG    C13     15     -0.180    12.0110   ; qtot -2.214
    16      CG321      1      LIG    C14     16     -0.180    12.0110   ; qtot -2.394
    17      CG321      1      LIG    C15     17     -0.180    12.0110   ; qtot -2.574
    18     CG2R61      1      LIG    C16     18     -0.118    12.0110   ; qtot -2.692
    19     CG2R61      1      LIG    C17     19     -0.118    12.0110   ; qtot -2.810
    20     CG2R61      1      LIG    C18     20     -0.115    12.0110   ; qtot -2.925
    21     CG2R61      1      LIG    C19     21     -0.115    12.0110   ; qtot -3.040
    22     CG2R61      1      LIG    C20     22     -0.115    12.0110   ; qtot -3.155
    23       HGA1      1      LIG     H1     23      0.090     1.0080   ; qtot -3.065
    24       HGA2      1      LIG     H2     24      0.090     1.0080   ; qtot -2.975
    25       HGA2      1      LIG     H3     25      0.090     1.0080   ; qtot -2.885
    26       HGA2      1      LIG     H4     26      0.090     1.0080   ; qtot -2.795
    27       HGA2      1      LIG     H5     27      0.090     1.0080   ; qtot -2.705
    28       HGA2      1      LIG     H6     28      0.090     1.0080   ; qtot -2.615
    29       HGA2      1      LIG     H7     29      0.090     1.0080   ; qtot -2.525
    30       HGA2      1      LIG     H8     30      0.090     1.0080   ; qtot -2.435
    31       HGA2      1      LIG     H9     31      0.090     1.0080   ; qtot -2.345
    32       HGA2      1      LIG    H10     32      0.090     1.0080   ; qtot -2.255
    33       HGA2      1      LIG    H11     33      0.090     1.0080   ; qtot -2.165
    34       HGA2      1      LIG    H12     34      0.090     1.0080   ; qtot -2.075
    35       HGA2      1      LIG    H13     35      0.090     1.0080   ; qtot -1.985
    36       HGA2      1      LIG    H14     36      0.090     1.0080   ; qtot -1.895
    37       HGA2      1      LIG    H15     37      0.090     1.0080   ; qtot -1.805
    38       HGA2      1      LIG    H16     38      0.090     1.0080   ; qtot -1.715
    39       HGA2      1      LIG    H17     39      0.090     1.0080   ; qtot -1.625
    40       HGA2      1      LIG    H18     40      0.090     1.0080   ; qtot -1.535
    41       HGA2      1      LIG    H19     41      0.090     1.0080   ; qtot -1.445
    42       HGP1      1      LIG    H20     42      0.330     1.0080   ; qtot -1.115
    43       HGA2      1      LIG    H21     43      0.090     1.0080   ; qtot -1.025
    44       HGA2      1      LIG    H22     44      0.090     1.0080   ; qtot -0.935
    45       HGA2      1      LIG    H23     45      0.090     1.0080   ; qtot -0.845
    46       HGA2      1      LIG    H24     46      0.090     1.0080   ; qtot -0.755
    47       HGA2      1      LIG    H25     47      0.090     1.0080   ; qtot -0.665
    48       HGA2      1      LIG    H26     48      0.090     1.0080   ; qtot -0.575
    49      HGR61      1      LIG    H27     49      0.115     1.0080   ; qtot -0.460
    50      HGR61      1      LIG    H28     50      0.115     1.0080   ; qtot -0.345
    51      HGR61      1      LIG    H29     51      0.115     1.0080   ; qtot -0.230
    52      HGR61      1      LIG    H30     52      0.115     1.0080   ; qtot -0.115
    53      HGR61      1      LIG    H31     53      0.115     1.0080   ; qtot -0.000

[ bonds ]
; ai	aj	funct	b0	Kb
    1     4     1
    1    42     1
    2    11     1
    2    13     1
    2    14     1
    3     4     1
    3     5     1
    3     6     1
    3    23     1
    4     7     1
    4    12     1
    5     8     1
    5    24     1
    5    25     1
    6     9     1
    6    26     1
    6    27     1
    7    11     1
    7    28     1
    7    29     1
    8    10     1
    8    30     1
    8    31     1
    9    10     1
    9    32     1
    9    33     1
   10    34     1
   10    35     1
   11    36     1
   11    37     1
   12    18     1
   12    19     1
   13    15     1
   13    38     1
   13    39     1
   14    16     1
   14    40     1
   14    41     1
   15    17     1
   15    43     1
   15    44     1
   16    17     1
   16    45     1
   16    46     1
   17    47     1
   17    48     1
   18    20     1
   18    49     1
   19    21     1
   19    50     1
   20    22     1
   20    51     1
   21    22     1
   21    52     1
   22    53     1

[ pairs ]
; ai	aj	funct	c6	c12
    1     5     1 
    1     6     1 
    1    11     1 
    1    18     1 
    1    19     1 
    1    23     1 
    1    28     1 
    1    29     1 
    2     4     1 
    2    17     1 
    2    28     1 
    2    29     1 
    2    43     1 
    2    44     1 
    2    45     1 
    2    46     1 
    3    10     1 
    3    11     1 
    3    18     1 
    3    19     1 
    3    28     1 
    3    29     1 
    3    30     1 
    3    31     1 
    3    32     1 
    3    33     1 
    3    42     1 
    4     8     1 
    4     9     1 
    4    20     1 
    4    21     1 
    4    24     1 
    4    25     1 
    4    26     1 
    4    27     1 
    4    36     1 
    4    37     1 
    4    49     1 
    4    50     1 
    5     7     1 
    5     9     1 
    5    12     1 
    5    26     1 
    5    27     1 
    5    34     1 
    5    35     1 
    6     7     1 
    6     8     1 
    6    12     1 
    6    24     1 
    6    25     1 
    6    34     1 
    6    35     1 
    7    13     1 
    7    14     1 
    7    18     1 
    7    19     1 
    7    23     1 
    7    42     1 
    8    23     1 
    8    32     1 
    8    33     1 
    9    23     1 
    9    30     1 
    9    31     1 
   10    24     1 
   10    25     1 
   10    26     1 
   10    27     1 
   11    12     1 
   11    15     1 
   11    16     1 
   11    38     1 
   11    39     1 
   11    40     1 
   11    41     1 
   12    22     1 
   12    23     1 
   12    28     1 
   12    29     1 
   12    42     1 
   12    51     1 
   12    52     1 
   13    16     1 
   13    36     1 
   13    37     1 
   13    40     1 
   13    41     1 
   13    47     1 
   13    48     1 
   14    15     1 
   14    36     1 
   14    37     1 
   14    38     1 
   14    39     1 
   14    47     1 
   14    48     1 
   15    45     1 
   15    46     1 
   16    43     1 
   16    44     1 
   17    38     1 
   17    39     1 
   17    40     1 
   17    41     1 
   18    21     1 
   18    50     1 
   18    53     1 
   19    20     1 
   19    49     1 
   19    53     1 
   20    52     1 
   21    51     1 
   22    49     1 
   22    50     1 
   23    24     1 
   23    25     1 
   23    26     1 
   23    27     1 
   24    30     1 
   24    31     1 
   25    30     1 
   25    31     1 
   26    32     1 
   26    33     1 
   27    32     1 
   27    33     1 
   28    36     1 
   28    37     1 
   29    36     1 
   29    37     1 
   30    34     1 
   30    35     1 
   31    34     1 
   31    35     1 
   32    34     1 
   32    35     1 
   33    34     1 
   33    35     1 
   38    43     1 
   38    44     1 
   39    43     1 
   39    44     1 
   40    45     1 
   40    46     1 
   41    45     1 
   41    46     1 
   43    47     1 
   43    48     1 
   44    47     1 
   44    48     1 
   45    47     1 
   45    48     1 
   46    47     1 
   46    48     1 
   49    51     1 
   50    52     1 
   51    53     1 
   52    53     1 

[ angles ] 
; ai	aj	ak	funct	th0	cth	S0	Kub
    4     1    42     5
   11     2    13     5
   11     2    14     5
   13     2    14     5
    4     3     5     5
    4     3     6     5
    4     3    23     5
    5     3     6     5
    5     3    23     5
    6     3    23     5
    1     4     3     5
    1     4     7     5
    1     4    12     5
    3     4     7     5
    3     4    12     5
    7     4    12     5
    3     5     8     5
    3     5    24     5
    3     5    25     5
    8     5    24     5
    8     5    25     5
   24     5    25     5
    3     6     9     5
    3     6    26     5
    3     6    27     5
    9     6    26     5
    9     6    27     5
   26     6    27     5
    4     7    11     5
    4     7    28     5
    4     7    29     5
   11     7    28     5
   11     7    29     5
   28     7    29     5
    5     8    10     5
    5     8    30     5
    5     8    31     5
   10     8    30     5
   10     8    31     5
   30     8    31     5
    6     9    10     5
    6     9    32     5
    6     9    33     5
   10     9    32     5
   10     9    33     5
   32     9    33     5
    8    10     9     5
    8    10    34     5
    8    10    35     5
    9    10    34     5
    9    10    35     5
   34    10    35     5
    2    11     7     5
    2    11    36     5
    2    11    37     5
    7    11    36     5
    7    11    37     5
   36    11    37     5
    4    12    18     5
    4    12    19     5
   18    12    19     5
    2    13    15     5
    2    13    38     5
    2    13    39     5
   15    13    38     5
   15    13    39     5
   38    13    39     5
    2    14    16     5
    2    14    40     5
    2    14    41     5
   16    14    40     5
   16    14    41     5
   40    14    41     5
   13    15    17     5
   13    15    43     5
   13    15    44     5
   17    15    43     5
   17    15    44     5
   43    15    44     5
   14    16    17     5
   14    16    45     5
   14    16    46     5
   17    16    45     5
   17    16    46     5
   45    16    46     5
   15    17    16     5
   15    17    47     5
   15    17    48     5
   16    17    47     5
   16    17    48     5
   47    17    48     5
   12    18    20     5
   12    18    49     5
   20    18    49     5
   12    19    21     5
   12    19    50     5
   21    19    50     5
   18    20    22     5
   18    20    51     5
   22    20    51     5
   19    21    22     5
   19    21    52     5
   22    21    52     5
   20    22    21     5
   20    22    53     5
   21    22    53     5

[ dihedrals ]
; ai	aj	ak	al	funct	phi0	cp	mult
   13     2    11    36     9
   13     2    11    37     9
   14     2    11    36     9
   14     2    11    37     9
   11     2    13    15     9
   11     2    13    38     9
   11     2    13    39     9
   14     2    13    15     9
   14     2    13    38     9
   14     2    13    39     9
   11     2    14    16     9
   11     2    14    40     9
   11     2    14    41     9
   13     2    14    16     9
   13     2    14    40     9
   13     2    14    41     9
    5     3     4     7     9
    5     3     4    12     9
    6     3     4     7     9
    6     3     4    12     9
    4     3     5     8     9
    4     3     5    24     9
    4     3     5    25     9
    6     3     5     8     9
    6     3     5    24     9
    6     3     5    25     9
   23     3     5    24     9
   23     3     5    25     9
    4     3     6     9     9
    4     3     6    26     9
    4     3     6    27     9
    5     3     6     9     9
    5     3     6    26     9
    5     3     6    27     9
   23     3     6    26     9
   23     3     6    27     9
    3     4     1    42     9
    7     4     1    42     9
   12     4     1    42     9
    1     4     3     5     9
    1     4     3     6     9
    1     4     3    23     9
    7     4     3    23     9
   12     4     3    23     9
    1     4     7    11     9
    1     4     7    28     9
    1     4     7    29     9
    3     4     7    11     9
    3     4     7    28     9
    3     4     7    29     9
   12     4     7    28     9
   12     4     7    29     9
    1     4    12    18     9
    1     4    12    19     9
    3     4    12    18     9
    3     4    12    19     9
    7     4    12    18     9
    7     4    12    19     9
    8     5     3    23     9
    3     5     8    10     9
    3     5     8    30     9
    3     5     8    31     9
   24     5     8    30     9
   24     5     8    31     9
   25     5     8    30     9
   25     5     8    31     9
    9     6     3    23     9
    3     6     9    10     9
    3     6     9    32     9
    3     6     9    33     9
   26     6     9    32     9
   26     6     9    33     9
   27     6     9    32     9
   27     6     9    33     9
   11     7     4    12     9
    4     7    11    36     9
    4     7    11    37     9
   28     7    11    36     9
   28     7    11    37     9
   29     7    11    36     9
   29     7    11    37     9
   10     8     5    24     9
   10     8     5    25     9
    5     8    10     9     9
    5     8    10    34     9
    5     8    10    35     9
   30     8    10    34     9
   30     8    10    35     9
   31     8    10    34     9
   31     8    10    35     9
   10     9     6    26     9
   10     9     6    27     9
    6     9    10     8     9
    6     9    10    34     9
    6     9    10    35     9
   32     9    10    34     9
   32     9    10    35     9
   33     9    10    34     9
   33     9    10    35     9
    9    10     8    30     9
    9    10     8    31     9
    8    10     9    32     9
    8    10     9    33     9
    7    11     2    13     9
    7    11     2    14     9
    2    11     7     4     9
    2    11     7    28     9
    2    11     7    29     9
    4    12    18    20     9
    4    12    18    49     9
   19    12    18    20     9
   19    12    18    49     9
    4    12    19    21     9
    4    12    19    50     9
   18    12    19    21     9
   18    12    19    50     9
    2    13    15    17     9
    2    13    15    43     9
    2    13    15    44     9
   38    13    15    43     9
   38    13    15    44     9
   39    13    15    43     9
   39    13    15    44     9
    2    14    16    17     9
    2    14    16    45     9
    2    14    16    46     9
   40    14    16    45     9
   40    14    16    46     9
   41    14    16    45     9
   41    14    16    46     9
   17    15    13    38     9
   17    15    13    39     9
   13    15    17    16     9
   13    15    17    47     9
   13    15    17    48     9
   43    15    17    47     9
   43    15    17    48     9
   44    15    17    47     9
   44    15    17    48     9
   17    16    14    40     9
   17    16    14    41     9
   14    16    17    15     9
   14    16    17    47     9
   14    16    17    48     9
   45    16    17    47     9
   45    16    17    48     9
   46    16    17    47     9
   46    16    17    48     9
   16    17    15    43     9
   16    17    15    44     9
   15    17    16    45     9
   15    17    16    46     9
   12    18    20    22     9
   12    18    20    51     9
   49    18    20    51     9
   12    19    21    22     9
   12    19    21    52     9
   50    19    21    52     9
   22    20    18    49     9
   18    20    22    21     9
   18    20    22    53     9
   51    20    22    53     9
   22    21    19    50     9
   19    21    22    20     9
   19    21    22    53     9
   52    21    22    53     9
   21    22    20    51     9
   20    22    21    52     9
