Title
81319
    1CHL1    C3    1   5.293   0.563  10.163 -0.5230  0.2853  0.5642
    1CHL1    H3    2   5.401   0.589  10.162 -0.7984  1.4792 -0.2196
    1CHL1    O3    3   5.245   0.571  10.297  0.3217 -0.1269 -0.5930
    1CHL1   H3'    4   5.323   0.556  10.352  0.5793 -0.9717 -1.1803
    1CHL1    C4    5   5.221   0.662  10.070 -0.6991  0.4184 -0.4040
    1CHL1   H4A    6   5.111   0.650  10.082 -0.8805 -1.3943 -3.1243
    1CHL1   H4B    7   5.254   0.763  10.102  0.2382  0.2215 -0.7219
    1CHL1    C5    8   5.254   0.654   9.925  0.4187 -1.6194 -0.0936
    1CHL1    C6    9   5.305   0.759   9.852 -0.5867  0.4856  0.8257
    1CHL1    H6   10   5.312   0.852   9.910  2.7773  0.5042  0.5822
    1CHL1    C7   11   5.325   0.755   9.705 -0.4067 -0.0532  0.5461
    1CHL1   H7A   12   5.274   0.841   9.656 -2.7081 -1.0311  1.0880
    1CHL1   H7B   13   5.432   0.765   9.679 -0.7909  3.9295 -0.1326
    1CHL1    C8   14   5.267   0.627   9.644  0.1105 -0.1404  0.0984
    1CHL1    H8   15   5.158   0.636   9.622  0.4605  0.0772 -1.7302
    1CHL1   C14   16   5.329   0.607   9.507 -0.0446 -0.4185  0.0776
    1CHL1   H14   17   5.438   0.594   9.521  0.6225  0.3662 -3.3999
    1CHL1   C15   18   5.323   0.724   9.410 -0.2087  0.4622 -0.2749
    1CHL1  H15A   19   5.220   0.764   9.395 -0.8698 -0.0068  2.3638
    1CHL1  H15B   20   5.392   0.806   9.440 -2.4662  2.6968 -0.7566
    1CHL1   C16   21   5.377   0.659   9.276 -0.3206  0.7067 -0.7201
    1CHL1  H16A   22   5.317   0.695   9.190 -1.7073 -0.3896 -0.2379
    1CHL1  H16B   23   5.485   0.677   9.253 -0.6408 -0.8953 -4.1712
    1CHL1   C17   24   5.367   0.506   9.296  0.0098 -0.0592 -0.3015
    1CHL1   H17   25   5.465   0.460   9.321 -0.7491 -1.2920  0.5313
    1CHL1   C13   26   5.286   0.481   9.429  0.1622 -0.6087 -0.5040
    1CHL1   C18   27   5.130   0.481   9.392  0.8135  0.3476 -0.5584
    1CHL1  H18A   28   5.109   0.573   9.333 -0.3823 -0.1377 -0.9026
    1CHL1  H18B   29   5.108   0.386   9.338  0.7124 -0.9470  1.6384
    1CHL1  H18C   30   5.063   0.490   9.479 -3.1940 -0.6764 -3.2689
    1CHL1   C12   31   5.309   0.354   9.507 -0.0250 -0.4076 -0.2593
    1CHL1  H12A   32   5.263   0.262   9.465  0.4585 -1.2850  1.0695
    1CHL1  H12B   33   5.418   0.332   9.506 -0.0090 -0.5491  1.2870
    1CHL1   C11   34   5.274   0.365   9.651  0.4659  0.3361 -0.7029
    1CHL1  H11A   35   5.163   0.357   9.655  0.4286 -1.2773 -3.0734
    1CHL1  H11B   36   5.332   0.296   9.715  0.2529  0.6128 -0.2043
    1CHL1    C9   37   5.299   0.504   9.727  0.4695  0.8606 -0.2641
    1CHL1    H9   38   5.409   0.504   9.742  0.8881 -0.6692 -2.7126
    1CHL1   C10   39   5.240   0.516   9.865  0.5420  0.0361 -0.0774
    1CHL1   C19   40   5.089   0.471   9.851  1.0820 -0.0371  0.0323
    1CHL1  H19A   41   5.029   0.488   9.943  0.2653 -1.1724 -0.2751
    1CHL1  H19B   42   5.043   0.518   9.762  1.0674  0.7284  0.4364
    1CHL1  H19C   43   5.073   0.365   9.824  0.1935 -0.0141  0.4221
    1CHL1    C1   44   5.312   0.410   9.962  0.0002  0.3659  0.9941
    1CHL1   H1A   45   5.292   0.306   9.928 -2.1146  0.1159  2.7947
    1CHL1   H1B   46   5.419   0.439   9.957  0.0765  0.0215  0.5027
    1CHL1    C2   47   5.276   0.417  10.111  0.2941 -0.1246 -1.1170
    1CHL1   H2A   48   5.345   0.345  10.161  0.2902  1.0670  0.7045
    1CHL1   H2B   49   5.172   0.381  10.123  1.1646 -2.0048  2.3340
    1CHL1   C20   50   5.332   0.435   9.164 -0.2641 -0.1526 -1.2942
    1CHL1   H20   51   5.230   0.462   9.131  0.6377  0.9706 -3.3701
    1CHL1   C21   52   5.335   0.285   9.191  0.4543 -0.8935 -0.0336
    1CHL1  H21A   53   5.247   0.246   9.246 -0.6541 -3.2561 -3.1547
    1CHL1  H21B   54   5.432   0.265   9.241  0.0458  0.4221  1.3520
    1CHL1  H21C   55   5.330   0.235   9.092  0.0481 -0.9911  0.0311
    1CHL1   C22   56   5.432   0.474   9.047 -0.4097  0.0266  0.3002
    1CHL1  H22A   57   5.469   0.579   9.047  1.4707 -0.5960 -0.2718
    1CHL1  H22B   58   5.523   0.410   9.053  0.1178  0.8045  0.8039
    1CHL1   C23   59   5.366   0.460   8.908  0.0587 -0.7473  0.2361
    1CHL1  H23A   60   5.302   0.369   8.915  0.6083 -1.2477 -0.8773
    1CHL1  H23B   61   5.304   0.546   8.878  1.6425  0.1564 -0.5967
    1CHL1   C24   62   5.463   0.414   8.798  0.2203 -1.0080  0.4289
    1CHL1  H24A   63   5.545   0.489   8.790 -0.9913  0.2740 -0.3695
    1CHL1  H24B   64   5.507   0.316   8.827  1.8419 -0.4327  0.0208
    1CHL1   C25   65   5.407   0.395   8.649 -0.2773 -0.3243  0.5166
    1CHL1   H25   66   5.310   0.342   8.644  0.9138 -2.5381 -0.9706
    1CHL1   C26   67   5.374   0.541   8.603  0.0358  0.4894 -0.0942
    1CHL1  H26A   68   5.466   0.602   8.607 -1.2711  2.9625 -3.0898
    1CHL1  H26B   69   5.336   0.546   8.498 -0.0404 -2.2605 -0.2529
    1CHL1  H26C   70   5.293   0.587   8.664  0.1917 -0.7147  1.0522
    1CHL1   C27   71   5.510   0.326   8.561 -0.5112  0.6604 -0.2217
    1CHL1  H27A   72   5.608   0.370   8.586 -1.8116  3.3672  0.4296
    1CHL1  H27B   73   5.517   0.221   8.598  0.9501 -0.3120 -2.9794
    1CHL1  H27C   74   5.483   0.324   8.453  0.5815 -2.4799 -0.5370
    2CHL1    C3   75   5.597   3.603  10.014 -0.0608  0.0678  0.2934
    2CHL1    H3   76   5.490   3.630  10.031  0.5266  1.2726  2.4498
    2CHL1    O3   77   5.666   3.560  10.132  0.4206  0.2949  0.5663
    2CHL1   H3'   78   5.657   3.627  10.200  0.3646 -0.0080  0.8651
    2CHL1    C4   79   5.606   3.481   9.917  0.2956  0.1476  0.7500
    2CHL1   H4A   80   5.707   3.435   9.918  0.1164 -0.3954 -1.6674
    2CHL1   H4B   81   5.547   3.401   9.967 -1.5454  1.2305  0.3999
    2CHL1    C5   82   5.546   3.518   9.777 -0.3372 -0.0189 -0.9177
    2CHL1    C6   83   5.440   3.450   9.716 -1.3591  0.1172  0.1119
    2CHL1    H6   84   5.390   3.365   9.765 -0.5329 -0.0666  0.6634
    2CHL1    C7   85   5.394   3.474   9.578 -0.3179 -0.9164  0.3561
    2CHL1   H7A   86   5.389   3.377   9.524  0.3238 -1.6812  1.6380
    2CHL1   H7B   87   5.295   3.523   9.566  0.4098  0.0140 -2.9483
    2CHL1    C8   88   5.483   3.569   9.496 -0.5806 -0.8420 -0.4461
    2CHL1    H8   89   5.577   3.516   9.468  0.9792  1.4362  0.1116
    2CHL1   C14   90   5.412   3.617   9.370 -0.2118 -0.0505  0.5432
    2CHL1   H14   91   5.341   3.693   9.408 -1.0183 -1.5981  2.2665
    2CHL1   C15   92   5.332   3.516   9.287 -0.6942  0.0781 -0.8429
    2CHL1  H15A   93   5.379   3.415   9.292  0.6709  0.6997 -0.5673
    2CHL1  H15B   94   5.232   3.506   9.334  0.0337 -1.1563  0.5273
    2CHL1   C16   95   5.326   3.573   9.149  0.1131  0.4961  0.0286
    2CHL1  H16A   96   5.387   3.506   9.085 -1.0767 -1.2102  0.6166
    2CHL1  H16B   97   5.224   3.579   9.105 -0.2434 -1.7715  0.4253
    2CHL1   C17   98   5.393   3.712   9.162  1.0211  0.5608 -0.2298
    2CHL1   H17   99   5.306   3.772   9.196 -0.5965 -1.6336 -0.2413
    2CHL1   C13  100   5.494   3.696   9.274  0.0004  0.2376  1.0341
    2CHL1   C18  101   5.615   3.604   9.230  0.4567 -0.5513  0.5340
    2CHL1  H18A  102   5.660   3.641   9.136 -1.5691 -0.2655 -0.3807
    2CHL1  H18B  103   5.693   3.618   9.308 -0.0459  1.2562  0.7541
    2CHL1  H18C  104   5.608   3.494   9.220  2.9710 -0.6988 -0.3570
    2CHL1   C12  105   5.534   3.821   9.351  0.4027  0.5289 -0.5113
    2CHL1  H12A  106   5.612   3.873   9.291  1.8076  0.7459  1.4241
    2CHL1  H12B  107   5.450   3.891   9.373 -1.0334 -1.2627 -0.0604
    2CHL1   C11  108   5.609   3.787   9.486  0.4668  0.3180 -0.0052
    2CHL1  H11A  109   5.715   3.768   9.458  0.9271  1.6685  0.6840
    2CHL1  H11B  110   5.620   3.886   9.536 -0.6995 -0.0808  1.0793
    2CHL1    C9  111   5.533   3.688   9.577 -0.1107 -0.6498 -0.0731
    2CHL1    H9  112   5.441   3.738   9.613 -1.3983 -2.0768 -1.2448
    2CHL1   C10  113   5.613   3.639   9.706 -0.1605 -0.9947 -0.1285
    2CHL1   C19  114   5.760   3.610   9.664 -0.4896 -0.1910 -0.1725
    2CHL1  H19A  115   5.822   3.563   9.743  0.5856  0.4731 -0.6049
    2CHL1  H19B  116   5.764   3.544   9.575  1.5187  0.6231 -0.7322
    2CHL1  H19C  117   5.812   3.706   9.643  0.5215 -1.3442 -3.6213
    2CHL1    C1  118   5.613   3.755   9.805 -0.2092  0.0964 -0.2409
    2CHL1   H1A  119   5.676   3.838   9.768  1.4534 -0.2792  1.5840
    2CHL1   H1B  120   5.508   3.783   9.825 -0.0970 -0.0080  0.5557
    2CHL1    C2  121   5.664   3.725   9.950 -0.1856  0.5797 -0.6467
    2CHL1   H2A  122   5.661   3.818  10.011 -0.7169 -0.0400  0.2857
    2CHL1   H2B  123   5.770   3.696   9.935  0.2434  1.4678  0.4740
    2CHL1   C20  124   5.435   3.759   9.027  0.1009 -0.3296  0.0151
    2CHL1   H20  125   5.520   3.700   8.985  1.1250  0.8551  0.3443
    2CHL1   C21  126   5.490   3.904   9.024  0.3975 -0.0505 -0.4696
    2CHL1  H21A  127   5.550   3.934   9.112 -1.4516 -1.1677  1.2446
    2CHL1  H21B  128   5.406   3.975   9.037  1.0614  0.5112  0.9361
    2CHL1  H21C  129   5.558   3.917   8.937  1.6153  0.1133  0.4711
    2CHL1   C22  130   5.330   3.743   8.911  0.1082  0.2188 -0.0806
    2CHL1  H22A  131   5.326   3.633   8.897 -0.4051  0.2509 -0.1998
    2CHL1  H22B  132   5.235   3.799   8.923 -2.1155 -3.5073  1.2527
    2CHL1   C23  133   5.388   3.790   8.775  0.3654  0.1512  0.6019
    2CHL1  H23A  134   5.401   3.900   8.770  3.7671 -0.0904  1.3431
    2CHL1  H23B  135   5.484   3.733   8.772 -0.1489 -0.8105  1.5868
    2CHL1   C24  136   5.306   3.763   8.651  0.4702 -0.0300  0.4235
    2CHL1  H24A  137   5.262   3.662   8.644  0.0376  0.2000 -0.3676
    2CHL1  H24B  138   5.226   3.840   8.653  1.5206  1.1402 -0.5307
    2CHL1   C25  139   5.386   3.787   8.518  0.5038 -0.5776 -0.2634
    2CHL1   H25  140   5.483   3.734   8.520  0.2917 -1.1521 -2.7473
    2CHL1   C26  141   5.301   3.737   8.393  0.0376 -0.5244 -0.4126
    2CHL1  H26A  142   5.288   3.628   8.408 -1.8772 -0.1130  1.3071
    2CHL1  H26B  143   5.203   3.784   8.371 -0.5854 -0.8318  1.5628
    2CHL1  H26C  144   5.359   3.758   8.300 -0.4784  2.2273 -0.2088
    2CHL1   C27  145   5.429   3.933   8.490 -0.3326  0.6704  0.6185
    2CHL1  H27A  146   5.513   3.955   8.420  1.1654  1.1797  2.4906
    2CHL1  H27B  147   5.346   4.001   8.463 -0.4155 -0.3285 -1.8486
    2CHL1  H27C  148   5.475   3.978   8.581  3.2264  1.0479 -1.1636
    3CHL1    C3  149   6.789   2.247  10.333  0.4355  0.5862  0.5296
    3CHL1    H3  150   6.700   2.181  10.339  0.7840  0.1958  1.7252
    3CHL1    O3  151   6.827   2.250  10.468 -0.4394 -0.7005  0.2586
    3CHL1   H3'  152   6.768   2.308  10.518  1.0202 -0.3358  1.6277
    3CHL1    C4  153   6.901   2.185  10.245 -0.1765 -0.3432 -0.2085
    3CHL1   H4A  154   6.992   2.247  10.257 -1.7358  2.1591 -0.6323
    3CHL1   H4B  155   6.933   2.086  10.283  1.1168  0.5947  1.2441
    3CHL1    C5  156   6.867   2.179  10.098  0.6176  0.1159 -0.5864
    3CHL1    C6  157   6.885   2.067  10.018 -0.1330 -0.1953 -0.1654
    3CHL1    H6  158   6.945   1.986  10.063  0.7969  0.7740  0.3689
    3CHL1    C7  159   6.863   2.060   9.872  0.3118  0.0362 -0.3404
    3CHL1   H7A  160   6.956   2.030   9.820  0.5008 -0.7643  0.4355
    3CHL1   H7B  161   6.800   1.972   9.847  0.1049 -0.3993  1.5611
    3CHL1    C8  162   6.807   2.197   9.809 -0.3362  0.2656  0.5792
    3CHL1    H8  163   6.898   2.254   9.782  0.8717 -1.2798  1.2131
    3CHL1   C14  164   6.732   2.172   9.675 -0.2993  0.3482 -0.1809
    3CHL1   H14  165   6.652   2.103   9.708 -1.3694  1.7856  0.3045
    3CHL1   C15  166   6.794   2.093   9.569 -0.4652  0.5796  0.6171
    3CHL1  H15A  167   6.891   2.137   9.539 -0.7986  2.4302  2.0875
    3CHL1  H15B  168   6.808   1.986   9.595  0.7681  0.2637 -1.2035
    3CHL1   C16  169   6.702   2.103   9.454  0.4007  0.3649  0.0776
    3CHL1  H16A  170   6.763   2.130   9.365  1.5051  0.3370  0.8065
    3CHL1  H16B  171   6.645   2.016   9.415  1.6929  0.0480 -1.1839
    3CHL1   C17  172   6.604   2.224   9.488  0.2477  0.4111  0.2641
    3CHL1   H17  173   6.508   2.176   9.519  1.2935 -1.2587  1.1116
    3CHL1   C13  174   6.662   2.287   9.613  0.1705 -0.2500  0.0064
    3CHL1   C18  175   6.765   2.395   9.574  0.0053 -0.1962 -1.0322
    3CHL1  H18A  176   6.714   2.493   9.561  0.5169  0.2794  0.3104
    3CHL1  H18B  177   6.843   2.411   9.652 -2.6792  2.5388  1.3847
    3CHL1  H18C  178   6.835   2.377   9.490  0.6179  1.8777 -1.0285
    3CHL1   C12  179   6.567   2.353   9.714  0.8144  0.2541  0.4079
    3CHL1  H12A  180   6.534   2.453   9.679 -0.2758 -0.4602 -0.7256
    3CHL1  H12B  181   6.474   2.294   9.732  0.0635  0.3119 -2.5887
    3CHL1   C11  182   6.641   2.397   9.841 -0.3624  0.2574 -0.2144
    3CHL1  H11A  183   6.731   2.454   9.811 -0.9937  0.6298 -1.4798
    3CHL1  H11B  184   6.572   2.456   9.905  1.6112  1.8238  0.5531
    3CHL1    C9  185   6.712   2.270   9.915 -0.1093  0.7834  0.7609
    3CHL1    H9  186   6.632   2.200   9.949 -0.6378  0.9328 -0.1600
    3CHL1   C10  187   6.785   2.303  10.042 -0.0847  0.2909 -0.0077
    3CHL1   C19  188   6.884   2.418  10.009 -0.1759 -0.5647 -0.3492
    3CHL1  H19A  189   6.829   2.513   9.993 -0.6861 -0.5095  1.4085
    3CHL1  H19B  190   6.947   2.443  10.097 -0.4840 -1.4703  0.1461
    3CHL1  H19C  191   6.949   2.401   9.921 -2.2021 -2.4099 -1.5999
    3CHL1    C1  192   6.686   2.354  10.146  0.3108  0.3582  0.6353
    3CHL1   H1A  193   6.650   2.453  10.110 -0.6434 -0.0425  0.4643
    3CHL1   H1B  194   6.595   2.292  10.159 -0.8114  2.3993  3.8089
    3CHL1    C2  195   6.739   2.378  10.286  0.3942 -0.3497 -0.0591
    3CHL1   H2A  196   6.659   2.415  10.354  1.2643  0.8729  0.3239
    3CHL1   H2B  197   6.817   2.457  10.284 -1.0279  1.1767  1.3309
    3CHL1   C20  198   6.573   2.303   9.363  0.3950 -0.4743  0.4494
    3CHL1   H20  199   6.671   2.348   9.339  1.0097 -1.2101  1.5134
    3CHL1   C21  200   6.466   2.421   9.395 -1.0837  0.2403 -0.1426
    3CHL1  H21A  201   6.443   2.479   9.303 -1.1467  0.1826 -0.1635
    3CHL1  H21B  202   6.509   2.490   9.470  0.3178 -0.3614 -0.3538
    3CHL1  H21C  203   6.373   2.367   9.426 -0.0184 -1.7651 -0.2714
    3CHL1   C22  204   6.531   2.227   9.234 -0.1222 -0.2512 -0.8088
    3CHL1  H22A  205   6.591   2.136   9.213 -0.0884  0.0023 -1.8909
    3CHL1  H22B  206   6.428   2.186   9.247  0.0043 -0.0865  1.0088
    3CHL1   C23  207   6.539   2.315   9.104  0.4811  0.6166  0.4617
    3CHL1  H23A  208   6.484   2.411   9.102  1.8245  1.3967 -0.0937
    3CHL1  H23B  209   6.644   2.348   9.090  0.7582  0.8554  2.7751
    3CHL1   C24  210   6.505   2.234   8.982  0.2676  0.7487  0.0639
    3CHL1  H24A  211   6.587   2.159   8.976  2.1536  2.5592  1.4754
    3CHL1  H24B  212   6.408   2.181   8.997  0.9450 -0.0340  1.9591
    3CHL1   C25  213   6.505   2.302   8.842  0.4864 -0.8053  0.5057
    3CHL1   H25  214   6.448   2.397   8.846  0.9658 -0.5299  0.9392
    3CHL1   C26  215   6.650   2.335   8.803 -0.7204 -0.0413  0.9612
    3CHL1  H26A  216   6.665   2.392   8.709 -1.4019 -0.8765  0.3354
    3CHL1  H26B  217   6.696   2.395   8.885  3.6029 -0.3767 -0.9793
    3CHL1  H26C  218   6.705   2.240   8.794  0.1967  0.1065  3.8154
    3CHL1   C27  219   6.440   2.221   8.734 -0.2571  0.6503  0.3744
    3CHL1  H27A  220   6.492   2.124   8.721 -1.5962 -0.3531  2.1353
    3CHL1  H27B  221   6.341   2.183   8.766  0.4698  0.0400  1.9626
    3CHL1  H27C  222   6.444   2.280   8.639  1.2330  0.4911  0.3202
    4CHL1    C3  223   0.957   0.497  10.358  0.1715  0.1368 -0.0673
    4CHL1    H3  224   1.037   0.427  10.325 -0.0747 -0.2296  0.1082
    4CHL1    O3  225   0.945   0.496  10.497 -0.0798  0.1224 -0.4047
    4CHL1   H3'  226   1.029   0.527  10.530 -0.0819  0.4925 -0.7361
    4CHL1    C4  227   0.988   0.639  10.307 -0.2366  0.7083  0.0152
    4CHL1   H4A  228   0.900   0.695  10.345 -0.5427 -1.6904  3.2249
    4CHL1   H4B  229   1.066   0.688  10.369 -0.5139  2.0256 -0.6307
    4CHL1    C5  230   0.998   0.648  10.160  1.0372  0.0641  0.1558
    4CHL1    C6  231   1.096   0.707  10.094  0.1999  0.8740  0.4150
    4CHL1    H6  232   1.181   0.740  10.156 -1.6426 -0.9763  4.2565
    4CHL1    C7  233   1.100   0.735   9.949 -0.4378  0.0920  0.0787
    4CHL1   H7A  234   1.145   0.832   9.920 -0.3066  0.1857  0.5813
    4CHL1   H7B  235   1.163   0.652   9.911 -0.9650 -1.2302  1.9039
    4CHL1    C8  236   0.968   0.709   9.877 -1.2174 -0.0574  0.6508
    4CHL1    H8  237   0.903   0.797   9.897 -0.1574  0.5990  1.3095
    4CHL1   C14  238   0.987   0.697   9.725 -0.8024 -0.3859 -0.5782
    4CHL1   H14  239   1.059   0.613   9.718  0.4116  0.5324  0.4575
    4CHL1   C15  240   1.058   0.808   9.643 -0.1450 -0.3442  0.0872
    4CHL1  H15A  241   1.006   0.904   9.659 -0.4437 -0.5452  0.3353
    4CHL1  H15B  242   1.162   0.827   9.676 -0.6558 -0.5944  1.9065
    4CHL1   C16  243   1.033   0.763   9.502  0.3375  1.1868 -0.5132
    4CHL1  H16A  244   1.007   0.842   9.428 -2.0510 -0.6152 -1.7223
    4CHL1  H16B  245   1.117   0.710   9.451  0.1480 -0.1419  0.4914
    4CHL1   C17  246   0.916   0.652   9.509 -0.5568 -0.8208  0.3374
    4CHL1   H17  247   0.972   0.556   9.503 -0.8669 -0.8910 -2.2239
    4CHL1   C13  248   0.865   0.664   9.647 -0.4979 -0.2587  0.9574
    4CHL1   C18  249   0.759   0.772   9.655 -0.3586 -0.4495 -0.2848
    4CHL1  H18A  250   0.736   0.808   9.758 -0.6711 -1.0129 -0.1555
    4CHL1  H18B  251   0.804   0.861   9.606  2.0934 -1.7273 -0.4935
    4CHL1  H18C  252   0.656   0.753   9.618  0.4818 -2.3095 -1.8357
    4CHL1   C12  253   0.807   0.528   9.693 -0.4732 -0.5994 -0.2213
    4CHL1  H12A  254   0.726   0.499   9.623 -0.3918 -0.2421 -0.4682
    4CHL1  H12B  255   0.886   0.452   9.678 -0.0413  0.3163 -3.4058
    4CHL1   C11  256   0.773   0.532   9.848  0.5589 -0.2104 -0.4893
    4CHL1  H11A  257   0.685   0.599   9.859 -1.2369 -1.7247 -3.9819
    4CHL1  H11B  258   0.741   0.431   9.882  0.7475  0.1329  0.7679
    4CHL1    C9  259   0.895   0.579   9.931  0.5358 -0.1644 -0.1054
    4CHL1    H9  260   0.970   0.498   9.917 -0.9412 -1.0925 -3.7188
    4CHL1   C10  261   0.876   0.583  10.086  0.2819 -0.3554  0.2904
    4CHL1   C19  262   0.759   0.685  10.103 -0.0381 -0.2987  0.2690
    4CHL1  H19A  263   0.669   0.641  10.056  0.1652 -0.3534 -0.0762
    4CHL1  H19B  264   0.723   0.713  10.204 -0.6934  0.3883 -0.1502
    4CHL1  H19C  265   0.791   0.781  10.058  0.7900 -0.9697 -0.6316
    4CHL1    C1  266   0.838   0.445  10.146  0.0547  0.2444  0.1235
    4CHL1   H1A  267   0.741   0.409  10.106  0.9367 -1.9634 -0.1926
    4CHL1   H1B  268   0.914   0.369  10.119  0.0411 -0.6193  2.3125
    4CHL1    C2  269   0.824   0.446  10.299 -0.0012 -0.3947  0.0730
    4CHL1   H2A  270   0.797   0.350  10.347 -2.8323  0.0486 -0.4550
    4CHL1   H2B  271   0.754   0.528  10.326  1.2594  0.5969  0.4440
    4CHL1   C20  272   0.818   0.640   9.394 -0.3885  0.4594  0.6763
    4CHL1   H20  273   0.730   0.582   9.426  0.0484 -1.1203 -0.8422
    4CHL1   C21  274   0.881   0.546   9.290 -0.0577  0.5612 -0.3283
    4CHL1  H21A  275   0.938   0.596   9.210 -0.6921  1.8845  0.0158
    4CHL1  H21B  276   0.799   0.493   9.236 -0.2517  0.2482  0.2627
    4CHL1  H21C  277   0.947   0.468   9.334  0.7258  1.4799  0.1474
    4CHL1   C22  278   0.768   0.765   9.327  0.3178 -0.6075  0.4898
    4CHL1  H22A  279   0.690   0.810   9.392 -1.8751 -2.4663 -0.7340
    4CHL1  H22B  280   0.847   0.838   9.301 -1.8629  1.9562  0.6590
    4CHL1   C23  281   0.692   0.747   9.197 -0.1247  0.8432  0.4732
    4CHL1  H23A  282   0.754   0.690   9.125 -2.7432  2.4341 -3.4277
    4CHL1  H23B  283   0.597   0.693   9.218  0.4611 -0.0972  0.7576
    4CHL1   C24  284   0.660   0.888   9.133  0.5618  0.3354  0.2257
    4CHL1  H24A  285   0.584   0.935   9.200  1.5797 -0.4310  1.9782
    4CHL1  H24B  286   0.755   0.946   9.125  1.0568 -0.3655  0.8897
    4CHL1   C25  287   0.589   0.874   8.993 -0.0023 -0.0272  0.6884
    4CHL1   H25  288   0.507   0.801   9.008 -0.4229  0.4948  0.9873
    4CHL1   C26  289   0.531   1.003   8.924 -0.4817  0.0813 -0.3290
    4CHL1  H26A  290   0.456   0.961   8.853 -0.5982  2.1393 -1.4812
    4CHL1  H26B  291   0.477   1.054   9.007  1.0710  0.3973  0.5124
    4CHL1  H26C  292   0.604   1.075   8.881 -1.2697  1.0377 -0.1037
    4CHL1   C27  293   0.701   0.811   8.899 -0.1134 -0.1620  0.2004
    4CHL1  H27A  294   0.666   0.788   8.796 -1.0019 -0.3552  0.5348
    4CHL1  H27B  295   0.799   0.862   8.892 -0.3615  0.1367 -1.4662
    4CHL1  H27C  296   0.712   0.710   8.945 -2.9393 -0.0161  1.3923
    5CHL1    C3  297   5.002   3.244  10.203  0.1521  0.3823 -0.1694
    5CHL1    H3  298   5.005   3.354  10.214 -1.1954  0.2693  1.9157
    5CHL1    O3  299   5.011   3.199  10.337 -0.2007 -0.1317 -0.7211
    5CHL1   H3'  300   5.052   3.112  10.332  0.8092  0.4062 -2.6035
    5CHL1    C4  301   4.877   3.199  10.141  0.6738 -0.2257  0.2652
    5CHL1   H4A  302   4.886   3.090  10.124 -2.2896 -0.2876 -1.8221
    5CHL1   H4B  303   4.805   3.224  10.222  1.7938  2.0504  0.6218
    5CHL1    C5  304   4.871   3.269  10.005  0.4811  0.1217 -0.0838
    5CHL1    C6  305   4.765   3.345   9.978  0.0809 -0.5125 -0.6065
    5CHL1    H6  306   4.690   3.376  10.053  0.7720  3.8095 -1.4428
    5CHL1    C7  307   4.739   3.408   9.840  0.8376 -0.1174 -0.1456
    5CHL1   H7A  308   4.631   3.401   9.817  0.7793 -1.8181  0.5397
    5CHL1   H7B  309   4.776   3.513   9.837 -0.4938  0.4423  1.4066
    5CHL1    C8  310   4.824   3.343   9.731 -0.0615 -0.0864 -0.4233
    5CHL1    H8  311   4.776   3.245   9.709 -1.1960  0.0169  1.3737
    5CHL1   C14  312   4.827   3.426   9.600 -0.1746  0.2225  0.5611
    5CHL1   H14  313   4.878   3.515   9.643  0.1528 -0.7223  2.2104
    5CHL1   C15  314   4.693   3.478   9.548 -0.3155  0.4409 -0.1919
    5CHL1  H15A  315   4.609   3.406   9.559 -1.4181  1.3431 -2.1677
    5CHL1  H15B  316   4.667   3.562   9.617  2.8080  2.0239 -0.7541
    5CHL1   C16  317   4.711   3.515   9.400  0.4665  0.4763 -0.0355
    5CHL1  H16A  318   4.636   3.451   9.348  1.4670 -0.8628  0.0965
    5CHL1  H16B  319   4.700   3.621   9.370  1.9090  1.3066  2.1402
    5CHL1   C17  320   4.860   3.465   9.374  0.0591 -0.2211  0.7024
    5CHL1   H17  321   4.914   3.561   9.387  0.7527 -0.4654 -0.2870
    5CHL1   C13  322   4.906   3.372   9.488  0.0795 -0.8549 -0.0001
    5CHL1   C18  323   4.856   3.233   9.452  0.2592 -0.1288  0.3841
    5CHL1  H18A  324   4.858   3.149   9.524 -0.3774 -1.2929 -0.8897
    5CHL1  H18B  325   4.751   3.248   9.417  0.4758  1.5373  0.3302
    5CHL1  H18C  326   4.917   3.197   9.366 -0.6245  0.2611 -0.4364
    5CHL1   C12  327   5.053   3.372   9.533 -0.1614 -0.5077 -0.2704
    5CHL1  H12A  328   5.118   3.329   9.454  0.6439  0.0431  0.0764
    5CHL1  H12B  329   5.089   3.476   9.547 -0.8792 -0.4696  1.6439
    5CHL1   C11  330   5.069   3.296   9.664 -0.2781 -0.5049  0.1650
    5CHL1  H11A  331   5.062   3.188   9.637 -0.6273 -0.6124  0.6856
    5CHL1  H11B  332   5.174   3.318   9.694 -0.1824 -0.2428 -0.3541
    5CHL1    C9  333   4.971   3.327   9.776  0.2606  0.3811 -0.7221
    5CHL1    H9  334   5.007   3.428   9.806  1.5157 -0.2548 -0.0282
    5CHL1   C10  335   4.984   3.238   9.902 -0.0681 -0.0638 -0.4836
    5CHL1   C19  336   4.959   3.094   9.861 -0.3094 -0.2971  0.0915
    5CHL1  H19A  337   4.916   3.031   9.942 -2.4325 -0.5242 -1.1365
    5CHL1  H19B  338   4.887   3.087   9.777 -1.0979  0.8464  0.6417
    5CHL1  H19C  339   5.059   3.057   9.831 -0.2236  0.7710 -0.9999
    5CHL1    C1  340   5.122   3.257   9.974 -0.0431 -0.2396 -0.2609
    5CHL1   H1A  341   5.213   3.220   9.923  0.8638  0.9177  0.4861
    5CHL1   H1B  342   5.141   3.366   9.980  2.9549 -0.6272 -1.0420
    5CHL1    C2  343   5.121   3.199  10.117  0.4747 -0.0659  0.6703
    5CHL1   H2A  344   5.213   3.235  10.168  0.9298  0.5269 -0.5389
    5CHL1   H2B  345   5.122   3.088  10.109  0.8823  0.0552 -1.3650
    5CHL1   C20  346   4.872   3.417   9.229 -0.3539  0.1922 -0.4551
    5CHL1   H20  347   4.830   3.315   9.216  0.9057 -0.4879  0.5488
    5CHL1   C21  348   5.020   3.411   9.187  0.3554 -0.2978  0.0638
    5CHL1  H21A  349   5.067   3.350   9.268 -1.5142 -1.1219  0.5764
    5CHL1  H21B  350   5.064   3.513   9.193  1.6563 -0.8920  1.2458
    5CHL1  H21C  351   5.046   3.377   9.084  2.8274  1.3734  0.0597
    5CHL1   C22  352   4.806   3.510   9.117  0.2130 -0.1184  0.1159
    5CHL1  H22A  353   4.696   3.514   9.127  0.0047  0.5101 -1.9743
    5CHL1  H22B  354   4.843   3.613   9.138 -1.4649  0.3881  0.7127
    5CHL1   C23  355   4.847   3.476   8.972 -0.5191 -0.5374 -0.4657
    5CHL1  H23A  356   4.949   3.512   8.949  0.1669 -2.0698  0.0757
    5CHL1  H23B  357   4.849   3.365   8.973 -0.1440 -0.5475  1.1083
    5CHL1   C24  358   4.762   3.535   8.866  0.8076  0.2102 -0.3115
    5CHL1  H24A  359   4.656   3.502   8.873  1.7032 -3.3855 -1.4305
    5CHL1  H24B  360   4.778   3.643   8.844 -2.0216  1.1001  1.4187
    5CHL1   C25  361   4.793   3.461   8.727 -0.0022  0.0111 -0.7624
    5CHL1   H25  362   4.786   3.351   8.735  1.4867  0.0108  1.8631
    5CHL1   C26  363   4.694   3.510   8.615 -0.6026 -0.1207 -0.5333
    5CHL1  H26A  364   4.686   3.621   8.618  0.5687 -0.0446  1.6398
    5CHL1  H26B  365   4.735   3.472   8.519 -1.0796 -3.4778  0.4518
    5CHL1  H26C  366   4.593   3.468   8.631 -0.5427 -0.4381 -0.9759
    5CHL1   C27  367   4.938   3.501   8.692 -0.6418  0.5193 -0.1982
    5CHL1  H27A  368   4.961   3.610   8.690 -0.9664  0.5899 -0.1356
    5CHL1  H27B  369   5.012   3.447   8.755 -1.6569 -1.1210 -0.3496
    5CHL1  H27C  370   4.964   3.469   8.589  4.0122  0.0875  0.8867
    6CHL1    C3  371   4.066   1.102  10.320 -0.3975 -0.8832 -0.0793
    6CHL1    H3  372   3.971   1.069  10.273  0.5543 -0.9702 -2.0553
    6CHL1    O3  373   4.061   1.119  10.460  0.1034 -0.0839  0.0466
    6CHL1   H3'  374   4.021   1.204  10.480  4.2605  1.9666  0.7431
    6CHL1    C4  375   4.173   1.004  10.294  0.0272 -0.6804 -0.1158
    6CHL1   H4A  376   4.262   1.044  10.347 -0.0407 -1.3832  0.5383
    6CHL1   H4B  377   4.158   0.909  10.349  0.9661 -1.5986 -1.3928
    6CHL1    C5  378   4.204   0.978  10.150  1.0403  0.1605  0.7973
    6CHL1    C6  379   4.174   0.853  10.100 -0.7769  0.1788 -0.4502
    6CHL1    H6  380   4.136   0.771  10.163  1.0030 -0.2268  0.1588
    6CHL1    C7  381   4.188   0.811   9.957  0.1665 -0.3653 -0.2553
    6CHL1   H7A  382   4.237   0.712   9.956  0.7432 -0.0765 -1.2376
    6CHL1   H7B  383   4.084   0.794   9.921  0.6632  2.1463 -3.2591
    6CHL1    C8  384   4.259   0.921   9.875 -0.1466  0.0542 -0.2699
    6CHL1    H8  385   4.367   0.915   9.900 -0.2020 -1.1302 -0.2821
    6CHL1   C14  386   4.230   0.905   9.718  0.0667 -0.4244  0.0180
    6CHL1   H14  387   4.121   0.926   9.706  0.2540  1.9898  1.7879
    6CHL1   C15  388   4.263   0.770   9.660  0.5706  0.0082  0.4825
    6CHL1  H15A  389   4.361   0.735   9.700  0.1867 -0.1664  1.2865
    6CHL1  H15B  390   4.195   0.686   9.687  2.1874 -1.6249 -0.2511
    6CHL1   C16  391   4.260   0.797   9.507  0.4325 -0.5744  0.1004
    6CHL1  H16A  392   4.359   0.770   9.466  0.3617 -0.6094 -0.0490
    6CHL1  H16B  393   4.180   0.738   9.458 -0.7109  1.3495 -0.4682
    6CHL1   C17  394   4.241   0.952   9.491  0.8951 -0.1894 -0.5122
    6CHL1   H17  395   4.130   0.961   9.480  0.5522 -0.4331  2.0372
    6CHL1   C13  396   4.294   1.010   9.622 -0.2782 -0.0682 -0.4198
    6CHL1   C18  397   4.453   0.992   9.623 -0.1897 -0.4770 -0.7909
    6CHL1  H18A  398   4.496   1.006   9.725  0.0731  0.5484 -1.0273
    6CHL1  H18B  399   4.488   0.899   9.573  1.5052  0.8152 -2.1380
    6CHL1  H18C  400   4.498   1.065   9.552  2.2639 -2.7332 -1.7235
    6CHL1   C12  401   4.247   1.154   9.667 -0.2592  0.1871 -0.5490
    6CHL1  H12A  402   4.306   1.230   9.612 -0.2400  0.6996  0.1640
    6CHL1  H12B  403   4.141   1.166   9.639 -0.4042 -0.9577 -0.5390
    6CHL1   C11  404   4.276   1.168   9.818  0.3420 -0.4819 -0.1228
    6CHL1  H11A  405   4.386   1.179   9.828  0.2949  2.2895 -1.6234
    6CHL1  H11B  406   4.243   1.266   9.858 -1.8295 -1.2194  0.0232
    6CHL1    C9  407   4.219   1.065   9.912  0.9166 -0.2877  0.1853
    6CHL1    H9  408   4.112   1.080   9.884  0.9801 -0.0739  0.0496
    6CHL1   C10  409   4.230   1.091  10.061  0.1694 -0.0991 -0.3791
    6CHL1   C19  410   4.372   1.124  10.105  0.2179 -0.0620 -0.6447
    6CHL1  H19A  411   4.446   1.044  10.084  1.1504 -0.4091  3.0958
    6CHL1  H19B  412   4.403   1.216  10.051  2.7970 -0.5185 -0.0509
    6CHL1  H19C  413   4.393   1.156  10.210  0.1499  3.9308 -1.6996
    6CHL1    C1  414   4.142   1.220  10.103 -0.1150  0.8469 -0.6564
    6CHL1   H1A  415   4.197   1.309  10.066 -0.3580  0.1088 -2.9418
    6CHL1   H1B  416   4.045   1.231  10.051 -0.8431  1.9103  0.8673
    6CHL1    C2  417   4.106   1.234  10.255 -0.6131 -0.3657  1.1362
    6CHL1   H2A  418   4.027   1.312  10.253 -1.6743 -1.4111 -0.4943
    6CHL1   H2B  419   4.194   1.270  10.312 -1.3172  1.1565  1.2914
    6CHL1   C20  420   4.309   0.990   9.363  0.1671 -0.5171  0.2516
    6CHL1   H20  421   4.420   0.996   9.371  0.1910 -0.3679 -0.1633
    6CHL1   C21  422   4.264   1.130   9.328 -0.3792 -0.5097 -0.6743
    6CHL1  H21A  423   4.348   1.188   9.283 -0.1749 -0.4202 -0.1813
    6CHL1  H21B  424   4.216   1.181   9.414 -0.3093  1.8443 -1.9353
    6CHL1  H21C  425   4.184   1.128   9.250 -0.8881 -1.9273 -0.1371
    6CHL1   C22  426   4.295   0.906   9.240 -0.1314  0.4687 -0.2752
    6CHL1  H22A  427   4.343   0.806   9.253  1.8827  1.0603 -2.4157
    6CHL1  H22B  428   4.190   0.877   9.218  0.0183  0.1680 -0.6138
    6CHL1   C23  429   4.333   0.972   9.103 -0.3307 -0.3682  0.0047
    6CHL1  H23A  430   4.264   1.044   9.055  0.8249  1.8011  1.4647
    6CHL1  H23B  431   4.416   1.038   9.135  0.3174  0.0046 -2.2837
    6CHL1   C24  432   4.387   0.868   9.004  0.1180 -0.2649 -0.0617
    6CHL1  H24A  433   4.469   0.815   9.058 -1.7117 -1.8555  1.2714
    6CHL1  H24B  434   4.310   0.793   8.978 -1.1710  0.9249  0.1812
    6CHL1   C25  435   4.455   0.918   8.875  0.0313  0.0178  0.9111
    6CHL1   H25  436   4.503   1.013   8.904 -0.1265  1.9906 -4.2088
    6CHL1   C26  437   4.562   0.822   8.817  0.3350 -0.1744  0.2277
    6CHL1  H26A  438   4.647   0.801   8.886  0.1643  0.4064  0.6247
    6CHL1  H26B  439   4.518   0.722   8.796  0.4206 -0.0513 -0.5625
    6CHL1  H26C  440   4.603   0.872   8.727 -3.0267  2.6487  0.0452
    6CHL1   C27  441   4.354   0.963   8.771 -0.3938 -0.1985 -0.5551
    6CHL1  H27A  442   4.390   0.987   8.669 -0.0239 -0.4837 -0.4905
    6CHL1  H27B  443   4.271   0.892   8.751 -2.7607  1.3174  2.8109
    6CHL1  H27C  444   4.306   1.057   8.808  0.0067  0.4655 -1.6550
    7CHL1    C3  445   0.399   4.053  10.408  0.3593 -0.3258  0.0771
    7CHL1    H3  446   0.449   3.961  10.371  3.4324  0.0659  2.8135
    7CHL1    O3  447   0.364   4.035  10.544  0.1841 -0.2210  0.5656
    7CHL1   H3'  448   0.333   4.123  10.567 -0.7415 -0.3214 -0.2116
    7CHL1    C4  449   0.508   4.163  10.391  0.0180  0.0400  0.2802
    7CHL1   H4A  450   0.483   4.258  10.442 -0.1862  0.6701 -0.9645
    7CHL1   H4B  451   0.598   4.115  10.437  0.0305 -1.4658 -1.2367
    7CHL1    C5  452   0.535   4.203  10.247  0.6045  0.3280  0.2604
    7CHL1    C6  453   0.660   4.200  10.201 -0.6728 -0.2582  0.2465
    7CHL1    H6  454   0.745   4.177  10.267  0.1263  1.4142 -0.1679
    7CHL1    C7  455   0.696   4.231  10.057  0.2749 -0.1605  0.4361
    7CHL1   H7A  456   0.778   4.306  10.053  1.5417 -1.4529  1.3498
    7CHL1   H7B  457   0.747   4.151  10.000  0.9346  2.9244 -3.8010
    7CHL1    C8  458   0.580   4.299   9.980  0.0299  0.0534  0.2982
    7CHL1    H8  459   0.572   4.405  10.012 -1.1141 -0.2746  1.1367
    7CHL1   C14  460   0.613   4.288   9.831  0.1467  0.6522 -0.5670
    7CHL1   H14  461   0.617   4.178   9.812 -0.7770  0.4151  0.4980
    7CHL1   C15  462   0.758   4.338   9.785  1.0011  0.1091  0.1349
    7CHL1  H15A  463   0.779   4.443   9.816 -1.3109  0.2266  1.5151
    7CHL1  H15B  464   0.833   4.260   9.811 -0.9363 -1.6738  0.5959
    7CHL1   C16  465   0.725   4.348   9.635  0.5477 -0.6251 -0.6563
    7CHL1  H16A  466   0.759   4.450   9.608  0.3988 -0.2732  0.4648
    7CHL1  H16B  467   0.789   4.280   9.574 -1.5366 -3.8119  0.4700
    7CHL1   C17  468   0.577   4.308   9.605  0.0786  0.2150 -0.0653
    7CHL1   H17  469   0.586   4.197   9.606  3.2354  0.3887  0.5925
    7CHL1   C13  470   0.504   4.342   9.736  0.2354  0.4272  0.2208
    7CHL1   C18  471   0.497   4.491   9.759  0.1974  0.2873 -0.2102
    7CHL1  H18A  472   0.432   4.536   9.681  0.4347  0.8770 -0.0744
    7CHL1  H18B  473   0.461   4.523   9.858  2.2067 -3.7099  2.0499
    7CHL1  H18C  474   0.598   4.535   9.742  0.3129 -0.1671 -0.7711
    7CHL1   C12  475   0.369   4.268   9.763 -0.6050  0.6605 -0.1860
    7CHL1  H12A  476   0.305   4.333   9.699  2.6112  0.5937 -3.8521
    7CHL1  H12B  477   0.359   4.168   9.717 -1.2401  1.0951 -1.0314
    7CHL1   C11  478   0.335   4.272   9.915  0.3978 -0.5847 -0.5663
    7CHL1  H11A  479   0.326   4.379   9.944  0.8655 -0.5236 -0.6410
    7CHL1  H11B  480   0.240   4.223   9.945  0.1021  0.1936 -0.1951
    7CHL1    C9  481   0.447   4.221  10.012 -0.5421  0.7061  0.1961
    7CHL1    H9  482   0.458   4.112   9.990 -1.2091  0.3545  1.4827
    7CHL1   C10  483   0.413   4.219  10.157  0.7352  0.4326 -0.4701
    7CHL1   C19  484   0.341   4.352  10.196 -0.2857  0.7985  0.1053
    7CHL1  H19A  485   0.406   4.435  10.164  1.3243 -0.6457 -0.5613
    7CHL1  H19B  486   0.240   4.375  10.154 -0.4277 -0.7549 -0.4765
    7CHL1  H19C  487   0.318   4.362  10.304  2.0717 -1.4622  0.9323
    7CHL1    C1  488   0.313   4.104  10.186 -0.0787  0.1609  0.7573
    7CHL1   H1A  489   0.222   4.135  10.131  1.2928  1.9883 -0.6265
    7CHL1   H1B  490   0.350   4.011  10.136 -1.4407  0.9786 -1.9260
    7CHL1    C2  491   0.278   4.073  10.327  0.1981 -0.0361  0.7187
    7CHL1   H2A  492   0.204   3.992  10.346  0.8448 -0.8934 -0.2764
    7CHL1   H2B  493   0.225   4.163  10.364 -1.0490 -1.2218  1.9032
    7CHL1   C20  494   0.519   4.352   9.470  0.0391 -0.1724  0.3208
    7CHL1   H20  495   0.493   4.459   9.487 -1.4341 -0.5474  0.5524
    7CHL1   C21  496   0.393   4.276   9.432  0.4532 -0.5006 -0.1375
    7CHL1  H21A  497   0.332   4.274   9.525 -0.3122 -4.0432 -0.5704
    7CHL1  H21B  498   0.423   4.174   9.403  0.1899 -0.2177 -1.4870
    7CHL1  H21C  499   0.336   4.312   9.343 -0.0650  0.6062  0.6057
    7CHL1   C22  500   0.621   4.353   9.360  0.1673  0.2858 -0.6120
    7CHL1  H22A  501   0.701   4.429   9.379 -1.3193  2.1755 -1.5731
    7CHL1  H22B  502   0.655   4.248   9.364 -0.7365 -0.0282 -0.9409
    7CHL1   C23  503   0.575   4.391   9.219  0.3183 -0.2200 -0.5280
    7CHL1  H23A  504   0.489   4.334   9.180 -0.3935  1.7092 -1.9472
    7CHL1  H23B  505   0.529   4.491   9.234  1.0631 -0.0246  0.5599
    7CHL1   C24  506   0.681   4.388   9.111  0.2664  0.0160  0.4342
    7CHL1  H24A  507   0.764   4.460   9.128 -0.0810  1.4512 -3.0854
    7CHL1  H24B  508   0.730   4.288   9.118  0.7225  0.2287  0.3043
    7CHL1   C25  509   0.638   4.420   8.970  0.3443 -0.5204 -0.3749
    7CHL1   H25  510   0.543   4.367   8.943  0.4534  0.4853 -3.0325
    7CHL1   C26  511   0.630   4.577   8.958 -0.1487 -0.0361  0.0427
    7CHL1  H26A  512   0.730   4.623   8.976 -0.8405  0.9820  1.5486
    7CHL1  H26B  513   0.584   4.598   8.860 -0.4347  1.4811  0.4822
    7CHL1  H26C  514   0.566   4.613   9.042 -0.1560  1.4901 -0.5874
    7CHL1   C27  515   0.734   4.363   8.872  0.1099  0.1172  0.6911
    7CHL1  H27A  516   0.731   4.253   8.885  1.1131  0.1743  1.6191
    7CHL1  H27B  517   0.712   4.401   8.770 -1.5378 -0.7739  0.6937
    7CHL1  H27C  518   0.839   4.389   8.898 -0.4380  1.0675  2.0423
    8CHL1    C3  519   2.060   4.996  10.336 -0.4116  0.6011  0.3239
    8CHL1    H3  520   2.137   4.917  10.323  0.5108  1.5058  0.1685
    8CHL1    O3  521   2.068   5.051  10.461  1.0130 -0.2073 -0.5395
    8CHL1   H3'  522   2.057   4.983  10.529 -1.8484  2.0156  1.5085
    8CHL1    C4  523   2.082   5.104  10.238 -0.0134 -0.1087 -1.5326
    8CHL1   H4A  524   2.021   5.191  10.269  1.7437  0.3407  1.0389
    8CHL1   H4B  525   2.184   5.136  10.270 -1.2769  1.2826  1.5416
    8CHL1    C5  526   2.066   5.071  10.089  0.7222  0.0964 -0.5572
    8CHL1    C6  527   2.169   5.097  10.012 -0.4146  0.4229  0.3509
    8CHL1    H6  528   2.265   5.132  10.052 -0.1237 -2.1910  2.1992
    8CHL1    C7  529   2.169   5.056   9.863  1.1380 -0.6180  0.1312
    8CHL1   H7A  530   2.199   5.141   9.799  1.0229  0.5554  1.5676
    8CHL1   H7B  531   2.231   4.964   9.859 -0.0601 -1.5175  1.3666
    8CHL1    C8  532   2.026   5.014   9.811  0.4214 -0.2898 -0.4693
    8CHL1    H8  533   1.969   5.109   9.804 -2.4672 -2.0145 -2.8125
    8CHL1   C14  534   2.024   4.951   9.668  0.3445 -1.1009 -0.7687
    8CHL1   H14  535   2.080   4.857   9.687  1.9233  0.0044  0.3843
    8CHL1   C15  536   2.096   5.032   9.556 -0.4052  0.4471 -0.1473
    8CHL1  H15A  537   2.108   5.141   9.576 -2.5733  0.5046  1.1080
    8CHL1  H15B  538   2.192   4.978   9.541 -1.1824 -0.6630 -1.2769
    8CHL1   C16  539   2.022   4.981   9.429  0.4956 -0.1642 -0.3076
    8CHL1  H16A  540   1.969   5.069   9.388  2.1934  1.1530  0.2201
    8CHL1  H16B  541   2.102   4.945   9.360 -0.2101 -0.6421 -0.8885
    8CHL1   C17  542   1.918   4.879   9.471  0.8993  0.0929  0.1123
    8CHL1   H17  543   1.962   4.777   9.478 -2.4841 -1.4009  1.9560
    8CHL1   C13  544   1.882   4.922   9.624 -0.2322  0.2277  0.6100
    8CHL1   C18  545   1.802   5.052   9.608  0.0636  0.1689 -0.0513
    8CHL1  H18A  546   1.698   5.015   9.596 -0.2789  1.0533  0.1130
    8CHL1  H18B  547   1.798   5.108   9.704 -2.6601  0.8263 -0.4660
    8CHL1  H18C  548   1.829   5.134   9.538  0.8628 -0.8038 -0.9202
    8CHL1   C12  549   1.831   4.815   9.723  0.2702 -0.1851 -0.0546
    8CHL1  H12A  550   1.746   4.758   9.681  0.0458 -1.7791  2.3564
    8CHL1  H12B  551   1.902   4.731   9.737  2.6041  1.4713 -1.0308
    8CHL1   C11  552   1.816   4.869   9.871 -0.9962 -0.3677  0.5455
    8CHL1  H11A  553   1.738   4.948   9.864 -1.3365 -0.5909  1.7492
    8CHL1  H11B  554   1.783   4.791   9.942 -1.1871 -0.4067  0.4125
    8CHL1    C9  555   1.955   4.927   9.916  0.5993  0.1375  0.1899
    8CHL1    H9  556   2.016   4.836   9.935 -0.0057  0.2234  2.8935
    8CHL1   C10  557   1.940   4.987  10.064  0.4476 -0.7382 -0.1948
    8CHL1   C19  558   1.822   5.087  10.061 -0.2420 -0.5403  0.1140
    8CHL1  H19A  559   1.832   5.153   9.973  0.3770 -0.0697  0.5253
    8CHL1  H19B  560   1.726   5.031  10.059 -0.0618 -0.8441 -1.6385
    8CHL1  H19C  561   1.819   5.140  10.158 -1.2480 -0.7009  0.1820
    8CHL1    C1  562   1.909   4.882  10.172  0.5164  0.1606 -0.1892
    8CHL1   H1A  563   1.808   4.838  10.157  1.4942 -1.4160 -2.9251
    8CHL1   H1B  564   1.989   4.806  10.156 -0.1204 -0.2869 -1.3639
    8CHL1    C2  565   1.922   4.932  10.315  0.3608  0.1194 -0.0422
    8CHL1   H2A  566   1.905   4.844  10.381  0.8458 -0.1481 -0.2687
    8CHL1   H2B  567   1.841   4.996  10.358  0.8142  1.4850 -1.1390
    8CHL1   C20  568   1.800   4.871   9.374 -0.7712 -0.1695 -0.0101
    8CHL1   H20  569   1.758   4.972   9.355  3.0511  1.4081 -1.1826
    8CHL1   C21  570   1.686   4.775   9.420  0.5931 -0.6522 -1.1456
    8CHL1  H21A  571   1.602   4.773   9.347 -0.7788 -1.4262  0.4081
    8CHL1  H21B  572   1.652   4.814   9.518  4.5582  0.8690 -0.2145
    8CHL1  H21C  573   1.731   4.674   9.432  0.0004 -0.8804 -0.8317
    8CHL1   C22  574   1.851   4.823   9.236 -0.4525 -0.3656 -0.6264
    8CHL1  H22A  575   1.755   4.809   9.183 -0.2641 -1.8089 -0.6415
    8CHL1  H22B  576   1.918   4.894   9.183  0.7297 -1.6579 -0.9320
    8CHL1   C23  577   1.931   4.692   9.237  0.2580 -0.8465 -0.3302
    8CHL1  H23A  578   2.026   4.722   9.286 -0.4296 -2.6847  2.3311
    8CHL1  H23B  579   1.893   4.609   9.300 -0.1512 -0.4661 -0.0659
    8CHL1   C24  580   1.958   4.643   9.091  0.4217 -0.7687  0.1570
    8CHL1  H24A  581   1.857   4.610   9.059 -0.8711 -0.2233  3.3165
    8CHL1  H24B  582   1.998   4.722   9.024 -0.3061  0.7160  1.4197
    8CHL1   C25  583   2.064   4.532   9.078 -0.0491  0.7144 -0.1361
    8CHL1   H25  584   2.031   4.463   9.158  0.6680  1.1709  0.5650
    8CHL1   C26  585   2.046   4.470   8.935  0.0184 -0.0851 -0.2317
    8CHL1  H26A  586   2.136   4.413   8.904  0.3846  1.3557 -2.0407
    8CHL1  H26B  587   1.961   4.398   8.932 -1.0563  1.0214  1.9672
    8CHL1  H26C  588   2.023   4.555   8.867  0.8673  1.2512  1.0916
    8CHL1   C27  589   2.215   4.576   9.096  0.8175 -0.3925 -0.0876
    8CHL1  H27A  590   2.246   4.635   9.008 -2.7331  0.6897 -0.7909
    8CHL1  H27B  591   2.234   4.623   9.195 -3.8736 -0.5272  1.1640
    8CHL1  H27C  592   2.285   4.490   9.107  1.8791  0.3646 -0.7647
    9CHL1    C3  593   3.013   2.423  10.307  0.8931 -0.8065  0.2018
    9CHL1    H3  594   3.091   2.343  10.309  2.7796  0.9539  0.4212
    9CHL1    O3  595   2.989   2.449  10.445 -0.5774  0.0058  0.0477
    9CHL1   H3'  596   2.919   2.514  10.444 -0.6117  0.0133  1.6140
    9CHL1    C4  597   3.066   2.550  10.238  0.3009 -0.2671 -0.4166
    9CHL1   H4A  598   2.985   2.621  10.263 -0.3448 -0.7825 -0.9957
    9CHL1   H4B  599   3.158   2.593  10.283 -0.4185  1.3277 -0.4067
    9CHL1    C5  600   3.079   2.542  10.086  0.1759 -0.2812  0.0783
    9CHL1    C6  601   3.186   2.594  10.020 -0.5724  0.5077  0.5642
    9CHL1    H6  602   3.270   2.638  10.077 -1.2091  1.4637  0.7750
    9CHL1    C7  603   3.200   2.587   9.864 -0.2826  0.1201 -0.2485
    9CHL1   H7A  604   3.232   2.679   9.810 -1.1992  0.0077 -1.0146
    9CHL1   H7B  605   3.273   2.506   9.842 -1.3900 -1.1052  0.4836
    9CHL1    C8  606   3.072   2.547   9.795  0.2797 -0.0773 -0.2725
    9CHL1    H8  607   3.010   2.639   9.786  1.7242  1.1970  1.9161
    9CHL1   C14  608   3.115   2.495   9.654 -0.0285  0.0390 -0.6326
    9CHL1   H14  609   3.191   2.414   9.657  1.2038  1.1546 -0.6605
    9CHL1   C15  610   3.176   2.601   9.567  0.1229  0.3300 -0.1113
    9CHL1  H15A  611   3.122   2.697   9.577  1.2070  0.8297  1.4239
    9CHL1  H15B  612   3.282   2.629   9.586  0.2420  0.2960 -0.7174
    9CHL1   C16  613   3.175   2.536   9.428  0.2300 -0.5901 -0.2949
    9CHL1  H16A  614   3.153   2.609   9.348  0.6066 -0.1493 -0.0057
    9CHL1  H16B  615   3.274   2.489   9.407  0.7989  0.3301  0.2120
    9CHL1   C17  616   3.072   2.423   9.439 -0.7441  0.1413  0.0746
    9CHL1   H17  617   3.138   2.335   9.449 -0.7142 -0.1570 -2.2347
    9CHL1   C13  618   2.998   2.446   9.567 -0.4165  0.0447 -0.5626
    9CHL1   C18  619   2.893   2.557   9.542  0.3046  0.1642  0.3731
    9CHL1  H18A  620   2.794   2.519   9.510  1.0372  0.2671 -2.2176
    9CHL1  H18B  621   2.875   2.624   9.629 -0.1166  0.1840  0.2735
    9CHL1  H18C  622   2.922   2.617   9.453  1.4238 -1.4359 -0.3854
    9CHL1   C12  623   2.932   2.329   9.646 -0.1522 -0.2179  0.1718
    9CHL1  H12A  624   2.845   2.280   9.598 -0.5634 -0.2395  0.9217
    9CHL1  H12B  625   3.015   2.256   9.654 -0.5761 -0.9413 -1.5808
    9CHL1   C11  626   2.889   2.368   9.791 -0.3567 -0.4842 -0.3002
    9CHL1  H11A  627   2.812   2.448   9.786 -0.8247 -0.8873  0.3178
    9CHL1  H11B  628   2.840   2.286   9.848 -1.0514  1.3195  1.8321
    9CHL1    C9  629   3.002   2.437   9.869  0.6941  0.3510  0.5514
    9CHL1    H9  630   3.070   2.351   9.887 -0.6957 -0.9507 -0.0962
    9CHL1   C10  631   2.962   2.482  10.009  0.1209  0.5354  0.5794
    9CHL1   C19  632   2.844   2.584  10.010 -0.2248 -0.6979  0.4332
    9CHL1  H19A  633   2.861   2.672   9.944  0.4490 -0.9373  0.2758
    9CHL1  H19B  634   2.759   2.526   9.968 -0.2168  0.8766 -1.9449
    9CHL1  H19C  635   2.830   2.621  10.114 -0.4285 -0.3642  0.2869
    9CHL1    C1  636   2.915   2.353  10.084  0.3147 -0.1520 -0.0393
    9CHL1   H1A  637   2.814   2.316  10.055  0.4724 -4.2513  3.6594
    9CHL1   H1B  638   2.983   2.265  10.074 -0.3433 -0.9951  2.2037
    9CHL1    C2  639   2.892   2.371  10.237 -0.2451  0.1431  0.4908
    9CHL1   H2A  640   2.855   2.286  10.300 -0.7639  0.5350  0.7255
    9CHL1   H2B  641   2.803   2.437  10.235 -0.4459 -0.1387 -0.9079
    9CHL1   C20  642   3.001   2.407   9.306  0.4004 -0.3439 -0.6545
    9CHL1   H20  643   2.955   2.505   9.280  2.8470  0.3604 -2.7899
    9CHL1   C21  644   2.897   2.295   9.312 -0.5891 -0.5024  0.1542
    9CHL1  H21A  645   2.821   2.307   9.392 -1.9554  0.3081 -1.2084
    9CHL1  H21B  646   2.946   2.196   9.325  0.5436  0.1874  1.3939
    9CHL1  H21C  647   2.837   2.288   9.218  0.4066 -2.6550 -0.3970
    9CHL1   C22  648   3.110   2.380   9.191  0.6509  0.5063  0.2460
    9CHL1  H22A  649   3.197   2.448   9.203 -0.2563  2.4019 -2.6929
    9CHL1  H22B  650   3.135   2.273   9.204 -0.0624  0.1761 -0.9244
    9CHL1   C23  651   3.052   2.408   9.046 -0.4267 -0.3384 -0.4134
    9CHL1  H23A  652   2.956   2.356   9.020 -0.4072  0.0414 -1.2789
    9CHL1  H23B  653   3.034   2.517   9.043 -1.9404 -0.5697 -0.9674
    9CHL1   C24  654   3.146   2.384   8.924 -0.1600 -0.6068 -0.2945
    9CHL1  H24A  655   3.250   2.417   8.945 -0.9543  1.2229  1.0827
    9CHL1  H24B  656   3.152   2.277   8.898 -3.2633 -0.6231 -1.2972
    9CHL1   C25  657   3.100   2.440   8.788  0.8417 -0.9934 -0.1259
    9CHL1   H25  658   3.072   2.547   8.786 -2.4163 -1.5984  2.9737
    9CHL1   C26  659   3.204   2.409   8.683  0.2185 -0.4576 -0.1507
    9CHL1  H26A  660   3.197   2.304   8.646  3.8858  0.0335 -2.8676
    9CHL1  H26B  661   3.189   2.476   8.595 -1.3655 -0.3668  0.1726
    9CHL1  H26C  662   3.305   2.430   8.723  0.3577 -1.1114 -0.1408
    9CHL1   C27  663   2.970   2.366   8.748 -0.4211  0.1978  0.0172
    9CHL1  H27A  664   2.956   2.380   8.639  1.9954  0.2527 -0.3420
    9CHL1  H27B  665   2.985   2.257   8.764 -0.9474 -0.1461 -1.6516
    9CHL1  H27C  666   2.878   2.403   8.797  0.1129 -0.2947  1.4321
   10CHL1    C3  667   3.522   6.650   9.986 -0.3471 -0.1822 -0.2534
   10CHL1    H3  668   3.621   6.699   9.990 -0.4096 -0.1332  1.3934
   10CHL1    O3  669   3.484   6.605  10.115  0.2451 -0.0826  0.6056
   10CHL1   H3'  670   3.534   6.525  10.129  1.7112  0.5134 -0.9040
   10CHL1    C4  671   3.415   6.732   9.927  0.0897 -0.8419 -0.4964
   10CHL1   H4A  672   3.318   6.680   9.940 -1.0583  0.5710 -2.7998
   10CHL1   H4B  673   3.414   6.831   9.978 -1.2539  0.6132 -3.1096
   10CHL1    C5  674   3.427   6.765   9.781  0.2357 -0.2566 -0.3729
   10CHL1    C6  675   3.420   6.894   9.743 -0.0196 -0.1041  0.1953
   10CHL1    H6  676   3.394   6.976   9.812  3.7333  0.0987  1.6051
   10CHL1    C7  677   3.451   6.945   9.603  0.1622 -0.1742 -0.1856
   10CHL1   H7A  678   3.369   7.011   9.567  0.1890 -0.8088 -1.4648
   10CHL1   H7B  679   3.541   7.009   9.596 -1.0435  1.6893  0.5745
   10CHL1    C8  680   3.450   6.820   9.505 -0.0080 -0.1762 -0.0962
   10CHL1    H8  681   3.345   6.786   9.495  0.5918 -2.1510 -0.1489
   10CHL1   C14  682   3.508   6.856   9.366 -0.5237  0.5051 -0.0953
   10CHL1   H14  683   3.614   6.885   9.382  0.2869 -0.2332 -3.4721
   10CHL1   C15  684   3.447   6.982   9.296 -0.0779 -0.3440 -0.6255
   10CHL1  H15A  685   3.336   6.980   9.291 -0.0593 -0.7167 -0.9015
   10CHL1  H15B  686   3.470   7.077   9.348  1.4523 -1.7858  1.5097
   10CHL1   C16  687   3.500   6.975   9.155 -0.3013  0.2390 -0.3840
   10CHL1  H16A  688   3.415   6.976   9.083 -1.9321  1.6720  1.4681
   10CHL1  H16B  689   3.571   7.059   9.139 -2.6322  2.6650  1.1237
   10CHL1   C17  690   3.573   6.833   9.142 -0.1168 -0.5294 -0.2515
   10CHL1   H17  691   3.681   6.853   9.158  0.0903  0.0217 -2.0810
   10CHL1   C13  692   3.513   6.751   9.260 -0.0983  0.3360 -0.0118
   10CHL1   C18  693   3.371   6.699   9.218 -0.0309  0.0703 -0.4318
   10CHL1  H18A  694   3.300   6.688   9.303 -1.5872 -2.7102 -1.9474
   10CHL1  H18B  695   3.324   6.766   9.143 -1.7503 -2.7043 -2.0024
   10CHL1  H18C  696   3.370   6.598   9.172 -0.6365  0.3238 -1.0021
   10CHL1   C12  697   3.598   6.631   9.316  0.4913 -0.0894 -0.1058
   10CHL1  H12A  698   3.614   6.547   9.244  1.9427  1.0497 -1.1804
   10CHL1  H12B  699   3.696   6.678   9.340  0.5990 -0.1695 -0.3779
   10CHL1   C11  700   3.535   6.579   9.448 -0.1452  0.0051 -0.2920
   10CHL1  H11A  701   3.438   6.531   9.422 -1.3727 -0.0800  3.6901
   10CHL1  H11B  702   3.586   6.490   9.491 -0.9223 -1.8058 -2.8461
   10CHL1    C9  703   3.525   6.693   9.557  0.1764  0.8191  1.1211
   10CHL1    H9  704   3.629   6.721   9.583  0.8552 -1.4290  1.0503
   10CHL1   C10  705   3.463   6.648   9.692 -0.1897 -0.5428 -0.4389
   10CHL1   C19  706   3.338   6.572   9.657  0.1686  0.2832 -0.2292
   10CHL1  H19A  707   3.265   6.625   9.592 -1.3886 -1.4202  0.0532
   10CHL1  H19B  708   3.358   6.478   9.602 -0.5197  0.3630 -0.6289
   10CHL1  H19C  709   3.277   6.542   9.745  1.6347 -0.2718  0.6323
   10CHL1    C1  710   3.563   6.556   9.762 -0.3602 -0.6495  0.6259
   10CHL1   H1A  711   3.572   6.470   9.692  0.5631  0.1049 -0.2131
   10CHL1   H1B  712   3.659   6.610   9.752 -0.4988 -0.7452 -1.9463
   10CHL1    C2  713   3.542   6.517   9.906 -0.4185 -0.2882  0.1788
   10CHL1   H2A  714   3.627   6.455   9.942  0.2439  0.3265 -0.3029
   10CHL1   H2B  715   3.450   6.455   9.910  0.3318 -2.0239 -4.1945
   10CHL1   C20  716   3.557   6.778   9.000 -0.1260  0.4656  0.0204
   10CHL1   H20  717   3.452   6.759   8.968  0.5326  0.0676 -2.0863
   10CHL1   C21  718   3.623   6.637   8.985 -0.3775 -0.3667 -0.3625
   10CHL1  H21A  719   3.733   6.653   8.981 -0.5488  0.6488 -2.2503
   10CHL1  H21B  720   3.598   6.600   8.883  1.1170  0.9867 -1.2579
   10CHL1  H21C  721   3.592   6.567   9.066  2.7443 -1.1532  0.2795
   10CHL1   C22  722   3.620   6.870   8.888  0.7782  0.1574 -0.1449
   10CHL1  H22A  723   3.607   6.976   8.919 -1.4371 -0.5905  1.7771
   10CHL1  H22B  724   3.728   6.855   8.909  0.5794 -0.1951  0.6542
   10CHL1   C23  725   3.568   6.841   8.742 -0.2904  0.2375 -0.1453
   10CHL1  H23A  726   3.559   6.735   8.711 -0.6738 -0.1063  1.0655
   10CHL1  H23B  727   3.462   6.874   8.744 -1.3138 -2.8048  0.9180
   10CHL1   C24  728   3.660   6.911   8.638  0.3104 -0.5525 -0.3739
   10CHL1  H24A  729   3.648   7.021   8.642  1.5960 -0.3747 -0.7475
   10CHL1  H24B  730   3.761   6.884   8.677 -0.2853 -0.5636  1.2458
   10CHL1   C25  731   3.665   6.855   8.497  0.3360 -0.1083  0.4116
   10CHL1   H25  732   3.746   6.907   8.441  0.1361 -0.4701 -0.2180
   10CHL1   C26  733   3.709   6.707   8.492 -0.1252 -0.6515 -0.1154
   10CHL1  H26A  734   3.696   6.668   8.388 -1.4723 -1.3952  0.3033
   10CHL1  H26B  735   3.818   6.707   8.514 -0.4586 -0.1662  1.6738
   10CHL1  H26C  736   3.659   6.634   8.559 -0.6419 -0.3837 -0.2031
   10CHL1   C27  737   3.529   6.874   8.426 -0.7643 -0.1679 -0.7369
   10CHL1  H27A  738   3.459   6.794   8.458 -1.1909  0.5272  0.1519
   10CHL1  H27B  739   3.493   6.977   8.450  1.1534 -0.2165  3.0951
   10CHL1  H27C  740   3.550   6.863   8.318  1.2446 -1.8633 -0.2395
   11CHL1    C3  741   4.355   2.502  10.040  0.0450 -0.3263 -0.0965
   11CHL1    H3  742   4.429   2.585  10.039 -0.0766 -0.1719  1.1992
   11CHL1    O3  743   4.297   2.474  10.171 -0.2338  0.4529 -0.3502
   11CHL1   H3'  744   4.366   2.489  10.236 -1.2464  1.4350  0.5498
   11CHL1    C4  745   4.236   2.551   9.958 -0.6410 -1.3053 -0.6163
   11CHL1   H4A  746   4.173   2.459   9.955  0.2728 -1.9987  0.6202
   11CHL1   H4B  747   4.184   2.633  10.011 -0.1555 -0.5956 -1.2252
   11CHL1    C5  748   4.261   2.590   9.813  0.2437 -0.1351 -0.9359
   11CHL1    C6  749   4.240   2.711   9.767  0.1260 -0.2284  0.1931
   11CHL1    H6  750   4.192   2.784   9.834 -0.1918 -1.9035  1.8676
   11CHL1    C7  751   4.268   2.750   9.623  0.3178 -0.2115  0.1068
   11CHL1   H7A  752   4.193   2.820   9.579  2.6695  0.1486 -3.8605
   11CHL1   H7B  753   4.362   2.806   9.638  1.0567 -2.0884  3.4794
   11CHL1    C8  754   4.288   2.626   9.526 -0.5735 -0.2606 -0.1092
   11CHL1    H8  755   4.185   2.583   9.523 -2.4815  3.5190  1.8998
   11CHL1   C14  756   4.349   2.668   9.391  0.1050 -0.1844  1.0337
   11CHL1   H14  757   4.448   2.717   9.404  1.4976 -2.5005 -0.0779
   11CHL1   C15  758   4.270   2.765   9.299  0.0837  0.9651 -0.8296
   11CHL1  H15A  759   4.162   2.738   9.300  0.1198  0.4942 -3.4286
   11CHL1  H15B  760   4.275   2.873   9.327 -1.6239  0.9928 -0.4757
   11CHL1   C16  761   4.318   2.744   9.159 -0.5025 -0.0377 -0.3538
   11CHL1  H16A  762   4.230   2.735   9.091 -0.0107 -1.7209 -0.8065
   11CHL1  H16B  763   4.373   2.830   9.114 -1.7685  1.3219  0.5990
   11CHL1   C17  764   4.411   2.616   9.164  0.1519 -0.9915 -0.0417
   11CHL1   H17  765   4.514   2.658   9.174 -0.8677  1.6860  0.0898
   11CHL1   C13  766   4.370   2.544   9.299 -1.0671 -0.6081 -0.3004
   11CHL1   C18  767   4.239   2.464   9.273  0.5303 -0.4951 -0.6177
   11CHL1  H18A  768   4.202   2.425   9.370  2.8278  1.1079  1.0236
   11CHL1  H18B  769   4.163   2.531   9.227  1.7936  0.2470 -1.6921
   11CHL1  H18C  770   4.260   2.373   9.213 -1.1682 -0.6917 -0.9754
   11CHL1   C12  771   4.477   2.452   9.365  0.2466  0.5137 -0.9548
   11CHL1  H12A  772   4.490   2.356   9.312  2.5157 -0.0444  0.4756
   11CHL1  H12B  773   4.569   2.515   9.363  0.7891 -0.2576 -0.6998
   11CHL1   C11  774   4.437   2.409   9.510 -0.7880  0.4578 -0.2314
   11CHL1  H11A  775   4.351   2.340   9.494 -0.9772  0.7934 -0.6802
   11CHL1  H11B  776   4.518   2.350   9.558 -1.7898 -0.3773  0.4828
   11CHL1    C9  777   4.383   2.528   9.597 -0.8266 -0.4811 -0.0156
   11CHL1    H9  778   4.473   2.587   9.627  0.1264 -2.1419  0.5421
   11CHL1   C10  779   4.329   2.477   9.735 -0.1395  0.3541  0.2002
   11CHL1   C19  780   4.225   2.364   9.714 -0.1509 -0.8222 -0.5558
   11CHL1  H19A  781   4.188   2.313   9.805  1.7516 -0.2721  0.5763
   11CHL1  H19B  782   4.142   2.399   9.649  1.4096  1.0303 -1.6775
   11CHL1  H19C  783   4.275   2.278   9.664  0.2422 -1.9415  1.6692
   11CHL1    C1  784   4.446   2.413   9.825 -0.0163  0.3140  0.4976
   11CHL1   H1A  785   4.476   2.318   9.777 -1.0679  0.9808 -1.5858
   11CHL1   H1B  786   4.535   2.479   9.827  0.3122 -0.1403  1.2687
   11CHL1    C2  787   4.409   2.382   9.976 -0.4196 -0.1028  0.0042
   11CHL1   H2A  788   4.502   2.347  10.025 -0.7546 -1.2912 -0.1716
   11CHL1   H2B  789   4.331   2.303   9.981  0.8133 -1.3996 -0.3638
   11CHL1   C20  790   4.416   2.535   9.043  0.0344 -0.2415 -0.8151
   11CHL1   H20  791   4.327   2.470   9.033  1.5871 -3.0401  1.8314
   11CHL1   C21  792   4.542   2.435   9.058  0.1422 -0.3916 -0.2773
   11CHL1  H21A  793   4.510   2.331   9.079 -0.3414 -0.2443 -0.2646
   11CHL1  H21B  794   4.616   2.480   9.128 -1.1163  0.2574  0.6831
   11CHL1  H21C  795   4.592   2.434   8.959  1.4160  3.5333  0.1383
   11CHL1   C22  796   4.419   2.608   8.911 -0.5311 -0.1059  0.0256
   11CHL1  H22A  797   4.347   2.692   8.917  0.6408  0.8700  1.2553
   11CHL1  H22B  798   4.520   2.654   8.899 -0.4460 -0.4637 -0.6738
   11CHL1   C23  799   4.375   2.526   8.784 -0.2872  0.8894 -0.3923
   11CHL1  H23A  800   4.453   2.448   8.775  0.1018  1.0412  1.3266
   11CHL1  H23B  801   4.281   2.473   8.809  0.8156  0.0211  2.3354
   11CHL1   C24  802   4.362   2.607   8.652 -0.7105  0.0985 -0.1189
   11CHL1  H24A  803   4.277   2.582   8.586 -0.6470  1.9646 -0.9682
   11CHL1  H24B  804   4.364   2.713   8.685 -2.1521  0.2862 -0.5800
   11CHL1   C25  805   4.492   2.574   8.569  0.2483  0.0837  0.2134
   11CHL1   H25  806   4.591   2.589   8.615  1.6298 -1.6367 -1.9864
   11CHL1   C26  807   4.492   2.426   8.528 -0.2205  0.3233  1.2705
   11CHL1  H26A  808   4.526   2.353   8.605  0.4168 -2.2389 -1.2597
   11CHL1  H26B  809   4.394   2.399   8.483  0.0192  2.2253 -0.5389
   11CHL1  H26C  810   4.563   2.416   8.443 -2.1741 -0.7697 -0.3404
   11CHL1   C27  811   4.472   2.657   8.441  0.1059  0.0745  0.3043
   11CHL1  H27A  812   4.563   2.662   8.378  0.1579  0.4618  0.4040
   11CHL1  H27B  813   4.390   2.614   8.380  1.6373 -0.5889 -1.3921
   11CHL1  H27C  814   4.447   2.765   8.456  1.2094  0.3922 -0.0635
   12CHL1    C3  815   2.001   5.751  10.275  0.0835 -0.4908 -0.3592
   12CHL1    H3  816   2.060   5.842  10.252 -2.3211  1.2875  0.0584
   12CHL1    O3  817   1.986   5.746  10.419 -0.2433 -0.2991  0.0209
   12CHL1   H3'  818   1.952   5.658  10.435 -0.8279 -0.5826 -2.4102
   12CHL1    C4  819   1.858   5.758  10.202 -0.2647 -0.2697 -0.1090
   12CHL1   H4A  820   1.796   5.677  10.246 -0.1344 -0.1414  0.3185
   12CHL1   H4B  821   1.813   5.858  10.219  0.6795  0.2841 -0.7490
   12CHL1    C5  822   1.873   5.740  10.054  0.6085  0.4403  0.6461
   12CHL1    C6  823   1.831   5.835   9.965  0.0071 -0.0159 -0.0294
   12CHL1    H6  824   1.773   5.921  10.001 -0.3703  0.8484 -2.5039
   12CHL1    C7  825   1.850   5.828   9.815 -0.2683 -0.0945 -0.0706
   12CHL1   H7A  826   1.755   5.871   9.774 -0.3684  1.8578  1.9824
   12CHL1   H7B  827   1.934   5.897   9.794  0.8944 -1.7093 -0.9339
   12CHL1    C8  828   1.883   5.689   9.764 -0.6862  0.1939 -0.0505
   12CHL1    H8  829   1.786   5.635   9.772 -1.4074  0.6403 -3.8003
   12CHL1   C14  830   1.931   5.696   9.628  0.1997 -0.0667  0.3250
   12CHL1   H14  831   2.019   5.764   9.626 -0.6648  1.1013  0.9007
   12CHL1   C15  832   1.830   5.756   9.523  0.0044  0.6942  0.1021
   12CHL1  H15A  833   1.734   5.704   9.543 -1.0596  2.2532 -0.7856
   12CHL1  H15B  834   1.827   5.866   9.534 -1.0446  0.7547 -0.6488
   12CHL1   C16  835   1.886   5.704   9.388  0.5970 -0.1830 -0.2977
   12CHL1  H16A  836   1.806   5.650   9.333  0.7409 -0.1715 -0.5208
   12CHL1  H16B  837   1.929   5.782   9.322 -0.1957  0.7610  0.2760
   12CHL1   C17  838   1.993   5.595   9.420  0.1600 -0.8496  0.1795
   12CHL1   H17  839   2.089   5.650   9.424 -0.7211  0.6695  1.7290
   12CHL1   C13  840   1.964   5.562   9.566  0.0904 -0.0542  0.7643
   12CHL1   C18  841   1.848   5.461   9.563  0.3955 -0.1453 -0.2675
   12CHL1  H18A  842   1.807   5.438   9.663 -3.9295  2.6829 -1.1030
   12CHL1  H18B  843   1.764   5.502   9.503 -0.6706 -2.9418 -0.8309
   12CHL1  H18C  844   1.877   5.370   9.506  0.8174  0.5539 -1.1994
   12CHL1   C12  845   2.086   5.505   9.643  0.8934 -0.5132 -0.2000
   12CHL1  H12A  846   2.103   5.403   9.600  0.5615  0.2105 -2.1428
   12CHL1  H12B  847   2.170   5.574   9.625  0.6686 -0.0105  0.6212
   12CHL1   C11  848   2.053   5.500   9.788 -0.2182 -0.3525  0.8061
   12CHL1  H11A  849   1.986   5.412   9.793  0.0168 -0.5323  0.8089
   12CHL1  H11B  850   2.149   5.469   9.836  1.4014 -1.2706 -2.7263
   12CHL1    C9  851   1.994   5.632   9.853  0.2132  0.1850 -0.1754
   12CHL1    H9  852   2.074   5.709   9.843 -1.3549  2.2154  1.9490
   12CHL1   C10  853   1.953   5.619  10.003  0.5529  0.5738 -0.0615
   12CHL1   C19  854   1.858   5.497  10.025  0.1785  0.4803 -0.3821
   12CHL1  H19A  855   1.833   5.482  10.132  2.2892 -0.7375  0.0119
   12CHL1  H19B  856   1.768   5.506   9.961 -1.6628 -0.3488  1.9490
   12CHL1  H19C  857   1.921   5.408  10.008  0.2726  0.3309  0.6863
   12CHL1    C1  858   2.087   5.590  10.088  0.3664  0.2827  0.2102
   12CHL1   H1A  859   2.135   5.492  10.066 -0.3033 -0.2944  1.2435
   12CHL1   H1B  860   2.161   5.660  10.044 -0.3626  2.6883  2.5698
   12CHL1    C2  861   2.076   5.615  10.239 -0.6458 -0.3255 -0.0420
   12CHL1   H2A  862   2.181   5.620  10.275 -0.2920 -1.4368 -0.8636
   12CHL1   H2B  863   2.014   5.539  10.291  0.1982  0.1040  1.6766
   12CHL1   C20  864   2.007   5.496   9.309 -0.0793 -0.7538 -0.4352
   12CHL1   H20  865   1.907   5.454   9.282 -1.7201  2.1960  0.5176
   12CHL1   C21  866   2.115   5.385   9.346  1.0130 -0.3218 -0.6189
   12CHL1  H21A  867   2.204   5.431   9.393  1.3516  0.5173 -2.0061
   12CHL1  H21B  868   2.152   5.338   9.252  1.4723  0.8245 -1.0197
   12CHL1  H21C  869   2.063   5.301   9.398  1.1070 -1.4462 -2.2445
   12CHL1   C22  870   2.064   5.566   9.181  0.2066  0.1824  0.4299
   12CHL1  H22A  871   2.013   5.665   9.185 -0.5080 -0.1606  0.0675
   12CHL1  H22B  872   2.174   5.578   9.183  0.2468  0.1254 -0.6181
   12CHL1   C23  873   2.011   5.500   9.052 -0.7877 -0.3549 -0.4543
   12CHL1  H23A  874   2.054   5.399   9.038  0.2788  0.1130 -0.6542
   12CHL1  H23B  875   1.901   5.491   9.064 -0.7079 -0.6960  0.0619
   12CHL1   C24  876   2.036   5.586   8.922 -0.6630  0.2165  0.2096
   12CHL1  H24A  877   1.994   5.687   8.938 -1.8224 -0.4267  1.4983
   12CHL1  H24B  878   2.146   5.586   8.907 -0.3834  0.7508  2.0103
   12CHL1   C25  879   1.988   5.515   8.789  0.3495 -0.4526  0.4100
   12CHL1   H25  880   1.882   5.484   8.799 -0.1093  0.7483 -0.4320
   12CHL1   C26  881   1.996   5.611   8.672 -0.3064 -0.8985 -0.1337
   12CHL1  H26A  882   1.964   5.557   8.580 -0.3631  2.1364 -2.0714
   12CHL1  H26B  883   1.938   5.705   8.683  1.1217 -0.0325  0.2459
   12CHL1  H26C  884   2.100   5.638   8.644  0.2575 -1.3489  1.4582
   12CHL1   C27  885   2.064   5.386   8.762 -0.1783  0.2414  0.2314
   12CHL1  H27A  886   2.044   5.304   8.834 -0.1195 -1.7218 -1.8710
   12CHL1  H27B  887   2.036   5.337   8.667 -0.9765  1.2788 -0.0883
   12CHL1  H27C  888   2.175   5.398   8.766 -0.0940 -0.3206 -0.3448
   13CHL1    C3  889   1.199   0.215  10.066  0.3073  0.2463  0.3009
   13CHL1    H3  890   1.236   0.316  10.038  0.4689 -0.2676 -1.4598
   13CHL1    O3  891   1.152   0.216  10.198  0.0983 -0.5416 -0.3805
   13CHL1   H3'  892   1.126   0.124  10.202 -0.9193 -0.2154  1.9722
   13CHL1    C4  893   1.097   0.166   9.965  0.1529  0.7356  0.2255
   13CHL1   H4A  894   1.051   0.073  10.003 -1.5085  1.3136 -0.2862
   13CHL1   H4B  895   1.012   0.238   9.967  0.5074  1.1992 -0.6182
   13CHL1    C5  896   1.148   0.146   9.827  0.5216  0.3057  0.1563
   13CHL1    C6  897   1.089   0.214   9.721  0.8730 -1.0937  0.3987
   13CHL1    H6  898   1.009   0.287   9.740  0.7318 -0.4847 -2.1584
   13CHL1    C7  899   1.138   0.216   9.582  0.4225  0.7721  0.1436
   13CHL1   H7A  900   1.060   0.195   9.505 -0.8694 -2.1633  2.0634
   13CHL1   H7B  901   1.185   0.314   9.558  2.0369 -0.5596 -2.6864
   13CHL1    C8  902   1.241   0.102   9.556  0.5516  0.3052  0.5212
   13CHL1    H8  903   1.171   0.016   9.546  1.3954 -0.4643  1.0796
   13CHL1   C14  904   1.315   0.115   9.423 -0.4241  0.2577  0.4566
   13CHL1   H14  905   1.392   0.191   9.448 -1.5509  0.8152  2.5548
   13CHL1   C15  906   1.244   0.166   9.294  0.1518 -1.2300 -0.8265
   13CHL1  H15A  907   1.147   0.113   9.289 -0.4983 -0.0436 -1.2247
   13CHL1  H15B  908   1.235   0.274   9.267  0.6545 -1.0030 -0.1451
   13CHL1   C16  909   1.335   0.119   9.178  0.4249 -0.0794  0.3219
   13CHL1  H16A  910   1.271   0.066   9.105 -0.9065  1.0660  0.6140
   13CHL1  H16B  911   1.380   0.206   9.124 -0.5605  0.2527  0.0152
   13CHL1   C17  912   1.443   0.028   9.237 -0.3797  0.4333  0.2038
   13CHL1   H17  913   1.534   0.089   9.254  1.3967 -2.0832  0.2775
   13CHL1   C13  914   1.392  -0.014   9.373  0.1117 -0.0301  0.2318
   13CHL1   C18  915   1.288  -0.128   9.362 -0.6076  0.9000 -0.0542
   13CHL1  H18A  916   1.337  -0.220   9.323  2.1710  1.1343  2.5133
   13CHL1  H18B  917   1.248  -0.159   9.460  2.1096 -1.2261  0.5055
   13CHL1  H18C  918   1.205  -0.098   9.295 -2.0456  0.3666  1.4319
   13CHL1   C12  919   1.489  -0.043   9.487  0.6484  0.2637  0.0626
   13CHL1  H12A  920   1.537  -0.138   9.458 -0.3488 -0.7068  1.4503
   13CHL1  H12B  921   1.575   0.027   9.489  1.4870 -0.7535  2.3581
   13CHL1   C11  922   1.427  -0.060   9.627  0.1764 -0.4720 -0.8047
   13CHL1  H11A  923   1.356  -0.145   9.630  0.0656 -0.4197  3.4891
   13CHL1  H11B  924   1.495  -0.070   9.714 -2.5833  0.2284  1.5660
   13CHL1    C9  925   1.335   0.058   9.671  0.4640 -0.5667 -1.0335
   13CHL1    H9  926   1.408   0.141   9.666 -1.8611  1.8506  1.1966
   13CHL1   C10  927   1.268   0.049   9.814 -0.0118 -0.1083  0.3950
   13CHL1   C19  928   1.225  -0.097   9.850  0.3092 -0.5751 -0.3564
   13CHL1  H19A  929   1.149  -0.125   9.774 -0.7963  0.3796  0.3595
   13CHL1  H19B  930   1.306  -0.173   9.846  0.7822 -0.1318  0.4815
   13CHL1  H19C  931   1.174  -0.099   9.949  0.9045 -0.1284 -0.0344
   13CHL1    C1  932   1.377   0.085   9.910  0.0075 -0.2554  0.1590
   13CHL1   H1A  933   1.453   0.004   9.904 -0.1169 -0.4162  0.6508
   13CHL1   H1B  934   1.428   0.181   9.886 -1.0344  1.0988  2.8264
   13CHL1    C2  935   1.323   0.112  10.056 -0.1673 -0.3599  0.0545
   13CHL1   H2A  936   1.390   0.164  10.128  0.6434 -0.6297 -0.4846
   13CHL1   H2B  937   1.290   0.013  10.094  1.3837 -1.3829 -1.1145
   13CHL1   C20  938   1.486  -0.091   9.136  0.5310 -0.8734  0.6683
   13CHL1   H20  939   1.408  -0.170   9.131  2.0428 -2.3685 -0.8189
   13CHL1   C21  940   1.614  -0.162   9.201  0.1629 -0.0166  0.2817
   13CHL1  H21A  941   1.563  -0.234   9.268  0.1367 -0.8908 -0.6542
   13CHL1  H21B  942   1.682  -0.098   9.261 -1.0691  0.4537  1.2252
   13CHL1  H21C  943   1.669  -0.217   9.121  0.3020  1.6159 -0.7911
   13CHL1   C22  944   1.508  -0.034   8.994 -0.0869  0.2886 -0.0179
   13CHL1  H22A  945   1.473   0.070   8.975  0.4035  0.3061 -0.8728
   13CHL1  H22B  946   1.617  -0.032   8.972 -0.4542 -1.9957 -2.5209
   13CHL1   C23  947   1.440  -0.124   8.886 -0.7899 -0.4682  0.0342
   13CHL1  H23A  948   1.483  -0.225   8.899  0.8333  0.1467 -0.2986
   13CHL1  H23B  949   1.328  -0.123   8.883 -0.7918 -1.6168 -0.4914
   13CHL1   C24  950   1.491  -0.084   8.749  0.2309  0.5758  0.6983
   13CHL1  H24A  951   1.448   0.017   8.735 -1.2764  0.0431  1.2464
   13CHL1  H24B  952   1.602  -0.087   8.750  0.2874  1.6923 -0.0104
   13CHL1   C25  953   1.423  -0.165   8.626 -0.1691 -0.2116 -0.4452
   13CHL1   H25  954   1.448  -0.271   8.649 -1.0637 -0.6340 -1.3433
   13CHL1   C26  955   1.275  -0.152   8.619  0.1233  0.0493  0.7319
   13CHL1  H26A  956   1.228  -0.214   8.698  1.8084  1.7432  3.1809
   13CHL1  H26B  957   1.242  -0.046   8.627 -1.4812 -0.3688  0.0772
   13CHL1  H26C  958   1.232  -0.199   8.528  1.6542 -0.6210  0.3115
   13CHL1   C27  959   1.481  -0.111   8.489 -0.2186 -0.3227 -0.4851
   13CHL1  H27A  960   1.454  -0.004   8.490 -0.5596 -0.4075 -0.1059
   13CHL1  H27B  961   1.589  -0.114   8.464 -0.4545  1.5948 -1.8508
   13CHL1  H27C  962   1.433  -0.155   8.399  0.8330 -1.6801 -0.4167
   14CHL1    C3  963   1.132   2.718  10.246  0.3094 -0.1829  0.2062
   14CHL1    H3  964   1.122   2.824  10.277 -1.3755 -0.9685  2.6014
   14CHL1    O3  965   1.172   2.646  10.353 -0.0061  0.3629 -0.5203
   14CHL1   H3'  966   1.260   2.621  10.324 -1.1314 -1.9963 -2.1886
   14CHL1    C4  967   1.014   2.646  10.185  0.5647  0.0385  0.2541
   14CHL1   H4A  968   1.033   2.537  10.180  0.1018 -0.0280 -0.1896
   14CHL1   H4B  969   0.931   2.649  10.259  0.5677  2.1289  0.2398
   14CHL1    C5  970   0.968   2.692  10.044  0.2312 -0.1360 -0.5557
   14CHL1    C6  971   0.843   2.737  10.022  0.1022 -0.8208 -0.0785
   14CHL1    H6  972   0.764   2.736  10.099 -0.8253 -0.9855 -1.0194
   14CHL1    C7  973   0.800   2.791   9.887 -0.2376  0.5227 -0.7022
   14CHL1   H7A  974   0.704   2.750   9.849  0.7418 -2.0849 -0.5126
   14CHL1   H7B  975   0.775   2.900   9.889 -1.8443  0.1812  0.8016
   14CHL1    C8  976   0.905   2.760   9.773 -0.1309 -0.6796  0.4530
   14CHL1    H8  977   0.892   2.652   9.748  0.0165 -0.5943  0.0047
   14CHL1   C14  978   0.878   2.852   9.651 -0.2875  0.6930  0.6967
   14CHL1   H14  979   0.879   2.955   9.693 -2.0675  0.1633  2.1822
   14CHL1   C15  980   0.734   2.838   9.600  0.1770 -0.3186  1.1467
   14CHL1  H15A  981   0.701   2.732   9.602 -1.2701  0.1107  1.1596
   14CHL1  H15B  982   0.657   2.911   9.635 -2.5213 -2.6327  0.3529
   14CHL1   C16  983   0.747   2.886   9.455  0.2428  0.8010 -0.1742
   14CHL1  H16A  984   0.711   2.801   9.392  0.6174 -0.4196  1.2050
   14CHL1  H16B  985   0.679   2.970   9.433 -0.6740  0.3883  0.9817
   14CHL1   C17  986   0.898   2.918   9.427  0.1005  0.0709  0.4160
   14CHL1   H17  987   0.893   3.026   9.452  1.0117  0.3872 -0.6760
   14CHL1   C13  988   0.970   2.833   9.531  0.3123  0.0943 -0.8363
   14CHL1   C18  989   0.955   2.683   9.484  0.0216  0.6561  0.2082
   14CHL1  H18A  990   1.027   2.673   9.399 -1.2692  1.5011 -1.0388
   14CHL1  H18B  991   0.969   2.603   9.559 -0.1380 -0.4530 -0.9174
   14CHL1  H18C  992   0.857   2.652   9.442 -0.5339  0.0189  1.8939
   14CHL1   C12  993   1.109   2.869   9.582  0.2474  0.1133 -0.0054
   14CHL1  H12A  994   1.184   2.831   9.509 -0.7922 -2.8828  0.3546
   14CHL1  H12B  995   1.117   2.979   9.596  0.8872 -0.0775  1.3348
   14CHL1   C11  996   1.151   2.789   9.710  0.5424 -0.1074  0.5895
   14CHL1  H11A  997   1.173   2.687   9.671  0.1036  0.0190 -0.0158
   14CHL1  H11B  998   1.247   2.833   9.747  0.0475  1.9457 -0.3724
   14CHL1    C9  999   1.043   2.795   9.824  0.1334 -0.5720 -0.3576
   14CHL1    H9 1000   1.034   2.899   9.861  1.2424 -1.3407  2.2901
   14CHL1   C10 1001   1.080   2.711   9.945 -0.0394 -0.2494 -0.6780
   14CHL1   C19 1002   1.120   2.566   9.899 -0.0194 -1.2972  0.1381
   14CHL1  H19A 1003   1.209   2.564   9.833 -0.8460 -2.0460 -0.9786
   14CHL1  H19B 1004   1.138   2.500   9.987  0.8900  0.2673  1.1801
   14CHL1  H19C 1005   1.031   2.523   9.848 -0.2349 -0.9435  0.2185
   14CHL1    C1 1006   1.199   2.791  10.024 -0.1564  0.0121  0.3311
   14CHL1   H1A 1007   1.285   2.793   9.954 -0.6471  2.2765 -0.2763
   14CHL1   H1B 1008   1.154   2.892  10.031 -0.0896  0.1871 -1.5038
   14CHL1    C2 1009   1.249   2.721  10.150  0.2414 -0.6049 -0.3197
   14CHL1   H2A 1010   1.328   2.791  10.182 -0.7320  1.0048 -1.2768
   14CHL1   H2B 1011   1.297   2.621  10.136  0.3088 -1.1666  3.0339
   14CHL1   C20 1012   0.942   2.908   9.279 -0.6595 -0.2774  0.0169
   14CHL1   H20 1013   0.933   2.806   9.234  2.3283 -0.1166 -1.1386
   14CHL1   C21 1014   1.087   2.950   9.264 -0.2871 -0.5497 -0.4675
   14CHL1  H21A 1015   1.110   3.055   9.291  2.2514 -0.8883 -1.0939
   14CHL1  H21B 1016   1.116   2.937   9.157 -1.0722  0.0553 -0.7700
   14CHL1  H21C 1017   1.152   2.876   9.315 -1.9548 -0.6554  1.6415
   14CHL1   C22 1018   0.841   2.985   9.186  0.4503 -0.4064 -0.1821
   14CHL1  H22A 1019   0.740   2.948   9.215  0.4087  0.0919  0.3267
   14CHL1  H22B 1020   0.838   3.095   9.199 -0.5697 -0.5382  0.8581
   14CHL1   C23 1021   0.861   2.949   9.042  0.2840 -0.5432  0.4239
   14CHL1  H23A 1022   0.967   2.966   9.012  0.0874 -1.8326 -1.1314
   14CHL1  H23B 1023   0.842   2.841   9.024 -1.0768 -0.3135  0.4332
   14CHL1   C24 1024   0.759   3.022   8.946  0.0038  0.5711 -0.2003
   14CHL1  H24A 1025   0.660   2.981   8.976  0.8125 -2.7886 -1.6278
   14CHL1  H24B 1026   0.755   3.132   8.953 -3.6191  0.8236 -3.0574
   14CHL1   C25 1027   0.784   2.973   8.804  0.1917  0.2707  0.2437
   14CHL1   H25 1028   0.805   2.865   8.800  1.4536  0.5382 -1.0316
   14CHL1   C26 1029   0.670   3.012   8.711  0.1456  0.5735 -0.0082
   14CHL1  H26A 1030   0.628   3.114   8.722 -1.5752 -0.0838 -0.2383
   14CHL1  H26B 1031   0.696   2.981   8.608 -1.4132 -2.2142  0.3339
   14CHL1  H26C 1032   0.584   2.945   8.733  0.5403 -0.5874 -1.7952
   14CHL1   C27 1033   0.909   3.049   8.739  0.5903 -0.5846 -0.0120
   14CHL1  H27A 1034   0.885   3.154   8.714  2.1994 -0.4775 -1.2614
   14CHL1  H27B 1035   1.001   3.042   8.801 -0.1248  1.8602  1.4603
   14CHL1  H27C 1036   0.929   3.004   8.639 -0.9130 -0.6853 -0.2901
   15CHL1    C3 1037   0.773   1.275  10.213 -0.2592  0.1887 -0.8115
   15CHL1    H3 1038   0.820   1.372  10.188 -1.4250  0.9536 -0.1237
   15CHL1    O3 1039   0.783   1.256  10.358 -0.0113 -0.0055 -0.1047
   15CHL1   H3' 1040   0.825   1.341  10.376 -3.4257  1.9931 -0.4787
   15CHL1    C4 1041   0.629   1.286  10.163 -0.4651  0.1674  0.5335
   15CHL1   H4A 1042   0.584   1.188  10.189 -0.1128 -0.4917 -1.1563
   15CHL1   H4B 1043   0.575   1.366  10.219 -0.4493 -0.1881  1.0519
   15CHL1    C5 1044   0.629   1.309  10.014 -0.0400  0.1773 -0.0668
   15CHL1    C6 1045   0.568   1.415   9.967  0.2231  0.9357  0.4353
   15CHL1    H6 1046   0.510   1.480  10.033 -2.1484  0.3844 -0.9967
   15CHL1    C7 1047   0.558   1.442   9.818  0.4594  0.5664 -0.1014
   15CHL1   H7A 1048   0.454   1.457   9.780 -0.3191  0.4747  1.8801
   15CHL1   H7B 1049   0.622   1.530   9.797  1.4179  0.1915  1.1645
   15CHL1    C8 1050   0.599   1.320   9.726 -0.7345  0.1513 -0.4744
   15CHL1    H8 1051   0.517   1.246   9.716  0.6330 -1.3702 -0.7512
   15CHL1   C14 1052   0.627   1.371   9.585  0.4882  0.2014 -0.2744
   15CHL1   H14 1053   0.696   1.457   9.599 -0.7813  1.1415  0.5899
   15CHL1   C15 1054   0.509   1.432   9.508  0.1170 -0.2924 -0.7265
   15CHL1  H15A 1055   0.426   1.362   9.488 -3.2750  2.9505  0.7292
   15CHL1  H15B 1056   0.448   1.511   9.557  0.8842 -0.6654  0.9158
   15CHL1   C16 1057   0.574   1.478   9.376  0.0404 -0.0956  0.3754
   15CHL1  H16A 1058   0.503   1.456   9.293  0.5270  0.3659 -0.1706
   15CHL1  H16B 1059   0.604   1.585   9.373  0.2193 -0.1648 -0.3365
   15CHL1   C17 1060   0.698   1.392   9.364  0.0081  0.7833  0.0154
   15CHL1   H17 1061   0.781   1.460   9.395  0.9386 -0.1786 -0.2859
   15CHL1   C13 1062   0.693   1.285   9.480 -0.6077  0.1821  0.0731
   15CHL1   C18 1063   0.601   1.170   9.448 -0.0368 -0.0077 -0.4175
   15CHL1  H18A 1064   0.565   1.120   9.540  1.5670  0.7715  0.6636
   15CHL1  H18B 1065   0.517   1.202   9.381  1.2700  0.8566 -1.7166
   15CHL1  H18C 1066   0.653   1.097   9.383  1.4599  1.0999 -0.5316
   15CHL1   C12 1067   0.820   1.239   9.537 -0.4626 -0.0267  0.2850
   15CHL1  H12A 1068   0.863   1.170   9.463 -0.5404  1.0604 -0.8050
   15CHL1  H12B 1069   0.881   1.328   9.564 -3.2606  1.6193  1.6848
   15CHL1   C11 1070   0.800   1.167   9.675  0.1011 -0.3999 -0.2162
   15CHL1  H11A 1071   0.731   1.082   9.653 -1.2117  0.8095 -0.9612
   15CHL1  H11B 1072   0.887   1.135   9.736  1.9191  2.0664 -1.3325
   15CHL1    C9 1073   0.730   1.263   9.781  0.0890  0.8880 -1.0369
   15CHL1    H9 1074   0.794   1.352   9.802 -0.9917  1.7694 -1.3993
   15CHL1   C10 1075   0.707   1.204   9.929 -0.0988  0.2304  0.4838
   15CHL1   C19 1076   0.628   1.070   9.923 -0.2951 -0.1518 -0.2466
   15CHL1  H19A 1077   0.679   0.995   9.859  0.3559 -0.4060  0.5462
   15CHL1  H19B 1078   0.608   1.024  10.022  0.7991 -1.9941 -0.8283
   15CHL1  H19C 1079   0.533   1.086   9.868 -0.8211  0.6626  0.8562
   15CHL1    C1 1080   0.845   1.164   9.995  0.6942  0.0512 -0.8360
   15CHL1   H1A 1081   0.866   1.061   9.957 -0.1785 -1.3919  2.2550
   15CHL1   H1B 1082   0.914   1.246   9.967 -0.0055  1.1623  0.6305
   15CHL1    C2 1083   0.842   1.157  10.148  0.3791  0.2512  0.4089
   15CHL1   H2A 1084   0.945   1.155  10.189  0.0379  0.2143  1.2888
   15CHL1   H2B 1085   0.785   1.063  10.162  1.4078 -0.5295 -0.4982
   15CHL1   C20 1086   0.727   1.353   9.219 -0.4679  0.6247  0.8744
   15CHL1   H20 1087   0.640   1.296   9.178 -1.3377  2.3035  0.2916
   15CHL1   C21 1088   0.850   1.264   9.210 -0.2406 -0.2896  0.0808
   15CHL1  H21A 1089   0.871   1.229   9.106 -0.9474 -0.9659  0.1545
   15CHL1  H21B 1090   0.840   1.165   9.260  1.3801 -0.5752 -0.0955
   15CHL1  H21C 1091   0.948   1.304   9.245 -0.3853  0.3048 -0.1917
   15CHL1   C22 1092   0.736   1.470   9.113 -0.3402  0.0888  0.1115
   15CHL1  H22A 1093   0.654   1.544   9.124  2.7600  3.8589  0.1648
   15CHL1  H22B 1094   0.833   1.524   9.124  0.3703 -0.4733 -2.6092
   15CHL1   C23 1095   0.726   1.423   8.964  0.5798  0.0435 -0.0118
   15CHL1  H23A 1096   0.795   1.339   8.946 -0.6640 -1.2157  0.9261
   15CHL1  H23B 1097   0.622   1.386   8.950 -0.3389  2.1592  0.7577
   15CHL1   C24 1098   0.752   1.527   8.856 -0.0264 -0.7785 -0.2442
   15CHL1  H24A 1099   0.684   1.611   8.883  0.0421  0.0855 -2.5565
   15CHL1  H24B 1100   0.848   1.579   8.877  0.1144 -0.6132 -1.2479
   15CHL1   C25 1101   0.749   1.484   8.708 -0.1741 -0.5178 -0.2629
   15CHL1   H25 1102   0.661   1.419   8.689 -0.0110 -1.1288  0.9764
   15CHL1   C26 1103   0.741   1.605   8.616 -0.9890  0.9124 -0.6659
   15CHL1  H26A 1104   0.650   1.657   8.652 -1.1564 -1.4276  2.7920
   15CHL1  H26B 1105   0.837   1.660   8.625  1.1482 -2.6751  1.5298
   15CHL1  H26C 1106   0.724   1.573   8.511 -0.0575 -0.7581 -0.3522
   15CHL1   C27 1107   0.874   1.398   8.676 -0.3334  0.1424 -0.3628
   15CHL1  H27A 1108   0.965   1.456   8.700 -0.0513 -0.6676  0.6095
   15CHL1  H27B 1109   0.868   1.298   8.725  0.5526 -0.7356 -1.9473
   15CHL1  H27C 1110   0.874   1.384   8.565 -0.6932  2.3111 -0.6783
   16CHL1    C3 1111   1.029   3.945  10.280 -0.3730 -0.3295  0.3326
   16CHL1    H3 1112   0.972   4.041  10.278 -0.7463 -0.5590 -1.2281
   16CHL1    O3 1113   1.075   3.923  10.414  0.1501 -0.2776  0.8707
   16CHL1   H3' 1114   1.025   3.842  10.424 -1.0469  0.3536  0.3106
   16CHL1    C4 1115   0.934   3.838  10.241 -1.6641 -0.0145  0.0880
   16CHL1   H4A 1116   0.967   3.733  10.256 -2.7032 -0.6016 -1.4745
   16CHL1   H4B 1117   0.856   3.845  10.319  1.2788  0.0400  3.2646
   16CHL1    C5 1118   0.888   3.841  10.099 -0.4186  0.4105  0.1251
   16CHL1    C6 1119   0.758   3.852  10.068 -0.2815  0.2687  0.2801
   16CHL1    H6 1120   0.691   3.848  10.155  0.5516  0.0199  0.9286
   16CHL1    C7 1121   0.699   3.868   9.931  1.1804 -0.0570  0.2117
   16CHL1   H7A 1122   0.619   3.792   9.916  0.1395  1.4550 -2.5305
   16CHL1   H7B 1123   0.646   3.965   9.927  0.4427 -0.4135  0.9513
   16CHL1    C8 1124   0.797   3.856   9.817 -0.3988  0.1482  0.4138
   16CHL1    H8 1125   0.831   3.752   9.797  0.2558  0.0223  2.0627
   16CHL1   C14 1126   0.748   3.909   9.687  0.1254  0.0639 -0.0034
   16CHL1   H14 1127   0.732   4.017   9.707 -2.0791 -0.6894  3.2384
   16CHL1   C15 1128   0.617   3.870   9.634  0.3904 -0.1522  0.2988
   16CHL1  H15A 1129   0.605   3.761   9.652 -1.3270  0.4689  3.6638
   16CHL1  H15B 1130   0.534   3.923   9.685  0.4543 -0.8096  1.0999
   16CHL1   C16 1131   0.613   3.893   9.482 -0.2136  0.1748  0.2806
   16CHL1  H16A 1132   0.612   3.792   9.436 -0.6848 -0.8813  2.4513
   16CHL1  H16B 1133   0.525   3.955   9.452 -0.4154 -1.1083 -2.0537
   16CHL1   C17 1134   0.751   3.962   9.451  0.0743 -0.1230  0.6346
   16CHL1   H17 1135   0.743   4.071   9.472  3.0854  0.0594  1.2457
   16CHL1   C13 1136   0.847   3.910   9.568  0.0793 -0.3025  0.2263
   16CHL1   C18 1137   0.886   3.761   9.538  0.0366 -0.0907 -1.1018
   16CHL1  H18A 1138   0.797   3.695   9.539 -0.9077  1.1614  0.5398
   16CHL1  H18B 1139   0.945   3.757   9.443 -0.3517  0.5887 -1.3796
   16CHL1  H18C 1140   0.950   3.731   9.624 -2.5361  1.1572  1.3911
   16CHL1   C12 1141   0.963   4.007   9.608  0.3790 -0.0907 -0.4347
   16CHL1  H12A 1142   1.035   4.008   9.523  2.7804 -0.7485  1.4817
   16CHL1  H12B 1143   0.915   4.105   9.626  0.5299 -0.2985  1.2228
   16CHL1   C11 1144   1.027   3.955   9.743  0.3321 -0.2500 -0.5340
   16CHL1  H11A 1145   1.074   3.856   9.723  1.0137 -0.0501  0.0441
   16CHL1  H11B 1146   1.114   4.020   9.764 -0.1396  0.8365 -1.8284
   16CHL1    C9 1147   0.922   3.931   9.862 -0.4193 -0.1742  0.2064
   16CHL1    H9 1148   0.886   4.033   9.890  0.9398  0.3046  0.2945
   16CHL1   C10 1149   0.989   3.871   9.994 -0.6309  0.3444  0.2305
   16CHL1   C19 1150   1.079   3.743   9.958  0.1127  0.2907  0.2596
   16CHL1  H19A 1151   1.020   3.667   9.903 -0.2921  1.0177 -0.3366
   16CHL1  H19B 1152   1.165   3.765   9.892  0.4267 -1.6301 -0.0361
   16CHL1  H19C 1153   1.111   3.693  10.052  1.6450 -0.9280 -0.8742
   16CHL1    C1 1154   1.103   3.977  10.041 -0.2253  0.5276 -0.2359
   16CHL1   H1A 1155   1.182   3.970   9.962  0.0481  0.1459  0.0697
   16CHL1   H1B 1156   1.057   4.078  10.035 -0.0965  0.6897  1.2598
   16CHL1    C2 1157   1.149   3.968  10.187 -0.3047  0.2746 -0.4827
   16CHL1   H2A 1158   1.207   4.060  10.210 -2.1680  2.0549 -2.4968
   16CHL1   H2B 1159   1.215   3.878  10.185 -1.7776 -0.8335 -1.2782
   16CHL1   C20 1160   0.793   3.935   9.306 -0.0699  0.5587  0.0996
   16CHL1   H20 1161   0.796   3.825   9.291  0.2346  0.5620  0.1249
   16CHL1   C21 1162   0.925   3.993   9.272 -0.0835  0.4328 -0.0573
   16CHL1  H21A 1163   0.938   4.017   9.164 -0.1055  2.7736  0.4041
   16CHL1  H21B 1164   1.013   3.938   9.313  0.9923  2.5271  0.6352
   16CHL1  H21C 1165   0.926   4.098   9.309 -1.0147  0.6186 -0.5399
   16CHL1   C22 1166   0.686   3.981   9.203 -0.3219  0.2174  0.3480
   16CHL1  H22A 1167   0.598   3.917   9.226 -0.9204  1.2641  1.0645
   16CHL1  H22B 1168   0.651   4.084   9.222 -1.1619  0.3359 -1.6101
   16CHL1   C23 1169   0.725   3.946   9.054 -0.2443 -0.1753 -0.2961
   16CHL1  H23A 1170   0.804   4.019   9.025 -0.2394  0.3011  0.8700
   16CHL1  H23B 1171   0.772   3.845   9.057 -0.0466 -0.1580 -1.8603
   16CHL1   C24 1172   0.598   3.933   8.965 -0.0029 -0.3611  0.1375
   16CHL1  H24A 1173   0.531   3.860   9.015 -0.4311 -0.3097 -0.3379
   16CHL1  H24B 1174   0.536   4.024   8.945  0.0130 -0.3724  0.0347
   16CHL1   C25 1175   0.612   3.869   8.820 -0.0822  0.1714  0.4710
   16CHL1   H25 1176   0.668   3.774   8.837  0.9185  0.9181  1.5190
   16CHL1   C26 1177   0.466   3.846   8.764 -0.6174 -0.1585 -0.0458
   16CHL1  H26A 1178   0.471   3.779   8.675  4.0776 -0.0446 -0.1039
   16CHL1  H26B 1179   0.410   3.795   8.845 -0.1138  2.1758  1.8940
   16CHL1  H26C 1180   0.414   3.942   8.744 -3.0165 -1.1893  0.8772
   16CHL1   C27 1181   0.684   3.955   8.717 -0.4881 -0.3997 -0.0919
   16CHL1  H27A 1182   0.794   3.963   8.730 -0.4072 -0.0036 -0.9408
   16CHL1  H27B 1183   0.664   3.914   8.616  2.1538  1.5306 -1.5158
   16CHL1  H27C 1184   0.642   4.058   8.718 -0.1120 -0.2333  1.6815
   17CHL1    C3 1185   3.636   1.104  10.359  0.7099 -0.2455  0.5246
   17CHL1    H3 1186   3.739   1.139  10.381  0.1294  0.0827  2.9636
   17CHL1    O3 1187   3.566   1.091  10.477  0.6293 -0.3244 -0.8529
   17CHL1   H3' 1188   3.630   1.094  10.548 -2.0416  1.8990  1.7412
   17CHL1    C4 1189   3.555   1.213  10.281  0.3152  0.0301  0.2137
   17CHL1   H4A 1190   3.448   1.186  10.292  0.1764  0.8423  0.9153
   17CHL1   H4B 1191   3.566   1.312  10.330 -1.9071  1.2396 -1.5471
   17CHL1    C5 1192   3.601   1.228  10.137 -0.0300  0.3411 -0.7358
   17CHL1    C6 1193   3.619   1.347  10.079  0.4438  0.1142  0.0449
   17CHL1    H6 1194   3.612   1.441  10.135  2.5210  0.0575  0.4782
   17CHL1    C7 1195   3.643   1.355   9.928  0.3567 -0.4942  0.0579
   17CHL1   H7A 1196   3.590   1.443   9.887  1.2759 -0.6053 -1.4104
   17CHL1   H7B 1197   3.750   1.376   9.907 -0.2114  0.7526 -1.7925
   17CHL1    C8 1198   3.624   1.221   9.840 -0.2983 -0.8575 -0.4606
   17CHL1    H8 1199   3.514   1.212   9.830 -0.3842 -0.2673 -0.1579
   17CHL1   C14 1200   3.687   1.229   9.701  0.2789  0.6775  0.3338
   17CHL1   H14 1201   3.796   1.241   9.715  0.0692  2.1216  0.8918
   17CHL1   C15 1202   3.635   1.342   9.611  0.2453 -0.2306  0.3929
   17CHL1  H15A 1203   3.531   1.355   9.648  0.1748 -0.9830  0.4604
   17CHL1  H15B 1204   3.699   1.432   9.622  0.7664 -0.8287  3.1413
   17CHL1   C16 1205   3.653   1.291   9.468 -0.4343  0.3370  0.9459
   17CHL1  H16A 1206   3.559   1.276   9.411  0.7870 -3.5923 -0.3676
   17CHL1  H16B 1207   3.709   1.365   9.406 -0.5164  2.2891  3.0448
   17CHL1   C17 1208   3.723   1.152   9.479 -0.0112  0.0164 -0.3848
   17CHL1   H17 1209   3.831   1.172   9.495  0.0177 -1.1928  1.2304
   17CHL1   C13 1210   3.668   1.104   9.614 -0.0359  0.7819  0.2548
   17CHL1   C18 1211   3.520   1.056   9.599 -0.1109 -0.1818 -0.1043
   17CHL1  H18A 1212   3.518   0.967   9.533  1.8221  0.2035 -0.7459
   17CHL1  H18B 1213   3.474   1.038   9.699 -0.9741 -1.5335 -0.7155
   17CHL1  H18C 1214   3.459   1.137   9.553  0.8130 -0.0909 -1.2174
   17CHL1   C12 1215   3.746   0.993   9.686 -0.9501  0.8065 -0.4654
   17CHL1  H12A 1216   3.739   0.896   9.633 -0.2796 -0.7697  2.1125
   17CHL1  H12B 1217   3.852   1.021   9.703 -0.8234 -0.3684  0.9555
   17CHL1   C11 1218   3.696   0.978   9.834  0.3728  0.2806  1.6916
   17CHL1  H11A 1219   3.595   0.932   9.837  1.0401 -1.4040  0.2783
   17CHL1  H11B 1220   3.766   0.901   9.872 -1.6023 -2.9418 -0.6365
   17CHL1    C9 1221   3.682   1.108   9.920 -0.4305  0.3115 -0.5559
   17CHL1    H9 1222   3.788   1.133   9.941 -0.3808 -0.0232 -0.4063
   17CHL1   C10 1223   3.608   1.095  10.063 -0.4084  0.6173 -0.1669
   17CHL1   C19 1224   3.463   1.041  10.045 -0.5823  0.4720  0.5574
   17CHL1  H19A 1225   3.403   1.055  10.138 -0.5192  2.0330  0.3944
   17CHL1  H19B 1226   3.419   1.099   9.961  1.6383 -0.2241 -1.1910
   17CHL1  H19C 1227   3.455   0.935  10.014  1.2409 -0.2155  2.1789
   17CHL1    C1 1228   3.685   0.981  10.147  0.4193 -0.0478  0.2043
   17CHL1   H1A 1229   3.681   0.883  10.095 -4.0096  0.7698 -1.4284
   17CHL1   H1B 1230   3.790   1.018  10.151  0.3651  0.0397  1.1202
   17CHL1    C2 1231   3.643   0.968  10.291 -0.2553 -0.2496  0.5926
   17CHL1   H2A 1232   3.719   0.914  10.351 -1.4799  0.3525  2.7682
   17CHL1   H2B 1233   3.553   0.904  10.301 -0.5541  0.0062 -0.3024
   17CHL1   C20 1234   3.708   1.073   9.354 -0.0979  0.4036 -0.3060
   17CHL1   H20 1235   3.607   1.031   9.338  1.0930 -1.9035 -2.4729
   17CHL1   C21 1236   3.813   0.952   9.353  0.5862 -0.0399 -0.5851
   17CHL1  H21A 1237   3.798   0.877   9.433  4.2101  0.3642  0.6567
   17CHL1  H21B 1238   3.915   0.992   9.370  0.4287  0.4204 -0.7080
   17CHL1  H21C 1239   3.801   0.907   9.252  1.0223 -0.5347 -0.4160
   17CHL1   C22 1240   3.729   1.147   9.222  0.2654 -0.3767 -0.2401
   17CHL1  H22A 1241   3.706   1.073   9.143  2.3028 -0.6972 -0.6085
   17CHL1  H22B 1242   3.657   1.230   9.210  1.7953  0.8005 -1.9312
   17CHL1   C23 1243   3.864   1.213   9.193  1.0749 -0.2055  0.0160
   17CHL1  H23A 1244   3.881   1.290   9.272 -2.4979  1.3990 -0.5754
   17CHL1  H23B 1245   3.949   1.142   9.189 -0.0908 -1.6258 -0.2159
   17CHL1   C24 1246   3.852   1.303   9.058  0.4060  0.5051 -0.5434
   17CHL1  H24A 1247   3.751   1.348   9.066 -0.2188 -0.8953 -0.1396
   17CHL1  H24B 1248   3.935   1.376   9.060  0.7340  0.2516 -2.5791
   17CHL1   C25 1249   3.865   1.225   8.928  0.9070 -0.2462 -0.3927
   17CHL1   H25 1250   3.794   1.140   8.940  0.1964  0.4871  0.8193
   17CHL1   C26 1251   3.811   1.315   8.823 -0.0452  0.4428  0.0990
   17CHL1  H26A 1252   3.804   1.251   8.733 -0.2795 -2.8975  2.3040
   17CHL1  H26B 1253   3.708   1.341   8.855 -0.3190 -0.6875  0.1869
   17CHL1  H26C 1254   3.869   1.409   8.812 -2.0391  1.8221  0.7307
   17CHL1   C27 1255   4.007   1.188   8.897 -0.5319  0.2994 -0.7119
   17CHL1  H27A 1256   3.996   1.132   8.802  1.3654 -1.2121 -0.1084
   17CHL1  H27B 1257   4.070   1.279   8.892 -1.0917  0.8160  0.8646
   17CHL1  H27C 1258   4.055   1.120   8.972  0.9925  1.1201 -0.9008
   18CHL1    C3 1259   3.466   6.132  10.120 -0.2364  0.0508  0.1449
   18CHL1    H3 1260   3.463   6.242  10.105  2.4273  0.3426  1.1515
   18CHL1    O3 1261   3.483   6.082  10.249  0.1791 -0.2894 -0.1404
   18CHL1   H3' 1262   3.407   6.116  10.298  0.3110  0.4840 -0.4536
   18CHL1    C4 1263   3.340   6.052  10.068 -0.2548 -0.2871 -0.5942
   18CHL1   H4A 1264   3.338   5.952  10.116 -0.5305  0.7546  1.6738
   18CHL1   H4B 1265   3.258   6.112  10.113  0.9847  2.2459 -1.4765
   18CHL1    C5 1266   3.325   6.054   9.912 -0.0851  0.1023 -0.0889
   18CHL1    C6 1267   3.209   6.102   9.860 -0.0200 -0.4659  0.2626
   18CHL1    H6 1268   3.117   6.118   9.918 -1.6643  3.0673 -2.9526
   18CHL1    C7 1269   3.186   6.135   9.716  0.2513 -0.6157  0.0284
   18CHL1   H7A 1270   3.095   6.091   9.670 -1.1713  2.0049  0.1586
   18CHL1   H7B 1271   3.188   6.245   9.703 -1.8377 -0.1220  2.9585
   18CHL1    C8 1272   3.312   6.101   9.626  0.5344 -0.1279  0.4159
   18CHL1    H8 1273   3.302   5.991   9.612 -0.8983  0.2911 -2.6568
   18CHL1   C14 1274   3.307   6.167   9.480 -0.2775  0.2714  0.4454
   18CHL1   H14 1275   3.341   6.272   9.496  1.9649 -0.3604  0.1808
   18CHL1   C15 1276   3.173   6.162   9.406  0.1462  0.5908  0.9156
   18CHL1  H15A 1277   3.121   6.064   9.412  0.1875  0.4488 -0.6500
   18CHL1  H15B 1278   3.105   6.245   9.437  0.2512  1.7591 -1.6930
   18CHL1   C16 1279   3.214   6.191   9.255 -0.0680 -0.2407 -0.0897
   18CHL1  H16A 1280   3.186   6.103   9.193 -1.1856  1.1063 -1.5599
   18CHL1  H16B 1281   3.176   6.286   9.214  4.6009  1.7683 -0.4631
   18CHL1   C17 1282   3.375   6.195   9.262  0.3284  0.0355 -0.1504
   18CHL1   H17 1283   3.387   6.305   9.275  0.2481  0.0465 -0.1683
   18CHL1   C13 1284   3.417   6.117   9.388 -0.7768  0.3941 -0.1125
   18CHL1   C18 1285   3.410   5.964   9.367  0.3841  0.3616  0.1484
   18CHL1  H18A 1286   3.430   5.901   9.456 -1.7612 -0.7925 -0.1324
   18CHL1  H18B 1287   3.313   5.927   9.329 -0.1681  1.3471  0.5486
   18CHL1  H18C 1288   3.480   5.937   9.285 -0.6676 -0.2452 -0.5717
   18CHL1   C12 1289   3.548   6.165   9.458 -0.5153  0.9949 -0.8054
   18CHL1  H12A 1290   3.632   6.126   9.397  0.0151  1.5975 -0.4721
   18CHL1  H12B 1291   3.558   6.275   9.450  2.5019  0.7439 -1.8522
   18CHL1   C11 1292   3.566   6.097   9.598  0.4483 -0.0819  0.8321
   18CHL1  H11A 1293   3.582   5.991   9.572 -0.1581  0.1953 -0.7743
   18CHL1  H11B 1294   3.655   6.138   9.651  0.9863 -1.4949  1.0469
   18CHL1    C9 1295   3.442   6.122   9.691 -0.4521 -0.5484 -0.6146
   18CHL1    H9 1296   3.427   6.231   9.709 -4.0272 -0.6132 -2.4046
   18CHL1   C10 1297   3.458   6.047   9.826 -0.0476 -0.3327 -0.4715
   18CHL1   C19 1298   3.469   5.891   9.792 -0.0809  0.1323 -0.1893
   18CHL1  H19A 1299   3.569   5.867   9.749 -0.6580  1.2166 -2.3039
   18CHL1  H19B 1300   3.477   5.835   9.888  1.3829 -0.2023 -0.4787
   18CHL1  H19C 1301   3.383   5.860   9.729  0.3863 -0.5447 -0.5081
   18CHL1    C1 1302   3.583   6.101   9.897 -0.3418 -0.3839  0.3487
   18CHL1   H1A 1303   3.663   6.048   9.842 -0.8899 -1.9590  0.9945
   18CHL1   H1B 1304   3.585   6.210   9.876 -0.4885 -0.3824  0.3454
   18CHL1    C2 1305   3.590   6.077  10.052 -0.3278  1.1318 -0.5845
   18CHL1   H2A 1306   3.687   6.112  10.092  0.8808  0.0964 -2.4485
   18CHL1   H2B 1307   3.603   5.971  10.085  1.5051  1.5196  0.0516
   18CHL1   C20 1308   3.451   6.166   9.129  0.2432  0.2048  0.7259
   18CHL1   H20 1309   3.445   6.057   9.114 -2.4548 -0.1091  3.2012
   18CHL1   C21 1310   3.592   6.211   9.134 -0.6408  0.5227  0.3060
   18CHL1  H21A 1311   3.659   6.132   9.175 -0.5689  0.9230  0.9783
   18CHL1  H21B 1312   3.608   6.303   9.193  2.6738  0.4866 -0.3338
   18CHL1  H21C 1313   3.643   6.234   9.038  0.6716 -0.7353  0.6551
   18CHL1   C22 1314   3.366   6.233   9.005 -1.1845  1.0560  0.2384
   18CHL1  H22A 1315   3.289   6.154   8.990 -0.2922  0.1671  0.2088
   18CHL1  H22B 1316   3.318   6.330   9.029 -1.7083  0.7179  0.5865
   18CHL1   C23 1317   3.440   6.226   8.871 -0.0887 -0.2972 -0.2001
   18CHL1  H23A 1318   3.529   6.291   8.883  0.2788 -0.8349  0.0226
   18CHL1  H23B 1319   3.480   6.123   8.854 -1.0160 -0.9362  1.2675
   18CHL1   C24 1320   3.369   6.282   8.750 -0.2477  0.6077 -0.0223
   18CHL1  H24A 1321   3.274   6.226   8.733 -0.0901  0.9493 -2.4552
   18CHL1  H24B 1322   3.349   6.391   8.763  3.2024  1.4934 -1.1864
   18CHL1   C25 1323   3.447   6.259   8.619  0.1938  0.9302  0.2408
   18CHL1   H25 1324   3.497   6.160   8.622  2.3614  1.8452 -1.9938
   18CHL1   C26 1325   3.342   6.257   8.499 -0.4116 -0.6525 -0.1212
   18CHL1  H26A 1326   3.311   6.362   8.480  1.3723  0.0968  0.9163
   18CHL1  H26B 1327   3.363   6.218   8.397 -3.1165  3.8666 -2.7791
   18CHL1  H26C 1328   3.256   6.197   8.537 -0.1467 -1.0791 -0.1847
   18CHL1   C27 1329   3.560   6.361   8.588  0.2745 -0.0193 -0.9498
   18CHL1  H27A 1330   3.644   6.368   8.661 -0.4280 -1.9503  0.1288
   18CHL1  H27B 1331   3.614   6.328   8.498  1.1897 -0.1893 -0.3519
   18CHL1  H27C 1332   3.517   6.462   8.568 -2.0854 -0.7607 -0.0546
   19CHL1    C3 1333   6.032   2.013  10.093 -0.0077  0.4664  0.7074
   19CHL1    H3 1334   6.096   2.104  10.098  0.9561 -0.1807  0.5145
   19CHL1    O3 1335   5.945   2.019  10.202 -0.3480 -0.4658 -0.1826
   19CHL1   H3' 1336   5.917   1.933  10.233 -0.6399  0.7016  3.1222
   19CHL1    C4 1337   5.940   2.008   9.978 -0.0160  0.6594  0.1944
   19CHL1   H4A 1338   5.887   1.912   9.991  0.2421  0.8082  3.0485
   19CHL1   H4B 1339   5.879   2.100   9.995 -0.1875  0.7931 -1.0756
   19CHL1    C5 1340   6.014   2.011   9.843  0.1049 -0.5639  0.1941
   19CHL1    C6 1341   5.977   2.093   9.742 -0.4387 -0.1466  0.2401
   19CHL1    H6 1342   5.891   2.161   9.753 -1.3908 -1.2568 -0.1693
   19CHL1    C7 1343   6.048   2.085   9.612  0.3189  0.3049  0.1599
   19CHL1   H7A 1344   5.989   2.101   9.520 -0.3296 -0.8073  0.3587
   19CHL1   H7B 1345   6.123   2.167   9.611  1.4686 -0.7170  0.1831
   19CHL1    C8 1346   6.134   1.958   9.593 -0.7670 -0.4580  0.3053
   19CHL1    H8 1347   6.061   1.877   9.567 -0.6241 -0.4847 -0.0024
   19CHL1   C14 1348   6.224   1.975   9.472 -0.0056  0.2041  0.2718
   19CHL1   H14 1349   6.298   2.054   9.497  0.2913 -0.7590  2.6554
   19CHL1   C15 1350   6.161   2.014   9.337 -0.3329  0.5237 -0.3774
   19CHL1  H15A 1351   6.065   1.962   9.320 -0.6185  0.2883  1.7502
   19CHL1  H15B 1352   6.150   2.125   9.340  1.6904  0.7684  2.3247
   19CHL1   C16 1353   6.268   1.962   9.236 -0.0108  0.1459 -0.2543
   19CHL1  H16A 1354   6.224   1.884   9.170 -0.1464  0.4754 -0.5551
   19CHL1  H16B 1355   6.289   2.052   9.175  3.5930 -1.5554 -1.8139
   19CHL1   C17 1356   6.379   1.906   9.312 -0.1035  0.2346  0.8398
   19CHL1   H17 1357   6.449   1.990   9.331 -1.3157  1.6343 -0.5563
   19CHL1   C13 1358   6.318   1.859   9.444 -0.1249 -0.5963 -0.2894
   19CHL1   C18 1359   6.228   1.733   9.418  0.4884  0.3738 -0.2113
   19CHL1  H18A 1360   6.164   1.750   9.329  1.4946 -1.2386 -1.2873
   19CHL1  H18B 1361   6.291   1.645   9.393  1.3612  0.3278  1.9488
   19CHL1  H18C 1362   6.159   1.715   9.504  0.3716  1.1288 -0.1405
   19CHL1   C12 1363   6.408   1.845   9.567  0.1306 -0.5400 -0.4341
   19CHL1  H12A 1364   6.484   1.763   9.560 -0.2730 -0.9359 -0.2234
   19CHL1  H12B 1365   6.468   1.937   9.584 -2.6394  0.9678  2.0566
   19CHL1   C11 1366   6.330   1.835   9.700 -0.2232  0.1555  0.2980
   19CHL1  H11A 1367   6.293   1.731   9.708 -2.3326  0.9461  1.5512
   19CHL1  H11B 1368   6.407   1.845   9.780  1.1917 -1.6483 -0.7534
   19CHL1    C9 1369   6.209   1.929   9.719  0.5999  0.4178  0.3462
   19CHL1    H9 1370   6.263   2.022   9.749  3.6343 -1.6627  1.9080
   19CHL1   C10 1371   6.115   1.896   9.838  0.3105  0.3451  0.0247
   19CHL1   C19 1372   6.031   1.766   9.810 -0.4713  0.0023  0.3481
   19CHL1  H19A 1373   6.105   1.685   9.791  2.2275  1.6463  2.9810
   19CHL1  H19B 1374   5.966   1.752   9.899 -0.8199  0.1976  0.1288
   19CHL1  H19C 1375   5.968   1.771   9.719 -0.3717  0.4886  0.3026
   19CHL1    C1 1376   6.201   1.890   9.967  0.1430 -0.3641  0.7174
   19CHL1   H1A 1377   6.254   1.793   9.973  1.0825  0.2472  3.9697
   19CHL1   H1B 1378   6.272   1.975   9.967 -0.1427 -0.1059 -0.4139
   19CHL1    C2 1379   6.121   1.891  10.101 -0.1999  0.3893  0.4982
   19CHL1   H2A 1380   6.190   1.887  10.187  0.6445  0.7890 -0.1415
   19CHL1   H2B 1381   6.059   1.798  10.101  0.6104 -0.1584  0.6636
   19CHL1   C20 1382   6.458   1.801   9.235  0.2025  0.3156  0.9274
   19CHL1   H20 1383   6.385   1.725   9.200  1.0343 -0.4510  0.8518
   19CHL1   C21 1384   6.572   1.728   9.303 -0.3835 -0.0176 -0.7810
   19CHL1  H21A 1385   6.624   1.654   9.239 -0.4234  0.0480 -0.8899
   19CHL1  H21B 1386   6.523   1.665   9.380  1.4634 -2.4074 -1.4347
   19CHL1  H21C 1387   6.650   1.797   9.341  1.5425 -2.9812  1.0643
   19CHL1   C22 1388   6.504   1.870   9.100 -0.0954 -0.0093  0.8832
   19CHL1  H22A 1389   6.418   1.902   9.037  0.5568 -1.6642 -0.9535
   19CHL1  H22B 1390   6.571   1.953   9.130 -0.3501  0.9077 -0.9701
   19CHL1   C23 1391   6.592   1.788   9.006 -0.0273  0.4633 -0.2293
   19CHL1  H23A 1392   6.598   1.847   8.912  0.2651  2.1164  0.7666
   19CHL1  H23B 1393   6.691   1.785   9.057 -0.0882  0.8743 -0.0783
   19CHL1   C24 1394   6.553   1.651   8.961 -0.3035 -0.5481  0.7572
   19CHL1  H24A 1395   6.650   1.622   8.915  1.2248  0.6832  2.9863
   19CHL1  H24B 1396   6.537   1.580   9.045  0.5964 -1.8225 -0.1090
   19CHL1   C25 1397   6.429   1.652   8.861 -0.6921 -0.1800  0.3308
   19CHL1   H25 1398   6.436   1.738   8.792  1.6387 -2.4744 -2.5439
   19CHL1   C26 1399   6.432   1.528   8.766 -0.1297 -0.1659 -0.1255
   19CHL1  H26A 1400   6.349   1.541   8.693  1.3960  0.3958 -1.8260
   19CHL1  H26B 1401   6.526   1.529   8.707 -0.7027  2.6745 -1.1533
   19CHL1  H26C 1402   6.426   1.436   8.827 -0.3849  0.3154  0.5931
   19CHL1   C27 1403   6.303   1.652   8.939 -0.4647 -0.2419 -0.8244
   19CHL1  H27A 1404   6.215   1.613   8.883 -2.1074  1.1267  0.6503
   19CHL1  H27B 1405   6.316   1.595   9.033 -0.8377  0.6479 -0.2153
   19CHL1  H27C 1406   6.281   1.757   8.969  1.7752  0.3026 -0.9275
   20CHL1    C3 1407   2.004   3.637  10.414 -0.1553  0.1081 -0.4727
   20CHL1    H3 1408   1.977   3.745  10.407  0.3549  0.2530 -0.2392
   20CHL1    O3 1409   2.058   3.616  10.542  0.1694 -0.0328  0.1333
   20CHL1   H3' 1410   2.115   3.539  10.533  0.4979  0.2757 -0.5268
   20CHL1    C4 1411   1.899   3.526  10.375 -0.0078 -0.1483 -0.1308
   20CHL1   H4A 1412   1.948   3.427  10.379 -0.0478 -0.1328  0.7819
   20CHL1   H4B 1413   1.828   3.509  10.457  1.3643 -1.2644  0.8719
   20CHL1    C5 1414   1.842   3.533  10.237 -0.0995  0.4253  0.4309
   20CHL1    C6 1415   1.714   3.528  10.214  0.5249  0.2773  0.7673
   20CHL1    H6 1416   1.647   3.522  10.301 -0.4573  4.0254  0.4539
   20CHL1    C7 1417   1.662   3.505  10.072  0.0871 -0.3460  0.5119
   20CHL1   H7A 1418   1.599   3.414  10.064 -0.1743 -0.0987 -0.4880
   20CHL1   H7B 1419   1.615   3.601  10.043  3.5639  1.3465 -0.0128
   20CHL1    C8 1420   1.770   3.479   9.956  0.6281  0.0781 -0.3075
   20CHL1    H8 1421   1.790   3.369   9.953 -0.2942 -0.0782 -1.2496
   20CHL1   C14 1422   1.721   3.515   9.822 -0.6568  0.1664 -0.3039
   20CHL1   H14 1423   1.720   3.626   9.820  1.4355  0.2648  0.5692
   20CHL1   C15 1424   1.575   3.463   9.789  0.2424  0.4997  0.0890
   20CHL1  H15A 1425   1.575   3.354   9.810 -2.2784 -0.0774 -2.3667
   20CHL1  H15B 1426   1.494   3.518   9.840 -1.7765 -2.1270 -0.0646
   20CHL1   C16 1427   1.567   3.475   9.636 -0.3049 -0.6644 -0.0636
   20CHL1  H16A 1428   1.542   3.373   9.600 -0.0214 -1.1331  1.0363
   20CHL1  H16B 1429   1.491   3.553   9.612  0.0190  0.4467  2.2048
   20CHL1   C17 1430   1.716   3.530   9.588  0.1881  0.5641 -0.2191
   20CHL1   H17 1431   1.711   3.641   9.589 -2.6565  0.5045  1.1743
   20CHL1   C13 1432   1.813   3.487   9.700  0.4059 -0.4793  0.0068
   20CHL1   C18 1433   1.844   3.338   9.677  0.6111  0.2791  0.2906
   20CHL1  H18A 1434   1.832   3.285   9.774 -0.1970 -0.0037  0.0475
   20CHL1  H18B 1435   1.778   3.281   9.608  1.3629  0.2347 -0.4107
   20CHL1  H18C 1436   1.947   3.311   9.645  1.0737  0.2765  1.7191
   20CHL1   C12 1437   1.942   3.572   9.717 -0.2268  0.2335  0.0603
   20CHL1  H12A 1438   2.019   3.531   9.648 -0.9925  0.5674 -1.0178
   20CHL1  H12B 1439   1.926   3.681   9.702  0.3142  0.2840 -0.1850
   20CHL1   C11 1440   1.997   3.551   9.863 -0.2333 -1.0001 -0.1469
   20CHL1  H11A 1441   2.026   3.444   9.866 -0.5607 -1.0838  0.0515
   20CHL1  H11B 1442   2.080   3.621   9.885 -0.5625 -1.1493  1.6888
   20CHL1    C9 1443   1.890   3.559   9.979 -0.2014  0.5268 -0.4202
   20CHL1    H9 1444   1.849   3.663   9.981  0.4996  0.8029  0.8633
   20CHL1   C10 1445   1.952   3.533  10.124 -0.1573  0.6722  0.4043
   20CHL1   C19 1446   2.025   3.394  10.122 -0.1441  0.0735  0.2185
   20CHL1  H19A 1447   2.109   3.391  10.049 -2.8803  0.0904 -3.1820
   20CHL1  H19B 1448   2.057   3.367  10.225 -0.4522  0.8807  0.5314
   20CHL1  H19C 1449   1.955   3.315  10.089 -0.0415 -0.1844  0.6067
   20CHL1    C1 1450   2.059   3.640  10.163  0.4906 -0.2710 -0.2397
   20CHL1   H1A 1451   2.142   3.658  10.092  1.4254 -2.0459  0.3295
   20CHL1   H1B 1452   2.009   3.739  10.166 -0.1836 -0.6302  1.5671
   20CHL1    C2 1453   2.116   3.627  10.310 -0.2544  0.0346  0.2812
   20CHL1   H2A 1454   2.185   3.713  10.328 -0.1069 -0.1560  0.6332
   20CHL1   H2B 1455   2.174   3.533  10.317  0.2881  0.1947 -1.5485
   20CHL1   C20 1456   1.754   3.486   9.444 -0.1656 -0.2115  0.6040
   20CHL1   H20 1457   1.738   3.376   9.438  0.0578 -0.2531  0.7762
   20CHL1   C21 1458   1.891   3.529   9.398 -0.4279 -0.1840 -0.2327
   20CHL1  H21A 1459   1.903   3.635   9.431 -3.8065  0.0981  0.4469
   20CHL1  H21B 1460   1.901   3.505   9.290 -0.1539  0.2609 -0.3115
   20CHL1  H21C 1461   1.964   3.465   9.451 -1.1471 -2.6801 -2.0681
   20CHL1   C22 1462   1.656   3.552   9.342  0.1981 -0.0004  0.6046
   20CHL1  H22A 1463   1.551   3.541   9.377 -0.5039  1.7742 -0.7447
   20CHL1  H22B 1464   1.673   3.662   9.334  0.5963 -0.0462  0.7799
   20CHL1   C23 1465   1.668   3.488   9.204 -0.3344 -0.2882 -0.2872
   20CHL1  H23A 1466   1.761   3.527   9.156 -0.8819 -1.5826 -2.5697
   20CHL1  H23B 1467   1.680   3.379   9.216  1.4107 -0.0226  0.6513
   20CHL1   C24 1468   1.547   3.527   9.109 -0.5318 -0.2396 -0.4424
   20CHL1  H24A 1469   1.454   3.501   9.163 -1.5957  2.2304 -0.9669
   20CHL1  H24B 1470   1.551   3.638   9.104  0.8388 -0.3007 -1.4931
   20CHL1   C25 1471   1.543   3.459   8.971  0.3442 -0.5140 -0.1613
   20CHL1   H25 1472   1.530   3.349   8.980 -0.4337 -0.5474 -1.4780
   20CHL1   C26 1473   1.437   3.506   8.881 -0.0806 -0.0905  0.0250
   20CHL1  H26A 1474   1.436   3.442   8.790  0.8439  0.8457 -0.6598
   20CHL1  H26B 1475   1.334   3.503   8.924  0.8533  0.3734  2.4426
   20CHL1  H26C 1476   1.460   3.609   8.849 -0.4711 -0.3909 -1.2824
   20CHL1   C27 1477   1.688   3.468   8.910  0.0872 -0.4101  0.2269
   20CHL1  H27A 1478   1.762   3.412   8.970  0.6107 -0.7942 -0.7551
   20CHL1  H27B 1479   1.679   3.434   8.805 -1.1674  0.9518 -0.1389
   20CHL1  H27C 1480   1.721   3.573   8.896 -0.3747 -0.4734 -1.6786
   21CHL1    C3 1481   2.437   6.056  10.273 -0.4143  0.1816 -0.0064
   21CHL1    H3 1482   2.543   6.070  10.245 -0.6735  1.1865 -0.5332
   21CHL1    O3 1483   2.426   6.051  10.417 -0.3024 -0.4259  0.4054
   21CHL1   H3' 1484   2.335   6.026  10.438 -0.2544  0.8551  2.3243
   21CHL1    C4 1485   2.356   6.180  10.222  0.2352  0.2193 -0.0544
   21CHL1   H4A 1486   2.251   6.166  10.256 -0.7005 -1.0076 -3.0448
   21CHL1   H4B 1487   2.402   6.261  10.282  0.7144 -0.2533  0.2302
   21CHL1    C5 1488   2.373   6.184  10.075 -0.3873 -0.1107 -0.5383
   21CHL1    C6 1489   2.421   6.281  10.004 -0.5770 -0.5520 -0.5939
   21CHL1    H6 1490   2.465   6.366  10.059  2.4647 -3.1759  1.4120
   21CHL1    C7 1491   2.429   6.290   9.859  0.0983 -1.0529  0.4425
   21CHL1   H7A 1492   2.400   6.391   9.821 -0.2583 -1.1376  0.4856
   21CHL1   H7B 1493   2.531   6.274   9.819 -0.1332 -0.4685 -0.4338
   21CHL1    C8 1494   2.343   6.189   9.779 -0.2152 -0.3737 -0.4399
   21CHL1    H8 1495   2.237   6.223   9.782  0.2688  1.3285 -1.2734
   21CHL1   C14 1496   2.385   6.172   9.635  1.0429  0.0258  0.3046
   21CHL1   H14 1497   2.483   6.119   9.644  0.1509 -1.5440  1.2598
   21CHL1   C15 1498   2.407   6.297   9.553  0.0281 -0.0487  1.0212
   21CHL1  H15A 1499   2.334   6.374   9.585 -0.1054  0.0382  0.5223
   21CHL1  H15B 1500   2.509   6.339   9.571  0.1457  0.8562 -1.3688
   21CHL1   C16 1501   2.393   6.256   9.402  0.2767  1.0099 -0.4307
   21CHL1  H16A 1502   2.317   6.317   9.349  0.6279  1.9592  0.1327
   21CHL1  H16B 1503   2.486   6.274   9.344  1.0710  1.2947  0.8861
   21CHL1   C17 1504   2.350   6.108   9.401 -0.4340 -0.4114  0.0803
   21CHL1   H17 1505   2.440   6.044   9.401 -0.4931 -0.4979  0.4037
   21CHL1   C13 1506   2.294   6.086   9.550 -0.3230 -1.0015  0.3380
   21CHL1   C18 1507   2.147   6.141   9.547  0.7935 -0.0622  0.4842
   21CHL1  H18A 1508   2.154   6.248   9.516  0.8058 -0.0562  0.5079
   21CHL1  H18B 1509   2.090   6.084   9.471  0.7385 -0.6843  0.9904
   21CHL1  H18C 1510   2.099   6.126   9.646 -0.4899  0.5745 -0.0267
   21CHL1   C12 1511   2.322   5.947   9.604 -0.5756  0.2369  0.1395
   21CHL1  H12A 1512   2.252   5.877   9.553  1.3958 -0.1473 -2.2216
   21CHL1  H12B 1513   2.425   5.913   9.579 -0.3854  0.0313  1.1682
   21CHL1   C11 1514   2.296   5.939   9.759 -0.5086  0.0932  0.7490
   21CHL1  H11A 1515   2.186   5.936   9.773 -0.7275 -3.3769 -0.6668
   21CHL1  H11B 1516   2.338   5.839   9.785  0.7951 -0.2063 -2.1605
   21CHL1    C9 1517   2.359   6.056   9.848  0.1980  0.1780  0.9842
   21CHL1    H9 1518   2.464   6.025   9.832 -0.5310 -2.5686  1.0231
   21CHL1   C10 1519   2.322   6.052   9.997 -0.0185 -0.1869  1.0473
   21CHL1   C19 1520   2.165   6.051  10.024  0.6789 -1.0290  0.0486
   21CHL1  H19A 1521   2.116   6.149  10.004  3.3360  0.1431 -1.0764
   21CHL1  H19B 1522   2.118   5.965   9.973 -1.1067 -0.0631 -0.0252
   21CHL1  H19C 1523   2.149   6.031  10.132 -1.0197  0.6557  0.1689
   21CHL1    C1 1524   2.393   5.930  10.063 -0.0935  1.1031 -0.3900
   21CHL1   H1A 1525   2.346   5.847  10.005  0.5972  0.4563 -0.0458
   21CHL1   H1B 1526   2.498   5.930  10.026  0.2672  2.3517  0.5585
   21CHL1    C2 1527   2.390   5.924  10.215  0.8453  0.7944  0.3053
   21CHL1   H2A 1528   2.449   5.841  10.259  0.7354  0.5434 -0.0183
   21CHL1   H2B 1529   2.284   5.902  10.242  1.1461  0.2860  1.1237
   21CHL1   C20 1530   2.263   6.075   9.273 -0.2548  0.2445  0.1351
   21CHL1   H20 1531   2.177   6.144   9.284  0.6656  1.4789 -0.1146
   21CHL1   C21 1532   2.223   5.926   9.282 -0.1823  0.3072  0.4007
   21CHL1  H21A 1533   2.155   5.894   9.201 -0.3359 -0.0631  0.6716
   21CHL1  H21B 1534   2.152   5.911   9.366 -0.5277  0.5783  0.1615
   21CHL1  H21C 1535   2.310   5.858   9.293 -1.0946 -0.8112  0.8124
   21CHL1   C22 1536   2.336   6.098   9.139  0.2725  0.3430 -0.1545
   21CHL1  H22A 1537   2.389   6.195   9.149  1.7536 -0.5633  1.1799
   21CHL1  H22B 1538   2.418   6.025   9.127  0.0402  0.3870 -2.5167
   21CHL1   C23 1539   2.246   6.083   9.017 -0.6887 -0.1807 -0.3082
   21CHL1  H23A 1540   2.208   5.979   9.007  2.1941 -1.4752  0.9640
   21CHL1  H23B 1541   2.153   6.136   9.046 -0.9609 -1.8882  2.2471
   21CHL1   C24 1542   2.323   6.116   8.887  0.0628 -0.1232  0.1165
   21CHL1  H24A 1543   2.364   6.218   8.901  0.5742 -0.2153 -0.6870
   21CHL1  H24B 1544   2.402   6.039   8.889  0.6375  0.4109 -1.0166
   21CHL1   C25 1545   2.225   6.114   8.768  0.3802  0.1204 -0.3848
   21CHL1   H25 1546   2.156   6.201   8.775 -0.8309 -0.8438 -0.1595
   21CHL1   C26 1547   2.306   6.134   8.639 -0.9188  0.0218  0.3619
   21CHL1  H26A 1548   2.232   6.123   8.556 -0.3125 -1.3656 -0.0312
   21CHL1  H26B 1549   2.351   6.236   8.631  2.8479 -1.5181 -0.4005
   21CHL1  H26C 1550   2.385   6.060   8.616  2.3552  3.0825  0.8342
   21CHL1   C27 1551   2.143   5.986   8.752 -0.4156 -0.3677  0.7342
   21CHL1  H27A 1552   2.101   5.974   8.650  0.6278 -1.3783  0.4042
   21CHL1  H27B 1553   2.212   5.900   8.767  1.0746  0.6425 -0.0627
   21CHL1  H27C 1554   2.061   5.988   8.827 -2.0508  1.4008 -1.0058
   22CHL1    C3 1555   2.408   0.965   9.832 -0.0788  0.0319  0.0956
   22CHL1    H3 1556   2.368   0.868   9.795 -0.7571 -0.3799  1.8170
   22CHL1    O3 1557   2.435   0.942   9.976 -0.4089 -0.3990  0.3174
   22CHL1   H3' 1558   2.425   1.029  10.016 -1.4505  0.3403 -1.4155
   22CHL1    C4 1559   2.535   1.011   9.763  0.5837  1.0529 -0.0031
   22CHL1   H4A 1560   2.563   1.104   9.816  1.3472  0.5239  0.5366
   22CHL1   H4B 1561   2.614   0.934   9.768 -0.0018  0.2824 -1.7316
   22CHL1    C5 1562   2.501   1.043   9.616 -0.1996 -1.2103 -0.9793
   22CHL1    C6 1563   2.569   0.982   9.520  0.0302 -0.1428 -0.0376
   22CHL1    H6 1564   2.642   0.905   9.549 -0.1945 -1.3259 -2.3665
   22CHL1    C7 1565   2.544   1.009   9.375  0.0034 -0.1524  0.6324
   22CHL1   H7A 1566   2.638   1.031   9.321 -0.7158  1.4796 -0.0307
   22CHL1   H7B 1567   2.510   0.917   9.321  0.6281  0.4721 -0.8730
   22CHL1    C8 1568   2.447   1.125   9.338  0.1389 -0.1079 -0.3800
   22CHL1    H8 1569   2.509   1.217   9.340 -0.2213  0.1434 -0.6503
   22CHL1   C14 1570   2.384   1.116   9.198 -0.2543  0.6985 -0.6226
   22CHL1   H14 1571   2.316   1.029   9.201 -1.7355  1.8288  2.0799
   22CHL1   C15 1572   2.486   1.099   9.084  0.2380 -0.3797 -0.3224
   22CHL1  H15A 1573   2.565   1.177   9.093 -0.3539  0.2800 -0.7587
   22CHL1  H15B 1574   2.536   1.000   9.083  1.1260 -0.0318 -3.8696
   22CHL1   C16 1575   2.400   1.130   8.963  0.2344  0.4521  0.0178
   22CHL1  H16A 1576   2.453   1.208   8.904 -1.0864  1.7392  0.4762
   22CHL1  H16B 1577   2.380   1.041   8.899  0.0913  0.9289 -0.6161
   22CHL1   C17 1578   2.273   1.205   9.016  0.1110 -0.4152 -0.8594
   22CHL1   H17 1579   2.189   1.133   9.025 -0.5140  0.4983  1.3458
   22CHL1   C13 1580   2.299   1.239   9.164 -0.3410 -0.8644 -1.0162
   22CHL1   C18 1581   2.386   1.371   9.166 -0.0482 -0.6190 -0.0104
   22CHL1  H18A 1582   2.475   1.374   9.100  0.0753 -1.8254  0.0677
   22CHL1  H18B 1583   2.334   1.457   9.119  2.8654  1.7063  0.7519
   22CHL1  H18C 1584   2.408   1.418   9.264 -0.9417  1.7436 -0.8764
   22CHL1   C12 1585   2.182   1.249   9.260 -0.7156 -0.0021 -0.6592
   22CHL1  H12A 1586   2.118   1.339   9.245 -0.6125 -0.0027 -1.1019
   22CHL1  H12B 1587   2.124   1.155   9.246 -1.5248  0.0909  1.5975
   22CHL1   C11 1588   2.230   1.249   9.403  0.3480 -0.5965  0.5423
   22CHL1  H11A 1589   2.287   1.343   9.417 -0.2562 -0.3338  1.3315
   22CHL1  H11B 1590   2.138   1.254   9.465 -0.7742 -1.2296 -1.0212
   22CHL1    C9 1591   2.330   1.136   9.443  0.0747 -0.3086  0.3587
   22CHL1    H9 1592   2.277   1.039   9.434  0.9540 -0.7314 -0.3106
   22CHL1   C10 1593   2.382   1.139   9.593  0.4413 -0.3079  0.2086
   22CHL1   C19 1594   2.438   1.277   9.632 -0.9310 -0.0627  0.4818
   22CHL1  H19A 1595   2.346   1.339   9.629 -0.6639  0.2991 -0.9095
   22CHL1  H19B 1596   2.479   1.285   9.735 -1.2543 -0.7033  0.6664
   22CHL1  H19C 1597   2.521   1.304   9.563  0.6368 -1.3027  1.7940
   22CHL1    C1 1598   2.258   1.100   9.679 -0.1966 -0.5813  0.3093
   22CHL1   H1A 1599   2.184   1.181   9.688  0.1524 -0.3480  1.1351
   22CHL1   H1B 1600   2.213   1.011   9.629 -2.9574  1.0701 -0.3258
   22CHL1    C2 1601   2.294   1.057   9.826 -0.0870  0.2229 -0.1223
   22CHL1   H2A 1602   2.213   1.005   9.882  2.2070 -1.9701  1.3216
   22CHL1   H2B 1603   2.311   1.147   9.889 -0.4986  0.9050 -0.9502
   22CHL1   C20 1604   2.213   1.310   8.913 -0.2320 -0.2055 -0.2719
   22CHL1   H20 1605   2.282   1.395   8.900 -0.5997  0.0498 -0.5667
   22CHL1   C21 1606   2.073   1.350   8.978 -0.0518 -0.4931 -0.4220
   22CHL1  H21A 1607   2.069   1.416   9.068  0.2379 -1.3580  0.2423
   22CHL1  H21B 1608   2.024   1.261   9.024 -0.6574  0.1616  0.2361
   22CHL1  H21C 1609   2.002   1.393   8.904 -1.8840  0.5676  1.8074
   22CHL1   C22 1610   2.201   1.261   8.764  0.2504  0.4252 -0.0333
   22CHL1  H22A 1611   2.291   1.207   8.728  0.5284  0.1777  0.9976
   22CHL1  H22B 1612   2.125   1.181   8.775  1.0870 -0.2566  1.1677
   22CHL1   C23 1613   2.168   1.370   8.664  0.0359 -0.0089 -0.0623
   22CHL1  H23A 1614   2.066   1.413   8.668 -0.6458 -1.6506  1.6946
   22CHL1  H23B 1615   2.233   1.454   8.696  0.0176 -0.8976  2.5882
   22CHL1   C24 1616   2.212   1.327   8.517 -0.7697  0.1209  1.0228
   22CHL1  H24A 1617   2.323   1.317   8.512 -0.8989 -1.7537  1.4082
   22CHL1  H24B 1618   2.161   1.231   8.497  2.6091 -1.6302  0.1089
   22CHL1   C25 1619   2.174   1.425   8.410  0.0368 -0.4008 -0.4826
   22CHL1   H25 1620   2.184   1.530   8.446  3.5484 -1.7911  3.3056
   22CHL1   C26 1621   2.257   1.416   8.278  0.4410 -0.2338  0.3688
   22CHL1  H26A 1622   2.246   1.316   8.231  1.5226  1.0531 -2.8407
   22CHL1  H26B 1623   2.201   1.484   8.211  0.1948 -1.4043 -0.6512
   22CHL1  H26C 1624   2.364   1.441   8.295  0.8236  0.4331 -2.5131
   22CHL1   C27 1625   2.023   1.406   8.387 -0.3935  0.2842  0.4204
   22CHL1  H27A 1626   1.999   1.308   8.342 -0.9340  0.2974  0.6778
   22CHL1  H27B 1627   1.957   1.426   8.474 -0.3137 -1.7842  1.0066
   22CHL1  H27C 1628   1.980   1.467   8.305 -0.6076  0.0283  0.3426
   23CHL1    C3 1629   4.884   1.792  10.246  0.0993 -0.5869 -0.7005
   23CHL1    H3 1630   4.943   1.702  10.219  2.5719  0.5992  0.4168
   23CHL1    O3 1631   4.842   1.780  10.382  0.0290 -0.1217 -0.6775
   23CHL1   H3' 1632   4.751   1.753  10.372  0.4793 -2.0793  0.0090
   23CHL1    C4 1633   4.967   1.919  10.244  0.0641  0.3234  0.0078
   23CHL1   H4A 1634   4.922   2.007  10.294 -0.1571 -0.2428  0.8275
   23CHL1   H4B 1635   5.052   1.904  10.315  0.1832  2.3242  0.3297
   23CHL1    C5 1636   5.013   1.951  10.108  0.4318 -0.1441 -0.1860
   23CHL1    C6 1637   5.145   1.964  10.083  0.0256 -0.7077 -0.2621
   23CHL1    H6 1638   5.217   1.960  10.165 -0.0785  2.4152  0.1158
   23CHL1    C7 1639   5.200   1.987   9.944 -0.7199 -0.7725 -0.0606
   23CHL1   H7A 1640   5.285   2.057   9.960 -1.4356  0.0564  0.1519
   23CHL1   H7B 1641   5.233   1.890   9.901 -1.7367 -1.0244 -0.2846
   23CHL1    C8 1642   5.098   2.051   9.850  0.0721  0.9235 -0.0819
   23CHL1    H8 1643   5.072   2.154   9.882 -0.6550  1.2969 -1.7715
   23CHL1   C14 1644   5.154   2.049   9.704 -0.0837 -0.4359  0.2625
   23CHL1   H14 1645   5.172   1.941   9.682 -2.3538 -0.7474 -0.2606
   23CHL1   C15 1646   5.296   2.111   9.675  0.0724  0.2520  0.1695
   23CHL1  H15A 1647   5.301   2.199   9.743 -0.3357  0.3884  0.0270
   23CHL1  H15B 1648   5.381   2.045   9.703 -0.5969 -0.6868  0.0652
   23CHL1   C16 1649   5.274   2.149   9.526 -0.3346  0.2579 -0.6543
   23CHL1  H16A 1650   5.278   2.260   9.513 -2.1531  0.3230 -0.9730
   23CHL1  H16B 1651   5.363   2.112   9.472  0.1244 -1.5055  1.1730
   23CHL1   C17 1652   5.142   2.087   9.476  0.3299 -0.0084  0.2336
   23CHL1   H17 1653   5.155   1.977   9.468 -0.9492 -0.0854 -1.0738
   23CHL1   C13 1654   5.054   2.099   9.598 -0.1565  0.3547 -0.5727
   23CHL1   C18 1655   5.017   2.245   9.619  0.3544  0.2828 -0.9462
   23CHL1  H18A 1656   4.960   2.263   9.712 -1.5363  0.6891 -2.1190
   23CHL1  H18B 1657   5.105   2.310   9.635  1.9816 -1.2583 -3.0265
   23CHL1  H18C 1658   4.942   2.274   9.543 -0.2850 -1.6091 -1.0810
   23CHL1   C12 1659   4.930   2.011   9.600 -0.3743  0.4970 -0.2588
   23CHL1  H12A 1660   4.855   2.039   9.522 -0.0514  0.7959 -0.4644
   23CHL1  H12B 1661   4.963   1.910   9.568 -1.3621  0.4814 -1.3146
   23CHL1   C11 1662   4.867   1.995   9.739  0.7831  0.1710  0.6947
   23CHL1  H11A 1663   4.823   2.095   9.760  0.4428  0.0213  0.6963
   23CHL1  H11B 1664   4.788   1.917   9.737  0.1095  0.8302  1.1378
   23CHL1    C9 1665   4.966   1.963   9.851 -0.2629  0.2402 -0.6860
   23CHL1    H9 1666   4.990   1.857   9.826  0.0774  0.7217 -2.5551
   23CHL1   C10 1667   4.901   1.965   9.995 -0.0776 -0.2602  0.1750
   23CHL1   C19 1668   4.807   2.081  10.013 -0.1606  0.2807 -0.0427
   23CHL1  H19A 1669   4.856   2.176   9.982  1.3916 -0.1997  0.7842
   23CHL1  H19B 1670   4.719   2.076   9.947 -0.8557 -3.3293  0.9430
   23CHL1  H19C 1671   4.777   2.080  10.120 -0.6275 -3.0738 -0.1216
   23CHL1    C1 1672   4.812   1.842  10.011 -0.7607 -0.1930  0.5127
   23CHL1   H1A 1673   4.721   1.855   9.949 -0.1038 -1.7165 -0.8130
   23CHL1   H1B 1674   4.876   1.758   9.977  1.4924  1.4660  0.3842
   23CHL1    C2 1675   4.766   1.808  10.154 -0.1795 -0.2009  0.3415
   23CHL1   H2A 1676   4.707   1.714  10.156  1.2616 -1.1971 -1.3641
   23CHL1   H2B 1677   4.702   1.889  10.196 -0.6302 -0.0774 -0.5589
   23CHL1   C20 1678   5.086   2.131   9.338  0.9443 -0.2796  0.4252
   23CHL1   H20 1679   4.976   2.115   9.344  0.4485  2.5738  0.6408
   23CHL1   C21 1680   5.147   2.052   9.222 -0.3770 -0.5993  0.7415
   23CHL1  H21A 1681   5.254   2.077   9.208 -0.3567 -0.9394  0.2490
   23CHL1  H21B 1682   5.097   2.084   9.129  3.2199  0.7175 -0.9391
   23CHL1  H21C 1683   5.146   1.941   9.229 -0.4486 -0.7126 -0.7249
   23CHL1   C22 1684   5.111   2.293   9.310 -0.7617 -0.0504  0.7343
   23CHL1  H22A 1685   5.042   2.355   9.370 -1.2853 -1.0441  1.1853
   23CHL1  H22B 1686   5.211   2.329   9.343 -0.7735 -0.2953  1.0422
   23CHL1   C23 1687   5.062   2.335   9.168  0.0306 -0.5560  0.1933
   23CHL1  H23A 1688   5.103   2.278   9.082  0.9733  0.0977  0.1934
   23CHL1  H23B 1689   4.955   2.305   9.164 -0.1719  0.1920 -0.2455
   23CHL1   C24 1690   5.081   2.485   9.130 -0.3314  0.1580  1.1448
   23CHL1  H24A 1691   5.012   2.547   9.191  2.5942  3.4317  1.4684
   23CHL1  H24B 1692   5.178   2.517   9.174 -1.1415  0.4345  2.7743
   23CHL1   C25 1693   5.079   2.518   8.983 -0.2927  0.3627 -0.8147
   23CHL1   H25 1694   5.111   2.434   8.918 -1.0416  1.5257 -2.7929
   23CHL1   C26 1695   4.933   2.538   8.932  0.3333 -0.1839 -0.1915
   23CHL1  H26A 1696   4.904   2.436   8.900 -0.1855 -0.3925  0.9151
   23CHL1  H26B 1697   4.853   2.583   8.995 -0.9346 -1.5003 -0.7915
   23CHL1  H26C 1698   4.945   2.606   8.845 -1.8189  0.1758 -0.2534
   23CHL1   C27 1699   5.169   2.634   8.944 -0.3072 -0.2453 -0.3361
   23CHL1  H27A 1700   5.183   2.625   8.834  0.6865  1.4707 -0.3930
   23CHL1  H27B 1701   5.133   2.736   8.971  2.1617  0.1173  1.9507
   23CHL1  H27C 1702   5.263   2.607   8.995 -1.6441  0.9292  3.0286
   24CHL1    C3 1703   4.947   2.551  10.206  0.1761 -0.2056 -0.2070
   24CHL1    H3 1704   4.853   2.610  10.210  0.3046 -0.0247  2.5829
   24CHL1    O3 1705   4.967   2.490  10.332 -0.2228  0.3912 -0.5579
   24CHL1   H3' 1706   5.037   2.428  10.313  1.5786  2.0886  0.0975
   24CHL1    C4 1707   4.934   2.444  10.100  0.4907  0.0881 -0.2210
   24CHL1   H4A 1708   5.026   2.381  10.100  0.5630  0.1243 -2.3344
   24CHL1   H4B 1709   4.856   2.373  10.131 -1.3824  2.1758  0.1212
   24CHL1    C5 1710   4.922   2.514   9.963  0.0945  0.3695  0.1078
   24CHL1    C6 1711   4.816   2.482   9.883 -0.0131 -0.4178  0.2059
   24CHL1    H6 1712   4.747   2.404   9.918 -0.4079 -0.4095 -0.5264
   24CHL1    C7 1713   4.790   2.533   9.743  0.4547  0.1132 -0.4132
   24CHL1   H7A 1714   4.760   2.454   9.670 -0.2251  0.4448 -0.4974
   24CHL1   H7B 1715   4.708   2.608   9.743  0.4069  0.0605 -0.0867
   24CHL1    C8 1716   4.916   2.605   9.700 -0.5695 -0.1143 -0.7166
   24CHL1    H8 1717   4.984   2.522   9.669  0.5333  0.4059  0.2279
   24CHL1   C14 1718   4.877   2.697   9.594 -0.5847  0.2033 -0.0269
   24CHL1   H14 1719   4.827   2.782   9.646  2.4155  0.8865  2.0081
   24CHL1   C15 1720   4.781   2.641   9.492  0.5147  0.1545  0.4376
   24CHL1  H15A 1721   4.808   2.535   9.472  0.8064  0.5371 -1.2878
   24CHL1  H15B 1722   4.681   2.650   9.540 -1.5386  0.0825 -3.4276
   24CHL1   C16 1723   4.805   2.731   9.370 -0.1854 -0.7330 -0.1061
   24CHL1  H16A 1724   4.835   2.676   9.279  2.3405 -0.3301  0.4020
   24CHL1  H16B 1725   4.708   2.784   9.355 -0.3352 -1.1724 -0.6990
   24CHL1   C17 1726   4.923   2.826   9.393 -0.0415 -0.5291 -0.0399
   24CHL1   H17 1727   4.874   2.914   9.441 -2.2109 -2.6613  1.9412
   24CHL1   C13 1728   5.001   2.753   9.509  0.3184  0.0007 -0.4351
   24CHL1   C18 1729   5.084   2.636   9.452  0.3660  0.7180 -0.4329
   24CHL1  H18A 1730   5.146   2.593   9.533  1.4971  0.4846 -1.4023
   24CHL1  H18B 1731   5.014   2.559   9.413 -1.2042  2.0015 -0.2923
   24CHL1  H18C 1732   5.159   2.666   9.376  2.3512 -1.8015  0.4129
   24CHL1   C12 1733   5.074   2.848   9.608 -0.2789 -0.2433 -0.1470
   24CHL1  H12A 1734   5.156   2.898   9.553  0.0397  0.1888  0.7020
   24CHL1  H12B 1735   4.996   2.922   9.635  1.3866  1.5310 -0.0555
   24CHL1   C11 1736   5.110   2.780   9.740  0.2223  0.2545 -0.4845
   24CHL1  H11A 1737   5.206   2.725   9.727 -0.3891 -0.1774 -4.2629
   24CHL1  H11B 1738   5.135   2.865   9.807  1.9278 -0.4212 -0.1896
   24CHL1    C9 1739   4.994   2.691   9.805  0.3964  0.2208 -0.1868
   24CHL1    H9 1740   4.920   2.769   9.835  0.2636 -0.5383  1.5321
   24CHL1   C10 1741   5.033   2.613   9.931  0.0019 -0.1030  0.4476
   24CHL1   C19 1742   5.158   2.543   9.898 -0.0472  0.1764 -0.2379
   24CHL1  H19A 1743   5.233   2.625   9.890 -1.4459  1.5489  0.3189
   24CHL1  H19B 1744   5.188   2.480   9.985 -0.8853  0.2787  0.1395
   24CHL1  H19C 1745   5.152   2.492   9.800 -4.4554 -0.9384  0.3898
   24CHL1    C1 1746   5.047   2.713  10.053 -1.0262  0.7247  1.0024
   24CHL1   H1A 1747   5.128   2.788  10.043  0.6910 -1.3091 -2.1914
   24CHL1   H1B 1748   4.951   2.768  10.059 -2.9676 -2.4315  1.4633
   24CHL1    C2 1749   5.066   2.635  10.178  0.3705 -0.1814  0.0440
   24CHL1   H2A 1750   5.093   2.711  10.254  1.8320  0.2963 -0.9135
   24CHL1   H2B 1751   5.155   2.569  10.177  1.5056  1.2916  0.3727
   24CHL1   C20 1752   4.988   2.866   9.261 -0.2578  0.2517 -0.2685
   24CHL1   H20 1753   5.014   2.770   9.212 -3.6527  0.0161 -1.8970
   24CHL1   C21 1754   5.120   2.944   9.288 -0.0584  0.1134 -0.4874
   24CHL1  H21A 1755   5.201   2.874   9.320 -2.0208 -2.6549 -1.1715
   24CHL1  H21B 1756   5.093   3.026   9.358  3.3122  0.9063  0.0478
   24CHL1  H21C 1757   5.152   2.998   9.196 -0.0441  2.0008  0.5744
   24CHL1   C22 1758   4.897   2.954   9.171 -0.3414 -0.0467 -0.1570
   24CHL1  H22A 1759   4.795   2.910   9.179 -0.3258 -0.0282  0.1374
   24CHL1  H22B 1760   4.905   3.055   9.217  0.2208  0.0268 -0.4087
   24CHL1   C23 1761   4.932   2.967   9.021  0.0645 -0.4666 -0.5669
   24CHL1  H23A 1762   4.936   3.075   8.997 -0.7046 -0.3260 -0.0906
   24CHL1  H23B 1763   5.025   2.909   9.002 -0.4408 -1.2612 -0.6895
   24CHL1   C24 1764   4.824   2.902   8.932  0.4670 -0.6494  0.2884
   24CHL1  H24A 1765   4.810   2.800   8.974 -2.4269  0.5916  2.6591
   24CHL1  H24B 1766   4.721   2.934   8.959  0.5638 -0.0508 -0.0275
   24CHL1   C25 1767   4.861   2.907   8.781  0.0782 -0.0038  0.3892
   24CHL1   H25 1768   4.960   2.856   8.786 -0.6305 -1.3465  3.2970
   24CHL1   C26 1769   4.762   2.828   8.696 -0.2904  0.4353  0.2670
   24CHL1  H26A 1770   4.797   2.836   8.591  0.4836  1.3138  0.5792
   24CHL1  H26B 1771   4.758   2.723   8.732 -2.4801 -0.2689 -1.7552
   24CHL1  H26C 1772   4.663   2.877   8.707  0.3930  1.6543  1.2438
   24CHL1   C27 1773   4.893   3.050   8.721 -0.1616  0.6919  0.4592
   24CHL1  H27A 1774   4.939   3.023   8.623 -3.4480 -1.9235 -0.5711
   24CHL1  H27B 1775   4.796   3.099   8.697 -0.1055  0.3994 -0.4168
   24CHL1  H27C 1776   4.964   3.105   8.786  0.7992  1.3654 -1.0814
   25CHL1    C3 1777   2.632   4.054  10.284  0.5994 -0.2497  0.9223
   25CHL1    H3 1778   2.703   4.122  10.234 -1.0217 -0.3936 -1.7535
   25CHL1    O3 1779   2.632   4.077  10.422 -0.1938  0.3820 -0.5217
   25CHL1   H3' 1780   2.566   4.019  10.460 -1.0239  0.7653 -1.3432
   25CHL1    C4 1781   2.491   4.081  10.219 -0.7414 -0.0037  0.0844
   25CHL1   H4A 1782   2.420   4.015  10.274 -0.8001  1.1730  1.4965
   25CHL1   H4B 1783   2.461   4.185  10.244 -0.3920  0.1046  0.0600
   25CHL1    C5 1784   2.478   4.046  10.073 -0.6292 -0.0663 -0.1031
   25CHL1    C6 1785   2.443   4.140   9.985  0.1348  0.1239  0.0752
   25CHL1    H6 1786   2.417   4.240  10.023 -0.0013 -0.5367  1.8066
   25CHL1    C7 1787   2.453   4.118   9.836  0.4114  0.3316  0.6037
   25CHL1   H7A 1788   2.364   4.160   9.785  0.1220  0.2994  1.0735
   25CHL1   H7B 1789   2.543   4.169   9.795 -0.0725 -0.6610 -1.8359
   25CHL1    C8 1790   2.453   3.968   9.807 -0.1972  0.1984  0.2034
   25CHL1    H8 1791   2.347   3.937   9.814 -0.7285  0.8828 -3.2377
   25CHL1   C14 1792   2.494   3.948   9.658 -1.4559  0.4512 -0.0986
   25CHL1   H14 1793   2.599   3.983   9.646 -1.3063  0.5348  1.3191
   25CHL1   C15 1794   2.411   4.024   9.553 -0.5601 -0.5282 -0.6706
   25CHL1  H15A 1795   2.302   4.008   9.570 -0.4339  0.1569  0.8939
   25CHL1  H15B 1796   2.437   4.131   9.545  3.4552 -1.4770 -3.3278
   25CHL1   C16 1797   2.447   3.952   9.420  0.6004  0.1370 -0.0036
   25CHL1  H16A 1798   2.351   3.930   9.368 -0.9950 -0.0006  2.8000
   25CHL1  H16B 1799   2.518   4.017   9.365 -0.2996  0.3685 -0.9418
   25CHL1   C17 1800   2.520   3.816   9.461 -0.4262 -0.3596 -0.4183
   25CHL1   H17 1801   2.627   3.845   9.454 -0.7353  0.7357 -0.8902
   25CHL1   C13 1802   2.491   3.803   9.613  0.5460  1.5212  0.1071
   25CHL1   C18 1803   2.348   3.743   9.633  0.4473  0.2268  0.3838
   25CHL1  H18A 1804   2.348   3.634   9.611  0.2564 -0.1039  1.8612
   25CHL1  H18B 1805   2.316   3.740   9.740  2.9900  0.1680  1.2197
   25CHL1  H18C 1806   2.273   3.798   9.573 -0.1962 -0.6418  0.3722
   25CHL1   C12 1807   2.599   3.723   9.691  0.1076  0.1244  0.5062
   25CHL1  H12A 1808   2.587   3.615   9.667 -0.8448  0.4933 -0.8015
   25CHL1  H12B 1809   2.699   3.756   9.654 -0.5926 -0.2180 -1.8875
   25CHL1   C11 1810   2.583   3.734   9.845 -0.5066 -0.1575 -0.1146
   25CHL1  H11A 1811   2.497   3.667   9.866  0.0335 -0.7037  0.3979
   25CHL1  H11B 1812   2.667   3.686   9.900  1.1940  2.8110  0.1034
   25CHL1    C9 1813   2.557   3.885   9.891  0.7100 -0.3855 -0.1601
   25CHL1    H9 1814   2.657   3.933   9.877  1.5079 -2.0353 -0.4048
   25CHL1   C10 1815   2.535   3.905  10.042  0.2358  0.3975  0.3393
   25CHL1   C19 1816   2.433   3.792  10.084 -0.3981  0.0036  0.2144
   25CHL1  H19A 1817   2.463   3.686  10.071 -1.0122 -0.3673  1.6110
   25CHL1  H19B 1818   2.411   3.810  10.191 -1.4564  0.1865 -0.0185
   25CHL1  H19C 1819   2.337   3.798  10.027 -0.6030 -0.5841  0.4869
   25CHL1    C1 1820   2.662   3.878  10.110 -0.5210 -0.3631  0.0924
   25CHL1   H1A 1821   2.692   3.771  10.106 -0.5706 -0.3789  0.1392
   25CHL1   H1B 1822   2.757   3.927  10.078 -0.6417  0.2089  0.5830
   25CHL1    C2 1823   2.667   3.905  10.258 -0.6427 -0.3510  0.3040
   25CHL1   H2A 1824   2.767   3.871  10.291 -0.1101  1.0406  0.2197
   25CHL1   H2B 1825   2.602   3.837  10.318  1.7714 -4.0762 -0.9743
   25CHL1   C20 1826   2.498   3.689   9.366  0.1112 -1.3374 -0.0241
   25CHL1   H20 1827   2.485   3.603   9.436 -1.4711  0.0321  1.4452
   25CHL1   C21 1828   2.625   3.666   9.285 -0.2616  0.4818 -0.5735
   25CHL1  H21A 1829   2.624   3.578   9.218  2.6618 -0.6176  0.6702
   25CHL1  H21B 1830   2.708   3.654   9.357 -0.3936 -1.5763 -0.7195
   25CHL1  H21C 1831   2.639   3.757   9.223  1.8960  1.3346  1.0451
   25CHL1   C22 1832   2.370   3.698   9.278 -0.0531  0.8502  0.5972
   25CHL1  H22A 1833   2.286   3.727   9.345 -0.6885  1.5518 -0.4643
   25CHL1  H22B 1834   2.387   3.773   9.197 -0.8181 -0.4823 -0.8714
   25CHL1   C23 1835   2.331   3.566   9.194 -0.0627 -0.2780 -0.6370
   25CHL1  H23A 1836   2.428   3.533   9.151  1.6580  0.2438  2.4834
   25CHL1  H23B 1837   2.298   3.494   9.272  1.8212  0.1396  0.6194
   25CHL1   C24 1838   2.215   3.583   9.100  0.2484 -0.7791  0.0255
   25CHL1  H24A 1839   2.133   3.651   9.131 -0.3761 -1.5153  0.0258
   25CHL1  H24B 1840   2.245   3.641   9.010  0.3149  0.3938  0.7803
   25CHL1   C25 1841   2.140   3.452   9.067 -0.2212  0.4755  0.3657
   25CHL1   H25 1842   2.107   3.396   9.157 -1.4388 -0.9511 -0.9108
   25CHL1   C26 1843   2.015   3.480   8.981  0.8209 -0.3782  0.0941
   25CHL1  H26A 1844   1.972   3.392   8.929 -0.9032  0.6810 -0.3311
   25CHL1  H26B 1845   1.935   3.526   9.043  1.2245 -0.0053  0.3465
   25CHL1  H26C 1846   2.045   3.562   8.913 -0.0337 -0.2768 -0.1733
   25CHL1   C27 1847   2.222   3.343   8.993  0.5149 -0.3957  0.1028
   25CHL1  H27A 1848   2.256   3.369   8.890  1.8797 -1.8799  0.1271
   25CHL1  H27B 1849   2.315   3.317   9.049  1.0272  0.3602 -0.3703
   25CHL1  H27C 1850   2.155   3.255   8.982  0.7821 -0.3863 -2.0496
   26CHL1    C3 1851   2.511   0.159  10.145 -0.3343  0.0446 -0.2674
   26CHL1    H3 1852   2.565   0.254  10.129 -1.0837  0.8311  1.5921
   26CHL1    O3 1853   2.481   0.167  10.285  0.3870  0.5860 -0.1375
   26CHL1   H3' 1854   2.447   0.081  10.311  0.4029  1.1831  2.0869
   26CHL1    C4 1855   2.385   0.150  10.059 -0.3846  0.2714 -0.7629
   26CHL1   H4A 1856   2.324   0.068  10.104  0.5778  0.3994  0.8491
   26CHL1   H4B 1857   2.324   0.238  10.087 -0.8237 -0.4448  0.6697
   26CHL1    C5 1858   2.417   0.136   9.908 -1.2087  0.0975  0.5268
   26CHL1    C6 1859   2.374   0.225   9.817  0.1705  0.0784  0.1946
   26CHL1    H6 1860   2.315   0.310   9.854  0.4248  0.2618  0.1831
   26CHL1    C7 1861   2.401   0.233   9.670 -0.5798  0.5090  0.2328
   26CHL1   H7A 1862   2.319   0.268   9.604  0.5162  2.2779 -0.2589
   26CHL1   H7B 1863   2.482   0.310   9.668  1.0276 -1.0404  1.6791
   26CHL1    C8 1864   2.446   0.099   9.623 -0.1492  0.0370 -0.2044
   26CHL1    H8 1865   2.355   0.035   9.620 -1.5333  1.9405 -1.6614
   26CHL1   C14 1866   2.514   0.105   9.485  0.4432  0.4101  0.3317
   26CHL1   H14 1867   2.616   0.147   9.500  0.6216  0.2772 -0.4554
   26CHL1   C15 1868   2.437   0.190   9.383 -0.0910  0.2880  0.1456
   26CHL1  H15A 1869   2.328   0.167   9.393 -0.4434  2.3407  1.6020
   26CHL1  H15B 1870   2.456   0.299   9.387 -0.0193  0.2561  0.7744
   26CHL1   C16 1871   2.494   0.154   9.240 -0.8346  0.1797 -1.1832
   26CHL1  H16A 1872   2.408   0.147   9.170 -0.7937 -0.5260 -1.1726
   26CHL1  H16B 1873   2.564   0.236   9.214 -1.3890  0.8148 -0.6971
   26CHL1   C17 1874   2.582   0.026   9.271 -0.3219 -0.2375 -0.4419
   26CHL1   H17 1875   2.683   0.068   9.291  0.5193 -1.7000 -1.4019
   26CHL1   C13 1876   2.541  -0.026   9.414  0.2166  0.0136 -0.4705
   26CHL1   C18 1877   2.418  -0.127   9.399  0.3855  0.4062 -0.4542
   26CHL1  H18A 1878   2.376  -0.145   9.500  1.7247  0.2243  0.1018
   26CHL1  H18B 1879   2.344  -0.093   9.323 -3.4432 -2.5930  1.5587
   26CHL1  H18C 1880   2.459  -0.223   9.359 -1.3335 -0.1463 -0.9617
   26CHL1   C12 1881   2.655  -0.096   9.503  0.3095  0.1414  0.1582
   26CHL1  H12A 1882   2.666  -0.203   9.474  0.6483  0.3795 -0.5975
   26CHL1  H12B 1883   2.751  -0.041   9.496  0.2085  0.1856 -1.0113
   26CHL1   C11 1884   2.610  -0.096   9.655  0.8785  0.0995 -0.2606
   26CHL1  H11A 1885   2.536  -0.178   9.657  0.0698  0.8191  0.4642
   26CHL1  H11B 1886   2.708  -0.124   9.701  0.5572  0.9809  1.0208
   26CHL1    C9 1887   2.552   0.042   9.718  0.3076  0.0705 -0.5232
   26CHL1    H9 1888   2.645   0.102   9.705  1.4630 -0.8843  2.4789
   26CHL1   C10 1889   2.512   0.028   9.869  0.1321  0.0419  0.1933
   26CHL1   C19 1890   2.434  -0.108   9.897 -0.1530 -0.6064  0.1720
   26CHL1  H19A 1891   2.497  -0.198   9.882  0.4032 -0.8402  3.3960
   26CHL1  H19B 1892   2.394  -0.109  10.000  0.7242  1.0746  0.5675
   26CHL1  H19C 1893   2.352  -0.121   9.822 -1.1546  0.7149  0.9816
   26CHL1    C1 1894   2.639   0.034   9.961  0.3621 -0.1364 -0.2848
   26CHL1   H1A 1895   2.690  -0.064   9.956  1.7172  0.2721  3.1360
   26CHL1   H1B 1896   2.714   0.111   9.933  0.1902  0.4659  0.8563
   26CHL1    C2 1897   2.616   0.050  10.113 -0.0848  0.2899  0.4457
   26CHL1   H2A 1898   2.709   0.068  10.172 -0.1978  1.5195  0.2767
   26CHL1   H2B 1899   2.566  -0.045  10.143  1.5729  0.1944  3.3157
   26CHL1   C20 1900   2.586  -0.070   9.153  0.2154 -0.7712 -0.6626
   26CHL1   H20 1901   2.486  -0.117   9.154  0.0450 -0.4181  0.1197
   26CHL1   C21 1902   2.701  -0.173   9.175 -0.1654  0.0944 -0.8828
   26CHL1  H21A 1903   2.801  -0.132   9.150  0.3082 -1.8377 -2.3022
   26CHL1  H21B 1904   2.673  -0.256   9.108 -0.2976 -0.9335  0.4060
   26CHL1  H21C 1905   2.701  -0.214   9.278  1.6772  0.4158 -0.7167
   26CHL1   C22 1906   2.605  -0.004   9.015 -0.1491  0.3505  0.0857
   26CHL1  H22A 1907   2.533   0.078   8.993 -0.6311 -1.0050 -4.3354
   26CHL1  H22B 1908   2.709   0.032   8.998  0.3910 -0.8667  0.6795
   26CHL1   C23 1909   2.600  -0.102   8.886  0.1948  0.0798  0.1420
   26CHL1  H23A 1910   2.598  -0.030   8.801 -1.2240  0.0993  0.1648
   26CHL1  H23B 1911   2.692  -0.164   8.893 -0.0674 -0.4577 -0.9081
   26CHL1   C24 1912   2.469  -0.188   8.876 -0.6750  0.6261 -0.3441
   26CHL1  H24A 1913   2.467  -0.271   8.950 -0.4424  0.3040 -0.6924
   26CHL1  H24B 1914   2.385  -0.121   8.906 -2.3519 -1.6024  0.2367
   26CHL1   C25 1915   2.437  -0.254   8.743 -0.8716 -0.7854 -0.5202
   26CHL1   H25 1916   2.361  -0.332   8.765  0.8054 -2.8374 -1.6524
   26CHL1   C26 1917   2.383  -0.151   8.645  0.1642 -0.0726  0.2540
   26CHL1  H26A 1918   2.465  -0.079   8.622 -0.1129  0.1655  0.0103
   26CHL1  H26B 1919   2.345  -0.198   8.552 -0.3881  0.9805 -0.0614
   26CHL1  H26C 1920   2.306  -0.090   8.696  0.4905  0.5500  0.0143
   26CHL1   C27 1921   2.550  -0.325   8.668  0.6320 -0.1006  0.8060
   26CHL1  H27A 1922   2.626  -0.259   8.621 -0.4164 -0.5655 -1.6948
   26CHL1  H27B 1923   2.602  -0.403   8.728  0.7814 -2.0515 -1.6786
   26CHL1  H27C 1924   2.518  -0.380   8.577  1.2330 -1.8621  1.6027
   27CHL1    C3 1925   0.991   3.068  10.484 -0.1540 -1.0114 -0.2316
   27CHL1    H3 1926   1.078   3.078  10.415  0.0220 -2.0678 -0.1695
   27CHL1    O3 1927   1.044   3.033  10.610 -0.0158 -0.2954  0.1633
   27CHL1   H3' 1928   0.970   3.033  10.670 -2.5628  0.5429 -2.7198
   27CHL1    C4 1929   0.914   3.205  10.498 -0.2090  0.5469  0.7598
   27CHL1   H4A 1930   0.829   3.190  10.569 -0.6437 -1.8408 -0.1807
   27CHL1   H4B 1931   0.984   3.279  10.544  0.0004  0.9436 -0.1834
   27CHL1    C5 1932   0.861   3.249  10.362 -0.2815 -0.4322 -0.6171
   27CHL1    C6 1933   0.889   3.376  10.320  0.3516  0.8802 -0.0259
   27CHL1    H6 1934   0.958   3.438  10.379  1.0791 -1.4203  1.6505
   27CHL1    C7 1935   0.830   3.427  10.194 -0.0012  0.1970  0.7211
   27CHL1   H7A 1936   0.772   3.520  10.210 -0.9995 -0.2018 -0.4451
   27CHL1   H7B 1937   0.921   3.453  10.136 -0.4499 -0.7793 -0.4587
   27CHL1    C8 1938   0.732   3.332  10.119 -0.1607  0.3209  0.6664
   27CHL1    H8 1939   0.631   3.348  10.161 -0.3067 -2.2888  1.4534
   27CHL1   C14 1940   0.729   3.361   9.967 -0.3298 -0.3260  0.2061
   27CHL1   H14 1941   0.825   3.313   9.936  0.5257  0.1177  2.0487
   27CHL1   C15 1942   0.745   3.504   9.917 -0.0296  0.1744 -0.5108
   27CHL1  H15A 1943   0.683   3.562   9.988  0.1124  0.3274 -0.5119
   27CHL1  H15B 1944   0.850   3.541   9.921 -0.7397  2.5591 -2.1090
   27CHL1   C16 1945   0.682   3.502   9.777 -0.0440 -0.4153 -0.0884
   27CHL1  H16A 1946   0.586   3.557   9.780  0.2688  0.1520 -0.1939
   27CHL1  H16B 1947   0.759   3.541   9.707 -0.1836  0.3188  0.1572
   27CHL1   C17 1948   0.643   3.351   9.754  0.4983  0.9267 -0.8107
   27CHL1   H17 1949   0.733   3.303   9.712  0.1122 -0.6476  0.0928
   27CHL1   C13 1950   0.619   3.292   9.890  0.4576  0.5218 -0.3760
   27CHL1   C18 1951   0.481   3.336   9.934  0.0410 -0.8403 -0.3106
   27CHL1  H18A 1952   0.467   3.444   9.913  1.2499 -0.9707 -2.0163
   27CHL1  H18B 1953   0.412   3.267   9.881 -0.0026 -0.2347 -1.0560
   27CHL1  H18C 1954   0.464   3.320  10.043 -0.1182  1.3031  0.0130
   27CHL1   C12 1955   0.633   3.135   9.910  0.0875  0.4172 -0.1951
   27CHL1  H12A 1956   0.543   3.081   9.875 -0.4526  0.9631  0.3139
   27CHL1  H12B 1957   0.721   3.103   9.851  0.1671 -1.3092  0.7953
   27CHL1   C11 1958   0.660   3.098  10.055  0.1229 -0.0315 -0.5829
   27CHL1  H11A 1959   0.562   3.095  10.106  0.1983  0.1675 -0.4213
   27CHL1  H11B 1960   0.701   2.995  10.058 -0.8516 -0.4124  0.0844
   27CHL1    C9 1961   0.766   3.185  10.138 -0.2232 -0.1809 -0.1541
   27CHL1    H9 1962   0.864   3.174  10.088 -0.4953 -1.7463 -0.3821
   27CHL1   C10 1963   0.784   3.144  10.291 -0.4150  0.8560 -0.6185
   27CHL1   C19 1964   0.651   3.142  10.360  0.0047 -0.4021  0.0542
   27CHL1  H19A 1965   0.603   3.243  10.354  1.2562  0.2861  1.0740
   27CHL1  H19B 1966   0.577   3.075  10.310 -2.5936  2.8784 -0.9179
   27CHL1  H19C 1967   0.661   3.113  10.466 -1.2977  0.0699  0.3264
   27CHL1    C1 1968   0.845   2.998  10.301  0.2560 -0.7529  0.3976
   27CHL1   H1A 1969   0.776   2.917  10.271 -0.1886 -0.5879  0.9544
   27CHL1   H1B 1970   0.928   2.992  10.227  0.1179  1.6771 -0.0584
   27CHL1    C2 1971   0.888   2.965  10.436 -0.7922 -0.3164 -0.1237
   27CHL1   H2A 1972   0.938   2.866  10.435  0.5738  0.2428  2.3725
   27CHL1   H2B 1973   0.803   2.963  10.507  1.6046 -1.2083  2.9597
   27CHL1   C20 1974   0.526   3.329   9.654  0.1426  0.1066  0.3216
   27CHL1   H20 1975   0.440   3.391   9.687  1.0676  2.6208 -1.6658
   27CHL1   C21 1976   0.484   3.185   9.626  0.7623 -0.5081 -0.1912
   27CHL1  H21A 1977   0.410   3.164   9.706  0.6753  1.3616  0.2701
   27CHL1  H21B 1978   0.575   3.122   9.620  1.0572  0.0333 -3.7977
   27CHL1  H21C 1979   0.428   3.181   9.530  1.5740  1.0969 -0.7590
   27CHL1   C22 1980   0.543   3.402   9.516  0.0945  0.1055  0.0375
   27CHL1  H22A 1981   0.567   3.508   9.539  0.5080  0.1028 -0.3677
   27CHL1  H22B 1982   0.623   3.370   9.445 -0.8223  1.8493 -1.8953
   27CHL1   C23 1983   0.413   3.413   9.421 -0.2271  0.9334 -0.5525
   27CHL1  H23A 1984   0.372   3.312   9.397  0.1574  0.9772 -1.4274
   27CHL1  H23B 1985   0.326   3.461   9.471 -0.5163  0.3847 -0.5197
   27CHL1   C24 1986   0.448   3.494   9.300  0.2119 -0.0300  0.4512
   27CHL1  H24A 1987   0.363   3.526   9.235  0.2257 -0.7940  0.0495
   27CHL1  H24B 1988   0.494   3.592   9.327 -0.4026 -0.1955  2.1993
   27CHL1   C25 1989   0.544   3.418   9.199  0.3690  0.5885 -0.2179
   27CHL1   H25 1990   0.638   3.398   9.254  1.2308  3.1462 -0.6501
   27CHL1   C26 1991   0.484   3.289   9.143 -0.1887 -0.1666 -0.2308
   27CHL1  H26A 1992   0.551   3.236   9.072  0.3082  0.9592 -0.6128
   27CHL1  H26B 1993   0.446   3.222   9.223  1.0101 -0.1644  0.3697
   27CHL1  H26C 1994   0.400   3.315   9.075 -0.4790 -0.8771 -0.1563
   27CHL1   C27 1995   0.584   3.516   9.078  0.1744 -0.6773 -0.5618
   27CHL1  H27A 1996   0.654   3.464   9.009  2.2820  0.3284  0.7565
   27CHL1  H27B 1997   0.486   3.537   9.029 -1.7299 -6.2152  0.0901
   27CHL1  H27C 1998   0.644   3.601   9.117 -1.9714  1.0062 -0.7140
   28CHL1    C3 1999   0.846   2.264  10.259  0.3954  0.5669  0.5008
   28CHL1    H3 2000   0.823   2.371  10.276 -0.8808  0.6228 -1.3054
   28CHL1    O3 2001   0.872   2.212  10.389 -0.3908  0.3074  0.0034
   28CHL1   H3' 2002   0.868   2.117  10.380 -0.6738  0.0442  2.3051
   28CHL1    C4 2003   0.723   2.195  10.203  0.3624 -0.0694  0.0036
   28CHL1   H4A 2004   0.739   2.086  10.187 -0.2730 -0.0375 -0.9756
   28CHL1   H4B 2005   0.641   2.189  10.277 -0.2575 -0.2640 -0.6878
   28CHL1    C5 2006   0.676   2.243  10.072 -0.3729  0.1023  0.4402
   28CHL1    C6 2007   0.552   2.294  10.066  0.0707  0.5320  0.0687
   28CHL1    H6 2008   0.480   2.295  10.149 -1.6927 -0.5387 -1.3897
   28CHL1    C7 2009   0.496   2.324   9.934  0.2738 -0.0540  0.4443
   28CHL1   H7A 2010   0.396   2.276   9.933  0.2670 -0.0369 -0.1950
   28CHL1   H7B 2011   0.483   2.435   9.931 -2.4794 -0.2465  1.7517
   28CHL1    C8 2012   0.584   2.294   9.811 -0.1030  0.1315 -0.1515
   28CHL1    H8 2013   0.581   2.183   9.804  0.8059 -0.0072  1.1503
   28CHL1   C14 2014   0.531   2.364   9.683  0.1771  0.0105 -0.9342
   28CHL1   H14 2015   0.552   2.469   9.712  0.9837  0.7404 -3.8475
   28CHL1   C15 2016   0.380   2.353   9.660 -0.6757 -0.4627 -0.3399
   28CHL1  H15A 2017   0.346   2.249   9.678  0.8467 -0.8170  0.6019
   28CHL1  H15B 2018   0.311   2.423   9.712 -1.2875 -1.3506  0.0695
   28CHL1   C16 2019   0.364   2.375   9.511 -0.1691  0.3471  0.3840
   28CHL1  H16A 2020   0.330   2.280   9.466  1.7574 -0.3768  0.3424
   28CHL1  H16B 2021   0.293   2.455   9.482 -0.9224 -0.1372  0.8483
   28CHL1   C17 2022   0.511   2.410   9.464  0.4241 -0.9154 -0.6112
   28CHL1   H17 2023   0.524   2.519   9.486  3.1260 -1.5392  1.5354
   28CHL1   C13 2024   0.606   2.333   9.561  0.2968 -0.4163  0.3860
   28CHL1   C18 2025   0.611   2.183   9.521  0.2747 -0.0830  0.3093
   28CHL1  H18A 2026   0.507   2.151   9.500 -1.3390  3.5856  1.8428
   28CHL1  H18B 2027   0.685   2.177   9.438 -0.6439 -1.4963 -0.4347
   28CHL1  H18C 2028   0.652   2.118   9.601  1.2126  0.9682  0.7084
   28CHL1   C12 2029   0.753   2.374   9.587  0.3982  0.1616  0.3593
   28CHL1  H12A 2030   0.820   2.345   9.504  0.4986 -2.6707  1.3265
   28CHL1  H12B 2031   0.760   2.484   9.604  1.2427  0.2193 -0.3125
   28CHL1   C11 2032   0.813   2.306   9.711 -0.1082  0.7463 -0.1415
   28CHL1  H11A 2033   0.843   2.201   9.690  3.6176  1.4630  0.7671
   28CHL1  H11B 2034   0.912   2.351   9.734  0.0037  0.8651 -0.8448
   28CHL1    C9 2035   0.727   2.320   9.834  0.2965  0.0512 -0.1091
   28CHL1    H9 2036   0.742   2.429   9.843  1.0740  0.0287 -0.9589
   28CHL1   C10 2037   0.783   2.243   9.957 -0.2534  0.3123 -0.4125
   28CHL1   C19 2038   0.821   2.095   9.923 -0.1058 -0.6298  0.1755
   28CHL1  H19A 2039   0.743   2.027   9.881 -0.1832 -0.5209  0.1396
   28CHL1  H19B 2040   0.909   2.099   9.855  1.7802  2.1598  2.5445
   28CHL1  H19C 2041   0.854   2.047  10.017  0.8555 -0.5701 -0.1231
   28CHL1    C1 2042   0.906   2.307  10.018 -0.3299 -0.2018 -0.2699
   28CHL1   H1A 2043   0.980   2.308   9.936  0.9800 -3.3791  0.7079
   28CHL1   H1B 2044   0.881   2.414  10.033  1.0971  0.2977 -1.2823
   28CHL1    C2 2045   0.961   2.249  10.154  0.7089  0.0064 -0.3529
   28CHL1   H2A 2046   1.044   2.314  10.189  0.6022  0.6428 -1.2351
   28CHL1   H2B 2047   0.998   2.145  10.142  0.7593  0.0101 -0.2313
   28CHL1   C20 2048   0.532   2.392   9.310  0.6042 -0.0992  0.2886
   28CHL1   H20 2049   0.544   2.283   9.289 -0.2574 -0.1785  0.1383
   28CHL1   C21 2050   0.665   2.455   9.272 -0.6572 -0.6183  0.2975
   28CHL1  H21A 2051   0.683   2.432   9.165  0.8197  2.9297 -0.3528
   28CHL1  H21B 2052   0.748   2.424   9.339  0.3870  3.4662  1.1626
   28CHL1  H21C 2053   0.649   2.565   9.280 -2.6729 -0.9005  0.5790
   28CHL1   C22 2054   0.412   2.445   9.236 -0.2892 -0.4824  0.1257
   28CHL1  H22A 2055   0.331   2.375   9.265 -0.3673 -0.6594 -0.5076
   28CHL1  H22B 2056   0.373   2.542   9.275  1.1435  0.4686 -0.6694
   28CHL1   C23 2057   0.432   2.443   9.091 -0.3402 -0.0342 -0.4868
   28CHL1  H23A 2058   0.507   2.522   9.068 -0.6477  0.6888  0.9135
   28CHL1  H23B 2059   0.480   2.351   9.050 -2.2643 -1.1273 -0.4259
   28CHL1   C24 2060   0.300   2.480   9.014 -0.0591  1.0226  0.0562
   28CHL1  H24A 2061   0.231   2.393   9.005 -0.9146  1.6599  0.2320
   28CHL1  H24B 2062   0.243   2.549   9.081  0.2648  0.7434  0.6294
   28CHL1   C25 2063   0.319   2.537   8.875  0.0057  0.0931 -0.5370
   28CHL1   H25 2064   0.388   2.621   8.897 -0.3585 -0.2487  2.2208
   28CHL1   C26 2065   0.381   2.425   8.781  0.3030 -1.1948 -0.5522
   28CHL1  H26A 2066   0.383   2.471   8.680  0.2209  0.3224  0.1019
   28CHL1  H26B 2067   0.485   2.407   8.815  0.4736  0.4324 -0.0878
   28CHL1  H26C 2068   0.319   2.333   8.786 -4.1460  1.4967 -0.5790
   28CHL1   C27 2069   0.180   2.583   8.815 -0.5589  0.0003  0.1303
   28CHL1  H27A 2070   0.129   2.651   8.887 -2.8397  0.8949 -2.1728
   28CHL1  H27B 2071   0.207   2.642   8.725  0.5048 -1.0527 -0.2639
   28CHL1  H27C 2072   0.116   2.495   8.792 -2.5176  1.5574 -0.6949
   29CHL1    C3 2073   2.950   5.667   6.689 -0.7475  0.3562  0.7147
   29CHL1    H3 2074   2.942   5.558   6.710 -1.3042  0.1419 -0.5222
   29CHL1    O3 2075   2.937   5.695   6.548 -0.8687  0.5157 -0.7342
   29CHL1   H3' 2076   2.882   5.629   6.506 -0.2307  0.4401 -1.4631
   29CHL1    C4 2077   2.840   5.742   6.770 -1.4424 -0.6543  0.1867
   29CHL1   H4A 2078   2.828   5.845   6.732 -0.6521  0.4483  2.7407
   29CHL1   H4B 2079   2.750   5.686   6.737 -1.2578 -0.5406 -0.5366
   29CHL1    C5 2080   2.860   5.732   6.917  0.4958 -0.4942 -0.4070
   29CHL1    C6 2081   2.759   5.697   7.004  0.0535 -0.5328 -0.0661
   29CHL1    H6 2082   2.660   5.678   6.960  0.5974  1.7947 -2.5516
   29CHL1    C7 2083   2.774   5.688   7.154 -0.8731  0.2204  0.4285
   29CHL1   H7A 2084   2.684   5.731   7.202 -0.4642  0.2292  1.2059
   29CHL1   H7B 2085   2.786   5.583   7.190  2.1847  0.4132  0.2291
   29CHL1    C8 2086   2.903   5.774   7.204 -0.6061  0.3080  0.1277
   29CHL1    H8 2087   2.876   5.881   7.208 -0.3567  0.4064 -0.6672
   29CHL1   C14 2088   2.932   5.739   7.342  0.4379 -0.0875  0.0345
   29CHL1   H14 2089   2.947   5.629   7.342 -0.0378 -0.1567  0.2530
   29CHL1   C15 2090   2.817   5.740   7.438  0.0798 -0.3051 -0.5289
   29CHL1  H15A 2091   2.747   5.826   7.427  0.8571  0.3539 -0.4214
   29CHL1  H15B 2092   2.747   5.654   7.437  0.0506 -0.3714  1.7054
   29CHL1   C16 2093   2.882   5.751   7.575  0.0209 -0.5361 -0.4198
   29CHL1  H16A 2094   2.868   5.854   7.616  0.5542 -1.4794  2.3828
   29CHL1  H16B 2095   2.836   5.684   7.651  0.2480  1.3784  1.4996
   29CHL1   C17 2096   3.035   5.738   7.552 -0.6082 -0.6725 -0.4473
   29CHL1   H17 2097   3.050   5.628   7.558  2.0181 -0.3075  0.6993
   29CHL1   C13 2098   3.052   5.791   7.408 -0.2224  0.1157 -0.2145
   29CHL1   C18 2099   3.048   5.944   7.418  0.3315  0.2792  0.2578
   29CHL1  H18A 2100   2.964   5.980   7.482  1.5143  3.0540  0.4183
   29CHL1  H18B 2101   3.148   5.984   7.448  0.3817 -0.8358  1.6838
   29CHL1  H18C 2102   3.030   5.989   7.318 -2.3401 -0.9306  0.1311
   29CHL1   C12 2103   3.175   5.742   7.323  0.2284 -0.3964  0.1190
   29CHL1  H12A 2104   3.264   5.790   7.369  0.9563 -0.2845 -1.3507
   29CHL1  H12B 2105   3.176   5.632   7.335 -1.6609 -0.5432 -0.6146
   29CHL1   C11 2106   3.164   5.785   7.175 -0.0917 -0.2388  0.2297
   29CHL1  H11A 2107   3.173   5.895   7.173  0.6579 -0.2786 -2.3626
   29CHL1  H11B 2108   3.248   5.736   7.121  0.2944  0.2816  0.3455
   29CHL1    C9 2109   3.022   5.739   7.116 -0.5066  0.0430 -0.2806
   29CHL1    H9 2110   3.021   5.628   7.119 -1.4489  0.0301 -0.8835
   29CHL1   C10 2111   3.001   5.782   6.968  0.1959 -0.6165 -0.5115
   29CHL1   C19 2112   3.019   5.947   6.950  0.1577 -0.4081 -0.4395
   29CHL1  H19A 2113   3.001   5.963   6.842 -0.3467 -0.0854 -0.3083
   29CHL1  H19B 2114   2.964   5.995   7.034  1.1336 -2.4715  1.5053
   29CHL1  H19C 2115   3.122   5.966   6.988  0.2508  2.4656 -1.8884
   29CHL1    C1 2116   3.111   5.711   6.885  0.0593  0.1925  0.2155
   29CHL1   H1A 2117   3.211   5.753   6.907  0.4924  0.8689 -2.6371
   29CHL1   H1B 2118   3.102   5.604   6.913 -0.9866 -0.4260 -2.2215
   29CHL1    C2 2119   3.087   5.723   6.735  0.1128  0.4628  0.6914
   29CHL1   H2A 2120   3.174   5.682   6.681 -0.0272 -0.4469  1.1347
   29CHL1   H2B 2121   3.075   5.832   6.716 -1.6912 -0.0403 -1.5280
   29CHL1   C20 2122   3.133   5.794   7.666  0.5584 -0.0036  0.2276
   29CHL1   H20 2123   3.101   5.898   7.686 -1.9957 -0.4487 -1.1431
   29CHL1   C21 2124   3.285   5.792   7.633  0.9081  0.4237  0.1073
   29CHL1  H21A 2125   3.305   5.685   7.612  1.1479  0.5049 -0.0802
   29CHL1  H21B 2126   3.350   5.833   7.714  2.1469 -1.2418  0.0052
   29CHL1  H21C 2127   3.310   5.848   7.540  1.2636 -0.1099 -0.1187
   29CHL1   C22 2128   3.107   5.723   7.798 -0.1971 -0.4372 -0.7309
   29CHL1  H22A 2129   3.000   5.699   7.810 -0.4292  0.3028 -1.2898
   29CHL1  H22B 2130   3.170   5.631   7.809  1.5627  0.6017 -1.6500
   29CHL1   C23 2131   3.117   5.810   7.918  0.5112 -0.5327  0.6920
   29CHL1  H23A 2132   3.213   5.864   7.907  0.5369 -0.7843 -0.4674
   29CHL1  H23B 2133   3.046   5.895   7.913 -0.7114 -1.4948  1.0178
   29CHL1   C24 2134   3.116   5.743   8.061 -0.3844  0.7866 -0.3398
   29CHL1  H24A 2135   3.017   5.698   8.085  0.0860 -1.3708 -2.1384
   29CHL1  H24B 2136   3.180   5.652   8.062 -3.1686 -1.3426  1.3439
   29CHL1   C25 2137   3.145   5.843   8.171  0.0839 -0.5748 -0.1603
   29CHL1   H25 2138   3.096   5.939   8.141  1.7173  1.8507  4.0018
   29CHL1   C26 2139   3.077   5.802   8.298  0.2842 -0.0648 -0.3023
   29CHL1  H26A 2140   3.056   5.694   8.311 -2.5258  0.5865  1.2697
   29CHL1  H26B 2141   3.149   5.825   8.380 -0.3875  1.2292 -0.0428
   29CHL1  H26C 2142   2.978   5.850   8.312 -0.1172 -0.6697 -1.0281
   29CHL1   C27 2143   3.300   5.872   8.177  0.0172  0.4985  0.0773
   29CHL1  H27A 2144   3.360   5.785   8.212  1.5634  1.8258  0.8668
   29CHL1  H27B 2145   3.334   5.898   8.074 -1.4888  0.7972 -0.3649
   29CHL1  H27C 2146   3.332   5.953   8.246  0.1468  1.5159 -1.1230
   30CHL1    C3 2147   0.689   4.725   7.310  0.2013  0.4807 -0.0548
   30CHL1    H3 2148   0.797   4.716   7.285  0.2383  1.9404 -0.5144
   30CHL1    O3 2149   0.610   4.681   7.198 -0.0289  0.4056 -0.4654
   30CHL1   H3' 2150   0.521   4.713   7.214  0.6199  1.2035  2.0003
   30CHL1    C4 2151   0.658   4.646   7.444  0.2640  0.0003  0.0840
   30CHL1   H4A 2152   0.547   4.644   7.432  0.3337  0.2220 -0.6078
   30CHL1   H4B 2153   0.696   4.542   7.438  2.0966  0.6057  0.6263
   30CHL1    C5 2154   0.697   4.712   7.572  0.5839  0.0171  0.4691
   30CHL1    C6 2155   0.745   4.640   7.670  0.3735 -0.1452 -0.1711
   30CHL1    H6 2156   0.764   4.532   7.660 -0.7303 -0.2457 -1.5348
   30CHL1    C7 2157   0.796   4.703   7.790  0.4811  0.1652  0.5758
   30CHL1   H7A 2158   0.773   4.636   7.876  1.5356 -1.9869 -0.7264
   30CHL1   H7B 2159   0.902   4.732   7.776  0.0377  1.9736  0.7517
   30CHL1    C8 2160   0.734   4.840   7.812 -0.3155  0.1290 -0.7254
   30CHL1    H8 2161   0.630   4.829   7.849  0.2807 -1.2284  0.6504
   30CHL1   C14 2162   0.809   4.905   7.932  0.8386  0.2682 -0.0033
   30CHL1   H14 2163   0.914   4.926   7.904  0.4410  0.0792 -1.7392
   30CHL1   C15 2164   0.826   4.826   8.073 -0.1052  0.4154 -0.2761
   30CHL1  H15A 2165   0.726   4.782   8.094 -0.3643 -0.0002 -2.2269
   30CHL1  H15B 2166   0.895   4.739   8.075 -3.2820 -2.2855  0.9900
   30CHL1   C16 2167   0.857   4.937   8.166  0.0150  0.0150  0.2906
   30CHL1  H16A 2168   0.782   4.940   8.247  1.9592  2.0323  2.1293
   30CHL1  H16B 2169   0.949   4.919   8.224 -0.0832 -2.3330 -0.1763
   30CHL1   C17 2170   0.845   5.074   8.086  0.0575 -0.2822 -0.2691
   30CHL1   H17 2171   0.950   5.090   8.053 -0.0214  1.0871  0.0833
   30CHL1   C13 2172   0.761   5.043   7.962 -0.4878  0.0844 -0.2249
   30CHL1   C18 2173   0.612   5.043   8.001 -0.6149 -0.1181 -0.3035
   30CHL1  H18A 2174   0.540   4.995   7.931 -0.1725 -0.8332 -0.2751
   30CHL1  H18B 2175   0.608   4.979   8.093 -2.4686  0.2337 -0.0817
   30CHL1  H18C 2176   0.571   5.142   8.031  2.1636  0.7451  0.9060
   30CHL1   C12 2177   0.777   5.141   7.843 -0.5759  0.2763 -0.6227
   30CHL1  H12A 2178   0.745   5.240   7.881 -1.1955 -0.6751  1.4691
   30CHL1  H12B 2179   0.885   5.156   7.821  0.1207 -0.4660  1.9680
   30CHL1   C11 2180   0.702   5.090   7.722 -0.4596  0.1513 -0.0555
   30CHL1  H11A 2181   0.594   5.103   7.744 -0.2244  1.7609  0.2946
   30CHL1  H11B 2182   0.717   5.151   7.630  0.5473  1.5203  0.9677
   30CHL1    C9 2183   0.738   4.935   7.697 -0.1700 -0.4200  0.6129
   30CHL1    H9 2184   0.846   4.939   7.672  0.0278  2.4104  1.5666
   30CHL1   C10 2185   0.667   4.869   7.574 -0.2783  0.2549  0.2442
   30CHL1   C19 2186   0.514   4.892   7.588 -0.1539  0.2659 -0.0410
   30CHL1  H19A 2187   0.482   4.998   7.586 -1.9358 -0.2428 -0.4751
   30CHL1  H19B 2188   0.459   4.850   7.500 -0.0732  1.8005 -0.8668
   30CHL1  H19C 2189   0.480   4.847   7.684  1.8063 -0.1850  0.4719
   30CHL1    C1 2190   0.731   4.930   7.445  0.2315  0.1125  0.6062
   30CHL1   H1A 2191   0.715   5.040   7.433 -1.5792 -0.3549 -2.1497
   30CHL1   H1B 2192   0.840   4.910   7.438  0.0510 -1.4367  1.8863
   30CHL1    C2 2193   0.664   4.874   7.321 -1.0854  0.1731 -0.4104
   30CHL1   H2A 2194   0.702   4.923   7.229 -1.4157  0.2449 -0.5071
   30CHL1   H2B 2195   0.554   4.888   7.323 -1.2698 -1.1183 -0.7295
   30CHL1   C20 2196   0.814   5.190   8.188  0.3522 -0.2643 -0.4034
   30CHL1   H20 2197   0.704   5.204   8.184  0.5468  1.0274 -1.8901
   30CHL1   C21 2198   0.862   5.323   8.135 -0.4257  0.3500 -0.3149
   30CHL1  H21A 2199   0.972   5.315   8.147 -0.7672 -2.1830  1.8936
   30CHL1  H21B 2200   0.833   5.404   8.205  0.8594  0.1297  0.5104
   30CHL1  H21C 2201   0.847   5.358   8.030  2.4704  1.1625 -0.5637
   30CHL1   C22 2202   0.858   5.164   8.338 -0.0387  0.0042 -0.0308
   30CHL1  H22A 2203   0.789   5.086   8.377  1.7796 -1.2820  0.7312
   30CHL1  H22B 2204   0.955   5.111   8.334 -0.2088 -0.3536  0.4596
   30CHL1   C23 2205   0.845   5.283   8.437 -0.4024 -0.0788  0.0122
   30CHL1  H23A 2206   0.909   5.366   8.400 -0.5996 -1.0282 -2.6582
   30CHL1  H23B 2207   0.750   5.342   8.432  0.2486  1.0161  0.1753
   30CHL1   C24 2208   0.883   5.239   8.578 -0.0044 -1.0049  0.2842
   30CHL1  H24A 2209   0.815   5.164   8.625 -2.2473  1.9667  2.2615
   30CHL1  H24B 2210   0.986   5.199   8.578  0.6746  0.6634 -0.2883
   30CHL1   C25 2211   0.879   5.363   8.677  0.2628  0.3322  0.3492
   30CHL1   H25 2212   0.775   5.403   8.675 -0.7412 -2.1430 -0.5595
   30CHL1   C26 2213   0.904   5.324   8.821 -1.1785 -0.2006  0.0555
   30CHL1  H26A 2214   0.986   5.250   8.823 -0.0284  1.0278  1.0072
   30CHL1  H26B 2215   0.930   5.413   8.884  1.0701 -1.3555  0.8672
   30CHL1  H26C 2216   0.806   5.285   8.857 -1.2246 -0.1826 -0.0510
   30CHL1   C27 2217   0.961   5.489   8.639  0.3921 -0.0688 -0.0112
   30CHL1  H27A 2218   0.915   5.534   8.549  2.1499  0.7114 -0.5530
   30CHL1  H27B 2219   0.951   5.570   8.715 -1.1632  0.6123 -0.8907
   30CHL1  H27C 2220   1.066   5.459   8.621  0.6007  0.2845  0.5720
   31CHL1    C3 2221   0.693   6.634   6.915 -0.3038  0.5736 -0.4852
   31CHL1    H3 2222   0.703   6.743   6.897  0.8509  0.5885  0.1794
   31CHL1    O3 2223   0.674   6.565   6.792  0.7799  0.5062 -0.1524
   31CHL1   H3' 2224   0.610   6.618   6.743  0.1640  1.0492  1.1871
   31CHL1    C4 2225   0.816   6.578   6.990  0.4962  0.3154  0.4827
   31CHL1   H4A 2226   0.829   6.468   6.991 -0.9442  0.0206 -2.8010
   31CHL1   H4B 2227   0.900   6.615   6.927 -0.6630  2.4400  0.0898
   31CHL1    C5 2228   0.833   6.641   7.127 -0.3231  0.2571 -0.2637
   31CHL1    C6 2229   0.944   6.705   7.161 -0.1477 -0.1588  0.1986
   31CHL1    H6 2230   1.023   6.715   7.085 -0.9076 -0.5788 -0.6794
   31CHL1    C7 2231   0.965   6.758   7.298  0.4641 -0.6427  0.3449
   31CHL1   H7A 2232   1.055   6.718   7.350 -0.8148 -3.2496  0.7032
   31CHL1   H7B 2233   0.966   6.868   7.282  0.4930 -1.0750 -3.7147
   31CHL1    C8 2234   0.858   6.713   7.396 -0.4033 -0.3919 -0.9150
   31CHL1    H8 2235   0.877   6.609   7.430  0.1726  0.2373  0.8445
   31CHL1   C14 2236   0.877   6.810   7.521  0.1652  0.4427  0.2363
   31CHL1   H14 2237   0.845   6.905   7.474 -0.8118 -0.1434 -0.3147
   31CHL1   C15 2238   1.015   6.827   7.584  0.5379 -0.1171 -0.2195
   31CHL1  H15A 2239   1.077   6.735   7.582  1.3665  0.4395 -0.9774
   31CHL1  H15B 2240   1.081   6.905   7.541  3.0427 -1.8912  0.1982
   31CHL1   C16 2241   0.979   6.870   7.729  0.5418 -0.6142 -1.0738
   31CHL1  H16A 2242   1.016   6.788   7.795 -1.0312  0.3043  1.0339
   31CHL1  H16B 2243   1.031   6.961   7.767 -1.8612  0.6514 -0.6728
   31CHL1   C17 2244   0.821   6.881   7.748 -0.0603  0.6708 -0.0755
   31CHL1   H17 2245   0.787   6.980   7.711 -0.6900  0.0063 -1.3331
   31CHL1   C13 2246   0.773   6.784   7.633 -0.7721 -1.1262  0.3791
   31CHL1   C18 2247   0.784   6.644   7.691  0.2097 -0.1386 -0.0519
   31CHL1  H18A 2248   0.710   6.629   7.772 -1.0465  2.3059 -0.6446
   31CHL1  H18B 2249   0.765   6.573   7.608 -0.1230 -0.5359  0.3628
   31CHL1  H18C 2250   0.891   6.627   7.717 -0.6124 -1.5371  2.7860
   31CHL1   C12 2251   0.634   6.804   7.568  0.9083  0.2175 -0.6401
   31CHL1  H12A 2252   0.559   6.782   7.647 -1.1721  2.5100 -1.8588
   31CHL1  H12B 2253   0.617   6.907   7.533  0.1630  1.1350  2.1185
   31CHL1   C11 2254   0.604   6.716   7.445  0.5510 -0.3523  0.5829
   31CHL1  H11A 2255   0.592   6.610   7.474  1.0698 -0.4949  0.2959
   31CHL1  H11B 2256   0.511   6.755   7.398 -0.2127 -0.7871  1.7016
   31CHL1    C9 2257   0.721   6.721   7.342  0.5164  0.5349  0.4875
   31CHL1    H9 2258   0.716   6.822   7.297  1.8520  0.5551  0.3449
   31CHL1   C10 2259   0.702   6.636   7.217  0.4924 -0.7673 -0.2857
   31CHL1   C19 2260   0.688   6.488   7.259 -0.5198 -0.0985  0.0188
   31CHL1  H19A 2261   0.676   6.418   7.174  0.8892  0.2761 -0.5200
   31CHL1  H19B 2262   0.778   6.450   7.312 -1.4815 -2.4782  0.0885
   31CHL1  H19C 2263   0.597   6.467   7.320 -1.5393  0.4844 -1.2505
   31CHL1    C1 2264   0.582   6.680   7.136 -0.0341  0.3080  0.4576
   31CHL1   H1A 2265   0.490   6.658   7.193  0.4713 -0.0194  1.1657
   31CHL1   H1B 2266   0.587   6.789   7.114 -0.4336  0.3826  0.7337
   31CHL1    C2 2267   0.573   6.611   7.000 -1.0164  0.7996 -0.2144
   31CHL1   H2A 2268   0.478   6.647   6.955 -2.9131 -1.6916  1.4749
   31CHL1   H2B 2269   0.560   6.502   7.021 -2.1479  0.7919 -0.8557
   31CHL1   C20 2270   0.779   6.856   7.892  0.4446  0.7360 -0.1380
   31CHL1   H20 2271   0.789   6.752   7.930 -1.6317  0.0697 -1.2460
   31CHL1   C21 2272   0.628   6.874   7.913  0.1567  0.1695 -0.1174
   31CHL1  H21A 2273   0.578   6.791   7.859  2.5998 -2.0290  0.8261
   31CHL1  H21B 2274   0.616   6.973   7.864  3.0732 -0.0120 -1.4165
   31CHL1  H21C 2275   0.603   6.862   8.021  0.7981  0.0846  0.0226
   31CHL1   C22 2276   0.868   6.947   7.989  0.0585 -0.6793 -0.7605
   31CHL1  H22A 2277   0.977   6.951   7.970 -0.1654 -0.3145 -2.0915
   31CHL1  H22B 2278   0.829   7.051   7.987 -0.2615 -0.7898 -0.5050
   31CHL1   C23 2279   0.854   6.894   8.132  0.7881  0.0067  0.0529
   31CHL1  H23A 2280   0.750   6.923   8.156  0.7228 -0.2147  0.0330
   31CHL1  H23B 2281   0.856   6.784   8.142 -0.3851  0.1745  3.1891
   31CHL1   C24 2282   0.932   6.976   8.241 -0.0802  0.4228 -0.0994
   31CHL1  H24A 2283   0.951   7.079   8.205  2.9421  0.4217  1.1415
   31CHL1  H24B 2284   0.878   6.974   8.338 -2.2847 -0.1984 -1.2821
   31CHL1   C25 2285   1.059   6.906   8.271 -0.6210  0.7148 -0.5410
   31CHL1   H25 2286   1.119   6.893   8.179  3.2365 -1.0167  1.9565
   31CHL1   C26 2287   1.139   7.000   8.362 -0.2912  0.3729  0.2879
   31CHL1  H26A 2288   1.230   6.945   8.393 -1.9714 -2.6800  0.2210
   31CHL1  H26B 2289   1.170   7.086   8.299 -0.4568  0.0329 -0.2615
   31CHL1  H26C 2290   1.082   7.037   8.450  0.4832  1.6759  0.2585
   31CHL1   C27 2291   1.042   6.773   8.355  0.0164  0.4502 -0.0595
   31CHL1  H27A 2292   0.968   6.709   8.304  0.3476  0.6903 -0.8642
   31CHL1  H27B 2293   1.005   6.804   8.455  0.7751 -1.1449  0.7477
   31CHL1  H27C 2294   1.141   6.723   8.361 -0.7072 -1.0283 -0.1198
   32CHL1    C3 2295   1.743   5.099   6.779  0.5117  1.1769 -0.2051
   32CHL1    H3 2296   1.829   5.170   6.784  0.1119  1.5794  1.7128
   32CHL1    O3 2297   1.719   5.042   6.648 -0.0020 -0.7151  0.0770
   32CHL1   H3' 2298   1.634   4.996   6.650  0.5002 -1.6647  0.3866
   32CHL1    C4 2299   1.771   4.979   6.878  0.3877  0.6591 -0.0472
   32CHL1   H4A 2300   1.694   4.900   6.863  0.3849  0.8094 -0.9167
   32CHL1   H4B 2301   1.863   4.924   6.849 -1.3937 -1.3664 -2.3302
   32CHL1    C5 2302   1.776   5.027   7.017 -0.3934  0.4053 -0.4431
   32CHL1    C6 2303   1.882   4.997   7.100  0.0789  0.2999 -0.4001
   32CHL1    H6 2304   1.964   4.941   7.051 -0.4927 -1.4317  0.5483
   32CHL1    C7 2305   1.886   5.027   7.244  0.1122 -0.0765 -0.1310
   32CHL1   H7A 2306   1.924   4.942   7.305  2.1055 -0.5563 -1.9157
   32CHL1   H7B 2307   1.956   5.111   7.262 -0.0334 -0.3822  2.0191
   32CHL1    C8 2308   1.751   5.078   7.303 -0.5319 -0.4786 -0.1970
   32CHL1    H8 2309   1.684   4.991   7.322 -1.6653  0.7324  1.7755
   32CHL1   C14 2310   1.777   5.146   7.433  0.0972 -0.2538 -0.1837
   32CHL1   H14 2311   1.851   5.226   7.413  1.1948 -1.2915 -0.3172
   32CHL1   C15 2312   1.843   5.059   7.549  0.3993 -0.8424  0.0535
   32CHL1  H15A 2313   1.789   4.961   7.548 -0.9341 -0.1678  1.6658
   32CHL1  H15B 2314   1.949   5.038   7.525  1.3684  1.6279  1.8161
   32CHL1   C16 2315   1.817   5.137   7.679  0.5462  0.2579 -0.1005
   32CHL1  H16A 2316   1.777   5.076   7.762 -0.9905  0.2950 -0.7844
   32CHL1  H16B 2317   1.910   5.188   7.715 -1.2526  1.0464  3.9576
   32CHL1   C17 2318   1.718   5.253   7.642 -0.6620  0.4065 -0.0326
   32CHL1   H17 2319   1.771   5.347   7.618 -2.0058  1.3341  0.5051
   32CHL1   C13 2320   1.653   5.209   7.510 -0.0157 -0.6816  0.1251
   32CHL1   C18 2321   1.558   5.101   7.546 -0.3818 -0.0394 -0.4590
   32CHL1  H18A 2322   1.456   5.143   7.562 -0.9541 -1.9007  1.2161
   32CHL1  H18B 2323   1.540   5.035   7.459 -0.5074  2.0227 -2.0965
   32CHL1  H18C 2324   1.591   5.036   7.629 -3.2825  0.2952  1.1103
   32CHL1   C12 2325   1.585   5.309   7.413  0.2146  0.0752  0.2837
   32CHL1  H12A 2326   1.487   5.343   7.453  1.0793  1.3678  1.3988
   32CHL1  H12B 2327   1.649   5.399   7.401 -0.7307  1.2871  3.3535
   32CHL1   C11 2328   1.561   5.244   7.275 -0.1042  0.1013  1.0291
   32CHL1  H11A 2329   1.475   5.175   7.270  1.1642 -1.5559  1.2384
   32CHL1  H11B 2330   1.528   5.321   7.202 -1.0914 -1.1767  0.0932
   32CHL1    C9 2331   1.683   5.167   7.209  0.5197 -1.0958 -0.6264
   32CHL1    H9 2332   1.754   5.252   7.197 -0.0043 -0.5051  0.2434
   32CHL1   C10 2333   1.658   5.103   7.066  0.7719 -0.0374  0.0769
   32CHL1   C19 2334   1.534   5.008   7.075  0.7894 -0.0588  0.1435
   32CHL1  H19A 2335   1.442   5.063   7.103  0.3696  0.0417 -1.3426
   32CHL1  H19B 2336   1.499   4.948   6.988 -0.6456 -0.3359  0.8770
   32CHL1  H19C 2337   1.555   4.936   7.157  0.8118  0.3963  0.5422
   32CHL1    C1 2338   1.621   5.218   6.963 -0.4497 -0.0614  0.5659
   32CHL1   H1A 2339   1.526   5.266   6.996 -0.2076 -0.3206  1.7012
   32CHL1   H1B 2340   1.705   5.289   6.976 -1.1264  0.7498  0.6632
   32CHL1    C2 2341   1.611   5.169   6.817 -0.4970  0.0073 -0.7517
   32CHL1   H2A 2342   1.586   5.239   6.735  0.8748  1.9057  0.3633
   32CHL1   H2B 2343   1.532   5.091   6.821 -2.9058  2.2865 -0.9416
   32CHL1   C20 2344   1.633   5.302   7.764 -0.2512  0.3029  0.3850
   32CHL1   H20 2345   1.555   5.225   7.783 -0.1693 -0.1313 -0.9830
   32CHL1   C21 2346   1.566   5.437   7.718  0.4894 -0.0555 -0.7690
   32CHL1  H21A 2347   1.635   5.496   7.655  0.3354 -0.3586 -1.2223
   32CHL1  H21B 2348   1.528   5.502   7.800 -1.5790 -0.7489 -1.1024
   32CHL1  H21C 2349   1.469   5.412   7.670 -0.6139  0.1463  1.2211
   32CHL1   C22 2350   1.719   5.337   7.888 -0.0245 -0.0180 -0.0547
   32CHL1  H22A 2351   1.814   5.281   7.899  1.4857  1.3695 -4.1241
   32CHL1  H22B 2352   1.756   5.441   7.873 -1.6161  0.3275 -2.1379
   32CHL1   C23 2353   1.641   5.346   8.018  0.6464 -0.4128  0.8767
   32CHL1  H23A 2354   1.531   5.358   8.003  0.4547 -2.8991 -0.1929
   32CHL1  H23B 2355   1.649   5.249   8.071 -1.8755 -0.5097  1.1943
   32CHL1   C24 2356   1.695   5.459   8.104 -0.2451 -0.1373 -0.1989
   32CHL1  H24A 2357   1.799   5.444   8.138  0.1303 -0.0012 -1.2723
   32CHL1  H24B 2358   1.676   5.556   8.054 -1.5273  0.5830  1.5734
   32CHL1   C25 2359   1.631   5.472   8.247 -0.6477  0.9121  0.0526
   32CHL1   H25 2360   1.524   5.494   8.228 -0.7911  0.3047  0.1286
   32CHL1   C26 2361   1.635   5.335   8.325 -0.4211 -0.4812  0.2793
   32CHL1  H26A 2362   1.593   5.359   8.425 -0.5195 -0.5416  0.2522
   32CHL1  H26B 2363   1.575   5.254   8.279  1.0608 -0.9435 -0.9305
   32CHL1  H26C 2364   1.744   5.312   8.327 -0.5373 -1.1723 -0.6265
   32CHL1   C27 2365   1.690   5.589   8.323 -0.4193 -0.2926 -0.4546
   32CHL1  H27A 2366   1.703   5.681   8.261 -4.6769 -0.3898 -1.8582
   32CHL1  H27B 2367   1.622   5.611   8.408  0.1536 -1.1069  0.2302
   32CHL1  H27C 2368   1.782   5.551   8.371 -0.3574  1.6854  1.1024
   33CHL1    C3 2369   2.731   4.690   6.829 -0.2560 -0.4789 -0.0923
   33CHL1    H3 2370   2.786   4.599   6.860  2.6217  0.8946 -0.8004
   33CHL1    O3 2371   2.703   4.691   6.688  0.5745  0.3170 -0.1114
   33CHL1   H3' 2372   2.662   4.777   6.678  2.1963  1.0705 -0.6631
   33CHL1    C4 2373   2.596   4.698   6.903 -0.6631  0.0679  0.0703
   33CHL1   H4A 2374   2.553   4.795   6.870  1.0243  1.1751  0.9379
   33CHL1   H4B 2375   2.525   4.621   6.866 -1.3578 -0.3890  2.2024
   33CHL1    C5 2376   2.612   4.692   7.053  0.4958 -0.1264 -0.7430
   33CHL1    C6 2377   2.565   4.590   7.124 -0.1222 -0.7348  0.3651
   33CHL1    H6 2378   2.526   4.509   7.061 -0.6428  1.6295 -2.5636
   33CHL1    C7 2379   2.569   4.583   7.275  0.3911  0.0639  1.0049
   33CHL1   H7A 2380   2.468   4.555   7.312  0.5804  1.3811  2.6544
   33CHL1   H7B 2381   2.648   4.514   7.313  2.2289  0.2386 -2.1555
   33CHL1    C8 2382   2.615   4.719   7.347 -0.1330 -0.1392  0.7108
   33CHL1    H8 2383   2.527   4.788   7.350  0.7662  1.0281  0.8475
   33CHL1   C14 2384   2.662   4.702   7.487 -0.2414 -0.6318 -0.6477
   33CHL1   H14 2385   2.750   4.635   7.474 -0.0789 -0.0730 -2.7396
   33CHL1   C15 2386   2.574   4.619   7.579  0.0139 -0.3006  0.1327
   33CHL1  H15A 2387   2.471   4.657   7.594  0.7737  1.5896  0.7548
   33CHL1  H15B 2388   2.571   4.514   7.541 -1.2774 -0.4790  0.6678
   33CHL1   C16 2389   2.636   4.647   7.713  0.2766  0.2497 -0.0273
   33CHL1  H16A 2390   2.555   4.669   7.785  0.9302  0.9149  0.5231
   33CHL1  H16B 2391   2.684   4.555   7.751 -2.4667 -2.4424 -2.4649
   33CHL1   C17 2392   2.739   4.761   7.698 -0.2750 -0.3249  0.4372
   33CHL1   H17 2393   2.833   4.701   7.700  1.8888  2.7886 -0.6541
   33CHL1   C13 2394   2.711   4.827   7.560 -0.1005  0.1008 -0.0860
   33CHL1   C18 2395   2.595   4.935   7.584 -0.1216  0.4137 -0.0780
   33CHL1  H18A 2396   2.556   4.969   7.486 -2.2604  4.3261  1.8999
   33CHL1  H18B 2397   2.507   4.894   7.638  0.1342 -0.3399 -0.2250
   33CHL1  H18C 2398   2.618   5.032   7.633  0.0977  1.1895 -1.6456
   33CHL1   C12 2399   2.837   4.883   7.485 -0.1761  0.2909  0.1107
   33CHL1  H12A 2400   2.860   4.983   7.526 -2.2330  0.9004 -0.1095
   33CHL1  H12B 2401   2.924   4.815   7.496  0.8260  1.0190 -2.4152
   33CHL1   C11 2402   2.811   4.896   7.333  0.4246 -0.5388 -0.2519
   33CHL1  H11A 2403   2.730   4.971   7.330  0.0591 -0.9622 -1.5323
   33CHL1  H11B 2404   2.896   4.933   7.271 -1.5785  1.1203 -2.1861
   33CHL1    C9 2405   2.737   4.776   7.268  0.2764 -0.1830  0.2809
   33CHL1    H9 2406   2.808   4.691   7.258  0.2249 -0.2137  0.1774
   33CHL1   C10 2407   2.689   4.810   7.119  0.3238 -0.1413 -0.1392
   33CHL1   C19 2408   2.617   4.951   7.092 -0.6525  0.5506 -0.0391
   33CHL1  H19A 2409   2.534   4.964   7.165  0.2061  0.9273  0.8862
   33CHL1  H19B 2410   2.690   5.032   7.112  0.1532 -0.4972  1.4115
   33CHL1  H19C 2411   2.581   4.961   6.987  1.1930  1.5055 -0.6257
   33CHL1    C1 2412   2.826   4.811   7.037  0.6624 -0.0162  0.1064
   33CHL1   H1A 2413   2.884   4.900   7.070  0.8193  0.7092 -1.9863
   33CHL1   H1B 2414   2.886   4.722   7.065 -2.1049 -1.9746  0.1902
   33CHL1    C2 2415   2.809   4.815   6.882  0.1791 -0.4197 -0.3285
   33CHL1   H2A 2416   2.910   4.814   6.836  0.1830  2.6702 -0.5810
   33CHL1   H2B 2417   2.763   4.914   6.860  1.0308  0.3764  1.2470
   33CHL1   C20 2418   2.765   4.844   7.828  0.3547  0.5459  0.7670
   33CHL1   H20 2419   2.664   4.889   7.843  0.3473  0.9406 -0.3484
   33CHL1   C21 2420   2.878   4.944   7.792  0.6644 -0.4661 -0.4125
   33CHL1  H21A 2421   2.836   5.021   7.724 -1.5523  0.3398  1.7002
   33CHL1  H21B 2422   2.967   4.899   7.744  0.2860  1.1481 -2.8327
   33CHL1  H21C 2423   2.908   4.993   7.887 -1.6061  1.9631 -0.8005
   33CHL1   C22 2424   2.812   4.750   7.948 -0.2257  0.0401  0.4787
   33CHL1  H22A 2425   2.758   4.653   7.945 -2.1777  1.0942 -0.0703
   33CHL1  H22B 2426   2.919   4.722   7.941  0.3866  2.5932 -2.7563
   33CHL1   C23 2427   2.790   4.824   8.084  0.4881  0.1683 -0.0116
   33CHL1  H23A 2428   2.872   4.899   8.084  1.7173 -1.1417  0.6862
   33CHL1  H23B 2429   2.689   4.870   8.092 -0.5233 -1.3647 -2.4796
   33CHL1   C24 2430   2.825   4.746   8.200 -0.8921 -0.2952 -0.3323
   33CHL1  H24A 2431   2.736   4.684   8.223 -3.6944  2.5435 -2.5791
   33CHL1  H24B 2432   2.910   4.677   8.184 -0.3883  0.1411  0.4379
   33CHL1   C25 2433   2.873   4.823   8.327  0.2536  0.1780 -0.0449
   33CHL1   H25 2434   2.943   4.901   8.290 -0.5706  0.4008 -1.1851
   33CHL1   C26 2435   2.754   4.888   8.397  0.0601 -0.3541  0.6227
   33CHL1  H26A 2436   2.737   4.974   8.329 -0.1817 -1.2382 -0.4873
   33CHL1  H26B 2437   2.680   4.805   8.398  0.1912 -0.4658  1.4380
   33CHL1  H26C 2438   2.784   4.923   8.498 -0.5393  0.3247  0.5682
   33CHL1   C27 2439   2.941   4.719   8.418 -0.3826 -0.5731  0.5078
   33CHL1  H27A 2440   2.976   4.764   8.513 -0.4456 -0.2442  0.3782
   33CHL1  H27B 2441   2.874   4.635   8.444 -0.0236 -0.3529  2.2633
   33CHL1  H27C 2442   3.035   4.682   8.373 -0.6688  0.2468 -0.8215
   34CHL1    C3 2443   3.410   4.193   7.066  0.0979 -0.3564  0.0647
   34CHL1    H3 2444   3.347   4.280   7.093  2.3143  0.7710  1.8189
   34CHL1    O3 2445   3.428   4.196   6.924 -0.2793  0.1058  0.1004
   34CHL1   H3' 2446   3.473   4.117   6.893  2.0299  1.6822 -0.7511
   34CHL1    C4 2447   3.543   4.227   7.133 -0.2203  0.1291  0.3977
   34CHL1   H4A 2448   3.615   4.146   7.105 -0.5720 -0.4852  1.2438
   34CHL1   H4B 2449   3.570   4.330   7.099 -1.1342  0.6278  1.1514
   34CHL1    C5 2450   3.531   4.219   7.281 -0.8012 -0.2675  0.7653
   34CHL1    C6 2451   3.573   4.321   7.354 -0.0830  0.3577  0.0905
   34CHL1    H6 2452   3.601   4.412   7.299  0.3864 -1.1341 -2.2831
   34CHL1    C7 2453   3.574   4.324   7.500  0.4545 -0.4572 -0.5614
   34CHL1   H7A 2454   3.661   4.387   7.529  0.3901 -0.0061 -1.3241
   34CHL1   H7B 2455   3.488   4.389   7.527  1.3021  0.4861 -0.0766
   34CHL1    C8 2456   3.565   4.190   7.567 -0.7101 -0.3305  0.2681
   34CHL1    H8 2457   3.664   4.142   7.552 -0.7626 -0.4941  0.4294
   34CHL1   C14 2458   3.535   4.208   7.714  0.0180 -0.7284 -0.3786
   34CHL1   H14 2459   3.440   4.265   7.710  0.6882  0.3558 -1.9561
   34CHL1   C15 2460   3.613   4.316   7.794  0.9396  0.4651 -0.0042
   34CHL1  H15A 2461   3.721   4.319   7.772  0.7375  1.6731 -0.9418
   34CHL1  H15B 2462   3.567   4.416   7.778  0.9958  0.7569  1.5506
   34CHL1   C16 2463   3.584   4.278   7.937  0.5177 -0.2778 -0.6231
   34CHL1  H16A 2464   3.675   4.238   7.985 -0.2848 -1.8122 -0.3433
   34CHL1  H16B 2465   3.546   4.362   7.999  1.3178 -0.6513  0.3905
   34CHL1   C17 2466   3.485   4.161   7.937  0.0930  1.1550 -0.4196
   34CHL1   H17 2467   3.382   4.203   7.942 -0.5015 -0.2934  3.7345
   34CHL1   C13 2468   3.505   4.090   7.799  0.0722  0.0264 -0.2328
   34CHL1   C18 2469   3.646   4.011   7.800  0.1451 -1.0772 -0.7727
   34CHL1  H18A 2470   3.730   4.074   7.837  0.9174 -1.9451 -1.0076
   34CHL1  H18B 2471   3.646   3.919   7.863 -2.7930 -1.9129 -1.8542
   34CHL1  H18C 2472   3.683   3.985   7.699  2.5236 -1.0948  0.0361
   34CHL1   C12 2473   3.388   4.014   7.726  0.2298  0.1176  0.7670
   34CHL1  H12A 2474   3.362   3.927   7.790  0.5841  0.7012  1.7368
   34CHL1  H12B 2475   3.293   4.073   7.724  0.4628  0.4784 -0.3211
   34CHL1   C11 2476   3.420   3.983   7.578  0.0172  1.3580  0.2404
   34CHL1  H11A 2477   3.496   3.903   7.583 -0.8343  0.5232  0.1265
   34CHL1  H11B 2478   3.340   3.923   7.530  0.6018 -0.8694  1.8911
   34CHL1    C9 2479   3.453   4.104   7.498 -0.9528 -0.1945  0.2940
   34CHL1    H9 2480   3.367   4.175   7.507 -0.9966  0.1944 -2.5584
   34CHL1   C10 2481   3.481   4.085   7.340 -0.6715 -0.1484 -0.3263
   34CHL1   C19 2482   3.595   3.981   7.327  0.8204 -0.2025  0.0856
   34CHL1  H19A 2483   3.685   4.031   7.370  1.5235 -1.1910 -0.2196
   34CHL1  H19B 2484   3.585   3.886   7.384  0.5608 -0.6832 -0.7429
   34CHL1  H19C 2485   3.610   3.952   7.221 -0.5951 -1.1258  0.1119
   34CHL1    C1 2486   3.357   4.041   7.258  0.0142 -0.1992 -0.2841
   34CHL1   H1A 2487   3.321   3.941   7.288  0.0290  0.4201  1.9673
   34CHL1   H1B 2488   3.276   4.115   7.278 -0.1451  0.5424 -3.1734
   34CHL1    C2 2489   3.363   4.058   7.110  0.3757 -0.0778  0.2618
   34CHL1   H2A 2490   3.267   4.034   7.061  1.2475  0.3539 -1.7875
   34CHL1   H2B 2491   3.439   3.985   7.075  0.3270 -1.3131  2.5530
   34CHL1   C20 2492   3.505   4.072   8.062 -0.4300 -0.7989 -0.2732
   34CHL1   H20 2493   3.610   4.037   8.065 -0.6462 -1.4891  3.1934
   34CHL1   C21 2494   3.414   3.954   8.051  0.2571  0.2329 -0.0608
   34CHL1  H21A 2495   3.456   3.876   7.983 -0.6156 -0.4822  0.2011
   34CHL1  H21B 2496   3.316   3.989   8.013  0.1674  0.9061  0.7694
   34CHL1  H21C 2497   3.404   3.909   8.152  1.3420  1.6375  0.7105
   34CHL1   C22 2498   3.484   4.159   8.197 -0.2896  0.3307 -0.0593
   34CHL1  H22A 2499   3.539   4.254   8.185  0.8243 -0.3051 -0.1509
   34CHL1  H22B 2500   3.376   4.184   8.210  0.1548  2.9057 -0.8353
   34CHL1   C23 2501   3.544   4.085   8.322 -0.5614  0.1532 -0.4387
   34CHL1  H23A 2502   3.516   3.978   8.321  0.8314 -0.2284  0.2179
   34CHL1  H23B 2503   3.654   4.074   8.310 -0.5068  0.2703 -0.0428
   34CHL1   C24 2504   3.497   4.146   8.454 -0.0142 -0.1328 -0.4517
   34CHL1  H24A 2505   3.546   4.246   8.464 -2.4811  1.0069  1.2698
   34CHL1  H24B 2506   3.387   4.156   8.454 -0.2261 -2.0572  0.6617
   34CHL1   C25 2507   3.532   4.053   8.574 -0.3994 -0.1298 -0.4963
   34CHL1   H25 2508   3.513   3.948   8.543 -1.5880  0.7803 -3.1490
   34CHL1   C26 2509   3.681   4.065   8.619 -0.2011  0.1646 -0.5162
   34CHL1  H26A 2510   3.691   3.984   8.695 -1.5552 -0.4069 -0.9112
   34CHL1  H26B 2511   3.744   4.050   8.529 -1.5973  0.6979 -1.6220
   34CHL1  H26C 2512   3.707   4.166   8.658  1.4367  0.0970 -1.3401
   34CHL1   C27 2513   3.430   4.084   8.686  0.1358 -0.0153  0.2396
   34CHL1  H27A 2514   3.450   4.021   8.775  2.9124 -0.2178 -0.4235
   34CHL1  H27B 2515   3.425   4.189   8.720 -3.4661 -0.2688  0.8891
   34CHL1  H27C 2516   3.324   4.061   8.661  0.2532  0.0879 -0.3823
   35CHL1    C3 2517   0.073   2.981   7.143 -0.1223 -0.6785 -0.1866
   35CHL1    H3 2518   0.171   2.936   7.173 -0.2306  0.2309  1.6772
   35CHL1    O3 2519   0.055   2.983   7.001  0.2127 -0.8592 -0.0151
   35CHL1   H3' 2520   0.107   3.054   6.965 -0.5160 -0.1283  0.3520
   35CHL1    C4 2521  -0.036   2.900   7.207 -0.3847  0.9225  0.1473
   35CHL1   H4A 2522  -0.136   2.936   7.174  0.1417  1.7540 -0.5427
   35CHL1   H4B 2523  -0.030   2.795   7.170 -0.3377  0.9347  0.1212
   35CHL1    C5 2524  -0.021   2.901   7.361 -0.2982 -0.4472 -0.3154
   35CHL1    C6 2525   0.013   2.790   7.428 -0.2503 -0.4804  0.9491
   35CHL1    H6 2526   0.014   2.695   7.372  0.3478  0.9506 -1.6294
   35CHL1    C7 2527   0.028   2.796   7.574  0.5633 -0.4656 -0.2957
   35CHL1   H7A 2528  -0.026   2.709   7.617 -0.2826 -0.0939 -0.5838
   35CHL1   H7B 2529   0.136   2.786   7.596  0.6301  0.7355  0.0140
   35CHL1    C8 2530  -0.022   2.927   7.650  0.8017  0.7019 -0.0275
   35CHL1    H8 2531  -0.133   2.920   7.644  0.7787  1.0752 -0.0237
   35CHL1   C14 2532   0.020   2.934   7.797  0.1491  0.2055  0.5888
   35CHL1   H14 2533   0.131   2.933   7.784 -0.1448 -0.3827 -2.9475
   35CHL1   C15 2534  -0.015   2.808   7.875  0.4020  0.0380  0.0207
   35CHL1  H15A 2535  -0.115   2.770   7.843  0.4849  2.4139 -3.6035
   35CHL1  H15B 2536   0.056   2.727   7.847 -2.7533 -2.7106 -0.7136
   35CHL1   C16 2537   0.006   2.847   8.018 -0.0788 -0.3983 -0.2293
   35CHL1  H16A 2538  -0.089   2.840   8.076  0.1034  1.1587  0.3045
   35CHL1  H16B 2539   0.079   2.793   8.082 -1.6336 -1.4906  0.7054
   35CHL1   C17 2540   0.024   3.007   8.018  0.8063 -0.3530  0.1712
   35CHL1   H17 2541   0.135   3.017   8.016  0.9312 -1.7102 -0.5806
   35CHL1   C13 2542  -0.030   3.052   7.878 -0.1586  0.0041  0.5955
   35CHL1   C18 2543  -0.177   3.075   7.883 -0.3936 -0.9848  0.0651
   35CHL1  H18A 2544  -0.202   3.174   7.928  2.2177 -0.3504  0.2687
   35CHL1  H18B 2545  -0.211   3.070   7.778 -1.0014 -2.5932  0.3173
   35CHL1  H18C 2546  -0.222   2.994   7.944  1.7806 -0.6015  2.3424
   35CHL1   C12 2547   0.036   3.167   7.815  0.1201  1.0518 -0.2601
   35CHL1  H12A 2548  -0.004   3.263   7.855 -0.4676  1.7091 -2.2548
   35CHL1  H12B 2549   0.147   3.157   7.817  0.0468  0.1386 -0.4789
   35CHL1   C11 2550   0.009   3.178   7.663 -0.0715 -0.2397  0.6708
   35CHL1  H11A 2551  -0.095   3.215   7.660  0.3444  0.9900  0.8668
   35CHL1  H11B 2552   0.075   3.255   7.618 -2.4888  0.2555 -2.3719
   35CHL1    C9 2553   0.032   3.045   7.579 -0.0927 -0.7116  0.0241
   35CHL1    H9 2554   0.141   3.026   7.583  0.3688  1.4380 -0.8417
   35CHL1   C10 2555  -0.019   3.048   7.429 -0.4791  0.0638 -0.0815
   35CHL1   C19 2556  -0.159   3.108   7.423  0.0496  0.5488  0.3629
   35CHL1  H19A 2557  -0.211   3.095   7.325 -2.0911 -2.2917  1.6999
   35CHL1  H19B 2558  -0.222   3.060   7.501  2.3166 -1.0251  1.2977
   35CHL1  H19C 2559  -0.142   3.214   7.449  1.2074 -0.2222  3.0474
   35CHL1    C1 2560   0.080   3.142   7.350  0.2399  0.0107  0.0140
   35CHL1   H1A 2561   0.068   3.247   7.385  0.8214  0.0917 -0.0195
   35CHL1   H1B 2562   0.185   3.122   7.380  0.5484 -0.6618 -1.4635
   35CHL1    C2 2563   0.063   3.126   7.194 -0.2877  0.1358  0.0541
   35CHL1   H2A 2564   0.141   3.181   7.137 -1.1104  0.0887 -1.1775
   35CHL1   H2B 2565  -0.036   3.161   7.157 -1.1727 -1.9723  0.2586
   35CHL1   C20 2566  -0.029   3.070   8.149 -0.3499 -0.0521 -0.5478
   35CHL1   H20 2567  -0.139   3.062   8.156 -0.1653 -1.0270  3.0049
   35CHL1   C21 2568   0.015   3.219   8.143  0.0866  0.7690 -0.7829
   35CHL1  H21A 2569  -0.021   3.263   8.239 -2.0095 -1.0497 -0.6506
   35CHL1  H21B 2570  -0.039   3.273   8.062  1.2031 -1.7485 -3.3953
   35CHL1  H21C 2571   0.123   3.235   8.124  0.0248  0.9787 -0.9787
   35CHL1   C22 2572   0.024   3.012   8.285 -0.0048 -0.0127 -0.2497
   35CHL1  H22A 2573  -0.017   3.061   8.376 -1.0759 -2.8603  0.9244
   35CHL1  H22B 2574  -0.012   2.908   8.300 -2.4913  0.7588 -0.4935
   35CHL1   C23 2575   0.172   3.005   8.306  1.0578 -0.5228 -0.2419
   35CHL1  H23A 2576   0.215   3.014   8.204 -1.2403  0.7832 -1.1862
   35CHL1  H23B 2577   0.209   3.097   8.355  0.2895  0.9149 -2.1778
   35CHL1   C24 2578   0.208   2.877   8.388  0.0467 -0.3602  0.3203
   35CHL1  H24A 2579   0.186   2.908   8.492  0.4759  0.1156  0.2726
   35CHL1  H24B 2580   0.141   2.792   8.360 -0.8498  0.6907 -0.8366
   35CHL1   C25 2581   0.358   2.846   8.381 -0.0421 -0.3904  0.4179
   35CHL1   H25 2582   0.372   2.824   8.273 -0.5421 -1.2058  0.5095
   35CHL1   C26 2583   0.456   2.961   8.404  0.1679 -0.0642 -0.3151
   35CHL1  H26A 2584   0.420   3.057   8.360 -1.0242 -0.8164 -1.0620
   35CHL1  H26B 2585   0.455   2.984   8.512 -0.7091  1.9355 -0.6985
   35CHL1  H26C 2586   0.557   2.938   8.363  0.1689 -1.2891  0.3498
   35CHL1   C27 2587   0.398   2.709   8.450  0.2960 -0.0967 -0.3250
   35CHL1  H27A 2588   0.504   2.678   8.443  0.1819 -1.0551  1.5317
   35CHL1  H27B 2589   0.335   2.628   8.409 -1.4434  2.8189 -4.1495
   35CHL1  H27C 2590   0.392   2.699   8.560 -0.1971 -2.0517 -0.5043
   36CHL1    C3 2591   1.048   4.187   7.082  0.3386 -0.1226 -0.0786
   36CHL1    H3 2592   1.145   4.132   7.083  0.3872 -0.0379 -0.0970
   36CHL1    O3 2593   0.991   4.169   6.950  0.2933 -0.0118 -0.1086
   36CHL1   H3' 2594   0.906   4.214   6.946  0.4465  0.1918 -2.9286
   36CHL1    C4 2595   0.961   4.139   7.193  0.3745  0.0476  0.0769
   36CHL1   H4A 2596   0.861   4.186   7.183  1.3818  2.1440 -0.6965
   36CHL1   H4B 2597   0.948   4.033   7.162 -1.8960  0.1347  0.5715
   36CHL1    C5 2598   1.024   4.155   7.332  0.3992  0.4604  0.1169
   36CHL1    C6 2599   1.056   4.052   7.414  0.1326  0.4089  0.2114
   36CHL1    H6 2600   1.035   3.947   7.390  0.1308  0.5544 -0.4357
   36CHL1    C7 2601   1.118   4.074   7.547  0.4583 -0.5752  0.0558
   36CHL1   H7A 2602   1.065   4.010   7.620 -1.0092 -0.4643 -0.8576
   36CHL1   H7B 2603   1.225   4.046   7.541  0.9186  0.5030  2.1927
   36CHL1    C8 2604   1.105   4.226   7.595  0.0131  0.2431 -0.4575
   36CHL1    H8 2605   0.998   4.243   7.621 -0.0370  0.8274 -1.0290
   36CHL1   C14 2606   1.184   4.255   7.726 -0.0889  0.6020 -0.2177
   36CHL1   H14 2607   1.293   4.236   7.712  0.5021  2.2966  1.5617
   36CHL1   C15 2608   1.141   4.170   7.846  1.2374 -0.0893  0.1626
   36CHL1  H15A 2609   1.030   4.182   7.846  1.1332 -0.6717 -1.8871
   36CHL1  H15B 2610   1.175   4.065   7.833 -0.3260 -0.6208  0.1250
   36CHL1   C16 2611   1.200   4.248   7.962  0.3047  0.0577 -0.0047
   36CHL1  H16A 2612   1.116   4.269   8.032  0.0216 -2.6371  0.5823
   36CHL1  H16B 2613   1.269   4.182   8.018  0.5931  1.6682  1.6289
   36CHL1   C17 2614   1.265   4.379   7.908  0.8011  0.1174 -0.6744
   36CHL1   H17 2615   1.368   4.344   7.887  0.5096 -1.4846  0.3260
   36CHL1   C13 2616   1.192   4.405   7.767 -0.9531 -0.1387 -0.2206
   36CHL1   C18 2617   1.050   4.455   7.791  0.3371 -0.3584  0.2488
   36CHL1  H18A 2618   1.007   4.481   7.692 -0.4704  0.6131  0.8238
   36CHL1  H18B 2619   0.983   4.378   7.836  0.8608 -1.4922 -0.8526
   36CHL1  H18C 2620   1.065   4.551   7.845  1.4912 -1.4575  1.9829
   36CHL1   C12 2621   1.266   4.482   7.653 -0.2139 -0.3295 -0.1255
   36CHL1  H12A 2622   1.258   4.585   7.693 -1.9745  0.3279 -2.0184
   36CHL1  H12B 2623   1.374   4.455   7.645 -0.0560 -0.3264  1.5084
   36CHL1   C11 2624   1.188   4.462   7.518 -0.6872 -0.7263  0.0202
   36CHL1  H11A 2625   1.096   4.522   7.528 -0.1980 -0.0089  0.2706
   36CHL1  H11B 2626   1.251   4.518   7.445  1.6365 -0.7996  1.8368
   36CHL1    C9 2627   1.150   4.321   7.482  0.0323 -0.0366  0.4236
   36CHL1    H9 2628   1.250   4.279   7.457 -0.1517  0.5529 -1.4937
   36CHL1   C10 2629   1.057   4.301   7.364 -0.2847 -0.4364  0.0448
   36CHL1   C19 2630   0.919   4.371   7.387  0.4783  0.1657  0.6379
   36CHL1  H19A 2631   0.946   4.478   7.373  0.7745  0.0319  0.1642
   36CHL1  H19B 2632   0.846   4.347   7.307 -1.4608  2.0046  1.7334
   36CHL1  H19C 2633   0.878   4.347   7.487 -0.3199 -2.2298 -0.1929
   36CHL1    C1 2634   1.119   4.369   7.233  0.4322  0.6556 -0.2336
   36CHL1   H1A 2635   1.115   4.480   7.247  0.5957  1.0731 -2.9825
   36CHL1   H1B 2636   1.227   4.343   7.231  0.2100 -0.2279 -1.3088
   36CHL1    C2 2637   1.064   4.338   7.099  0.2735 -1.1277 -0.2553
   36CHL1   H2A 2638   1.136   4.378   7.024 -0.5029 -0.7749 -0.8241
   36CHL1   H2B 2639   0.969   4.392   7.081  1.4163  1.1624  0.1596
   36CHL1   C20 2640   1.266   4.487   8.019  0.3829 -0.6054  0.0728
   36CHL1   H20 2641   1.167   4.533   8.039  0.7583 -0.0281  0.6683
   36CHL1   C21 2642   1.343   4.617   7.967  0.3862  0.7956  0.0752
   36CHL1  H21A 2643   1.289   4.660   7.880 -0.3949 -1.7181 -0.7578
   36CHL1  H21B 2644   1.443   4.581   7.935 -1.3835 -3.6005 -1.1818
   36CHL1  H21C 2645   1.354   4.678   8.059  1.3905 -0.3236  0.7255
   36CHL1   C22 2646   1.311   4.450   8.165 -0.0820 -0.0648  0.2557
   36CHL1  H22A 2647   1.264   4.354   8.193 -1.5396  0.9981  1.6422
   36CHL1  H22B 2648   1.421   4.435   8.168  0.7661  3.1621 -4.2141
   36CHL1   C23 2649   1.279   4.552   8.274 -0.1375 -0.3618  0.1209
   36CHL1  H23A 2650   1.360   4.628   8.277  0.1028 -0.6288  1.9898
   36CHL1  H23B 2651   1.185   4.610   8.270  0.3497  0.3925 -0.6439
   36CHL1   C24 2652   1.272   4.490   8.423 -0.3837 -0.1765  0.3086
   36CHL1  H24A 2653   1.224   4.390   8.412  2.4871 -1.6529  0.3968
   36CHL1  H24B 2654   1.380   4.474   8.443  0.0386  0.7254 -1.0762
   36CHL1   C25 2655   1.216   4.590   8.525 -0.4105  0.1037 -0.2667
   36CHL1   H25 2656   1.137   4.648   8.473 -0.2103  4.0349  3.2929
   36CHL1   C26 2657   1.172   4.514   8.654  0.0961 -0.8246  0.3629
   36CHL1  H26A 2658   1.238   4.426   8.671 -2.5862 -2.9066  0.7448
   36CHL1  H26B 2659   1.149   4.572   8.746 -1.4955  0.6524 -0.8894
   36CHL1  H26C 2660   1.072   4.468   8.639 -1.5008  1.9024  1.8345
   36CHL1   C27 2661   1.318   4.700   8.557 -0.3131 -0.7140 -0.1537
   36CHL1  H27A 2662   1.417   4.650   8.567  0.1160  0.5165  3.3786
   36CHL1  H27B 2663   1.331   4.772   8.474 -0.5383  1.7879  1.8270
   36CHL1  H27C 2664   1.290   4.762   8.645 -0.2731  0.6125 -1.0472
   37CHL1    C3 2665   5.139   6.566   6.790  0.2251  0.5405  1.1641
   37CHL1    H3 2666   5.071   6.487   6.828 -0.6110  0.5644 -0.1820
   37CHL1    O3 2667   5.153   6.563   6.648 -0.7063  0.1598 -0.3230
   37CHL1   H3' 2668   5.247   6.554   6.630 -0.3884 -2.3160  1.9369
   37CHL1    C4 2669   5.068   6.698   6.826  0.0083  0.5865 -0.5906
   37CHL1   H4A 2670   5.130   6.774   6.773 -0.7790  1.0870 -0.7985
   37CHL1   H4B 2671   4.968   6.695   6.779  0.4647  1.9182 -1.7479
   37CHL1    C5 2672   5.065   6.718   6.979 -0.2815  0.0205  0.6271
   37CHL1    C6 2673   4.948   6.747   7.037  0.6457 -0.3192 -0.4572
   37CHL1    H6 2674   4.860   6.747   6.971  1.1357 -0.3217 -1.1263
   37CHL1    C7 2675   4.935   6.784   7.182 -0.2520 -0.4250 -0.8904
   37CHL1   H7A 2676   4.868   6.873   7.193  0.4803 -0.0827  1.6947
   37CHL1   H7B 2677   4.879   6.704   7.235  0.9765 -0.7491 -0.0470
   37CHL1    C8 2678   5.066   6.788   7.259 -0.3842  0.1757  0.5595
   37CHL1    H8 2679   5.114   6.885   7.232  1.9166 -1.0821 -0.1764
   37CHL1   C14 2680   5.038   6.783   7.407  0.1739 -0.2531  0.5859
   37CHL1   H14 2681   4.996   6.683   7.432  1.7920 -0.3734  3.2164
   37CHL1   C15 2682   4.940   6.883   7.465  0.2598 -0.3211 -0.3376
   37CHL1  H15A 2683   4.958   6.984   7.423 -1.2775  0.5574  0.9823
   37CHL1  H15B 2684   4.834   6.864   7.437  0.7669  0.3512 -2.9909
   37CHL1   C16 2685   4.978   6.894   7.619 -0.3673  0.1394  0.9246
   37CHL1  H16A 2686   4.994   7.002   7.639 -0.9703  1.1469 -3.1994
   37CHL1  H16B 2687   4.888   6.867   7.678 -1.7231  0.8243 -0.7542
   37CHL1   C17 2688   5.104   6.803   7.636  0.3801 -0.1334  0.3070
   37CHL1   H17 2689   5.075   6.700   7.666  1.6228 -0.4473  0.4683
   37CHL1   C13 2690   5.162   6.790   7.495 -0.1102 -0.9847 -0.2198
   37CHL1   C18 2691   5.239   6.928   7.463 -0.0002  0.9108 -0.7970
   37CHL1  H18A 2692   5.297   6.937   7.369  0.5179  0.7127 -0.4999
   37CHL1  H18B 2693   5.168   7.014   7.467 -0.8545  0.1980  2.5313
   37CHL1  H18C 2694   5.318   6.946   7.539  0.4880  1.1797 -1.3568
   37CHL1   C12 2695   5.253   6.670   7.455 -0.0721  0.4954  0.4209
   37CHL1  H12A 2696   5.347   6.674   7.514 -0.2746  4.6182  0.8117
   37CHL1  H12B 2697   5.206   6.572   7.477 -0.5066  0.6637  0.2448
   37CHL1   C11 2698   5.290   6.663   7.307  0.2217  0.2075  0.0869
   37CHL1  H11A 2699   5.350   6.754   7.285 -1.1012  0.6465 -2.0249
   37CHL1  H11B 2700   5.342   6.567   7.289 -2.4442 -1.7615  2.1858
   37CHL1    C9 2701   5.164   6.682   7.209 -0.6082  0.4653 -0.3890
   37CHL1    H9 2702   5.103   6.592   7.229  0.2792  0.0972  0.7247
   37CHL1   C10 2703   5.198   6.695   7.060  0.1312 -0.4492  0.0073
   37CHL1   C19 2704   5.294   6.814   7.025 -0.3299  0.0341 -0.3938
   37CHL1  H19A 2705   5.252   6.906   7.071  1.8515  0.7766  0.2301
   37CHL1  H19B 2706   5.398   6.791   7.056 -0.3398  1.0228  0.4056
   37CHL1  H19C 2707   5.298   6.832   6.915 -0.1192 -2.2913 -0.8235
   37CHL1    C1 2708   5.272   6.563   7.010  0.1091  1.0377  0.7569
   37CHL1   H1A 2709   5.376   6.559   7.049 -0.2286 -0.2709  1.5739
   37CHL1   H1B 2710   5.203   6.488   7.054 -0.3440  1.3276  0.5419
   37CHL1    C2 2711   5.277   6.542   6.860  0.1407 -1.3292 -0.1726
   37CHL1   H2A 2712   5.324   6.444   6.839  0.7596 -1.6016  2.1816
   37CHL1   H2B 2713   5.339   6.622   6.816 -0.8767  0.5068  1.5438
   37CHL1   C20 2714   5.197   6.844   7.752 -0.0240  0.1876  0.1938
   37CHL1   H20 2715   5.222   6.950   7.732 -1.0059  0.6109  1.1427
   37CHL1   C21 2716   5.324   6.760   7.778  0.0227 -0.0139  0.2222
   37CHL1  H21A 2717   5.387   6.724   7.694 -0.7587  1.5485 -1.1167
   37CHL1  H21B 2718   5.299   6.669   7.835 -4.4088 -0.0713 -1.3753
   37CHL1  H21C 2719   5.384   6.825   7.846 -1.3951  1.5023  0.1131
   37CHL1   C22 2720   5.127   6.866   7.886  0.0484  0.4675 -0.1753
   37CHL1  H22A 2721   5.034   6.925   7.871  0.0816  0.0096 -2.6524
   37CHL1  H22B 2722   5.104   6.771   7.938  0.6202  0.6885  0.5033
   37CHL1   C23 2723   5.209   6.951   7.981 -0.2598 -0.0582  0.3372
   37CHL1  H23A 2724   5.311   6.915   8.005  0.1153 -1.4461 -2.7926
   37CHL1  H23B 2725   5.216   7.053   7.936  0.1309 -0.4429 -0.4877
   37CHL1   C24 2726   5.147   6.984   8.113 -0.1073 -0.1938 -0.1547
   37CHL1  H24A 2727   5.073   7.064   8.091  2.0725  1.3370 -2.6571
   37CHL1  H24B 2728   5.097   6.888   8.138 -0.0358 -0.5765 -1.3797
   37CHL1   C25 2729   5.246   7.031   8.227  0.3092 -0.2289 -0.7587
   37CHL1   H25 2730   5.326   6.956   8.248 -0.2148 -0.6752 -0.3079
   37CHL1   C26 2731   5.314   7.159   8.179  0.1708  0.5443 -0.6867
   37CHL1  H26A 2732   5.238   7.236   8.153 -0.5990  0.4947  1.2440
   37CHL1  H26B 2733   5.373   7.211   8.257 -2.9521  3.6864 -0.1929
   37CHL1  H26C 2734   5.387   7.141   8.097 -0.2837  0.4784 -1.0855
   37CHL1   C27 2735   5.180   7.055   8.362 -0.2516  0.9091  0.2916
   37CHL1  H27A 2736   5.242   7.103   8.441  1.1237  1.4059 -1.0373
   37CHL1  H27B 2737   5.091   7.120   8.349  1.2057  3.8502  3.4921
   37CHL1  H27C 2738   5.151   6.960   8.410  0.4278  1.6651  2.2857
   38CHL1    C3 2739   0.631   5.582   6.831  1.0488 -0.1284 -0.1501
   38CHL1    H3 2740   0.683   5.523   6.909  2.5297  1.1302 -0.1326
   38CHL1    O3 2741   0.696   5.566   6.709  0.0624  0.5359 -0.1856
   38CHL1   H3' 2742   0.682   5.480   6.670  2.5107  0.8486 -2.0245
   38CHL1    C4 2743   0.488   5.533   6.817 -0.2777 -0.1396 -0.4533
   38CHL1   H4A 2744   0.443   5.583   6.728 -0.8409 -1.4189 -0.9104
   38CHL1   H4B 2745   0.504   5.429   6.783 -0.4450 -0.3504  0.1068
   38CHL1    C5 2746   0.406   5.539   6.944 -0.2949 -0.7107 -0.4174
   38CHL1    C6 2747   0.354   5.430   7.006  0.0166 -0.6095  0.4491
   38CHL1    H6 2748   0.359   5.330   6.960  0.6250 -0.2868 -0.2046
   38CHL1    C7 2749   0.274   5.442   7.128 -0.5423 -0.1654  0.1203
   38CHL1   H7A 2750   0.179   5.392   7.100 -0.1941 -0.4202 -0.6532
   38CHL1   H7B 2751   0.309   5.379   7.213  1.4412 -0.0636 -0.5646
   38CHL1    C8 2752   0.236   5.588   7.176 -0.3257  0.3494  0.1421
   38CHL1    H8 2753   0.151   5.619   7.111  1.2698  1.9260 -1.3468
   38CHL1   C14 2754   0.188   5.596   7.318 -0.3430 -0.1770 -0.4166
   38CHL1   H14 2755   0.274   5.575   7.384  1.5478  0.7022 -2.4847
   38CHL1   C15 2756   0.066   5.513   7.372 -0.0705  0.1094 -0.5088
   38CHL1  H15A 2757  -0.018   5.521   7.299 -1.2769 -0.6091  0.7351
   38CHL1  H15B 2758   0.088   5.405   7.386  1.5836  0.4570 -0.2722
   38CHL1   C16 2759   0.029   5.577   7.501  0.7634  0.5636  0.5727
   38CHL1  H16A 2760  -0.075   5.613   7.491  1.0225  1.0774 -0.4309
   38CHL1  H16B 2761   0.051   5.512   7.588 -2.0555 -1.9586 -0.4517
   38CHL1   C17 2762   0.114   5.710   7.504  0.0394  0.2323 -0.4629
   38CHL1   H17 2763   0.208   5.685   7.557  0.7022  0.5280 -1.4794
   38CHL1   C13 2764   0.153   5.743   7.360  0.7501  0.1520  0.5411
   38CHL1   C18 2765   0.026   5.800   7.292  0.0406  0.3732 -0.0257
   38CHL1  H18A 2766   0.026   5.908   7.316 -1.9188  0.8879 -1.9723
   38CHL1  H18B 2767   0.028   5.783   7.182  0.4002 -2.8949  0.3967
   38CHL1  H18C 2768  -0.069   5.752   7.323  0.1077  1.0064  1.2434
   38CHL1   C12 2769   0.277   5.836   7.344  0.0965  0.4760  0.2166
   38CHL1  H12A 2770   0.267   5.946   7.361 -0.0293  0.2817  1.4854
   38CHL1  H12B 2771   0.357   5.803   7.414 -1.3643 -0.7323  1.3794
   38CHL1   C11 2772   0.325   5.828   7.203 -0.1921 -0.0378 -0.3477
   38CHL1  H11A 2773   0.238   5.857   7.141 -0.0867 -1.8828 -1.4234
   38CHL1  H11B 2774   0.414   5.893   7.187  0.2394 -0.2388  1.0631
   38CHL1    C9 2775   0.350   5.683   7.147 -0.6170 -0.5548 -0.6023
   38CHL1    H9 2776   0.438   5.646   7.204 -1.1071 -0.2056  0.4072
   38CHL1   C10 2777   0.398   5.682   6.999 -0.5920 -0.9121 -0.7635
   38CHL1   C19 2778   0.298   5.758   6.909  0.7034 -0.2429  0.0233
   38CHL1  H19A 2779   0.201   5.708   6.930 -0.4475  0.7048 -2.6739
   38CHL1  H19B 2780   0.293   5.868   6.925  0.0060 -0.2052 -0.4121
   38CHL1  H19C 2781   0.312   5.736   6.801 -2.4231  2.6227 -1.1298
   38CHL1    C1 2782   0.547   5.747   6.999 -0.1460  0.1268 -0.0324
   38CHL1   H1A 2783   0.535   5.856   7.017  0.9122  0.8621 -3.1994
   38CHL1   H1B 2784   0.609   5.708   7.082  1.2681 -1.5204 -1.7664
   38CHL1    C2 2785   0.627   5.723   6.868  0.0264 -0.5099  0.0188
   38CHL1   H2A 2786   0.727   5.772   6.880 -0.9312  1.7835 -0.8514
   38CHL1   H2B 2787   0.567   5.783   6.796  1.7846  0.6825 -0.5247
   38CHL1   C20 2788   0.032   5.812   7.599  0.9623 -0.4210  0.1687
   38CHL1   H20 2789  -0.065   5.833   7.550  1.1299 -0.6608 -0.2721
   38CHL1   C21 2790   0.109   5.945   7.611 -0.1006 -0.3187  0.1063
   38CHL1  H21A 2791   0.122   5.981   7.506  2.6573 -2.4574 -0.3922
   38CHL1  H21B 2792   0.209   5.922   7.652  0.7411  0.5304 -1.3910
   38CHL1  H21C 2793   0.055   6.027   7.664 -0.8467 -0.7414  0.0183
   38CHL1   C22 2794   0.002   5.753   7.745 -0.0335 -0.2858  0.2778
   38CHL1  H22A 2795  -0.054   5.660   7.723 -4.4114  1.4320  2.7724
   38CHL1  H22B 2796   0.097   5.744   7.801  0.0199 -2.1570 -0.0524
   38CHL1   C23 2797  -0.098   5.826   7.839  0.6819 -0.8693  0.3113
   38CHL1  H23A 2798  -0.079   5.933   7.863 -1.2110 -0.8248  1.8500
   38CHL1  H23B 2799  -0.193   5.839   7.783  0.4224 -0.2719  0.8788
   38CHL1   C24 2800  -0.124   5.746   7.969 -0.2916 -0.0434 -0.6000
   38CHL1  H24A 2801  -0.017   5.726   7.991 -0.2341 -0.5337 -1.2934
   38CHL1  H24B 2802  -0.168   5.811   8.047 -0.7715 -0.7024 -0.3148
   38CHL1   C25 2803  -0.206   5.612   7.956 -0.1853 -0.6242  0.4501
   38CHL1   H25 2804  -0.165   5.551   7.873  1.7626  1.0955  0.0706
   38CHL1   C26 2805  -0.187   5.525   8.082  0.4747 -0.6655  0.4508
   38CHL1  H26A 2806  -0.265   5.448   8.098  0.4710 -0.7013  0.2752
   38CHL1  H26B 2807  -0.086   5.480   8.089  1.3586  1.0051 -0.6744
   38CHL1  H26C 2808  -0.188   5.598   8.165  3.7292  1.8245 -1.4022
   38CHL1   C27 2809  -0.351   5.649   7.920  0.1330  0.0553 -0.1523
   38CHL1  H27A 2810  -0.388   5.729   7.988 -1.9078 -0.2289 -0.8809
   38CHL1  H27B 2811  -0.352   5.699   7.821 -0.7944  1.4054  0.5050
   38CHL1  H27C 2812  -0.421   5.563   7.922  0.1496  0.0302 -0.6121
   39CHL1    C3 2813   0.093   6.290   6.949 -0.2643 -0.1017 -0.6116
   39CHL1    H3 2814   0.001   6.346   6.976 -0.1928  0.2995 -1.1612
   39CHL1    O3 2815   0.102   6.259   6.812  0.4663  0.1573 -0.2941
   39CHL1   H3' 2816   0.130   6.339   6.767  1.0645  0.8460  1.2301
   39CHL1    C4 2817   0.199   6.399   6.972  0.2538  0.1202 -0.7258
   39CHL1   H4A 2818   0.305   6.370   6.955  0.2104  0.1316 -1.0268
   39CHL1   H4B 2819   0.171   6.484   6.906  0.2667  1.6419  1.1381
   39CHL1    C5 2820   0.197   6.441   7.119 -0.2814 -0.4633  0.3938
   39CHL1    C6 2821   0.181   6.572   7.155 -0.7672 -0.0177 -0.2062
   39CHL1    H6 2822   0.167   6.643   7.072 -2.0172  0.7004  0.5850
   39CHL1    C7 2823   0.190   6.615   7.297  0.0883 -0.3315 -0.0002
   39CHL1   H7A 2824   0.251   6.708   7.301  0.0741 -0.2158 -1.6939
   39CHL1   H7B 2825   0.090   6.636   7.341  1.3551  0.3091  2.7967
   39CHL1    C8 2826   0.249   6.512   7.396 -0.4447  0.2016 -0.5709
   39CHL1    H8 2827   0.359   6.498   7.385 -0.3802 -1.9208  1.7686
   39CHL1   C14 2828   0.211   6.543   7.547 -0.1700  0.4999  0.5611
   39CHL1   H14 2829   0.100   6.540   7.551 -0.1223 -0.2099  3.5439
   39CHL1   C15 2830   0.242   6.683   7.605 -0.6596 -0.4217 -0.2256
   39CHL1  H15A 2831   0.343   6.727   7.594 -0.0094 -0.4855  3.7798
   39CHL1  H15B 2832   0.153   6.744   7.578 -2.2831 -2.5833  0.0138
   39CHL1   C16 2833   0.230   6.665   7.755 -0.0386  0.3092 -0.3824
   39CHL1  H16A 2834   0.333   6.675   7.793  1.2595 -2.7485 -2.6580
   39CHL1  H16B 2835   0.151   6.727   7.803  0.0240  0.4206 -0.4228
   39CHL1   C17 2836   0.199   6.514   7.774  0.2015  0.6738 -0.2569
   39CHL1   H17 2837   0.088   6.513   7.765  0.1690  1.4213 -0.0273
   39CHL1   C13 2838   0.245   6.438   7.650 -0.0118  0.7664  0.2201
   39CHL1   C18 2839   0.399   6.431   7.665  0.1776 -0.0600  0.2729
   39CHL1  H18A 2840   0.452   6.526   7.685 -0.9147  0.8904 -1.1500
   39CHL1  H18B 2841   0.413   6.356   7.746 -2.3219 -0.6584  0.2407
   39CHL1  H18C 2842   0.457   6.389   7.580 -0.6681 -1.2964  0.2824
   39CHL1   C12 2843   0.191   6.299   7.615  0.0317 -0.6969 -0.2756
   39CHL1  H12A 2844   0.248   6.233   7.683  1.1501  2.8150  2.5100
   39CHL1  H12B 2845   0.081   6.303   7.630  0.3625  1.0814  2.2801
   39CHL1   C11 2846   0.232   6.268   7.470 -0.1346 -0.1208 -0.4807
   39CHL1  H11A 2847   0.342   6.257   7.472 -0.2817 -1.8306  0.4613
   39CHL1  H11B 2848   0.189   6.169   7.447  1.4131 -1.3711  1.6504
   39CHL1    C9 2849   0.195   6.376   7.366  0.3459  0.3909  0.3732
   39CHL1    H9 2850   0.084   6.386   7.374  0.4379  0.4639  1.6124
   39CHL1   C10 2851   0.217   6.322   7.219  0.5061  1.1188  0.2950
   39CHL1   C19 2852   0.365   6.269   7.208 -0.3581 -0.3505 -0.1605
   39CHL1  H19A 2853   0.395   6.232   7.108 -2.6186 -0.5843 -0.8091
   39CHL1  H19B 2854   0.433   6.349   7.246 -1.2290  0.2277  0.2079
   39CHL1  H19C 2855   0.380   6.183   7.278 -0.9762  0.6692  1.2828
   39CHL1    C1 2856   0.108   6.214   7.184  0.3255 -0.2067 -0.2793
   39CHL1   H1A 2857   0.095   6.124   7.248  0.7896  0.0590  0.1891
   39CHL1   H1B 2858   0.015   6.266   7.212  0.3575 -1.4119  2.3450
   39CHL1    C2 2859   0.111   6.165   7.038  0.2211  0.0742 -0.8744
   39CHL1   H2A 2860   0.030   6.092   7.017  0.5035 -0.2168 -0.9612
   39CHL1   H2B 2861   0.205   6.114   7.009 -0.2993 -1.3159 -0.2363
   39CHL1   C20 2862   0.237   6.461   7.913 -0.3402  0.3729  0.2273
   39CHL1   H20 2863   0.344   6.435   7.913 -0.1522  1.0601 -0.7908
   39CHL1   C21 2864   0.164   6.328   7.939  0.7981 -0.5150 -0.0451
   39CHL1  H21A 2865   0.199   6.246   7.873  1.8604  0.6179 -0.9148
   39CHL1  H21B 2866   0.054   6.339   7.924  0.8203 -1.3917 -0.9498
   39CHL1  H21C 2867   0.185   6.303   8.046 -1.7613  3.0899  1.5320
   39CHL1   C22 2868   0.226   6.557   8.030 -0.0784 -0.3220 -0.0075
   39CHL1  H22A 2869   0.269   6.657   8.006  5.1293 -2.0104  0.9378
   39CHL1  H22B 2870   0.121   6.573   8.062 -0.1328 -0.7010  0.0088
   39CHL1   C23 2871   0.318   6.524   8.145 -0.0394 -0.5883 -0.1124
   39CHL1  H23A 2872   0.293   6.586   8.234  0.0492  0.8768 -1.0884
   39CHL1  H23B 2873   0.293   6.417   8.166 -3.4232  0.2522  0.6643
   39CHL1   C24 2874   0.468   6.507   8.105 -0.3985 -0.7293 -0.1238
   39CHL1  H24A 2875   0.480   6.407   8.058  1.4837 -0.3980 -0.3923
   39CHL1  H24B 2876   0.491   6.585   8.030 -0.8179 -1.8740 -1.4765
   39CHL1   C25 2877   0.563   6.520   8.230  0.6855 -0.0181  0.3766
   39CHL1   H25 2878   0.551   6.620   8.278 -0.7473  0.5547 -1.1013
   39CHL1   C26 2879   0.532   6.416   8.336 -0.2197  0.5337  0.4567
   39CHL1  H26A 2880   0.558   6.316   8.294 -3.0989  1.2600 -3.6968
   39CHL1  H26B 2881   0.581   6.441   8.432 -1.4485 -1.8462  1.7872
   39CHL1  H26C 2882   0.424   6.424   8.358 -0.3113  0.6492 -0.0318
   39CHL1   C27 2883   0.703   6.517   8.184 -0.1768  0.4074 -0.0378
   39CHL1  H27A 2884   0.722   6.419   8.137  2.5271  0.6855  0.3004
   39CHL1  H27B 2885   0.737   6.602   8.120  0.6599 -0.1615 -0.3712
   39CHL1  H27C 2886   0.770   6.531   8.272  1.1753 -1.1038 -0.7795
   40CHL1    C3 2887   3.042   5.127   6.891 -0.0064 -0.4548  0.0507
   40CHL1    H3 2888   2.988   5.038   6.930  2.4819 -3.0034 -1.8949
   40CHL1    O3 2889   3.038   5.133   6.751 -0.0673  0.2397 -0.1882
   40CHL1   H3' 2890   3.100   5.201   6.724 -0.9195  1.3743  0.5832
   40CHL1    C4 2891   3.007   5.264   6.953 -0.1206  0.9774 -0.3977
   40CHL1   H4A 2892   3.081   5.340   6.920  2.3160 -1.0419  0.1102
   40CHL1   H4B 2893   2.906   5.301   6.926  0.1571  2.2187  0.2176
   40CHL1    C5 2894   3.025   5.257   7.104 -0.5844 -0.0014 -0.3531
   40CHL1    C6 2895   2.923   5.281   7.185 -0.8695  0.5615  0.1379
   40CHL1    H6 2896   2.826   5.312   7.144 -1.1152  1.4324  1.3313
   40CHL1    C7 2897   2.933   5.289   7.333  0.1723  0.2061 -0.5314
   40CHL1   H7A 2898   2.883   5.379   7.374  1.5037  1.2806 -1.1575
   40CHL1   H7B 2899   2.897   5.194   7.376  3.1829 -0.8879 -0.1884
   40CHL1    C8 2900   3.078   5.295   7.391  0.5127  0.0004 -0.1394
   40CHL1    H8 2901   3.110   5.400   7.373  2.5375 -0.1824  1.9631
   40CHL1   C14 2902   3.077   5.264   7.537  0.5634  0.7988  0.3721
   40CHL1   H14 2903   3.038   5.160   7.532  0.5083  0.7156  1.9468
   40CHL1   C15 2904   2.974   5.323   7.633 -0.1487  0.1719 -0.4471
   40CHL1  H15A 2905   2.972   5.434   7.631 -1.7310  0.1969  0.4760
   40CHL1  H15B 2906   2.870   5.291   7.612 -2.4205  4.9844  1.8302
   40CHL1   C16 2907   3.022   5.282   7.767  0.0914 -0.0887 -0.4130
   40CHL1  H16A 2908   3.041   5.370   7.831 -1.0997 -0.6359  0.7120
   40CHL1  H16B 2909   2.950   5.225   7.828 -0.4872 -1.7483 -2.5079
   40CHL1   C17 2910   3.163   5.213   7.753  0.4121 -0.4589  0.3428
   40CHL1   H17 2911   3.146   5.104   7.753  0.1363 -0.4185  0.7740
   40CHL1   C13 2912   3.213   5.251   7.609  0.0220 -0.1097  0.0174
   40CHL1   C18 2913   3.283   5.385   7.608 -0.4869 -0.7196 -0.2946
   40CHL1  H18A 2914   3.380   5.382   7.662  0.1182 -1.0557 -1.3636
   40CHL1  H18B 2915   3.303   5.417   7.504  1.6215 -0.9755 -0.0065
   40CHL1  H18C 2916   3.217   5.457   7.661  0.4729 -2.2957  3.3498
   40CHL1   C12 2917   3.292   5.142   7.531  0.0383  0.4872 -0.6013
   40CHL1  H12A 2918   3.392   5.115   7.573  0.0352  0.0875 -0.8498
   40CHL1  H12B 2919   3.224   5.054   7.530 -2.4785  2.3210  0.3587
   40CHL1   C11 2920   3.302   5.180   7.377 -0.5632  0.1791  0.2059
   40CHL1  H11A 2921   3.362   5.274   7.376  0.4539 -0.4183  1.5969
   40CHL1  H11B 2922   3.367   5.109   7.320 -0.4964  0.6893 -0.3682
   40CHL1    C9 2923   3.167   5.193   7.311 -0.1101 -0.6179 -0.4607
   40CHL1    H9 2924   3.125   5.090   7.323  0.3471 -0.8470 -0.7824
   40CHL1   C10 2925   3.166   5.223   7.160  0.3401 -0.0029 -0.1822
   40CHL1   C19 2926   3.273   5.329   7.137 -0.9211 -0.8599  0.2921
   40CHL1  H19A 2927   3.260   5.391   7.046  2.6640 -0.4205 -0.0397
   40CHL1  H19B 2928   3.276   5.408   7.216  2.6093  0.5997 -1.1129
   40CHL1  H19C 2929   3.374   5.286   7.127 -0.4439  0.2031  0.4109
   40CHL1    C1 2930   3.205   5.086   7.086  0.1816 -0.5784  0.5300
   40CHL1   H1A 2931   3.310   5.066   7.117  0.1631  0.2391  1.1769
   40CHL1   H1B 2932   3.142   5.004   7.125  0.4936  0.3707  3.2976
   40CHL1    C2 2933   3.192   5.097   6.936 -0.3827  0.6559  1.0190
   40CHL1   H2A 2934   3.224   5.004   6.883  2.4826  1.6741  0.8199
   40CHL1   H2B 2935   3.254   5.177   6.892  0.3597  0.2754  1.3644
   40CHL1   C20 2936   3.261   5.243   7.863  0.8946  0.2735 -0.3450
   40CHL1   H20 2937   3.282   5.352   7.862  0.3892  0.3779 -0.2940
   40CHL1   C21 2938   3.391   5.163   7.847 -0.1792  0.2779  0.5366
   40CHL1  H21A 2939   3.462   5.208   7.774 -0.5380  1.3358  0.8117
   40CHL1  H21B 2940   3.375   5.055   7.829  0.2472  0.3753 -0.4620
   40CHL1  H21C 2941   3.448   5.161   7.942  1.1283 -1.7049 -0.2373
   40CHL1   C22 2942   3.212   5.219   8.003  0.1252 -0.1881  0.3541
   40CHL1  H22A 2943   3.299   5.234   8.071  0.7291 -1.9758  0.0174
   40CHL1  H22B 2944   3.127   5.285   8.031 -0.0560 -0.0475 -0.5070
   40CHL1   C23 2945   3.187   5.071   8.042  0.9013 -0.3370 -0.0484
   40CHL1  H23A 2946   3.109   5.026   7.978 -1.3127  2.0949  0.7849
   40CHL1  H23B 2947   3.289   5.027   8.036  0.9709 -0.6936  2.5096
   40CHL1   C24 2948   3.139   5.056   8.188  0.2292  0.6247 -0.0818
   40CHL1  H24A 2949   3.035   5.098   8.190  0.3743  0.9956  1.4582
   40CHL1  H24B 2950   3.114   4.948   8.195  0.7050  0.3991 -1.5273
   40CHL1   C25 2951   3.217   5.106   8.308 -0.3027  0.4152 -1.1474
   40CHL1   H25 2952   3.223   5.216   8.297 -0.2778  0.2870 -2.5821
   40CHL1   C26 2953   3.138   5.088   8.435  0.1735  0.1781  0.6920
   40CHL1  H26A 2954   3.070   5.173   8.455 -0.0989  0.0439  0.3564
   40CHL1  H26B 2955   3.075   4.996   8.427 -0.1396  0.5355 -1.8780
   40CHL1  H26C 2956   3.193   5.069   8.529  0.0873 -2.9690  0.2202
   40CHL1   C27 2957   3.359   5.045   8.323 -0.0898  0.2449  0.0631
   40CHL1  H27A 2958   3.350   4.934   8.321  1.3438  0.0883  0.8595
   40CHL1  H27B 2959   3.419   5.075   8.235 -0.4324 -0.0355 -0.2688
   40CHL1  H27C 2960   3.407   5.079   8.417  0.9355 -0.4925 -0.1875
   41CHL1    C3 2961   3.786   5.047   7.057  0.4470  0.2378 -0.9175
   41CHL1    H3 2962   3.797   4.937   7.072  2.3149  0.5124 -0.1043
   41CHL1    O3 2963   3.753   5.075   6.925  0.0414  0.1133  0.3600
   41CHL1   H3' 2964   3.831   5.049   6.875 -0.6833  0.0419 -0.7666
   41CHL1    C4 2965   3.683   5.106   7.157 -0.1901 -0.5631 -0.0920
   41CHL1   H4A 2966   3.681   5.213   7.129  1.7018 -0.8892 -1.6888
   41CHL1   H4B 2967   3.587   5.058   7.127  1.7068 -3.2370 -2.5182
   41CHL1    C5 2968   3.728   5.060   7.298  0.8584 -1.1206 -0.3221
   41CHL1    C6 2969   3.648   4.998   7.384  0.3037  0.4735  0.3640
   41CHL1    H6 2970   3.543   4.976   7.361  0.6571  0.1535 -1.0567
   41CHL1    C7 2971   3.683   4.969   7.533  0.2984  0.0339 -0.6251
   41CHL1   H7A 2972   3.591   4.978   7.594  0.3643  0.5114 -0.5887
   41CHL1   H7B 2973   3.718   4.864   7.546 -0.2702 -0.1146 -0.2902
   41CHL1    C8 2974   3.795   5.070   7.573  0.2482 -0.1657  0.8770
   41CHL1    H8 2975   3.754   5.172   7.593 -1.3422 -0.1539 -2.0123
   41CHL1   C14 2976   3.835   5.028   7.709 -0.3374 -0.4206 -0.9465
   41CHL1   H14 2977   3.861   4.922   7.690  1.3495 -0.0056 -1.1629
   41CHL1   C15 2978   3.727   5.032   7.821 -0.1870  0.6771 -0.1303
   41CHL1  H15A 2979   3.685   5.135   7.821  1.3605  1.3489 -0.7145
   41CHL1  H15B 2980   3.648   4.956   7.806  0.5776 -0.0497 -0.5706
   41CHL1   C16 2981   3.803   5.007   7.948 -0.7490 -0.5960 -0.7373
   41CHL1  H16A 2982   3.766   5.082   8.021 -0.1984 -0.6158 -0.4397
   41CHL1  H16B 2983   3.787   4.904   7.986  0.1355 -0.6319 -0.4492
   41CHL1   C17 2984   3.954   5.025   7.910  0.0259 -0.6448  0.3602
   41CHL1   H17 2985   3.990   4.922   7.889  0.2489 -0.8553  1.6653
   41CHL1   C13 2986   3.953   5.101   7.768  0.0811  0.1046  0.1354
   41CHL1   C18 2987   3.936   5.253   7.806  0.1589  0.6909 -0.1706
   41CHL1  H18A 2988   3.886   5.299   7.717  2.1927 -0.4091 -1.9716
   41CHL1  H18B 2989   3.874   5.283   7.893  0.3398  0.8500 -0.0957
   41CHL1  H18C 2990   4.029   5.314   7.804 -0.7867  2.2529 -2.7198
   41CHL1   C12 2991   4.072   5.077   7.678  0.4452  0.5138  0.3818
   41CHL1  H12A 2992   4.161   5.131   7.717  1.2867 -1.5052  1.4116
   41CHL1  H12B 2993   4.086   4.967   7.672 -0.1204  0.3991  0.9648
   41CHL1   C11 2994   4.043   5.137   7.538  0.3187  0.7141  0.1516
   41CHL1  H11A 2995   4.022   5.247   7.540 -1.2518  0.5194 -1.7884
   41CHL1  H11B 2996   4.127   5.127   7.466  0.0006 -1.0858 -0.0129
   41CHL1    C9 2997   3.911   5.067   7.477 -0.8654 -0.4777  0.3955
   41CHL1    H9 2998   3.947   4.962   7.469 -0.1046 -0.2523  0.6997
   41CHL1   C10 2999   3.864   5.115   7.334  0.2169  0.0068  0.0139
   41CHL1   C19 3000   3.878   5.272   7.346 -0.4869  0.2192 -0.0841
   41CHL1  H19A 3001   3.984   5.306   7.348 -1.1545  2.4180  0.2751
   41CHL1  H19B 3002   3.837   5.320   7.254 -2.5065 -3.0070 -1.0374
   41CHL1  H19C 3003   3.821   5.308   7.435 -1.3746 -1.0927 -0.1038
   41CHL1    C1 3004   3.973   5.063   7.226  0.4404 -0.9188 -0.0894
   41CHL1   H1A 3005   4.065   5.118   7.256  0.6472  0.5986 -3.1098
   41CHL1   H1B 3006   3.988   4.955   7.247  0.5811 -1.3854 -2.3418
   41CHL1    C2 3007   3.922   5.098   7.087 -0.4284  0.7255  0.1803
   41CHL1   H2A 3008   3.993   5.043   7.022  0.0364  1.1993  0.2818
   41CHL1   H2B 3009   3.943   5.207   7.074 -0.0576  0.5668 -0.6124
   41CHL1   C20 3010   4.035   5.079   8.024  0.0554 -0.0626  0.2161
   41CHL1   H20 3011   3.999   5.181   8.050  2.0604  1.0302 -1.0455
   41CHL1   C21 3012   4.183   5.092   7.983  0.8000 -0.4227 -0.3891
   41CHL1  H21A 3013   4.188   5.177   7.912 -1.6941 -0.0954 -0.2422
   41CHL1  H21B 3014   4.224   4.994   7.949  0.1036 -1.7295  2.2669
   41CHL1  H21C 3015   4.247   5.115   8.071  1.5114  0.6665 -1.1639
   41CHL1   C22 3016   4.030   4.979   8.141 -0.5219 -0.1127  0.6989
   41CHL1  H22A 3017   3.925   4.965   8.174 -0.5479  2.2302  1.7959
   41CHL1  H22B 3018   4.080   4.882   8.123  0.3733  0.5198 -0.3556
   41CHL1   C23 3019   4.092   5.032   8.274  0.5247 -0.2661 -0.2459
   41CHL1  H23A 3020   4.202   5.044   8.273  0.6481 -1.2898 -1.2518
   41CHL1  H23B 3021   4.042   5.130   8.289  2.0992  0.9307 -2.2973
   41CHL1   C24 3022   4.051   4.938   8.388  0.9623  0.2649 -0.5061
   41CHL1  H24A 3023   3.950   4.895   8.375  0.8424 -0.2301  1.6831
   41CHL1  H24B 3024   4.120   4.851   8.391 -1.0740 -1.5404 -2.2778
   41CHL1   C25 3025   4.042   5.007   8.523 -1.2756 -0.1908  0.2459
   41CHL1   H25 3026   3.985   5.101   8.512 -0.0040  0.6229  0.4820
   41CHL1   C26 3027   3.970   4.911   8.622  0.4501  0.7855 -0.0668
   41CHL1  H26A 3028   3.892   4.862   8.561  2.1205 -0.1964 -1.5128
   41CHL1  H26B 3029   4.043   4.836   8.659  0.3553  1.6455  2.0039
   41CHL1  H26C 3030   3.930   4.966   8.710  0.3346 -2.9666  2.4060
   41CHL1   C27 3031   4.181   5.037   8.589  0.8483 -0.5015  0.1640
   41CHL1  H27A 3032   4.156   5.038   8.697 -1.3737 -0.5916 -0.2897
   41CHL1  H27B 3033   4.248   4.953   8.562  0.6650 -0.0587 -1.8538
   41CHL1  H27C 3034   4.219   5.134   8.551 -1.7417  0.4937 -0.0809
   42CHL1    C3 3035   6.066   3.573   6.951  0.1969  0.5822 -1.3147
   42CHL1    H3 3036   6.175   3.567   6.930  0.3503  0.4491 -0.4964
   42CHL1    O3 3037   5.993   3.597   6.830  0.0470 -0.1366 -0.2050
   42CHL1   H3' 3038   6.020   3.685   6.805  4.4197 -1.7094 -2.1118
   42CHL1    C4 3039   6.026   3.439   7.019  0.3114 -0.0512 -0.1275
   42CHL1   H4A 3040   5.915   3.430   7.021  0.1772  0.8375 -1.8233
   42CHL1   H4B 3041   6.060   3.366   6.944 -2.1220 -0.5286 -0.8682
   42CHL1    C5 3042   6.085   3.423   7.156  0.2114 -0.5568 -0.1879
   42CHL1    C6 3043   6.158   3.317   7.181 -0.1348 -0.3774 -0.6194
   42CHL1    H6 3044   6.156   3.237   7.106  2.0316 -0.8213 -0.2799
   42CHL1    C7 3045   6.212   3.289   7.320 -0.9354  0.0128  0.0520
   42CHL1   H7A 3046   6.201   3.183   7.351 -1.7415 -0.3815 -1.4879
   42CHL1   H7B 3047   6.318   3.320   7.335 -0.5023 -1.4129  0.1690
   42CHL1    C8 3048   6.145   3.381   7.435 -0.1783  0.4207 -0.3060
   42CHL1    H8 3049   6.041   3.349   7.453 -0.7631  1.6455 -1.3102
   42CHL1   C14 3050   6.218   3.377   7.564 -0.3792  0.2944 -0.0823
   42CHL1   H14 3051   6.321   3.413   7.542 -0.7396  1.1088 -0.4550
   42CHL1   C15 3052   6.235   3.239   7.616  0.3434  0.1486 -0.2752
   42CHL1  H15A 3053   6.139   3.183   7.612  0.9708 -1.2394  2.1656
   42CHL1  H15B 3054   6.313   3.180   7.565  0.6417 -0.6042  0.9985
   42CHL1   C16 3055   6.283   3.261   7.765 -0.4271  0.1284  0.5805
   42CHL1  H16A 3056   6.216   3.208   7.837 -1.2307 -0.7975 -0.8016
   42CHL1  H16B 3057   6.386   3.219   7.774 -0.5767 -0.0871  1.4020
   42CHL1   C17 3058   6.282   3.417   7.790 -0.3014 -0.8016  0.7147
   42CHL1   H17 3059   6.382   3.455   7.760 -1.4515 -0.1899 -2.7636
   42CHL1   C13 3060   6.174   3.465   7.683 -0.1791  0.0698 -0.2591
   42CHL1   C18 3061   6.027   3.430   7.722  0.3572  0.6738 -0.1065
   42CHL1  H18A 3062   6.020   3.329   7.767 -1.5813  0.5440 -0.6166
   42CHL1  H18B 3063   5.976   3.492   7.799 -2.0337 -2.2400  0.8276
   42CHL1  H18C 3064   5.958   3.430   7.635 -1.3679 -1.3483  1.1634
   42CHL1   C12 3065   6.169   3.610   7.624  0.1042  0.9867 -0.4807
   42CHL1  H12A 3066   6.134   3.676   7.706  1.6332 -2.0722  2.8843
   42CHL1  H12B 3067   6.266   3.649   7.586  0.3787 -0.1187 -0.9337
   42CHL1   C11 3068   6.084   3.626   7.502  0.7289  0.3219 -0.8153
   42CHL1  H11A 3069   5.977   3.619   7.529  0.9325 -1.1624 -0.3401
   42CHL1  H11B 3070   6.091   3.731   7.464 -3.2719  1.5930  1.3206
   42CHL1    C9 3071   6.128   3.527   7.384  0.1092 -0.8246  0.1685
   42CHL1    H9 3072   6.233   3.558   7.364 -0.3304 -0.3316 -1.5045
   42CHL1   C10 3073   6.062   3.545   7.247 -0.1735 -0.9924  0.0367
   42CHL1   C19 3074   5.912   3.556   7.279 -1.0400  0.3067 -0.2616
   42CHL1  H19A 3075   5.843   3.553   7.193 -0.7878  3.9221 -0.7367
   42CHL1  H19B 3076   5.878   3.485   7.359  0.3726  1.9661  1.9324
   42CHL1  H19C 3077   5.894   3.653   7.331 -0.9527  0.2020 -0.0341
   42CHL1    C1 3078   6.117   3.673   7.179  0.3411 -0.1990  0.7042
   42CHL1   H1A 3079   6.110   3.764   7.242 -0.6364  0.7597 -0.7240
   42CHL1   H1B 3080   6.228   3.669   7.169  0.3031 -1.5732  0.6259
   42CHL1    C2 3081   6.049   3.694   7.044  0.2013  0.4575  0.5467
   42CHL1   H2A 3082   6.100   3.779   6.994 -2.1821  1.9237  0.4344
   42CHL1   H2B 3083   5.941   3.714   7.059  0.2509  1.5476 -0.3711
   42CHL1   C20 3084   6.255   3.444   7.940 -0.0097 -0.5979 -0.6055
   42CHL1   H20 3085   6.155   3.399   7.954 -0.1403 -0.2182 -0.3101
   42CHL1   C21 3086   6.252   3.600   7.972 -0.1869  0.7925  0.1426
   42CHL1  H21A 3087   6.205   3.606   8.072 -1.6026 -1.1466 -0.3511
   42CHL1  H21B 3088   6.199   3.657   7.894 -1.5299  1.6156  1.6015
   42CHL1  H21C 3089   6.357   3.637   7.976 -0.6552  2.5693 -2.1503
   42CHL1   C22 3090   6.352   3.376   8.031 -0.2629  0.2192 -0.7969
   42CHL1  H22A 3091   6.379   3.276   7.990 -0.7705 -0.0320 -0.5357
   42CHL1  H22B 3092   6.445   3.434   8.047  1.1691 -1.8247 -1.2118
   42CHL1   C23 3093   6.290   3.344   8.167 -0.9999 -0.2674 -0.5367
   42CHL1  H23A 3094   6.253   3.437   8.215 -0.3384 -0.8636  1.2093
   42CHL1  H23B 3095   6.211   3.268   8.156 -0.8275 -0.4344 -0.6249
   42CHL1   C24 3096   6.403   3.287   8.265 -0.2328  0.2921 -0.5475
   42CHL1  H24A 3097   6.455   3.203   8.214 -0.9502 -1.4126  1.3726
   42CHL1  H24B 3098   6.475   3.366   8.295 -0.6394 -0.4897  2.9174
   42CHL1   C25 3099   6.347   3.239   8.405 -0.0826 -0.1804 -0.0526
   42CHL1   H25 3100   6.271   3.162   8.381  0.6770 -0.1601 -2.8856
   42CHL1   C26 3101   6.457   3.183   8.495 -0.1566 -0.3889 -0.2602
   42CHL1  H26A 3102   6.514   3.103   8.443  1.1469  1.5263 -1.9546
   42CHL1  H26B 3103   6.529   3.264   8.521 -0.3244 -0.0769 -0.7647
   42CHL1  H26C 3104   6.417   3.125   8.581  0.2067 -0.9821 -0.4838
   42CHL1   C27 3105   6.278   3.348   8.486  0.0784  0.1206  0.3711
   42CHL1  H27A 3106   6.358   3.412   8.530 -0.5559 -0.2281  2.1038
   42CHL1  H27B 3107   6.218   3.299   8.566 -1.6890 -1.2881 -1.6981
   42CHL1  H27C 3108   6.207   3.410   8.427 -0.4302 -0.1087  0.7372
   43CHL1    C3 3109   4.866   5.697   6.922  0.1819  0.4928  0.6987
   43CHL1    H3 3110   4.876   5.802   6.886  0.4745  0.5168  0.8476
   43CHL1    O3 3111   4.821   5.612   6.817  0.2812  0.0402 -0.2457
   43CHL1   H3' 3112   4.887   5.614   6.747 -1.8630  2.1153 -2.3486
   43CHL1    C4 3113   5.009   5.651   6.973  0.3671  0.5856  0.2430
   43CHL1   H4A 3114   5.007   5.540   6.974 -0.9699  0.5810 -0.6402
   43CHL1   H4B 3115   5.075   5.681   6.889  1.3755  1.1713  1.2107
   43CHL1    C5 3116   5.041   5.701   7.110 -0.0858  0.0875  0.0318
   43CHL1    C6 3117   5.165   5.758   7.132  0.7086  0.0370 -0.5422
   43CHL1    H6 3118   5.236   5.769   7.049  0.3991 -3.4369 -1.4195
   43CHL1    C7 3119   5.204   5.810   7.260 -0.4219  0.1091 -0.2270
   43CHL1   H7A 3120   5.312   5.784   7.270 -0.5927  0.3438  4.0403
   43CHL1   H7B 3121   5.187   5.919   7.266  1.5206  0.4074  0.8192
   43CHL1    C8 3122   5.121   5.769   7.379  0.3355  0.0910 -0.6560
   43CHL1    H8 3123   5.131   5.660   7.395  0.1663  0.2765  0.8424
   43CHL1   C14 3124   5.169   5.841   7.506 -0.0241 -0.0276 -0.3602
   43CHL1   H14 3125   5.160   5.950   7.488  4.4142  0.3405 -1.4968
   43CHL1   C15 3126   5.314   5.826   7.552  0.0987 -0.6356  0.1206
   43CHL1  H15A 3127   5.331   5.716   7.552  0.8654 -0.5267 -0.3009
   43CHL1  H15B 3128   5.381   5.888   7.489  0.7250 -0.4684  0.9315
   43CHL1   C16 3129   5.307   5.888   7.694 -0.7880  0.3147  0.0304
   43CHL1  H16A 3130   5.356   5.809   7.755  1.0573  1.4151  0.0517
   43CHL1  H16B 3131   5.364   5.982   7.711 -0.5960  0.1615  0.2278
   43CHL1   C17 3132   5.159   5.908   7.730  0.5906  0.2150 -0.0935
   43CHL1   H17 3133   5.141   6.014   7.702 -1.6193 -0.3067 -0.8442
   43CHL1   C13 3134   5.078   5.819   7.630 -0.0499 -0.1277 -0.3631
   43CHL1   C18 3135   5.082   5.673   7.685 -0.0385 -0.1758  0.6621
   43CHL1  H18A 3136   5.059   5.608   7.597  1.0320  0.4870 -0.1331
   43CHL1  H18B 3137   5.181   5.647   7.728  1.6998  3.1542 -0.9251
   43CHL1  H18C 3138   4.998   5.647   7.753 -0.5415  0.2596  0.2203
   43CHL1   C12 3139   4.932   5.859   7.593 -0.0413 -0.0912 -0.0473
   43CHL1  H12A 3140   4.862   5.826   7.673  0.7003  1.2061  1.2025
   43CHL1  H12B 3141   4.917   5.969   7.579 -2.5060 -0.4674 -0.7414
   43CHL1   C11 3142   4.887   5.780   7.467  0.2214 -0.0724 -0.0694
   43CHL1  H11A 3143   4.900   5.674   7.497 -1.8441 -0.2886  0.2020
   43CHL1  H11B 3144   4.782   5.809   7.448 -0.0297 -1.2230 -0.4891
   43CHL1    C9 3145   4.974   5.800   7.343 -0.0761  0.6388  0.2262
   43CHL1    H9 3146   4.957   5.903   7.304  0.1982  0.0505 -1.5440
   43CHL1   C10 3147   4.931   5.709   7.222  1.0759  0.2596 -0.5156
   43CHL1   C19 3148   4.916   5.558   7.251  0.4924  0.1627 -0.8627
   43CHL1  H19A 3149   4.995   5.508   7.311 -0.4902 -0.5628 -0.1314
   43CHL1  H19B 3150   4.829   5.547   7.320  1.8452 -2.1432  0.5914
   43CHL1  H19C 3151   4.890   5.505   7.157  1.9610 -0.8595 -0.7242
   43CHL1    C1 3152   4.792   5.766   7.166 -0.3940 -0.1910 -0.5742
   43CHL1   H1A 3153   4.713   5.737   7.239  0.3577 -0.9960 -0.0634
   43CHL1   H1B 3154   4.786   5.875   7.149  2.0237 -0.2540 -2.3301
   43CHL1    C2 3155   4.754   5.704   7.032  0.2401  0.4474  0.1703
   43CHL1   H2A 3156   4.663   5.748   6.987  0.8395 -0.3588 -1.9538
   43CHL1   H2B 3157   4.712   5.602   7.045 -0.5075  0.8989  1.4330
   43CHL1   C20 3158   5.127   5.896   7.883  0.2647  1.0180  0.2637
   43CHL1   H20 3159   5.140   5.793   7.923 -1.4191  0.7717  0.2356
   43CHL1   C21 3160   4.984   5.935   7.918 -0.0616 -0.1817  0.5092
   43CHL1  H21A 3161   4.968   5.935   8.028  1.3684  2.8184  0.8332
   43CHL1  H21B 3162   4.912   5.860   7.878  0.2657  0.1133 -0.7014
   43CHL1  H21C 3163   4.959   6.036   7.878  1.8222  0.2146  0.2410
   43CHL1   C22 3164   5.223   5.993   7.956  0.3277  0.5169 -0.5943
   43CHL1  H22A 3165   5.328   5.959   7.944 -0.1399 -2.0127  1.5888
   43CHL1  H22B 3166   5.198   6.097   7.925  0.0501  0.5598 -0.2364
   43CHL1   C23 3167   5.206   5.997   8.110 -0.0570  0.6688  0.1004
   43CHL1  H23A 3168   5.284   6.072   8.135  0.5936  0.0263  0.0361
   43CHL1  H23B 3169   5.110   6.023   8.158  1.2415  0.6068  2.8950
   43CHL1   C24 3170   5.237   5.857   8.170 -0.3157 -0.1380  0.2393
   43CHL1  H24A 3171   5.158   5.784   8.142 -0.6175 -0.3144  1.4909
   43CHL1  H24B 3172   5.326   5.808   8.124 -1.1059 -1.0364 -0.3789
   43CHL1   C25 3173   5.234   5.855   8.327 -0.6135 -0.1206  0.5882
   43CHL1   H25 3174   5.273   5.757   8.362  0.7480 -1.0298 -3.0099
   43CHL1   C26 3175   5.310   5.975   8.389  1.0399 -0.0540  0.0461
   43CHL1  H26A 3176   5.293   5.949   8.495 -0.8442 -0.8420 -0.4047
   43CHL1  H26B 3177   5.420   5.966   8.374  1.5340  1.8203  2.1233
   43CHL1  H26C 3178   5.274   6.074   8.353 -0.3933 -0.4667  0.2671
   43CHL1   C27 3179   5.093   5.860   8.382  0.1594 -0.4697 -0.0136
   43CHL1  H27A 3180   5.090   5.812   8.482  0.6620  2.2057  1.3731
   43CHL1  H27B 3181   5.057   5.965   8.373  2.5803  0.4084 -0.1450
   43CHL1  H27C 3182   5.021   5.798   8.324 -0.7130  0.9223 -0.4558
   44CHL1    C3 3183   4.339   5.358   6.760  0.4912 -0.0772 -0.3783
   44CHL1    H3 3184   4.439   5.314   6.778  0.7136  0.6315  0.1565
   44CHL1    O3 3185   4.290   5.352   6.627  0.6957  0.6991 -0.3024
   44CHL1   H3' 3186   4.219   5.416   6.618  0.5287  0.3326 -2.1434
   44CHL1    C4 3187   4.243   5.292   6.865 -1.2163  0.1900  0.1556
   44CHL1   H4A 3188   4.142   5.330   6.841 -1.7276 -1.7426 -0.9937
   44CHL1   H4B 3189   4.241   5.186   6.832  0.9821  1.2278 -4.0862
   44CHL1    C5 3190   4.300   5.314   7.006 -0.7755  0.1549 -0.1563
   44CHL1    C6 3191   4.339   5.216   7.084 -0.2559  0.4083 -0.5573
   44CHL1    H6 3192   4.330   5.112   7.049  1.1878 -0.0270  0.2815
   44CHL1    C7 3193   4.367   5.228   7.230  0.2038 -0.7367  0.0252
   44CHL1   H7A 3194   4.289   5.169   7.282  1.4134 -0.3991  2.3927
   44CHL1   H7B 3195   4.464   5.185   7.263  2.0083  3.6039  1.1491
   44CHL1    C8 3196   4.363   5.373   7.292 -0.8474  0.4053  0.1791
   44CHL1    H8 3197   4.256   5.394   7.314 -0.4981  1.0068  1.4330
   44CHL1   C14 3198   4.444   5.378   7.425  0.9516 -0.0582 -0.0109
   44CHL1   H14 3199   4.548   5.342   7.407  1.1787 -0.0527  1.2208
   44CHL1   C15 3200   4.397   5.284   7.538  0.3252 -0.0587  0.5918
   44CHL1  H15A 3201   4.287   5.287   7.552  0.5558  0.6958  2.5743
   44CHL1  H15B 3202   4.427   5.182   7.505  0.1348  0.7670 -2.4234
   44CHL1   C16 3203   4.471   5.340   7.660 -0.0663 -0.0049  0.2107
   44CHL1  H16A 3204   4.408   5.367   7.747 -0.0477 -0.7412  0.4579
   44CHL1  H16B 3205   4.549   5.263   7.679 -0.7021 -0.9110 -0.6926
   44CHL1   C17 3206   4.529   5.477   7.610  0.0200  0.5990  0.5682
   44CHL1   H17 3207   4.635   5.454   7.588 -0.6600 -2.0444 -0.3680
   44CHL1   C13 3208   4.454   5.516   7.480 -0.0837  0.7422  0.4136
   44CHL1   C18 3209   4.311   5.565   7.515  0.6068 -1.0316 -0.3170
   44CHL1  H18A 3210   4.244   5.563   7.427  1.4171 -3.3887 -0.9546
   44CHL1  H18B 3211   4.256   5.506   7.592  2.4831 -0.1041  1.8698
   44CHL1  H18C 3212   4.333   5.666   7.556  2.0077 -0.9913 -1.1175
   44CHL1   C12 3213   4.532   5.594   7.368 -0.6931 -0.3518 -0.5252
   44CHL1  H12A 3214   4.564   5.688   7.416  2.0632 -3.2012  3.9930
   44CHL1  H12B 3215   4.625   5.538   7.346  1.5713  2.6619  0.7353
   44CHL1   C11 3216   4.444   5.614   7.244 -0.5857 -0.2720  1.2369
   44CHL1  H11A 3217   4.347   5.660   7.271 -1.7195 -0.3765 -2.2192
   44CHL1  H11B 3218   4.479   5.678   7.161 -4.0775  0.7019  0.3748
   44CHL1    C9 3219   4.417   5.470   7.184  0.2894  0.0684  0.2753
   44CHL1    H9 3220   4.512   5.422   7.153  0.0839 -0.0595 -0.1679
   44CHL1   C10 3221   4.328   5.464   7.055 -0.4186  0.4878  0.2487
   44CHL1   C19 3222   4.193   5.545   7.085 -0.4823  0.6780 -0.4570
   44CHL1  H19A 3223   4.134   5.493   7.163  2.4491 -1.8919  0.2401
   44CHL1  H19B 3224   4.226   5.649   7.106  2.1814 -0.4293  1.3375
   44CHL1  H19C 3225   4.130   5.558   6.994 -1.1376  2.8692  0.2551
   44CHL1    C1 3226   4.403   5.541   6.937  0.0867 -1.0836 -0.5693
   44CHL1   H1A 3227   4.393   5.650   6.957 -0.9416 -1.2052 -0.3667
   44CHL1   H1B 3228   4.512   5.525   6.952 -0.0495 -0.0553  1.9642
   44CHL1    C2 3229   4.355   5.510   6.795 -0.1683  0.2411 -0.3167
   44CHL1   H2A 3230   4.432   5.551   6.727  0.9860  0.6383  1.1696
   44CHL1   H2B 3231   4.257   5.560   6.777  0.0546  0.8481  0.0996
   44CHL1   C20 3232   4.539   5.575   7.725 -0.8589  0.1479  0.2141
   44CHL1   H20 3233   4.435   5.589   7.763 -0.8579  3.9075 -0.7272
   44CHL1   C21 3234   4.595   5.710   7.672  0.5825  0.8720 -0.1102
   44CHL1  H21A 3235   4.536   5.755   7.589  0.2477  1.5090  0.4617
   44CHL1  H21B 3236   4.699   5.704   7.634  0.1077  1.5028 -1.5780
   44CHL1  H21C 3237   4.596   5.786   7.753 -0.4458  0.0122  0.7494
   44CHL1   C22 3238   4.637   5.527   7.837 -0.3912 -0.2876  0.2326
   44CHL1  H22A 3239   4.629   5.420   7.868 -0.1922 -0.2744  0.3311
   44CHL1  H22B 3240   4.741   5.532   7.800 -0.4919 -1.3523 -0.2304
   44CHL1   C23 3241   4.629   5.623   7.967  0.4714 -0.4121  0.3842
   44CHL1  H23A 3242   4.637   5.728   7.932 -0.8700 -0.7270 -0.9991
   44CHL1  H23B 3243   4.531   5.614   8.019  0.1908  1.5712  0.2854
   44CHL1   C24 3244   4.735   5.585   8.067 -0.4428  0.5163  0.2857
   44CHL1  H24A 3245   4.739   5.474   8.070  1.0370  0.5263 -0.4729
   44CHL1  H24B 3246   4.828   5.620   8.019  0.2553 -2.6314 -0.8822
   44CHL1   C25 3247   4.719   5.649   8.211  0.0541 -0.8752 -0.1891
   44CHL1   H25 3248   4.616   5.628   8.247 -0.1546 -0.7062 -0.6818
   44CHL1   C26 3249   4.817   5.574   8.297  0.0239 -0.2239 -0.8539
   44CHL1  H26A 3250   4.918   5.587   8.254  1.9459  2.5907  3.8083
   44CHL1  H26B 3251   4.826   5.623   8.396 -0.5708 -1.4969 -0.1456
   44CHL1  H26C 3252   4.783   5.468   8.301  0.9198 -0.5898 -2.3100
   44CHL1   C27 3253   4.736   5.799   8.200 -0.1250  0.2301 -0.2056
   44CHL1  H27A 3254   4.658   5.845   8.135  2.0704  1.1789 -2.3464
   44CHL1  H27B 3255   4.724   5.850   8.298  0.3297  2.1040 -1.0650
   44CHL1  H27C 3256   4.837   5.824   8.159 -0.9684  0.6754 -2.1256
   45CHL1    C3 3257   4.961   4.573   6.704  0.8388 -0.3337 -0.0881
   45CHL1    H3 3258   5.011   4.673   6.699  0.5465  0.0461  2.7809
   45CHL1    O3 3259   4.931   4.527   6.574  0.2601 -0.7893  0.2525
   45CHL1   H3' 3260   4.871   4.595   6.544  2.6125  0.7557 -1.2210
   45CHL1    C4 3261   5.059   4.480   6.762 -0.0339 -0.3502  0.8188
   45CHL1   H4A 3262   5.027   4.374   6.753  2.0229 -0.9123 -0.4799
   45CHL1   H4B 3263   5.149   4.498   6.699 -1.9615  0.1913 -1.9515
   45CHL1    C5 3264   5.076   4.503   6.907  0.2640  0.3638 -0.5879
   45CHL1    C6 3265   5.193   4.535   6.962 -0.3263  0.1480 -0.2543
   45CHL1    H6 3266   5.274   4.558   6.891 -2.4175  0.3404 -2.7057
   45CHL1    C7 3267   5.212   4.563   7.107  0.7128 -0.3900 -0.2539
   45CHL1   H7A 3268   5.308   4.529   7.151  1.8257  0.9641 -1.5522
   45CHL1   H7B 3269   5.209   4.672   7.130  1.1946 -1.1742  4.6748
   45CHL1    C8 3270   5.099   4.495   7.195 -0.0639  0.0913  0.3400
   45CHL1    H8 3271   5.115   4.385   7.191  0.7789  0.2088  0.2360
   45CHL1   C14 3272   5.101   4.549   7.336 -0.2167  0.2517  0.1629
   45CHL1   H14 3273   5.084   4.658   7.323 -0.4139  0.0206 -1.9747
   45CHL1   C15 3274   5.239   4.538   7.407 -0.0630  0.3856 -0.1526
   45CHL1  H15A 3275   5.289   4.441   7.389 -1.2522 -0.2991  0.1149
   45CHL1  H15B 3276   5.309   4.619   7.377 -0.5988  1.2186  0.7503
   45CHL1   C16 3277   5.202   4.561   7.559  0.7092 -0.0162  0.5585
   45CHL1  H16A 3278   5.243   4.472   7.611 -1.4608 -2.2766 -1.3426
   45CHL1  H16B 3279   5.229   4.659   7.606  0.1155  0.5034 -0.1637
   45CHL1   C17 3280   5.049   4.563   7.567  0.1462  0.5829  0.1240
   45CHL1   H17 3281   5.013   4.668   7.568 -1.1580  0.1692 -0.7805
   45CHL1   C13 3282   4.995   4.500   7.434 -0.0681  0.0866  0.1122
   45CHL1   C18 3283   5.007   4.346   7.441 -0.2843 -0.0052  0.3336
   45CHL1  H18A 3284   5.005   4.298   7.341  0.8220  0.8305 -0.1177
   45CHL1  H18B 3285   5.103   4.313   7.487 -0.3899 -1.9414 -0.7384
   45CHL1  H18C 3286   4.921   4.304   7.497  1.1047 -1.8303  1.1778
   45CHL1   C12 3287   4.859   4.544   7.374 -0.1795 -0.7829  0.2246
   45CHL1  H12A 3288   4.769   4.511   7.431 -0.0874  0.0553  0.8807
   45CHL1  H12B 3289   4.857   4.655   7.370  0.3363 -0.7679  0.3234
   45CHL1   C11 3290   4.848   4.493   7.233  0.0653 -0.5078  0.2686
   45CHL1  H11A 3291   4.839   4.383   7.241  2.8683 -0.7712  0.8566
   45CHL1  H11B 3292   4.755   4.523   7.180  0.7385 -0.8110 -1.1241
   45CHL1    C9 3293   4.966   4.539   7.140  0.4233  0.1789 -0.0389
   45CHL1    H9 3294   4.963   4.650   7.137  1.3931  0.2186 -2.8058
   45CHL1   C10 3295   4.944   4.496   6.994 -0.8068  0.8837 -0.3825
   45CHL1   C19 3296   4.885   4.352   6.999  0.0702  0.1812 -0.0471
   45CHL1  H19A 3297   4.898   4.302   6.901  0.0225 -2.7179  1.3322
   45CHL1  H19B 3298   4.950   4.278   7.050  0.0961  0.5540  0.4689
   45CHL1  H19C 3299   4.779   4.349   7.033  0.4783 -2.0603  1.2573
   45CHL1    C1 3300   4.845   4.595   6.929  0.0268  0.0992 -0.8060
   45CHL1   H1A 3301   4.743   4.576   6.968  0.6910  0.4976  1.2645
   45CHL1   H1B 3302   4.878   4.699   6.949 -0.2635  0.3152 -1.3957
   45CHL1    C2 3303   4.827   4.581   6.776  0.3716 -0.4342 -0.0503
   45CHL1   H2A 3304   4.771   4.673   6.747  0.8751  0.4645  1.6639
   45CHL1   H2B 3305   4.760   4.495   6.755 -0.8761  0.4381  0.1998
   45CHL1   C20 3306   5.000   4.486   7.698  0.1007 -0.4728  0.2203
   45CHL1   H20 3307   4.993   4.376   7.684 -1.2771 -0.5037  0.9947
   45CHL1   C21 3308   4.849   4.510   7.724  0.0660  1.0255  0.2750
   45CHL1  H21A 3309   4.812   4.466   7.819  0.1869  0.8386  0.2348
   45CHL1  H21B 3310   4.798   4.463   7.637 -2.2975  0.6735  1.7546
   45CHL1  H21C 3311   4.807   4.613   7.719 -2.0191  0.1813 -0.3995
   45CHL1   C22 3312   5.082   4.513   7.823  0.4751  0.1858 -0.3735
   45CHL1  H22A 3313   5.039   4.449   7.904  0.5356  1.4956  0.7264
   45CHL1  H22B 3314   5.190   4.492   7.806  0.9553  1.1291  1.3379
   45CHL1   C23 3315   5.082   4.658   7.863 -0.2097  0.0027  0.0587
   45CHL1  H23A 3316   5.110   4.709   7.769 -1.4162 -0.7552 -0.7422
   45CHL1  H23B 3317   4.982   4.687   7.903  0.1427 -0.0517  1.0117
   45CHL1   C24 3318   5.188   4.691   7.966 -0.4377 -0.7382  0.0375
   45CHL1  H24A 3319   5.287   4.653   7.933  0.5219 -1.3266  3.2436
   45CHL1  H24B 3320   5.197   4.802   7.973  0.8423 -0.8966  1.7686
   45CHL1   C25 3321   5.174   4.636   8.108  0.0364  0.3766 -0.4708
   45CHL1   H25 3322   5.160   4.527   8.092 -0.6989  0.1578  1.4744
   45CHL1   C26 3323   5.298   4.661   8.188 -0.4489 -0.2349  0.4982
   45CHL1  H26A 3324   5.316   4.768   8.210 -1.1974  0.3637 -1.6314
   45CHL1  H26B 3325   5.295   4.606   8.285  1.7522 -0.4113  0.5181
   45CHL1  H26C 3326   5.393   4.621   8.146 -0.2177  0.6620  0.1380
   45CHL1   C27 3327   5.057   4.695   8.181 -0.5148  0.2547 -1.0858
   45CHL1  H27A 3328   5.048   4.654   8.284 -0.6940  0.0234 -1.1965
   45CHL1  H27B 3329   5.080   4.802   8.203 -0.1117  0.0019 -0.2265
   45CHL1  H27C 3330   4.958   4.690   8.132 -1.1429  1.3430  0.0080
   46CHL1    C3 3331   5.745   4.602   7.074 -0.6113 -0.3922 -0.2890
   46CHL1    H3 3332   5.829   4.549   7.124  0.0639 -0.9405 -1.9276
   46CHL1    O3 3333   5.746   4.562   6.940 -0.0113 -0.4606 -0.0942
   46CHL1   H3' 3334   5.702   4.635   6.896  1.3046 -0.9730 -2.4474
   46CHL1    C4 3335   5.617   4.562   7.139 -0.1874 -1.1090 -0.1093
   46CHL1   H4A 3336   5.529   4.610   7.091  0.6078 -1.8667 -2.4663
   46CHL1   H4B 3337   5.579   4.460   7.117 -1.7995  0.1632 -4.3027
   46CHL1    C5 3338   5.623   4.598   7.286 -1.0696 -0.0005 -0.7861
   46CHL1    C6 3339   5.599   4.509   7.383  0.2413 -0.2239 -0.2133
   46CHL1    H6 3340   5.589   4.403   7.356  0.6184 -0.1337 -0.7233
   46CHL1    C7 3341   5.599   4.546   7.530  0.9731  1.2718 -0.1407
   46CHL1   H7A 3342   5.521   4.488   7.583  0.0969 -0.0566 -2.7083
   46CHL1   H7B 3343   5.697   4.516   7.572  0.4277 -1.9279 -0.8893
   46CHL1    C8 3344   5.582   4.699   7.563  0.0535 -0.1819  0.3852
   46CHL1    H8 3345   5.477   4.730   7.546  0.4583  1.3712  0.5255
   46CHL1   C14 3346   5.630   4.734   7.702  0.2542 -0.2568  0.0769
   46CHL1   H14 3347   5.741   4.729   7.698  0.2905  0.4274  0.1274
   46CHL1   C15 3348   5.593   4.645   7.820 -0.3062  0.0856 -0.1273
   46CHL1  H15A 3349   5.485   4.621   7.822 -0.0413 -1.1453  0.5782
   46CHL1  H15B 3350   5.660   4.557   7.827  0.9568  0.8875 -1.4954
   46CHL1   C16 3351   5.610   4.731   7.944  0.4497 -0.3295 -0.2021
   46CHL1  H16A 3352   5.508   4.735   7.988  0.3997 -0.2762 -0.3231
   46CHL1  H16B 3353   5.680   4.694   8.022 -1.5916 -0.8357  1.4557
   46CHL1   C17 3354   5.661   4.871   7.892  0.6979  0.7147 -0.5906
   46CHL1   H17 3355   5.771   4.881   7.901  1.0010 -1.9649 -0.4563
   46CHL1   C13 3356   5.603   4.876   7.747 -0.3176  0.3791 -0.3858
   46CHL1   C18 3357   5.456   4.911   7.758  0.5393 -0.5186  0.3466
   46CHL1  H18A 3358   5.390   4.859   7.830 -0.2065 -2.0106 -1.3448
   46CHL1  H18B 3359   5.447   5.021   7.773  2.5913 -0.6012  2.8147
   46CHL1  H18C 3360   5.404   4.891   7.661 -1.8501  0.6159  1.3216
   46CHL1   C12 3361   5.678   4.974   7.652 -0.3897 -0.4438 -0.1674
   46CHL1  H12A 3362   5.648   5.080   7.662 -1.0231 -0.3603 -2.3743
   46CHL1  H12B 3363   5.787   4.959   7.665 -0.3800 -0.2604 -0.0476
   46CHL1   C11 3364   5.654   4.939   7.499  0.6094  0.2521  0.2198
   46CHL1  H11A 3365   5.550   4.970   7.477  0.6446 -0.1601 -0.5544
   46CHL1  H11B 3366   5.724   5.001   7.440 -1.1288  0.6181 -1.5614
   46CHL1    C9 3367   5.670   4.786   7.468 -0.2842 -0.3819  0.3940
   46CHL1    H9 3368   5.779   4.774   7.483  0.3928  4.5910  1.0389
   46CHL1   C10 3369   5.657   4.750   7.314  0.4771 -0.1062  0.4049
   46CHL1   C19 3370   5.530   4.825   7.268  0.2662 -0.0038  0.2564
   46CHL1  H19A 3371   5.549   4.934   7.279  0.0606  0.1195 -0.5889
   46CHL1  H19B 3372   5.501   4.809   7.162 -3.5106 -1.4530  1.3555
   46CHL1  H19C 3373   5.439   4.799   7.325 -0.1744  2.0201  0.5248
   46CHL1    C1 3374   5.781   4.793   7.227 -0.3115  0.5536  0.0990
   46CHL1   H1A 3375   5.784   4.904   7.225  0.1610  0.5444  0.2904
   46CHL1   H1B 3376   5.872   4.756   7.277 -0.4408 -0.9387 -0.7098
   46CHL1    C2 3377   5.777   4.751   7.080  0.3176 -0.2768  0.3720
   46CHL1   H2A 3378   5.873   4.781   7.034 -0.6798 -1.2845 -2.5758
   46CHL1   H2B 3379   5.693   4.801   7.026  0.5644 -0.3525 -0.0816
   46CHL1   C20 3380   5.622   4.984   7.988  0.4661  1.1320 -0.0836
   46CHL1   H20 3381   5.515   5.013   7.974  0.0738 -1.0255 -2.2960
   46CHL1   C21 3382   5.718   5.094   7.959  0.0640 -0.2040  0.4745
   46CHL1  H21A 3383   5.824   5.061   7.967  0.9170  1.9333 -0.8700
   46CHL1  H21B 3384   5.704   5.189   8.015 -2.8948 -0.6910  0.7008
   46CHL1  H21C 3385   5.711   5.121   7.851 -0.7245  1.6152  0.9508
   46CHL1   C22 3386   5.638   4.936   8.134 -0.1137 -0.0637 -0.2279
   46CHL1  H22A 3387   5.569   4.855   8.167  0.0233 -0.4582 -0.8856
   46CHL1  H22B 3388   5.742   4.899   8.142  0.3193  1.2974  0.7684
   46CHL1   C23 3389   5.658   5.045   8.240  0.2487 -0.2776 -0.5141
   46CHL1  H23A 3390   5.748   5.104   8.212  1.1769 -0.8556  1.1337
   46CHL1  H23B 3391   5.569   5.111   8.253  1.2200  0.8807  0.4823
   46CHL1   C24 3392   5.686   5.000   8.388 -0.1019  0.5787  0.2951
   46CHL1  H24A 3393   5.600   4.945   8.430  1.2738 -1.1121  1.0268
   46CHL1  H24B 3394   5.773   4.930   8.386 -1.1500 -0.7592  0.1715
   46CHL1   C25 3395   5.709   5.120   8.475 -0.4709 -0.4606 -0.0126
   46CHL1   H25 3396   5.618   5.184   8.471 -1.7861 -2.0441  2.0640
   46CHL1   C26 3397   5.721   5.072   8.624  0.1920  0.2617 -0.7166
   46CHL1  H26A 3398   5.724   5.166   8.684 -2.1259  2.4615 -3.7347
   46CHL1  H26B 3399   5.633   5.011   8.656  2.3510 -1.0191  3.5704
   46CHL1  H26C 3400   5.811   5.009   8.638 -0.9257 -1.4734 -0.9912
   46CHL1   C27 3401   5.830   5.207   8.440  0.2145 -0.0070 -0.5912
   46CHL1  H27A 3402   5.851   5.298   8.501 -0.2451  0.7797 -1.5821
   46CHL1  H27B 3403   5.920   5.142   8.440 -0.7293 -1.4082  1.3349
   46CHL1  H27C 3404   5.816   5.244   8.336  2.2233  1.4297 -0.4162
   47CHL1    C3 3405   4.777   5.134   6.758 -0.0684 -0.7843  0.2007
   47CHL1    H3 3406   4.853   5.211   6.731  0.0943 -1.2624 -0.7837
   47CHL1    O3 3407   4.719   5.109   6.630  0.1830 -0.0443 -0.1811
   47CHL1   H3' 3408   4.628   5.083   6.645 -0.1361  0.9781 -0.2239
   47CHL1    C4 3409   4.828   4.997   6.818  0.7808  0.2336  0.3651
   47CHL1   H4A 3410   4.740   4.929   6.816  1.3707 -0.6341  2.0303
   47CHL1   H4B 3411   4.901   4.948   6.749 -1.0328 -2.1117 -0.0322
   47CHL1    C5 3412   4.877   5.018   6.956 -0.0276 -0.9005 -0.4157
   47CHL1    C6 3413   4.999   4.973   6.994 -0.4258  0.4416 -0.7176
   47CHL1    H6 3414   5.062   4.906   6.934  1.8680 -0.1764  2.1799
   47CHL1    C7 3415   5.051   4.968   7.139 -0.4210 -1.0177 -0.3560
   47CHL1   H7A 3416   5.074   4.865   7.173 -0.4445 -1.1152 -0.6353
   47CHL1   H7B 3417   5.140   5.035   7.139 -0.4010 -1.0312  0.5755
   47CHL1    C8 3418   4.946   5.020   7.246 -0.4337 -0.4857 -0.6779
   47CHL1    H8 3419   4.880   4.933   7.267  0.5751 -1.4518 -1.3872
   47CHL1   C14 3420   5.022   5.067   7.371 -0.6975 -0.4721  0.4498
   47CHL1   H14 3421   5.071   5.158   7.330  2.6338 -1.3231  2.1754
   47CHL1   C15 3422   5.140   4.983   7.425 -0.4846 -0.3052 -0.1977
   47CHL1  H15A 3423   5.101   4.879   7.439 -1.6741  0.4546  3.5639
   47CHL1  H15B 3424   5.231   4.996   7.363 -1.6943  3.2472 -1.4753
   47CHL1   C16 3425   5.167   5.030   7.568  0.4886  0.2009 -0.4793
   47CHL1  H16A 3426   5.160   4.945   7.638  3.8650  0.9186  0.9316
   47CHL1  H16B 3427   5.270   5.072   7.572  0.5623 -0.0831  0.7624
   47CHL1   C17 3428   5.056   5.137   7.588  0.8042  0.2282 -0.7351
   47CHL1   H17 3429   5.104   5.232   7.556  0.3515  0.9131  0.5371
   47CHL1   C13 3430   4.941   5.113   7.489 -0.1700 -0.3688  0.0380
   47CHL1   C18 3431   4.857   4.997   7.545 -0.0249  0.5232 -0.1388
   47CHL1  H18A 3432   4.817   4.926   7.469  1.7728  0.6822 -1.2888
   47CHL1  H18B 3433   4.914   4.926   7.608  0.5369 -1.9871 -3.1908
   47CHL1  H18C 3434   4.775   5.040   7.606 -0.3200 -2.3980  1.7400
   47CHL1   C12 3435   4.860   5.233   7.441  0.4516  0.6343 -0.3107
   47CHL1  H12A 3436   4.781   5.264   7.514 -2.0331 -1.3815 -1.9588
   47CHL1  H12B 3437   4.933   5.313   7.417  0.8189 -0.5100 -3.4067
   47CHL1   C11 3438   4.778   5.196   7.314 -0.7345  0.5477 -0.4809
   47CHL1  H11A 3439   4.702   5.122   7.347 -0.4284  0.8401  0.9470
   47CHL1  H11B 3440   4.725   5.291   7.292  1.3003  3.2703  4.6864
   47CHL1    C9 3441   4.862   5.138   7.194  0.4753 -0.1271 -0.1540
   47CHL1    H9 3442   4.934   5.218   7.167 -2.6651  2.8217 -0.4666
   47CHL1   C10 3443   4.791   5.100   7.058 -0.6840 -0.7620  0.2250
   47CHL1   C19 3444   4.679   5.003   7.094 -0.0655 -0.2278 -0.5745
   47CHL1  H19A 3445   4.637   4.958   7.002  2.5703 -0.8223 -1.5462
   47CHL1  H19B 3446   4.725   4.917   7.147 -2.8573 -1.2126  0.4810
   47CHL1  H19C 3447   4.598   5.049   7.155  2.8505  1.2003  2.5637
   47CHL1    C1 3448   4.732   5.223   6.984 -0.2639  0.0004 -0.1462
   47CHL1   H1A 3449   4.658   5.265   7.055  0.7404 -0.5331  1.2527
   47CHL1   H1B 3450   4.805   5.303   6.960 -2.0077  0.8324 -3.2874
   47CHL1    C2 3451   4.674   5.199   6.844  0.0897  0.0425 -0.3148
   47CHL1   H2A 3452   4.642   5.296   6.799 -1.6985  0.1549  1.0814
   47CHL1   H2B 3453   4.579   5.144   6.861  0.4242  0.1353  2.3119
   47CHL1   C20 3454   5.019   5.163   7.737 -0.0896 -0.0895  0.3277
   47CHL1   H20 3455   4.945   5.091   7.778  1.2742 -3.2303 -2.2935
   47CHL1   C21 3456   4.953   5.307   7.747 -0.1311 -0.5594  0.2961
   47CHL1  H21A 3457   4.863   5.306   7.682  0.2183 -3.6231 -0.2942
   47CHL1  H21B 3458   5.031   5.376   7.707 -1.4265 -0.2361 -1.7884
   47CHL1  H21C 3459   4.919   5.336   7.849 -0.3755  0.5772 -0.0930
   47CHL1   C22 3460   5.137   5.163   7.837 -0.2313  0.6529 -0.5279
   47CHL1  H22A 3461   5.211   5.082   7.819 -0.7140  0.3327 -1.1204
   47CHL1  H22B 3462   5.188   5.262   7.833 -1.7006  1.6053  2.0585
   47CHL1   C23 3463   5.096   5.147   7.992  0.2718 -0.3413 -0.0149
   47CHL1  H23A 3464   5.029   5.236   7.996  2.3308  1.6501 -3.8869
   47CHL1  H23B 3465   5.049   5.049   8.015  1.5504 -1.0308 -0.2921
   47CHL1   C24 3466   5.207   5.173   8.095 -0.0176  0.1450 -0.2151
   47CHL1  H24A 3467   5.278   5.088   8.092  0.4674  0.5006  0.6464
   47CHL1  H24B 3468   5.265   5.263   8.064  1.1473 -1.1445 -1.9816
   47CHL1   C25 3469   5.157   5.194   8.243 -0.6985  0.1533  0.6820
   47CHL1   H25 3470   5.104   5.101   8.274  1.3544 -0.3090  3.1691
   47CHL1   C26 3471   5.294   5.213   8.324  0.2664 -0.8749 -0.3568
   47CHL1  H26A 3472   5.341   5.113   8.316 -0.3712 -1.0339 -3.0722
   47CHL1  H26B 3473   5.353   5.296   8.280 -1.5544  0.8809  0.3771
   47CHL1  H26C 3474   5.268   5.226   8.431  2.7880 -3.1594  0.6389
   47CHL1   C27 3475   5.066   5.314   8.258  0.2634  0.4183 -0.2158
   47CHL1  H27A 3476   4.971   5.304   8.202 -0.7263  4.2799  0.4315
   47CHL1  H27B 3477   5.050   5.315   8.368  2.2974  1.3815  0.1344
   47CHL1  H27C 3478   5.108   5.414   8.234 -1.3190  1.1393 -0.0568
   48CHL1    C3 3479   2.351   6.521   6.362  0.7090 -0.1609  0.0289
   48CHL1    H3 3480   2.371   6.630   6.374 -0.4835  0.1932 -1.0526
   48CHL1    O3 3481   2.392   6.475   6.235 -0.2850 -0.3075 -0.0063
   48CHL1   H3' 3482   2.371   6.544   6.171  1.7017 -0.7589 -1.2209
   48CHL1    C4 3483   2.423   6.444   6.464 -0.1484  0.6228 -0.0269
   48CHL1   H4A 3484   2.407   6.335   6.446 -0.4777  0.7824 -0.7111
   48CHL1   H4B 3485   2.529   6.474   6.448 -0.5352  3.2864  1.6984
   48CHL1    C5 3486   2.378   6.480   6.606 -0.0641  0.1691  0.0993
   48CHL1    C6 3487   2.463   6.530   6.697 -0.2092 -0.5754  0.3767
   48CHL1    H6 3488   2.568   6.535   6.662  0.2464 -1.5215  1.5174
   48CHL1    C7 3489   2.422   6.562   6.838  0.3516 -0.3513 -0.1264
   48CHL1   H7A 3490   2.495   6.509   6.903  0.7964 -0.4753 -0.7213
   48CHL1   H7B 3491   2.430   6.671   6.860  1.0764 -0.7073  1.5519
   48CHL1    C8 3492   2.284   6.503   6.873  0.6413  0.2761  0.5749
   48CHL1    H8 3493   2.301   6.395   6.894 -0.5017 -0.1991 -0.7463
   48CHL1   C14 3494   2.227   6.561   7.003 -0.1076 -0.2349  0.6252
   48CHL1   H14 3495   2.201   6.663   6.968 -0.5646 -0.6007 -0.1141
   48CHL1   C15 3496   2.329   6.590   7.121  0.0680 -0.0270 -0.2674
   48CHL1  H15A 3497   2.408   6.512   7.122  1.8267  1.6694 -0.8398
   48CHL1  H15B 3498   2.373   6.691   7.107  0.2499 -0.0062  0.3979
   48CHL1   C16 3499   2.232   6.589   7.240 -0.0742 -0.8238 -0.2986
   48CHL1  H16A 3500   2.248   6.491   7.292  2.9061 -0.5665 -0.5236
   48CHL1  H16B 3501   2.256   6.662   7.320 -0.3292 -0.9104 -0.1425
   48CHL1   C17 3502   2.083   6.582   7.191  0.1552  0.0382  0.6144
   48CHL1   H17 3503   2.067   6.689   7.164  2.9544  0.5641  0.7303
   48CHL1   C13 3504   2.099   6.502   7.058  0.2309 -0.4256 -0.1544
   48CHL1   C18 3505   2.125   6.356   7.096 -0.0962  0.0663 -0.4339
   48CHL1  H18A 3506   2.037   6.313   7.149  2.1500 -1.7941  2.0837
   48CHL1  H18B 3507   2.141   6.298   7.003  1.2863  0.2346 -0.3236
   48CHL1  H18C 3508   2.206   6.330   7.167  0.1614  0.8290 -0.4430
   48CHL1   C12 3509   1.991   6.514   6.943  0.2735  0.4051 -0.6646
   48CHL1  H12A 3510   1.898   6.459   6.970  0.5585  0.3394  0.2470
   48CHL1  H12B 3511   1.964   6.621   6.935 -0.8646  0.2876  0.9963
   48CHL1   C11 3512   2.045   6.456   6.810  0.9263  0.0414  0.0399
   48CHL1  H11A 3513   2.062   6.347   6.819  1.2555  0.0322 -0.6343
   48CHL1  H11B 3514   1.964   6.471   6.735  0.7675 -1.8518 -0.2259
   48CHL1    C9 3515   2.182   6.514   6.761  0.3206  0.6888  0.2370
   48CHL1    H9 3516   2.176   6.624   6.751  2.9110  0.7823 -1.0905
   48CHL1   C10 3517   2.228   6.458   6.625 -0.6297  0.0094 -0.5921
   48CHL1   C19 3518   2.206   6.303   6.619 -0.0363 -0.5871 -0.0046
   48CHL1  H19A 3519   2.241   6.241   6.534  1.5314 -0.8419  0.7962
   48CHL1  H19B 3520   2.235   6.257   6.716 -1.2589 -1.0954  0.1497
   48CHL1  H19C 3521   2.095   6.301   6.607 -0.2060 -0.3178  1.3540
   48CHL1    C1 3522   2.145   6.542   6.517 -0.1688 -0.3345  0.2831
   48CHL1   H1A 3523   2.036   6.524   6.518 -0.5134  1.3501 -1.5571
   48CHL1   H1B 3524   2.152   6.652   6.529 -3.5447  0.2660 -1.9600
   48CHL1    C2 3525   2.194   6.500   6.373 -0.6531 -0.6796  0.4614
   48CHL1   H2A 3526   2.137   6.557   6.296  0.0189 -1.5962 -0.7357
   48CHL1   H2B 3527   2.181   6.393   6.348 -0.5175 -0.5934  0.0113
   48CHL1   C20 3528   1.989   6.525   7.295  0.0280  0.1330 -0.3820
   48CHL1   H20 3529   2.027   6.423   7.318  0.0360  0.1291 -0.4139
   48CHL1   C21 3530   1.848   6.515   7.238 -0.7033 -0.3302  0.6892
   48CHL1  H21A 3531   1.804   6.614   7.211 -0.3943  0.4597  2.8535
   48CHL1  H21B 3532   1.773   6.475   7.310 -0.1451 -0.9876  0.9177
   48CHL1  H21C 3533   1.854   6.437   7.160  3.2529 -0.4520  0.9099
   48CHL1   C22 3534   1.982   6.611   7.425  0.4402 -0.4538  0.1363
   48CHL1  H22A 3535   1.886   6.582   7.473 -1.4576  2.0965 -1.7958
   48CHL1  H22B 3536   2.067   6.588   7.493 -1.0101 -1.1662  1.7787
   48CHL1   C23 3537   1.984   6.764   7.409 -0.6025  0.0723 -0.8547
   48CHL1  H23A 3538   2.078   6.795   7.359 -0.6279  2.9366  0.7172
   48CHL1  H23B 3539   1.895   6.789   7.348 -1.9528 -1.4849  0.3824
   48CHL1   C24 3540   1.964   6.831   7.555  0.2446 -0.4085 -0.1563
   48CHL1  H24A 3541   1.860   6.814   7.589  0.8863  0.2607  2.3826
   48CHL1  H24B 3542   2.036   6.785   7.626  0.9413  0.1739 -0.4637
   48CHL1   C25 3543   1.981   6.987   7.561 -0.3674 -0.1854 -0.7688
   48CHL1   H25 3544   1.904   7.034   7.496  0.4139  1.4262 -0.5802
   48CHL1   C26 3545   1.961   7.056   7.700 -0.1439  0.8882  0.0366
   48CHL1  H26A 3546   2.004   7.158   7.705  3.0968 -0.4457  1.9673
   48CHL1  H26B 3547   1.850   7.057   7.713 -0.4423  1.9308 -2.1103
   48CHL1  H26C 3548   2.014   7.000   7.779  1.7157  1.1487 -0.9732
   48CHL1   C27 3549   2.118   7.015   7.505 -0.3610  0.2641 -0.6055
   48CHL1  H27A 3550   2.198   6.954   7.553 -0.9111 -1.5519 -1.8834
   48CHL1  H27B 3551   2.129   6.999   7.395  1.1073 -2.3754 -0.1739
   48CHL1  H27C 3552   2.139   7.124   7.512 -0.7481  0.3976 -1.4728
   49CHL1    C3 3553   1.143   1.466   6.791 -0.2741 -0.1961  0.3141
   49CHL1    H3 3554   1.251   1.479   6.816 -0.9972  0.2451  3.8106
   49CHL1    O3 3555   1.126   1.456   6.651 -0.3503 -0.3013 -0.2479
   49CHL1   H3' 3556   1.216   1.471   6.620  0.5456 -1.2518  1.6774
   49CHL1    C4 3557   1.092   1.340   6.869 -0.3163 -0.2474  0.5986
   49CHL1   H4A 3558   0.986   1.321   6.843 -0.2509 -0.2102  0.2960
   49CHL1   H4B 3559   1.140   1.245   6.836  0.9963  0.8753 -0.8995
   49CHL1    C5 3560   1.105   1.362   7.020 -0.3160 -0.0799 -0.3076
   49CHL1    C6 3561   1.169   1.277   7.102  0.1912  0.0828 -0.1177
   49CHL1    H6 3562   1.214   1.183   7.066 -3.0491 -1.3672 -0.7706
   49CHL1    C7 3563   1.184   1.294   7.251 -0.6504 -0.3345 -0.7241
   49CHL1   H7A 3564   1.164   1.202   7.309  1.3415 -0.3789 -0.0119
   49CHL1   H7B 3565   1.292   1.316   7.269 -0.8891 -0.9639  1.8074
   49CHL1    C8 3566   1.093   1.404   7.307  0.2702  0.8451  0.3584
   49CHL1    H8 3567   0.990   1.361   7.303  0.9444 -0.8326  0.1880
   49CHL1   C14 3568   1.128   1.436   7.450  0.2054  0.1641  0.2858
   49CHL1   H14 3569   1.228   1.478   7.426 -0.3739  1.6159  0.2674
   49CHL1   C15 3570   1.155   1.327   7.552 -0.0844  0.3224  1.0255
   49CHL1  H15A 3571   1.070   1.256   7.560 -0.3917  0.3142 -1.4448
   49CHL1  H15B 3572   1.248   1.272   7.527 -0.3819  0.2837 -0.0320
   49CHL1   C16 3573   1.175   1.413   7.675  0.4610  0.6258 -0.7182
   49CHL1  H16A 3574   1.103   1.359   7.740 -0.1239  1.0128 -1.0384
   49CHL1  H16B 3575   1.276   1.408   7.721 -1.2642  0.4035  3.5013
   49CHL1   C17 3576   1.127   1.556   7.649 -0.5835  0.1309  0.6143
   49CHL1   H17 3577   1.219   1.614   7.627  2.5931 -3.5811  2.7278
   49CHL1   C13 3578   1.054   1.540   7.513 -0.2201  0.1602  0.3824
   49CHL1   C18 3579   0.912   1.497   7.539  0.5212  0.3670  0.1653
   49CHL1  H18A 3580   0.865   1.576   7.602 -0.2588 -0.0821  0.1609
   49CHL1  H18B 3581   0.853   1.493   7.444  0.8283 -0.6587  0.0027
   49CHL1  H18C 3582   0.903   1.397   7.586 -0.8302  0.1982 -0.3856
   49CHL1   C12 3583   1.052   1.669   7.433  0.3862  0.1875 -0.6119
   49CHL1  H12A 3584   0.983   1.740   7.483  3.3135  2.4559  0.4191
   49CHL1  H12B 3585   1.150   1.721   7.434  0.5439 -0.0654  1.3529
   49CHL1   C11 3586   1.001   1.641   7.284  0.0517  0.4318 -0.4898
   49CHL1  H11A 3587   0.892   1.619   7.294  0.4185 -0.6239  1.7815
   49CHL1  H11B 3588   1.012   1.732   7.221 -1.8668  0.3139 -1.0621
   49CHL1    C9 3589   1.080   1.525   7.216 -0.0621  0.8615 -0.3796
   49CHL1    H9 3590   1.186   1.561   7.223  0.6019 -1.1635  0.6543
   49CHL1   C10 3591   1.045   1.492   7.071  0.3451 -0.0822 -0.3496
   49CHL1   C19 3592   0.889   1.484   7.058  0.1829  0.1834  0.2941
   49CHL1  H19A 3593   0.836   1.574   7.097  0.0145 -1.3522  4.0943
   49CHL1  H19B 3594   0.859   1.474   6.952  0.4793 -0.7012  0.2887
   49CHL1  H19C 3595   0.842   1.400   7.113 -0.2033 -0.7581 -1.4282
   49CHL1    C1 3596   1.101   1.619   6.988  0.4517 -0.4488 -0.3550
   49CHL1   H1A 3597   1.045   1.711   7.014  1.2081 -0.7040  2.5429
   49CHL1   H1B 3598   1.209   1.629   7.012  0.6869 -0.8593 -1.2249
   49CHL1    C2 3599   1.079   1.602   6.839 -0.4746  0.0221  0.4341
   49CHL1   H2A 3600   1.138   1.677   6.782 -0.7011 -0.1983 -0.0996
   49CHL1   H2B 3601   0.975   1.607   6.802 -0.7799  0.0070  1.2750
   49CHL1   C20 3602   1.069   1.620   7.777 -0.0319 -0.0184 -0.7830
   49CHL1   H20 3603   0.991   1.549   7.812  0.1886  0.3917  0.5819
   49CHL1   C21 3604   1.012   1.763   7.755 -0.3491 -0.2209 -0.2166
   49CHL1  H21A 3605   0.973   1.808   7.848 -1.4487  0.4926 -0.9979
   49CHL1  H21B 3606   0.921   1.763   7.691 -0.3591  0.1006 -0.2040
   49CHL1  H21C 3607   1.094   1.829   7.718  0.1132 -1.9774 -2.5816
   49CHL1   C22 3608   1.166   1.626   7.897 -0.5279 -0.0181 -0.2144
   49CHL1  H22A 3609   1.208   1.525   7.916  1.3067  0.5460 -1.0656
   49CHL1  H22B 3610   1.241   1.701   7.865 -0.5247 -0.0994 -0.3987
   49CHL1   C23 3611   1.111   1.694   8.020 -0.7032  0.3608  0.4454
   49CHL1  H23A 3612   1.090   1.803   8.009  2.3687  0.9430 -0.6711
   49CHL1  H23B 3613   1.015   1.643   8.043 -0.7868  0.6080  0.6536
   49CHL1   C24 3614   1.206   1.668   8.134 -0.8273  0.5886 -0.1054
   49CHL1  H24A 3615   1.214   1.558   8.151 -2.8246  0.5007  0.5651
   49CHL1  H24B 3616   1.303   1.705   8.094 -0.6633  2.0697  1.5079
   49CHL1   C25 3617   1.178   1.739   8.263 -0.1588 -0.6834 -0.7753
   49CHL1   H25 3618   1.168   1.848   8.244 -0.1801 -0.8834 -1.9755
   49CHL1   C26 3619   1.064   1.683   8.357 -0.5132 -0.8597  0.3802
   49CHL1  H26A 3620   1.088   1.720   8.459  1.1495 -0.4833 -0.1094
   49CHL1  H26B 3621   0.963   1.723   8.332  0.1607  0.3308 -0.5798
   49CHL1  H26C 3622   1.065   1.573   8.364  0.1163 -0.7808  1.6955
   49CHL1   C27 3623   1.314   1.740   8.346  0.1686  0.0968 -0.2397
   49CHL1  H27A 3624   1.309   1.791   8.444  1.3793 -2.2609  1.1633
   49CHL1  H27B 3625   1.329   1.639   8.390 -1.0498  0.4933  1.1577
   49CHL1  H27C 3626   1.405   1.770   8.289  1.8492 -1.7414  1.3055
   50CHL1    C3 3627   2.097   1.746   6.762  0.4138  0.0911  0.6546
   50CHL1    H3 3628   2.008   1.809   6.735  1.4443  1.5843  0.6221
   50CHL1    O3 3629   2.153   1.675   6.653  0.0110 -0.1007 -0.0163
   50CHL1   H3' 3630   2.235   1.723   6.640 -1.0036  1.0655 -2.9247
   50CHL1    C4 3631   2.210   1.836   6.807  0.7916 -0.2768 -0.4270
   50CHL1   H4A 3632   2.302   1.778   6.825  0.1416 -0.6108  2.3688
   50CHL1   H4B 3633   2.237   1.918   6.737  1.3293  1.7889  2.0249
   50CHL1    C5 3634   2.167   1.917   6.929 -0.2666  0.0389 -0.4938
   50CHL1    C6 3635   2.161   2.053   6.937  0.0082  0.0301  0.5504
   50CHL1    H6 3636   2.194   2.101   6.844  1.2191 -3.2381 -0.8336
   50CHL1    C7 3637   2.155   2.134   7.061  0.4022 -0.4235 -0.3625
   50CHL1   H7A 3638   2.236   2.210   7.059 -0.6411  0.7087 -1.2776
   50CHL1   H7B 3639   2.061   2.192   7.048  0.4480 -0.3228 -0.2413
   50CHL1    C8 3640   2.159   2.054   7.190 -0.1672  0.0780  0.2357
   50CHL1    H8 3641   2.265   2.023   7.205 -0.5089 -1.8693 -1.0443
   50CHL1   C14 3642   2.106   2.130   7.310 -0.3351 -0.2661 -0.2476
   50CHL1   H14 3643   2.001   2.151   7.279  0.8312  1.4420 -3.4449
   50CHL1   C15 3644   2.154   2.276   7.331  0.4407 -0.1676 -0.2204
   50CHL1  H15A 3645   2.265   2.288   7.333  0.6600 -1.9483  0.9850
   50CHL1  H15B 3646   2.105   2.349   7.264 -3.1478 -1.3111  0.9450
   50CHL1   C16 3647   2.114   2.306   7.475 -1.0940 -0.6443 -0.5046
   50CHL1  H16A 3648   2.208   2.323   7.532 -1.0132 -0.5803 -0.6570
   50CHL1  H16B 3649   2.041   2.389   7.491 -0.6394 -0.7210  2.7006
   50CHL1   C17 3650   2.047   2.176   7.528  0.3704 -0.0906 -0.3792
   50CHL1   H17 3651   1.940   2.176   7.500 -0.2102  0.2200  1.6633
   50CHL1   C13 3652   2.108   2.058   7.443 -0.5673  0.2103 -0.4623
   50CHL1   C18 3653   2.253   2.029   7.483  0.3631  0.8577 -0.2476
   50CHL1  H18A 3654   2.301   2.129   7.477 -1.7798  1.8887 -1.2325
   50CHL1  H18B 3655   2.268   1.988   7.586 -0.1984 -0.7815 -0.7898
   50CHL1  H18C 3656   2.302   1.959   7.412 -2.1722  1.6124 -2.9473
   50CHL1   C12 3657   2.028   1.929   7.428 -0.3948 -0.6010 -0.0569
   50CHL1  H12A 3658   2.032   1.860   7.516 -1.0352  1.4481  1.6547
   50CHL1  H12B 3659   1.920   1.949   7.412 -0.0854  1.4464  0.2240
   50CHL1   C11 3660   2.073   1.842   7.306  0.5335 -0.9348 -0.5463
   50CHL1  H11A 3661   2.168   1.796   7.340 -0.3552 -0.9980  2.0996
   50CHL1  H11B 3662   2.001   1.758   7.307 -1.2299  0.5081  0.5746
   50CHL1    C9 3663   2.091   1.923   7.176 -0.8763  0.1345  0.1041
   50CHL1    H9 3664   1.985   1.938   7.148 -0.7328 -0.9469 -1.1149
   50CHL1   C10 3665   2.144   1.834   7.052 -0.1253 -0.2877 -0.6699
   50CHL1   C19 3666   2.280   1.765   7.095 -0.2651 -0.5982 -0.2181
   50CHL1  H19A 3667   2.362   1.839   7.109 -0.6149 -0.4153  0.9480
   50CHL1  H19B 3668   2.269   1.695   7.180 -0.1246 -2.7016 -1.8667
   50CHL1  H19C 3669   2.314   1.697   7.014  1.0455 -0.2537  0.0142
   50CHL1    C1 3670   2.029   1.743   7.008 -0.9725 -0.8117 -0.9651
   50CHL1   H1A 3671   2.008   1.671   7.090  0.8842 -0.7414 -0.3837
   50CHL1   H1B 3672   1.934   1.797   6.988  0.3761  2.7014  1.1701
   50CHL1    C2 3673   2.070   1.650   6.882  0.4509 -0.4048 -0.5420
   50CHL1   H2A 3674   1.978   1.592   6.861 -1.6894  1.6302  2.3872
   50CHL1   H2B 3675   2.155   1.585   6.911  0.6578 -0.5550 -1.4338
   50CHL1   C20 3676   2.049   2.161   7.680  0.4011 -0.3747  0.0430
   50CHL1   H20 3677   2.141   2.100   7.698  0.6255 -0.6602 -1.8490
   50CHL1   C21 3678   1.931   2.079   7.734  0.1845 -0.0440  0.3737
   50CHL1  H21A 3679   1.948   2.051   7.840  1.3652  0.1715  0.2522
   50CHL1  H21B 3680   1.919   1.983   7.678 -0.0566 -1.2527  2.4125
   50CHL1  H21C 3681   1.837   2.138   7.725  0.8407  0.8674 -0.8628
   50CHL1   C22 3682   2.052   2.292   7.766 -0.2444 -1.0613 -0.5435
   50CHL1  H22A 3683   2.141   2.352   7.737  1.4979 -2.1188  2.2857
   50CHL1  H22B 3684   1.961   2.350   7.737  0.0188  0.7380  1.9097
   50CHL1   C23 3685   2.061   2.289   7.919  0.6525  0.1625 -0.0573
   50CHL1  H23A 3686   2.087   2.389   7.959  0.3530 -0.1312  0.9204
   50CHL1  H23B 3687   1.962   2.264   7.962 -0.1386  2.3929 -0.4586
   50CHL1   C24 3688   2.163   2.184   7.970 -0.7031 -0.3592 -0.1055
   50CHL1  H24A 3689   2.125   2.080   7.964  0.8475 -0.8624 -1.9503
   50CHL1  H24B 3690   2.252   2.183   7.904  0.0624  2.9757  0.6825
   50CHL1   C25 3691   2.221   2.219   8.108 -0.8342  0.0312 -0.4300
   50CHL1   H25 3692   2.139   2.269   8.165  0.3780  0.4552  1.0303
   50CHL1   C26 3693   2.272   2.096   8.189 -0.2878 -0.2061 -0.7305
   50CHL1  H26A 3694   2.301   2.135   8.289 -0.9994 -1.6529  0.0756
   50CHL1  H26B 3695   2.196   2.015   8.201 -1.1164  0.5679 -0.6602
   50CHL1  H26C 3696   2.362   2.047   8.147  0.5323 -0.7673  1.5694
   50CHL1   C27 3697   2.338   2.319   8.089 -0.1467  0.1029 -0.4389
   50CHL1  H27A 3698   2.375   2.351   8.189 -0.2055  2.5486 -1.1534
   50CHL1  H27B 3699   2.414   2.255   8.039 -1.5618 -0.5635 -1.8141
   50CHL1  H27C 3700   2.308   2.404   8.025 -1.1836 -0.3487 -0.5808
   51CHL1    C3 3701   2.016   0.604   6.850  0.5486 -0.1791  0.7045
   51CHL1    H3 3702   2.008   0.497   6.877 -1.5196 -0.5899 -1.2783
   51CHL1    O3 3703   1.965   0.596   6.720  0.6842 -0.2957 -0.2811
   51CHL1   H3' 3704   2.032   0.546   6.673  2.3904  0.4063  1.2699
   51CHL1    C4 3705   1.934   0.696   6.944  0.0417 -0.7864 -0.3930
   51CHL1   H4A 3706   1.940   0.796   6.896  3.5369 -1.7432 -2.3762
   51CHL1   H4B 3707   1.826   0.677   6.926 -0.0733 -0.9569  0.4449
   51CHL1    C5 3708   1.980   0.701   7.090 -0.3303 -0.0134 -0.4801
   51CHL1    C6 3709   1.896   0.669   7.188 -0.0479 -0.0763 -0.1128
   51CHL1    H6 3710   1.795   0.638   7.158  0.0285  1.1478 -1.7880
   51CHL1    C7 3711   1.939   0.665   7.326  0.1439  0.0680 -0.3396
   51CHL1   H7A 3712   1.856   0.698   7.393  0.2447 -0.8849  0.2701
   51CHL1   H7B 3713   1.957   0.559   7.352  2.0680  0.1717 -1.0807
   51CHL1    C8 3714   2.075   0.724   7.353  0.2529 -0.4445  0.3142
   51CHL1    H8 3715   2.063   0.834   7.358 -0.1137 -0.2228 -3.1047
   51CHL1   C14 3716   2.121   0.678   7.489 -0.6603  0.5810  0.3596
   51CHL1   H14 3717   2.144   0.571   7.465 -1.7766  0.2363  0.7831
   51CHL1   C15 3718   2.030   0.671   7.595 -0.2598 -0.2483 -0.1537
   51CHL1  H15A 3719   1.975   0.767   7.602  4.4928  2.6878  1.2082
   51CHL1  H15B 3720   1.958   0.587   7.592  0.8014 -1.2492  1.3429
   51CHL1   C16 3721   2.111   0.666   7.722 -0.9681  0.2667 -1.5202
   51CHL1  H16A 3722   2.082   0.753   7.784  2.9146 -0.1055  1.1654
   51CHL1  H16B 3723   2.090   0.572   7.778  1.1601  2.0381  2.7185
   51CHL1   C17 3724   2.263   0.685   7.684  0.2347  0.3255  0.1668
   51CHL1   H17 3725   2.305   0.583   7.687  0.6996  0.5255  0.5545
   51CHL1   C13 3726   2.256   0.738   7.531 -0.0500  0.5130  0.0107
   51CHL1   C18 3727   2.249   0.891   7.537 -0.0103 -0.1141 -0.2802
   51CHL1  H18A 3728   2.260   0.942   7.439  1.5713 -2.0491 -1.1739
   51CHL1  H18B 3729   2.155   0.917   7.591 -0.2909  1.0135 -1.2792
   51CHL1  H18C 3730   2.337   0.933   7.590  0.2058 -1.5691  0.5863
   51CHL1   C12 3731   2.369   0.700   7.441 -0.1151 -0.6947  0.1767
   51CHL1  H12A 3732   2.460   0.761   7.458  0.4105 -1.1477 -0.9557
   51CHL1  H12B 3733   2.393   0.592   7.448 -1.5237 -0.9341  2.0714
   51CHL1   C11 3734   2.327   0.725   7.293  0.1359 -0.5643 -0.5028
   51CHL1  H11A 3735   2.316   0.835   7.278 -3.1116 -0.6653  0.2005
   51CHL1  H11B 3736   2.403   0.675   7.230  2.3580  1.8072  0.1584
   51CHL1    C9 3737   2.179   0.686   7.249 -0.0133 -0.7805  0.3132
   51CHL1    H9 3738   2.173   0.575   7.246 -0.2821 -0.7618  0.1480
   51CHL1   C10 3739   2.136   0.724   7.107 -0.1292  0.4818 -0.1801
   51CHL1   C19 3740   2.153   0.876   7.085 -0.1876 -0.0467 -0.2581
   51CHL1  H19A 3741   2.254   0.920   7.099 -0.3581  0.2277  0.1072
   51CHL1  H19B 3742   2.133   0.906   6.979  3.2022  1.1569 -0.6726
   51CHL1  H19C 3743   2.090   0.941   7.150 -0.7753  1.0372 -1.8326
   51CHL1    C1 3744   2.221   0.659   6.997 -0.6013  0.2557  0.4802
   51CHL1   H1A 3745   2.322   0.705   6.986  0.1923 -1.9096 -2.2563
   51CHL1   H1B 3746   2.234   0.552   7.022  1.9564  0.3728 -0.0277
   51CHL1    C2 3747   2.163   0.656   6.852  0.0237  0.5198  0.1866
   51CHL1   H2A 3748   2.230   0.590   6.793  0.5204  0.9636  0.2534
   51CHL1   H2B 3749   2.172   0.753   6.800 -1.0815  0.2632 -0.5260
   51CHL1   C20 3750   2.343   0.754   7.801 -1.2134  0.4621  0.6303
   51CHL1   H20 3751   2.301   0.857   7.800 -0.8280  0.6293 -0.4174
   51CHL1   C21 3752   2.496   0.760   7.754  0.0147 -0.6990 -0.0319
   51CHL1  H21A 3753   2.518   0.816   7.661  1.2193 -0.9054  0.1065
   51CHL1  H21B 3754   2.542   0.659   7.766 -0.3672 -1.1050 -1.8053
   51CHL1  H21C 3755   2.546   0.824   7.831  2.0407 -0.9264 -1.1004
   51CHL1   C22 3756   2.323   0.679   7.939  0.0086  0.1553  0.1634
   51CHL1  H22A 3757   2.215   0.676   7.965 -0.3397  1.9672 -0.8762
   51CHL1  H22B 3758   2.362   0.577   7.916 -0.3034 -0.4612  2.2115
   51CHL1   C23 3759   2.405   0.736   8.057  0.4193 -0.2288  0.4144
   51CHL1  H23A 3760   2.386   0.661   8.138 -0.4372 -1.9843 -1.3318
   51CHL1  H23B 3761   2.513   0.747   8.035  0.5641 -1.4709  0.4038
   51CHL1   C24 3762   2.365   0.884   8.086 -0.4802 -0.1478 -0.1260
   51CHL1  H24A 3763   2.394   0.950   8.002  1.7742  0.2358  0.8897
   51CHL1  H24B 3764   2.254   0.876   8.096 -0.4941 -0.4709 -0.4971
   51CHL1   C25 3765   2.419   0.937   8.222 -0.3799  0.2681 -0.0930
   51CHL1   H25 3766   2.387   0.866   8.301 -0.9660  2.0242  1.3343
   51CHL1   C26 3767   2.571   0.946   8.238  0.3300 -0.3396 -0.0096
   51CHL1  H26A 3768   2.607   1.008   8.153  0.1855 -0.1469  0.0691
   51CHL1  H26B 3769   2.588   1.000   8.333  1.7010 -1.4389  0.4102
   51CHL1  H26C 3770   2.621   0.848   8.249  1.7827  0.3547 -0.1909
   51CHL1   C27 3771   2.349   1.071   8.260 -0.2045  0.1823 -0.4869
   51CHL1  H27A 3772   2.379   1.157   8.198 -0.7846  1.1151  0.4944
   51CHL1  H27B 3773   2.238   1.059   8.261 -0.1129 -0.9171 -1.1409
   51CHL1  H27C 3774   2.393   1.078   8.362 -0.0970  2.1293 -0.6311
   52CHL1    C3 3775   3.686   3.563   7.016 -0.1707 -0.3066  1.0579
   52CHL1    H3 3776   3.709   3.671   7.013 -3.3931  0.4633 -1.4500
   52CHL1    O3 3777   3.652   3.524   6.881 -0.8081  0.4811 -0.7217
   52CHL1   H3' 3778   3.558   3.544   6.876 -1.0929 -0.4418  0.5222
   52CHL1    C4 3779   3.807   3.487   7.064  0.2101  0.2952  0.1530
   52CHL1   H4A 3780   3.775   3.381   7.059 -0.2191  0.4499 -0.5738
   52CHL1   H4B 3781   3.893   3.509   6.997  0.5378  1.7350  0.9991
   52CHL1    C5 3782   3.834   3.534   7.212 -0.4941 -0.0846  0.6675
   52CHL1    C6 3783   3.961   3.570   7.255  0.6668 -1.1704 -0.1695
   52CHL1    H6 3784   4.046   3.574   7.185  0.1986  0.0554 -0.6960
   52CHL1    C7 3785   3.982   3.601   7.405  0.1557  0.1958  0.3806
   52CHL1   H7A 3786   4.078   3.554   7.436  0.4554 -0.1370 -0.9939
   52CHL1   H7B 3787   3.998   3.709   7.425 -0.7936  0.0611  2.0882
   52CHL1    C8 3788   3.867   3.554   7.502 -0.1879 -0.0879 -0.1879
   52CHL1    H8 3789   3.868   3.443   7.503 -0.5322 -0.0921  1.3701
   52CHL1   C14 3790   3.891   3.611   7.642 -0.2799  0.0774  0.0208
   52CHL1   H14 3791   3.883   3.721   7.627 -2.6311  0.0239  0.5646
   52CHL1   C15 3792   4.037   3.590   7.705  0.6098  1.1358  0.7640
   52CHL1  H15A 3793   4.077   3.493   7.669 -0.4115  1.9121 -2.9244
   52CHL1  H15B 3794   4.097   3.674   7.666  1.2493  1.0519  1.5453
   52CHL1   C16 3795   4.005   3.603   7.852  0.2272 -0.5152  0.0699
   52CHL1  H16A 3796   4.029   3.508   7.904 -1.0984 -1.6259 -1.2650
   52CHL1  H16B 3797   4.069   3.681   7.898 -1.0869  1.5083 -1.3294
   52CHL1   C17 3798   3.858   3.631   7.867  0.0428  0.5564  0.2603
   52CHL1   H17 3799   3.840   3.739   7.852  0.4016  0.5938  0.0740
   52CHL1   C13 3800   3.788   3.572   7.748  0.6695  0.0677  0.4042
   52CHL1   C18 3801   3.805   3.421   7.757  0.6798  0.8950  0.2622
   52CHL1  H18A 3802   3.727   3.383   7.827 -2.2319  1.8048 -2.2643
   52CHL1  H18B 3803   3.780   3.380   7.656  2.3388  0.7174 -0.0953
   52CHL1  H18C 3804   3.905   3.380   7.782 -0.0391 -1.6641 -0.6783
   52CHL1   C12 3805   3.650   3.622   7.696 -0.4396  0.5429 -0.4965
   52CHL1  H12A 3806   3.577   3.578   7.768 -0.7196 -0.1550 -1.1983
   52CHL1  H12B 3807   3.651   3.733   7.700  0.9327  0.5467 -0.5723
   52CHL1   C11 3808   3.612   3.569   7.556  0.5459 -0.1190  0.2050
   52CHL1  H11A 3809   3.579   3.463   7.563 -2.2263  0.4165 -2.5087
   52CHL1  H11B 3810   3.517   3.622   7.534  1.3132  0.2528 -2.6726
   52CHL1    C9 3811   3.727   3.592   7.449 -0.0308  0.9114  0.5942
   52CHL1    H9 3812   3.735   3.703   7.437  1.9417  0.8145  0.6371
   52CHL1   C10 3813   3.711   3.529   7.308  0.3628  0.0989 -0.2616
   52CHL1   C19 3814   3.656   3.384   7.336 -0.4170  0.4718 -0.5286
   52CHL1  H19A 3815   3.551   3.394   7.370  0.0531 -0.3026  1.2307
   52CHL1  H19B 3816   3.638   3.329   7.241  0.9882 -1.9344  0.4991
   52CHL1  H19C 3817   3.698   3.322   7.418 -3.3700 -0.0616  0.6819
   52CHL1    C1 3818   3.599   3.603   7.245  0.3210 -0.0145  0.4984
   52CHL1   H1A 3819   3.507   3.606   7.308  0.0441  0.8575  0.0784
   52CHL1   H1B 3820   3.627   3.710   7.240  0.6985 -0.1583 -2.3571
   52CHL1    C2 3821   3.559   3.557   7.102 -0.0462 -0.3554 -0.2186
   52CHL1   H2A 3822   3.482   3.622   7.056  0.1031 -0.7556 -1.0602
   52CHL1   H2B 3823   3.533   3.449   7.104  1.7690 -0.8182  0.4807
   52CHL1   C20 3824   3.807   3.595   8.003 -0.1581  0.4458 -0.8537
   52CHL1   H20 3825   3.790   3.486   8.011  1.1796  0.1105 -2.2021
   52CHL1   C21 3826   3.672   3.657   8.011 -0.0914  0.6395  0.0362
   52CHL1  H21A 3827   3.663   3.751   7.953  2.5477 -1.3508 -4.0846
   52CHL1  H21B 3828   3.650   3.683   8.117 -0.0628  2.6490 -0.4140
   52CHL1  H21C 3829   3.594   3.586   7.975  0.5740 -1.1489  1.9054
   52CHL1   C22 3830   3.899   3.637   8.125 -0.0198  0.9773 -0.4880
   52CHL1  H22A 3831   3.995   3.581   8.129  0.0710  1.0374 -1.6783
   52CHL1  H22B 3832   3.920   3.746   8.130 -1.7324  1.3022  0.2006
   52CHL1   C23 3833   3.849   3.594   8.265 -0.2773 -0.3119 -0.0612
   52CHL1  H23A 3834   3.746   3.628   8.286 -0.2863  0.3527 -1.0691
   52CHL1  H23B 3835   3.848   3.485   8.282 -2.1322 -0.3483 -0.2185
   52CHL1   C24 3836   3.937   3.652   8.374  0.4242  0.4542 -0.4633
   52CHL1  H24A 3837   4.042   3.627   8.349  1.1327 -0.2084  2.6934
   52CHL1  H24B 3838   3.926   3.762   8.382  0.9089  0.6782 -2.5386
   52CHL1   C25 3839   3.912   3.591   8.515 -0.1548 -0.8111  0.3628
   52CHL1   H25 3840   3.896   3.482   8.502 -2.1426 -0.6215  0.8740
   52CHL1   C26 3841   4.029   3.612   8.616 -0.8014  1.1881 -0.6863
   52CHL1  H26A 3842   4.004   3.558   8.710 -2.1608  0.8759 -1.2115
   52CHL1  H26B 3843   4.130   3.578   8.584 -0.9286 -0.5730  0.5943
   52CHL1  H26C 3844   4.037   3.720   8.638  0.7395  1.1047 -0.7269
   52CHL1   C27 3845   3.785   3.654   8.576 -0.3167  0.4863 -0.0659
   52CHL1  H27A 3846   3.691   3.620   8.525  0.4152 -0.5460 -0.7757
   52CHL1  H27B 3847   3.774   3.603   8.674  1.1916 -1.8521 -1.0290
   52CHL1  H27C 3848   3.791   3.764   8.585 -0.1684  0.4849 -0.1502
   53CHL1    C3 3849   5.911   6.309   7.178  0.3540 -0.3137 -0.1214
   53CHL1    H3 3850   5.881   6.416   7.169 -0.8763 -0.3597  2.5654
   53CHL1    O3 3851   5.889   6.248   7.055 -0.0115  0.5654  0.2259
   53CHL1   H3' 3852   5.951   6.289   6.995 -1.0822  1.3839 -0.3512
   53CHL1    C4 3853   6.056   6.302   7.214  0.4712  0.3337 -0.8343
   53CHL1   H4A 3854   6.086   6.195   7.205 -0.1478  0.0882 -0.0616
   53CHL1   H4B 3855   6.119   6.343   7.132  0.3029 -0.3420 -1.3152
   53CHL1    C5 3856   6.073   6.375   7.349  0.2888 -0.3085 -0.3402
   53CHL1    C6 3857   6.156   6.483   7.356 -0.4996  1.3848  0.1999
   53CHL1    H6 3858   6.220   6.507   7.270 -0.5276  2.4600  0.4699
   53CHL1    C7 3859   6.170   6.568   7.483 -0.3546 -0.6814 -0.3581
   53CHL1   H7A 3860   6.271   6.611   7.502 -0.5119 -0.7506  0.6633
   53CHL1   H7B 3861   6.096   6.649   7.465 -0.0256 -0.1418  0.6312
   53CHL1    C8 3862   6.129   6.482   7.604  0.3579  0.0163 -0.6189
   53CHL1    H8 3863   6.211   6.407   7.613 -0.3840 -0.8050 -0.5904
   53CHL1   C14 3864   6.121   6.568   7.733  0.4150 -0.2813  0.2244
   53CHL1   H14 3865   6.048   6.648   7.709  1.2509  0.3491 -0.2737
   53CHL1   C15 3866   6.241   6.654   7.764  0.0026  0.5637  0.2048
   53CHL1  H15A 3867   6.337   6.599   7.759  0.4719  1.2216  1.3917
   53CHL1  H15B 3868   6.243   6.748   7.706  1.7032  0.0049 -0.7045
   53CHL1   C16 3869   6.229   6.690   7.908 -0.8698  0.3644  0.6325
   53CHL1  H16A 3870   6.317   6.653   7.967  0.9759  0.7054 -1.7609
   53CHL1  H16B 3871   6.221   6.798   7.930 -1.5981  0.1471  1.4663
   53CHL1   C17 3872   6.097   6.622   7.963 -0.4686 -0.8139  0.3459
   53CHL1   H17 3873   6.011   6.687   7.936 -1.1999 -2.2644 -0.9928
   53CHL1   C13 3874   6.082   6.505   7.861  0.4987  0.5984  0.2602
   53CHL1   C18 3875   6.186   6.396   7.899  1.0913 -0.4582 -0.0625
   53CHL1  H18A 3876   6.196   6.312   7.827  1.7807 -2.9345  2.6933
   53CHL1  H18B 3877   6.288   6.439   7.907  1.1297 -0.4934 -0.3427
   53CHL1  H18C 3878   6.155   6.349   7.995 -1.5495 -0.1095 -0.6862
   53CHL1   C12 3879   5.938   6.451   7.833 -0.4963  0.0131  0.3303
   53CHL1  H12A 3880   5.895   6.400   7.922  4.1259 -1.6491  1.9084
   53CHL1  H12B 3881   5.877   6.541   7.811 -0.3558 -0.0593 -0.3853
   53CHL1   C11 3882   5.936   6.352   7.719  0.3520 -0.0442 -0.4731
   53CHL1  H11A 3883   5.979   6.257   7.756  0.0005 -0.2275 -0.5288
   53CHL1  H11B 3884   5.830   6.322   7.702 -0.7003  3.0828 -0.0002
   53CHL1    C9 3885   5.993   6.409   7.589 -0.2549 -0.3661  0.2139
   53CHL1    H9 3886   5.923   6.491   7.563 -1.6838 -1.8016 -0.7104
   53CHL1   C10 3887   5.985   6.322   7.464  0.5092  0.3326 -0.0296
   53CHL1   C19 3888   6.045   6.190   7.511  0.4043 -0.3006  0.1335
   53CHL1  H19A 3889   5.983   6.123   7.575  2.0989 -2.1260 -0.0439
   53CHL1  H19B 3890   6.058   6.119   7.426 -1.3887 -0.9794  0.3799
   53CHL1  H19C 3891   6.142   6.204   7.562 -0.1491 -0.3072  1.2081
   53CHL1    C1 3892   5.835   6.297   7.422 -0.8478 -0.6313  0.2385
   53CHL1   H1A 3893   5.780   6.226   7.488 -1.1054 -0.5975  0.0596
   53CHL1   H1B 3894   5.784   6.394   7.406 -1.6241 -1.2649 -1.2593
   53CHL1    C2 3895   5.818   6.235   7.273 -0.4444  0.6399  0.0376
   53CHL1   H2A 3896   5.710   6.257   7.256 -1.3297 -1.8157  1.8317
   53CHL1   H2B 3897   5.851   6.129   7.271  0.4721  0.9356 -1.0652
   53CHL1   C20 3898   6.102   6.602   8.110 -0.4050 -0.2962 -0.5486
   53CHL1   H20 3899   6.168   6.517   8.137 -0.4915 -0.4390 -0.7832
   53CHL1   C21 3900   5.963   6.572   8.166 -0.0143  0.2840 -0.2392
   53CHL1  H21A 3901   5.895   6.659   8.148 -0.4248  0.3008  1.2720
   53CHL1  H21B 3902   5.964   6.545   8.273 -3.2977 -1.9563 -0.6243
   53CHL1  H21C 3903   5.938   6.479   8.110 -0.1054  1.0318 -1.4869
   53CHL1   C22 3904   6.156   6.729   8.174 -0.1785 -0.0885 -0.5409
   53CHL1  H22A 3905   6.266   6.737   8.156 -0.1212 -0.3287 -0.2963
   53CHL1  H22B 3906   6.105   6.818   8.130 -0.2638 -0.3334 -0.9446
   53CHL1   C23 3907   6.138   6.732   8.326 -0.3546 -0.3266  0.8814
   53CHL1  H23A 3908   6.034   6.739   8.364 -0.0948  0.6165  1.4388
   53CHL1  H23B 3909   6.188   6.638   8.358 -0.6301 -0.5570  0.6508
   53CHL1   C24 3910   6.216   6.848   8.392 -0.1802  0.5071 -0.4642
   53CHL1  H24A 3911   6.325   6.835   8.377 -0.5919 -2.7758 -1.2822
   53CHL1  H24B 3912   6.179   6.944   8.350 -0.3744  0.9068  0.5776
   53CHL1   C25 3913   6.217   6.851   8.548  0.2557 -0.4139  0.2006
   53CHL1   H25 3914   6.121   6.815   8.591  1.7105 -2.1925  2.1695
   53CHL1   C26 3915   6.325   6.751   8.602  0.2025  0.5190  0.1471
   53CHL1  H26A 3916   6.420   6.763   8.546  0.2037 -1.0794 -0.2314
   53CHL1  H26B 3917   6.347   6.759   8.710  0.4716  0.6123  0.0866
   53CHL1  H26C 3918   6.291   6.646   8.593 -0.2587  0.3794  2.8424
   53CHL1   C27 3919   6.238   6.990   8.606 -0.0470  0.3366  0.2751
   53CHL1  H27A 3920   6.301   7.057   8.543 -1.4117  1.2720 -0.1413
   53CHL1  H27B 3921   6.144   7.049   8.605 -0.3299 -0.0763  1.6577
   53CHL1  H27C 3922   6.264   6.984   8.713 -3.0129  0.2117  1.0665
   54CHL1    C3 3923   0.743   1.833   6.917 -0.2790 -0.2824 -0.5849
   54CHL1    H3 3924   0.811   1.751   6.951  0.3464  0.9174  1.1976
   54CHL1    O3 3925   0.732   1.837   6.776  0.4533  0.5829 -0.0935
   54CHL1   H3' 3926   0.672   1.908   6.750 -1.0594 -0.3091  0.8233
   54CHL1    C4 3927   0.605   1.799   6.984 -0.7238  0.7539  0.8115
   54CHL1   H4A 3928   0.532   1.873   6.947 -0.9225  0.8041  1.2926
   54CHL1   H4B 3929   0.578   1.701   6.939 -3.4149  2.8373 -2.5262
   54CHL1    C5 3930   0.603   1.797   7.132  0.2586 -0.2593 -0.7036
   54CHL1    C6 3931   0.563   1.691   7.196 -0.1975 -0.3942  0.0190
   54CHL1    H6 3932   0.537   1.601   7.139  2.1399 -0.2127 -1.4616
   54CHL1    C7 3933   0.559   1.681   7.352 -0.1229 -0.0895  0.0253
   54CHL1   H7A 3934   0.468   1.632   7.392  1.8126 -3.3135  0.8227
   54CHL1   H7B 3935   0.644   1.623   7.393  1.5278  1.7230 -0.6680
   54CHL1    C8 3936   0.570   1.829   7.411  0.4618  0.3078  0.0166
   54CHL1    H8 3937   0.470   1.876   7.397 -2.1766 -3.6849  3.1087
   54CHL1   C14 3938   0.606   1.821   7.564 -0.2086 -0.2033  0.7519
   54CHL1   H14 3939   0.712   1.787   7.570  1.0516  3.2315  0.4568
   54CHL1   C15 3940   0.528   1.726   7.657 -0.1046 -0.5002 -0.1808
   54CHL1  H15A 3941   0.418   1.721   7.639 -0.2062  0.4034  0.1680
   54CHL1  H15B 3942   0.580   1.628   7.664  1.1800  0.1384 -0.4761
   54CHL1   C16 3943   0.551   1.794   7.787 -0.9234  0.2631  0.1186
   54CHL1  H16A 3944   0.458   1.825   7.839  1.1051  3.5297  2.1439
   54CHL1  H16B 3945   0.607   1.729   7.857  1.3721  1.2488 -0.7096
   54CHL1   C17 3946   0.620   1.929   7.780 -0.0410  0.1851  0.5544
   54CHL1   H17 3947   0.730   1.916   7.791  0.6417  1.9021 -2.9569
   54CHL1   C13 3948   0.603   1.960   7.623 -0.5308 -0.0887 -0.3696
   54CHL1   C18 3949   0.466   2.029   7.599  0.0325 -0.2408  0.2465
   54CHL1  H18A 3950   0.381   1.964   7.632  0.4817 -0.6660  0.5885
   54CHL1  H18B 3951   0.466   2.118   7.665 -1.7008 -0.5502  0.7236
   54CHL1  H18C 3952   0.453   2.071   7.497 -2.6067  4.1154  2.1305
   54CHL1   C12 3953   0.722   2.045   7.566  0.7758 -0.3821  0.2083
   54CHL1  H12A 3954   0.729   2.147   7.608 -0.3149 -0.3090  0.2358
   54CHL1  H12B 3955   0.817   1.993   7.590  0.7948 -0.2679  0.3797
   54CHL1   C11 3956   0.713   2.048   7.409 -0.2895 -0.2403 -0.7055
   54CHL1  H11A 3957   0.640   2.129   7.385  0.2138 -0.1488 -1.9682
   54CHL1  H11B 3958   0.814   2.082   7.380 -0.5400  0.3542 -0.9113
   54CHL1    C9 3959   0.680   1.910   7.338 -0.5911 -0.1493 -0.0945
   54CHL1    H9 3960   0.769   1.845   7.351 -0.1093  0.2881 -1.1328
   54CHL1   C10 3961   0.658   1.927   7.190  0.1624 -0.7257  0.1656
   54CHL1   C19 3962   0.554   2.030   7.155  0.2772 -0.0553 -0.2884
   54CHL1  H19A 3963   0.536   2.041   7.046  0.0844  1.7651 -0.1000
   54CHL1  H19B 3964   0.449   2.017   7.189  0.3932  0.7137  0.4178
   54CHL1  H19C 3965   0.586   2.130   7.193 -1.6255  0.4078  0.2094
   54CHL1    C1 3966   0.796   1.973   7.127 -0.2920  0.2443  0.2619
   54CHL1   H1A 3967   0.827   2.075   7.161  0.5037 -0.4794  1.8619
   54CHL1   H1B 3968   0.873   1.896   7.152 -0.3641 -0.1920 -0.8167
   54CHL1    C2 3969   0.795   1.968   6.969 -0.3768 -0.3710  0.0950
   54CHL1   H2A 3970   0.899   1.983   6.934 -0.1537 -0.6282  0.6314
   54CHL1   H2B 3971   0.729   2.048   6.929 -0.4067 -0.2447  0.3987
   54CHL1   C20 3972   0.573   2.033   7.885 -0.1133 -0.2591 -0.3834
   54CHL1   H20 3973   0.463   2.044   7.873 -0.1529  0.0141  0.1875
   54CHL1   C21 3974   0.637   2.176   7.873 -0.1888  0.2219  0.1230
   54CHL1  H21A 3975   0.600   2.215   7.776 -1.8699  0.0890  0.6747
   54CHL1  H21B 3976   0.748   2.173   7.883 -0.2103 -0.1559  0.2724
   54CHL1  H21C 3977   0.608   2.249   7.952  1.5784  1.6631 -0.4819
   54CHL1   C22 3978   0.592   1.978   8.031  0.7187 -0.9882 -0.8309
   54CHL1  H22A 3979   0.556   1.873   8.019 -1.1484 -0.3652 -0.8954
   54CHL1  H22B 3980   0.701   1.976   8.054  0.3692 -1.0759  0.9532
   54CHL1   C23 3981   0.519   2.053   8.150 -0.7006  0.1295  0.0066
   54CHL1  H23A 3982   0.555   2.158   8.144 -0.3731  0.0617  0.7589
   54CHL1  H23B 3983   0.413   2.053   8.117 -0.4741 -0.0259 -0.7552
   54CHL1   C24 3984   0.560   1.995   8.283 -0.2138  0.0692  0.5484
   54CHL1  H24A 3985   0.549   1.885   8.296  0.9353 -0.1877 -0.4219
   54CHL1  H24B 3986   0.670   2.011   8.289 -0.6877  3.4837  2.7638
   54CHL1   C25 3987   0.514   2.065   8.413  0.5051 -0.0265 -0.4242
   54CHL1   H25 3988   0.403   2.071   8.410  0.5744  2.9889 -0.3939
   54CHL1   C26 3989   0.543   1.970   8.532 -0.6120 -0.7716 -0.4810
   54CHL1  H26A 3990   0.460   1.895   8.536  0.4942 -1.9625  1.3742
   54CHL1  H26B 3991   0.644   1.925   8.536 -1.3600 -2.7413 -1.8946
   54CHL1  H26C 3992   0.532   2.031   8.624 -2.5833 -0.0787 -1.1178
   54CHL1   C27 3993   0.557   2.213   8.422  0.3168  0.3853 -0.3868
   54CHL1  H27A 3994   0.524   2.267   8.330  2.4508  0.5879 -1.0760
   54CHL1  H27B 3995   0.518   2.245   8.521  0.9720 -0.3027  0.0953
   54CHL1  H27C 3996   0.667   2.222   8.435  0.2658 -0.5202  0.8110
   55CHL1    C3 3997   5.828   2.552   6.977  0.6767 -0.2253 -0.1306
   55CHL1    H3 3998   5.724   2.547   7.017  0.7794 -1.0480  0.0589
   55CHL1    O3 3999   5.821   2.614   6.850 -0.3137  0.0033 -0.3154
   55CHL1   H3' 4000   5.911   2.610   6.816 -0.1315  1.8974 -0.1554
   55CHL1    C4 4001   5.918   2.647   7.062  0.0889 -0.0422 -0.3377
   55CHL1   H4A 4002   6.015   2.653   7.008 -2.1350  2.4457 -4.6900
   55CHL1   H4B 4003   5.868   2.747   7.064 -1.8629 -0.9102 -1.7205
   55CHL1    C5 4004   5.919   2.581   7.200  0.2785  0.4416  0.0210
   55CHL1    C6 4005   5.863   2.653   7.300 -0.4710 -0.0302  0.2956
   55CHL1    H6 4006   5.826   2.755   7.282 -1.3258 -0.4328 -0.2443
   55CHL1    C7 4007   5.857   2.604   7.444 -0.4282 -0.1494 -0.9250
   55CHL1   H7A 4008   5.883   2.687   7.513 -2.4550  0.4550 -0.8422
   55CHL1   H7B 4009   5.752   2.572   7.458 -0.4353  0.7329  1.3356
   55CHL1    C8 4010   5.941   2.475   7.465  0.2777 -0.2009 -0.0605
   55CHL1    H8 4011   6.046   2.512   7.466 -0.7601  3.0011 -0.4536
   55CHL1   C14 4012   5.899   2.406   7.596  0.2003 -0.6041 -0.4026
   55CHL1   H14 4013   5.797   2.369   7.571 -0.2825  0.3570  0.0836
   55CHL1   C15 4014   5.864   2.497   7.723  0.3995 -0.3711  0.2790
   55CHL1  H15A 4015   5.954   2.556   7.754  0.2234  0.7871 -1.3284
   55CHL1  H15B 4016   5.770   2.555   7.721 -0.7878 -2.2433 -0.7190
   55CHL1   C16 4017   5.848   2.388   7.838 -0.2421 -0.3880  0.6247
   55CHL1  H16A 4018   5.905   2.424   7.927  0.0796 -0.4271  0.4346
   55CHL1  H16B 4019   5.741   2.375   7.866 -0.4124  0.6386  0.5159
   55CHL1   C17 4020   5.903   2.252   7.776  0.2440 -0.0289  0.3578
   55CHL1   H17 4021   5.810   2.200   7.745 -0.8697  2.4150 -0.6774
   55CHL1   C13 4022   5.982   2.290   7.649 -0.4699  0.4260  0.2339
   55CHL1   C18 4023   6.134   2.324   7.681 -0.0626  0.3623  0.6842
   55CHL1  H18A 4024   6.191   2.235   7.715  1.1213  1.5252  1.9013
   55CHL1  H18B 4025   6.195   2.366   7.599  1.5136 -1.1152  1.0367
   55CHL1  H18C 4026   6.139   2.385   7.774 -2.6268 -2.3926  2.8159
   55CHL1   C12 4027   5.972   2.189   7.525 -0.3247 -0.0340 -0.9351
   55CHL1  H12A 4028   6.040   2.102   7.540  0.1102  0.0734 -2.1725
   55CHL1  H12B 4029   5.869   2.148   7.534  0.3709 -1.3371  3.2800
   55CHL1   C11 4030   6.024   2.251   7.394 -0.1133 -0.0839 -0.6786
   55CHL1  H11A 4031   6.126   2.291   7.408 -1.0685  1.8194  1.7540
   55CHL1  H11B 4032   6.017   2.174   7.314 -1.3980 -2.3791  1.4998
   55CHL1    C9 4033   5.933   2.375   7.349 -0.4509 -0.2443 -0.3887
   55CHL1    H9 4034   5.833   2.328   7.343 -0.2020 -0.9131  0.5149
   55CHL1   C10 4035   5.963   2.433   7.206  0.2110 -0.2797 -0.0559
   55CHL1   C19 4036   6.117   2.437   7.183  0.4993  0.6791 -0.2789
   55CHL1  H19A 4037   6.150   2.331   7.184 -2.9862 -0.5541 -1.3626
   55CHL1  H19B 4038   6.146   2.479   7.084  0.7620 -1.1715 -1.0333
   55CHL1  H19C 4039   6.162   2.489   7.270  1.1229 -1.4148  0.7162
   55CHL1    C1 4040   5.890   2.349   7.102  0.2960  0.2021  0.3083
   55CHL1   H1A 4041   5.921   2.242   7.097  1.8600  0.5974  0.9521
   55CHL1   H1B 4042   5.785   2.349   7.138 -0.5241  0.6635 -1.9458
   55CHL1    C2 4043   5.888   2.412   6.966  0.2467  1.4466  0.5186
   55CHL1   H2A 4044   5.828   2.356   6.891 -0.5453  3.5530 -0.4883
   55CHL1   H2B 4045   5.987   2.424   6.918 -1.0248  0.4465 -2.6091
   55CHL1   C20 4046   5.973   2.159   7.876 -0.3267  0.4908  0.5411
   55CHL1   H20 4047   6.070   2.200   7.912  1.0120 -1.3150 -0.7900
   55CHL1   C21 4048   6.016   2.030   7.794  0.3915 -0.0423 -0.8473
   55CHL1  H21A 4049   6.106   2.048   7.732  0.5944  1.2770 -0.2121
   55CHL1  H21B 4050   5.924   2.003   7.739 -1.1621  0.4805  1.3276
   55CHL1  H21C 4051   6.039   1.960   7.877  1.0451  1.9499  0.7332
   55CHL1   C22 4052   5.879   2.106   7.989 -0.1839 -0.6259 -0.8238
   55CHL1  H22A 4053   5.796   2.179   8.004  0.3852  0.0766 -1.0335
   55CHL1  H22B 4054   5.835   2.015   7.943 -2.5171 -0.1742  0.3819
   55CHL1   C23 4055   5.940   2.084   8.127  0.4554 -0.4596  0.6213
   55CHL1  H23A 4056   6.039   2.042   8.101  0.2894 -1.3953  1.4362
   55CHL1  H23B 4057   5.961   2.183   8.173  2.9988  0.1955 -1.6766
   55CHL1   C24 4058   5.859   1.996   8.216 -0.3922  0.0158  0.0483
   55CHL1  H24A 4059   5.770   2.058   8.238 -0.1280 -0.0833  1.4659
   55CHL1  H24B 4060   5.844   1.896   8.169  1.0649  0.4162 -1.3423
   55CHL1   C25 4061   5.908   1.979   8.359  0.6332 -0.0989  0.0914
   55CHL1   H25 4062   5.932   2.080   8.400 -1.8606 -1.1622  4.8694
   55CHL1   C26 4063   5.814   1.900   8.451 -0.1347 -0.2363  0.7687
   55CHL1  H26A 4064   5.853   1.893   8.555 -0.2062 -1.6417  0.7286
   55CHL1  H26B 4065   5.715   1.949   8.447  0.5316  1.0959 -0.1308
   55CHL1  H26C 4066   5.821   1.793   8.422  0.5555  0.0493 -0.1811
   55CHL1   C27 4067   6.038   1.903   8.358 -0.7114 -0.1794  0.1449
   55CHL1  H27A 4068   6.080   1.894   8.460 -1.2551  0.5077  0.4437
   55CHL1  H27B 4069   6.015   1.801   8.322 -2.6593  0.4566 -0.5660
   55CHL1  H27C 4070   6.119   1.944   8.293  1.3857 -0.5143  2.4039
   56CHL1    C3 4071   5.958   0.977   7.024 -0.1853 -0.3616 -0.0284
   56CHL1    H3 4072   6.006   0.882   7.054 -0.3737 -0.8631 -1.2450
   56CHL1    O3 4073   5.950   0.990   6.885 -0.1367 -0.4719  0.2255
   56CHL1   H3' 4074   5.900   0.917   6.848 -1.4597  0.9440 -0.9083
   56CHL1    C4 4075   5.817   0.975   7.064  0.7236 -0.2447 -0.0548
   56CHL1   H4A 4076   5.767   1.062   7.017  0.1956 -0.1096  0.7254
   56CHL1   H4B 4077   5.768   0.879   7.036 -1.4641  0.1336  2.1153
   56CHL1    C5 4078   5.814   0.988   7.214 -0.2362 -0.6246 -0.1847
   56CHL1    C6 4079   5.756   0.898   7.295 -0.6693 -0.8628 -0.5466
   56CHL1    H6 4080   5.714   0.805   7.256  0.1804 -1.8684  0.8098
   56CHL1    C7 4081   5.734   0.903   7.444  0.4681  0.1463  0.2127
   56CHL1   H7A 4082   5.632   0.864   7.467  0.6427  1.1762  3.1301
   56CHL1   H7B 4083   5.796   0.833   7.505  0.3082  1.3309  1.7850
   56CHL1    C8 4084   5.756   1.041   7.496 -0.2520 -0.6615  0.4926
   56CHL1    H8 4085   5.670   1.096   7.453  0.5732  1.4349  1.3678
   56CHL1   C14 4086   5.753   1.048   7.647  0.2239  0.5033 -0.2051
   56CHL1   H14 4087   5.853   1.003   7.662 -0.6165 -1.8818 -1.2219
   56CHL1   C15 4088   5.660   0.949   7.728  0.9092  0.0553  0.8980
   56CHL1  H15A 4089   5.559   0.970   7.688  0.9550 -0.5459  0.4452
   56CHL1  H15B 4090   5.696   0.846   7.705  0.1412  0.1718 -0.9835
   56CHL1   C16 4091   5.685   0.999   7.865 -0.1410  0.2070 -0.5002
   56CHL1  H16A 4092   5.589   1.006   7.920 -0.6472  0.5949 -1.4098
   56CHL1  H16B 4093   5.755   0.938   7.925  0.2767  1.4412  0.2923
   56CHL1   C17 4094   5.748   1.141   7.858  0.8852  0.7095  0.6521
   56CHL1   H17 4095   5.852   1.123   7.893 -0.0571 -0.9910  2.8325
   56CHL1   C13 4096   5.756   1.188   7.710 -0.0979 -0.1006  0.4716
   56CHL1   C18 4097   5.624   1.261   7.676 -0.5690  0.5829 -0.6848
   56CHL1  H18A 4098   5.629   1.370   7.696  0.6354  0.2047  1.4432
   56CHL1  H18B 4099   5.606   1.256   7.567  1.5947  1.1474 -1.1140
   56CHL1  H18C 4100   5.539   1.231   7.741 -0.2399 -0.7293 -0.8211
   56CHL1   C12 4101   5.887   1.257   7.651  0.3422  0.5825 -0.2010
   56CHL1  H12A 4102   5.883   1.364   7.679 -1.1922  0.0801  1.6992
   56CHL1  H12B 4103   5.974   1.217   7.708  0.8275  1.3745 -0.3683
   56CHL1   C11 4104   5.899   1.244   7.498 -0.0617 -0.2075 -0.4793
   56CHL1  H11A 4105   5.820   1.316   7.468 -0.1716 -0.9054 -1.9368
   56CHL1  H11B 4106   6.000   1.288   7.482 -0.2209  1.2035  1.8219
   56CHL1    C9 4107   5.882   1.112   7.435  0.3108 -0.0417  0.4951
   56CHL1    H9 4108   5.966   1.045   7.463 -0.6937 -0.5159  2.6427
   56CHL1   C10 4109   5.874   1.108   7.283  0.4580  0.2608 -0.7161
   56CHL1   C19 4110   5.799   1.229   7.233 -0.6621 -0.0236  0.7335
   56CHL1  H19A 4111   5.775   1.229   7.124  1.6394 -1.8567  0.1312
   56CHL1  H19B 4112   5.702   1.229   7.286 -0.7535 -1.8148  0.6367
   56CHL1  H19C 4113   5.854   1.324   7.249  0.3349 -0.9162  2.9627
   56CHL1    C1 4114   6.025   1.104   7.235 -0.4435 -0.1039  0.2994
   56CHL1   H1A 4115   6.071   1.199   7.268  0.6968 -0.1347 -1.1048
   56CHL1   H1B 4116   6.064   1.007   7.274 -0.4191 -0.4212 -0.4932
   56CHL1    C2 4117   6.035   1.093   7.083  0.0351  0.0487 -1.1196
   56CHL1   H2A 4118   6.143   1.094   7.057  0.6033  0.8093  0.9922
   56CHL1   H2B 4119   5.991   1.184   7.037  1.6158  0.5792 -1.6670
   56CHL1   C20 4120   5.693   1.243   7.955 -0.3281 -0.0523  0.0643
   56CHL1   H20 4121   5.607   1.303   7.919  0.2228  0.9089  0.3064
   56CHL1   C21 4122   5.801   1.355   7.972  0.1288 -0.0917 -0.5660
   56CHL1  H21A 4123   5.748   1.441   8.019 -0.1580 -0.4481 -0.2365
   56CHL1  H21B 4124   5.838   1.388   7.873 -0.6260  1.2717 -0.4327
   56CHL1  H21C 4125   5.889   1.326   8.034  1.0877 -0.7486 -2.1949
   56CHL1   C22 4126   5.667   1.184   8.092 -0.6443  0.2730 -0.0402
   56CHL1  H22A 4127   5.573   1.126   8.084 -0.1229 -0.3592 -2.0533
   56CHL1  H22B 4128   5.750   1.116   8.122 -1.9481 -1.3577  0.0195
   56CHL1   C23 4129   5.648   1.284   8.204 -0.1668 -0.7155  0.1171
   56CHL1  H23A 4130   5.744   1.333   8.232  0.4019 -1.7563  0.0521
   56CHL1  H23B 4131   5.578   1.359   8.162  3.1784  2.1167 -0.8943
   56CHL1   C24 4132   5.607   1.215   8.336  0.1240  0.6536 -0.1652
   56CHL1  H24A 4133   5.514   1.153   8.331 -0.1463  1.1223 -1.3335
   56CHL1  H24B 4134   5.674   1.132   8.366 -2.3712 -0.6667  2.2756
   56CHL1   C25 4135   5.597   1.309   8.457  0.3425  0.1501  0.1485
   56CHL1   H25 4136   5.522   1.390   8.442  1.2536  0.7918 -1.1321
   56CHL1   C26 4137   5.561   1.230   8.584  0.3077  0.0741  0.0991
   56CHL1  H26A 4138   5.652   1.178   8.619 -0.1352 -1.2507 -0.6520
   56CHL1  H26B 4139   5.485   1.149   8.588  0.1389  0.2645  2.9139
   56CHL1  H26C 4140   5.546   1.290   8.676 -0.4678 -0.3850  0.2872
   56CHL1   C27 4141   5.728   1.378   8.500 -0.3501  0.4101  0.5252
   56CHL1  H27A 4142   5.796   1.300   8.540 -1.9736 -0.8034  1.0261
   56CHL1  H27B 4143   5.763   1.426   8.406 -0.8941  0.3193  0.2733
   56CHL1  H27C 4144   5.699   1.451   8.578 -1.4122  0.4889  0.0742
   57SAPC     N 4145   5.200   5.243  10.643 -0.1668 -0.9586 -0.4053
   57SAPC   C12 4146   5.327   5.289  10.552 -0.1472 -0.0529 -0.8859
   57SAPC  H12A 4147   5.405   5.310  10.624 -0.6098 -2.1196  0.2875
   57SAPC  H12B 4148   5.303   5.382  10.502  0.6602  0.2679 -0.6959
   57SAPC   C13 4149   5.081   5.205  10.558 -0.0698 -0.6755  0.1191
   57SAPC  H13A 4150   5.099   5.107  10.516 -0.3321 -0.4609 -0.4987
   57SAPC  H13B 4151   4.989   5.194  10.613 -0.0235 -0.6615  0.1996
   57SAPC  H13C 4152   5.075   5.272  10.474 -1.1017 -1.7662 -0.7036
   57SAPC   C14 4153   5.234   5.122  10.724 -0.8800 -0.3958  0.7667
   57SAPC  H14A 4154   5.284   5.048  10.663  0.1709  0.0752  1.0415
   57SAPC  H14B 4155   5.312   5.153  10.791  0.3642  0.0548 -0.8153
   57SAPC  H14C 4156   5.147   5.082  10.775  0.2688 -2.4576  1.1890
   57SAPC   C15 4157   5.166   5.356  10.733 -0.4232 -0.6874  0.0231
   57SAPC  H15A 4158   5.249   5.375  10.799 -0.5674  0.2445 -0.0589
   57SAPC  H15B 4159   5.161   5.448  10.677  4.2404  1.0490  1.9926
   57SAPC  H15C 4160   5.074   5.339  10.788  0.2961 -1.2812  1.0782
   57SAPC   C11 4161   5.389   5.184  10.459 -0.2863  0.3821 -0.6073
   57SAPC  H11A 4162   5.451   5.250  10.394  1.6103  0.0812  0.8132
   57SAPC  H11B 4163   5.313   5.137  10.394 -0.0369  1.4455 -1.7029
   57SAPC     P 4164   5.508   4.962  10.463 -0.4010 -0.0463  0.1976
   57SAPC   O13 4165   5.630   4.933  10.527 -0.1474  0.5665 -0.1882
   57SAPC   O14 4166   5.396   4.865  10.468  0.0648  0.5704 -0.1079
   57SAPC   O12 4167   5.461   5.094  10.533 -0.3794 -0.1602  0.4206
   57SAPC   O11 4168   5.527   5.011  10.310 -0.2936 -0.1695 -0.7089
   57SAPC    C1 4169   5.656   5.062  10.279 -0.6141 -0.2635  0.5490
   57SAPC    HA 4170   5.689   5.140  10.351 -1.7218  1.3030 -0.5913
   57SAPC    HB 4171   5.736   4.985  10.274 -0.1782  0.1413  1.2000
   57SAPC    C2 4172   5.644   5.114  10.132 -0.2984 -0.3573  0.8265
   57SAPC    HS 4173   5.553   5.177  10.126 -0.1139 -0.1220  0.5056
   57SAPC   O21 4174   5.630   5.000  10.043 -0.4545 -0.2842 -0.2943
   57SAPC   C21 4175   5.536   5.020   9.950  0.2307 -0.6962  0.1290
   57SAPC   O22 4176   5.497   5.131   9.913  0.0711  0.6323 -0.1931
   57SAPC   C22 4177   5.484   4.885   9.894 -0.2772 -0.5168  0.6749
   57SAPC   H2R 4178   5.467   4.897   9.785 -1.8263  2.3629  1.1187
   57SAPC   H2S 4179   5.568   4.813   9.905 -0.1021 -0.6266 -1.1615
   57SAPC    C3 4180   5.766   5.196  10.090  0.5759 -0.1563 -0.2517
   57SAPC    HX 4181   5.856   5.139  10.121  1.6170  1.1097 -0.8684
   57SAPC    HY 4182   5.779   5.284  10.156 -1.5872  0.1031 -0.1184
   57SAPC   O31 4183   5.772   5.228   9.943 -0.2565  0.9042 -0.8422
   57SAPC   C31 4184   5.707   5.335   9.920  0.4282 -0.0095 -0.2524
   57SAPC   O32 4185   5.667   5.416  10.004  0.4500  0.3143  0.0720
   57SAPC   C32 4186   5.688   5.350   9.776 -0.3642 -0.1594  0.0608
   57SAPC   H2X 4187   5.590   5.315   9.738 -0.6139  0.6952 -0.1101
   57SAPC   H2Y 4188   5.771   5.297   9.726 -0.2305 -2.3976  2.4258
   57SAPC   C23 4189   5.355   4.841   9.959 -0.0407 -0.5550  0.4433
   57SAPC   H3R 4190   5.281   4.923   9.948  0.6158  0.1873  1.4235
   57SAPC   H3S 4191   5.375   4.822  10.067  1.0875 -2.0248  0.0069
   57SAPC   C24 4192   5.297   4.717   9.904  0.0921 -0.5381  0.3499
   57SAPC   H4R 4193   5.271   4.734   9.798  1.1777 -0.5448  0.0673
   57SAPC   H4S 4194   5.197   4.688   9.943  0.1586  0.2658  1.1667
   57SAPC   C25 4195   5.393   4.597   9.907 -1.4041 -0.7913  0.2831
   57SAPC   H5R 4196   5.441   4.587  10.005  0.9519  1.0292 -0.5747
   57SAPC   C26 4197   5.448   4.535   9.798  0.0410  0.2945 -0.1006
   57SAPC   H6R 4198   5.512   4.448   9.818 -1.6283 -0.5912  1.6786
   57SAPC   C27 4199   5.417   4.550   9.649 -0.9906  0.1142 -0.2838
   57SAPC   H7R 4200   5.313   4.583   9.631 -0.6911  1.2531 -0.0125
   57SAPC   H7S 4201   5.422   4.446   9.610  1.7737  1.2100 -3.2889
   57SAPC   C28 4202   5.512   4.641   9.573  0.5654 -0.1644  0.1260
   57SAPC   H8R 4203   5.617   4.626   9.602  1.6243  2.2760 -2.0576
   57SAPC   C29 4204   5.473   4.726   9.482 -0.2362  0.3053  0.1380
   57SAPC   H9R 4205   5.551   4.780   9.427 -0.1706 -0.0374 -0.1024
   57SAPC  C210 4206   5.329   4.750   9.431 -0.5365  0.1217 -1.1357
   57SAPC  H10R 4207   5.312   4.848   9.382  0.9046  0.2469 -1.4376
   57SAPC  H10S 4208   5.263   4.746   9.520 -0.8920 -0.7478 -1.4172
   57SAPC  C211 4209   5.276   4.644   9.338 -0.3869 -0.4997  0.2594
   57SAPC  H11R 4210   5.300   4.543   9.374  0.3127  0.6498  3.3143
   57SAPC  C212 4211   5.210   4.669   9.225  0.2618 -0.0205  0.7518
   57SAPC  H12R 4212   5.161   4.581   9.181  0.0592 -0.4224  1.7576
   57SAPC  C213 4213   5.165   4.794   9.146  0.4706  0.4878 -0.6480
   57SAPC  H13R 4214   5.089   4.844   9.210  1.3720 -0.7598  1.4914
   57SAPC  H13S 4215   5.104   4.764   9.057 -0.4966  0.0993  0.1215
   57SAPC  C214 4216   5.269   4.895   9.091 -0.2019 -0.0003 -0.6222
   57SAPC  H14R 4217   5.370   4.853   9.087  0.4804  1.2655  1.8649
   57SAPC  C215 4218   5.247   5.027   9.064  0.1006 -0.0384 -0.2748
   57SAPC  H15R 4219   5.335   5.077   9.021  0.5538  0.0517  0.7098
   57SAPC  C216 4220   5.117   5.099   9.088 -0.5574  0.2083  0.2776
   57SAPC  H16R 4221   5.136   5.176   9.165 -0.0134 -0.5236  0.8944
   57SAPC  H16S 4222   5.038   5.023   9.105  1.3045 -3.0244 -3.6382
   57SAPC  C217 4223   5.069   5.154   8.958  0.6099 -0.0002 -0.2437
   57SAPC  H17R 4224   5.146   5.206   8.897 -0.2996 -0.7326 -2.0872
   57SAPC  H17S 4225   4.983   5.222   8.978 -0.0407 -0.5667 -1.0881
   57SAPC  C218 4226   5.011   5.046   8.861 -0.3802 -0.4958 -0.9857
   57SAPC  H18R 4227   5.092   4.972   8.845  2.4947  2.7842 -3.4062
   57SAPC  H18S 4228   4.999   5.096   8.762 -1.5454 -1.7254 -1.4842
   57SAPC  C219 4229   4.873   4.965   8.896  0.1136  0.0859 -0.2989
   57SAPC  H19R 4230   4.867   4.934   9.003 -0.2306 -3.4593 -1.2035
   57SAPC  H19S 4231   4.871   4.872   8.835  0.4170 -0.2880  0.2499
   57SAPC  C220 4232   4.748   5.041   8.861 -0.5998 -0.3560 -0.0421
   57SAPC  H20R 4233   4.723   5.039   8.753 -0.0711 -0.1032 -0.1762
   57SAPC  H20S 4234   4.762   5.149   8.884  1.4045 -0.4787 -0.4436
   57SAPC  H20T 4235   4.655   5.014   8.916  0.6683 -0.7021  2.0568
   57SAPC   C33 4236   5.687   5.507   9.728  0.1832  0.4452 -0.2067
   57SAPC   H3X 4237   5.776   5.568   9.753 -0.6251  1.8598 -0.6327
   57SAPC   H3Y 4238   5.601   5.554   9.780 -0.4255  0.0063 -0.7875
   57SAPC   C34 4239   5.662   5.518   9.577 -0.1940 -0.5360 -0.0134
   57SAPC   H4X 4240   5.561   5.481   9.548 -0.1884  0.9745 -2.2386
   57SAPC   H4Y 4241   5.744   5.468   9.520  1.5176  2.0659  0.0041
   57SAPC   C35 4242   5.675   5.665   9.524  0.1918  0.2628  0.6031
   57SAPC   H5X 4243   5.771   5.705   9.562 -0.1493  0.7023  1.0159
   57SAPC   H5Y 4244   5.591   5.728   9.560 -1.2981 -0.6414 -1.1586
   57SAPC   C36 4245   5.658   5.667   9.372 -0.1072  0.2252 -0.7836
   57SAPC   H6X 4246   5.600   5.581   9.332  0.6064 -0.5682 -0.1502
   57SAPC   H6Y 4247   5.758   5.660   9.325  0.5293  0.1545  0.5390
   57SAPC   C37 4248   5.599   5.796   9.311 -0.1920 -0.5129  0.3647
   57SAPC   H7X 4249   5.651   5.888   9.345  0.4834 -0.7054 -0.1328
   57SAPC   H7Y 4250   5.496   5.810   9.349  0.7695 -0.2244  3.0946
   57SAPC   C38 4251   5.598   5.787   9.157  0.1656 -0.4213 -0.4404
   57SAPC   H8X 4252   5.560   5.885   9.121  0.2737 -0.1176  0.2525
   57SAPC   H8Y 4253   5.521   5.712   9.132 -1.4932  0.7752  0.8530
   57SAPC   C39 4254   5.740   5.764   9.098 -0.2794  0.2508  0.0490
   57SAPC   H9X 4255   5.771   5.661   9.123  0.8042  0.1278 -1.6171
   57SAPC   H9Y 4256   5.812   5.836   9.142 -0.7162 -1.0889  3.2427
   57SAPC  C310 4257   5.743   5.763   8.948  0.1833  0.3543  0.1051
   57SAPC  H10X 4258   5.649   5.815   8.916 -0.7881 -0.2914  1.7792
   57SAPC  H10Y 4259   5.743   5.658   8.911  0.8695 -0.4244  2.2008
   57SAPC  C311 4260   5.858   5.843   8.892 -0.7739 -0.0121  0.5910
   57SAPC  H11X 4261   5.963   5.825   8.925 -0.2467  0.1543 -0.9174
   57SAPC  H11Y 4262   5.839   5.949   8.918  0.3638  0.0595  1.2259
   57SAPC  C312 4263   5.879   5.820   8.740  0.2181 -0.6604 -0.1703
   57SAPC  H12X 4264   5.871   5.711   8.720  1.5193 -0.5024 -1.8165
   57SAPC  H12Y 4265   5.979   5.849   8.702 -0.0000 -1.1905 -1.2022
   57SAPC  C313 4266   5.780   5.901   8.649  0.6497  0.7146  0.4278
   57SAPC  H13X 4267   5.670   5.889   8.662  0.4213  3.6552  2.0367
   57SAPC  H13Y 4268   5.811   5.870   8.547  0.1329  1.4773  0.0310
   57SAPC  C314 4269   5.799   6.045   8.678  0.5312  0.5264  0.2938
   57SAPC  H14X 4270   5.906   6.073   8.667  0.6366 -0.3553 -1.2826
   57SAPC  H14Y 4271   5.772   6.082   8.779  0.0665  1.5592 -0.1988
   57SAPC  C315 4272   5.723   6.137   8.584  0.1157 -0.9614  0.5526
   57SAPC  H15X 4273   5.744   6.128   8.475 -2.0543  0.5004 -0.0420
   57SAPC  H15Y 4274   5.769   6.236   8.608 -0.2337 -0.4101 -0.9619
   57SAPC  C316 4275   5.569   6.139   8.587  0.3598  0.2395  0.2045
   57SAPC  H16X 4276   5.548   6.030   8.578 -0.3205  0.3308  0.6162
   57SAPC  H16Y 4277   5.528   6.192   8.498  2.8042  2.1772  0.1143
   57SAPC  C317 4278   5.520   6.195   8.723  0.2511  0.2836  0.5170
   57SAPC  H17X 4279   5.578   6.280   8.764  1.9319 -1.1796  1.2846
   57SAPC  H17Y 4280   5.532   6.116   8.800  1.6077 -1.1917 -1.0904
   57SAPC  C318 4281   5.375   6.246   8.706  0.4796 -0.0489 -0.6557
   57SAPC  H18X 4282   5.362   6.327   8.631 -4.0998 -0.0209 -0.1191
   57SAPC  H18Y 4283   5.338   6.281   8.805  0.8487 -2.8425  0.5693
   57SAPC  H18Z 4284   5.319   6.155   8.676  0.9075 -0.0341 -1.5211
   58SAPC     N 4285   5.110   2.957  10.793  0.8327  0.6088  0.0167
   58SAPC   C12 4286   5.231   2.960  10.705 -0.2095  0.3292 -0.2195
   58SAPC  H12A 4287   5.253   3.063  10.678 -0.5594  0.6584  0.7114
   58SAPC  H12B 4288   5.215   2.918  10.607 -2.5231  1.7248 -0.5083
   58SAPC   C13 4289   5.138   3.043  10.910  0.5094 -0.3550 -0.9181
   58SAPC  H13A 4290   5.186   3.138  10.888  1.3304 -0.3534  0.7172
   58SAPC  H13B 4291   5.052   3.058  10.974  1.3489 -0.1206  0.1933
   58SAPC  H13C 4292   5.210   2.994  10.973 -0.3488 -3.0731 -1.9175
   58SAPC   C14 4293   4.995   3.013  10.712  0.5629 -0.0399 -0.1975
   58SAPC  H14A 4294   5.007   3.117  10.686  1.0856 -0.0620 -0.0590
   58SAPC  H14B 4295   4.981   2.949  10.626  1.3134 -1.2793  0.5703
   58SAPC  H14C 4296   4.904   3.001  10.768  0.1634  1.1757 -0.5494
   58SAPC   C15 4297   5.091   2.820  10.856  0.2078 -0.2951  0.0479
   58SAPC  H15A 4298   5.044   2.749  10.789 -0.7981  1.1183 -0.8025
   58SAPC  H15B 4299   5.179   2.787  10.909  1.4295  2.6976  0.0728
   58SAPC  H15C 4300   5.017   2.833  10.933 -2.1342 -1.9231 -1.7511
   58SAPC   C11 4301   5.367   2.888  10.761 -0.4892 -0.6208 -0.4624
   58SAPC  H11A 4302   5.399   2.942  10.852  1.7170  0.0983 -1.5833
   58SAPC  H11B 4303   5.449   2.917  10.692  0.0146  1.4812  0.9350
   58SAPC     P 4304   5.321   2.650  10.649  0.1603 -0.3786  0.1539
   58SAPC   O13 4305   5.406   2.528  10.675  0.3957 -0.0033  0.4103
   58SAPC   O14 4306   5.171   2.623  10.631 -0.7996  1.1960 -0.1769
   58SAPC   O12 4307   5.357   2.750  10.771 -0.5176  0.3681 -0.3667
   58SAPC   O11 4308   5.376   2.720  10.519 -0.2572  0.3179 -0.6874
   58SAPC    C1 4309   5.515   2.720  10.489  0.4488 -1.4737  0.1925
   58SAPC    HA 4310   5.543   2.826  10.472  0.7549 -1.3063  1.6039
   58SAPC    HB 4311   5.583   2.679  10.568  0.4359  2.2617  2.4090
   58SAPC    C2 4312   5.559   2.654  10.354  0.1412  0.0155 -0.5042
   58SAPC    HS 4313   5.665   2.681  10.335 -0.6383  2.3661 -1.9958
   58SAPC   O21 4314   5.479   2.700  10.245 -0.5736  0.9319  0.4754
   58SAPC   C21 4315   5.525   2.807  10.178 -0.0810  0.1198  0.5344
   58SAPC   O22 4316   5.628   2.861  10.203 -0.0169 -0.2175  0.3315
   58SAPC   C22 4317   5.425   2.836  10.068  0.4205  0.0288 -0.1085
   58SAPC   H2R 4318   5.417   2.760   9.988 -0.3073  0.7890 -0.7693
   58SAPC   H2S 4319   5.325   2.826  10.116 -0.1566 -2.7655 -1.6617
   58SAPC    C3 4320   5.539   2.504  10.362  0.1096 -0.1493 -0.3529
   58SAPC    HX 4321   5.430   2.482  10.365  0.0400 -0.0175 -1.5308
   58SAPC    HY 4322   5.584   2.466  10.456 -0.4050  0.9910  0.3763
   58SAPC   O31 4323   5.601   2.438  10.245  0.5649  0.1879 -0.1754
   58SAPC   C31 4324   5.535   2.334  10.183 -0.6959  0.0002 -0.2221
   58SAPC   O32 4325   5.423   2.297  10.212 -0.3607  0.0011 -0.7039
   58SAPC   C32 4326   5.632   2.275  10.075  0.7083  0.3068  0.7049
   58SAPC   H2X 4327   5.582   2.195  10.016  0.5939  1.2608 -0.5312
   58SAPC   H2Y 4328   5.710   2.219  10.131 -0.2568 -1.9292 -0.0902
   58SAPC   C23 4329   5.452   2.972  10.000 -0.0776  0.1080  0.3591
   58SAPC   H3R 4330   5.483   3.050  10.073  1.8897 -0.1727 -0.1017
   58SAPC   H3S 4331   5.364   3.001   9.939 -1.6724  0.8074  2.8547
   58SAPC   C24 4332   5.573   2.977   9.895  1.1393  0.6368 -0.0789
   58SAPC   H4R 4333   5.669   2.936   9.934  0.1715 -3.3951 -1.4217
   58SAPC   H4S 4334   5.583   3.084   9.868 -0.8231  0.3822 -2.1197
   58SAPC   C25 4335   5.544   2.892   9.765 -0.4018 -0.7800 -0.3995
   58SAPC   H5R 4336   5.574   2.787   9.768  1.0424 -0.3766  2.0563
   58SAPC   C26 4337   5.495   2.950   9.652  0.0930  0.6031 -0.1321
   58SAPC   H6R 4338   5.492   2.875   9.572 -0.0648 -0.7108  1.0603
   58SAPC   C27 4339   5.449   3.086   9.617  0.0398 -0.0693  0.3817
   58SAPC   H7R 4340   5.413   3.133   9.711  0.9231 -0.9807  1.1954
   58SAPC   H7S 4341   5.358   3.071   9.554 -0.7816 -0.0333  1.5340
   58SAPC   C28 4342   5.549   3.171   9.551 -0.1413  0.2330  0.0701
   58SAPC   H8R 4343   5.626   3.207   9.621 -2.3336 -0.9417  3.3021
   58SAPC   C29 4344   5.565   3.197   9.422 -0.5383  0.1582 -0.0302
   58SAPC   H9R 4345   5.661   3.242   9.390  0.5895 -2.0943  0.0430
   58SAPC  C210 4346   5.478   3.140   9.315 -0.2552 -0.0596  0.6531
   58SAPC  H10R 4347   5.420   3.220   9.265 -1.4968 -0.8784  0.7441
   58SAPC  H10S 4348   5.401   3.068   9.351 -2.5337  1.3648 -1.0693
   58SAPC  C211 4349   5.551   3.073   9.206  0.0333  0.5552  0.4361
   58SAPC  H11R 4350   5.600   2.981   9.241  0.6921  1.2173  1.3294
   58SAPC  C212 4351   5.558   3.102   9.078 -0.0135 -0.2506 -0.2121
   58SAPC  H12R 4352   5.606   3.039   9.001  1.6456  1.3566 -0.5657
   58SAPC  C213 4353   5.498   3.236   9.038  0.2243 -0.0544  0.9399
   58SAPC  H13R 4354   5.515   3.316   9.114 -1.4493  1.5068 -0.2482
   58SAPC  H13S 4355   5.389   3.217   9.042  0.3240 -0.6893  0.6950
   58SAPC  C214 4356   5.537   3.294   8.905 -0.4422  0.4059 -0.4081
   58SAPC  H14R 4357   5.622   3.364   8.909 -0.5214  0.8251 -3.6799
   58SAPC  C215 4358   5.485   3.267   8.782  0.1036 -0.3727  0.6166
   58SAPC  H15R 4359   5.537   3.311   8.696  2.4916 -0.1728  2.0662
   58SAPC  C216 4360   5.373   3.178   8.756  0.2612 -0.6889 -0.7235
   58SAPC  H16R 4361   5.279   3.235   8.740  0.4423 -0.4842 -1.0741
   58SAPC  H16S 4362   5.361   3.106   8.840 -1.5220 -1.5344 -1.6499
   58SAPC  C217 4363   5.405   3.094   8.632 -0.3431  0.0163  0.5679
   58SAPC  H17R 4364   5.426   3.156   8.542  1.6272 -1.2347  0.0970
   58SAPC  H17S 4365   5.317   3.030   8.610  0.1292 -1.0763  1.7327
   58SAPC  C218 4366   5.512   2.987   8.648  0.0897 -0.4335  0.2890
   58SAPC  H18R 4367   5.513   2.921   8.737  5.7558 -3.1113 -1.2394
   58SAPC  H18S 4368   5.610   3.039   8.652 -0.9705  1.7986 -0.8497
   58SAPC  C219 4369   5.511   2.889   8.525 -0.9252 -0.4764 -0.1372
   58SAPC  H19R 4370   5.582   2.806   8.548 -1.2460 -1.0530 -1.1501
   58SAPC  H19S 4371   5.550   2.951   8.441 -0.5011 -1.0287 -0.3582
   58SAPC  C220 4372   5.380   2.820   8.494 -0.5356 -0.1678 -0.2385
   58SAPC  H20R 4373   5.325   2.889   8.426 -0.8595 -1.1313 -0.9679
   58SAPC  H20S 4374   5.315   2.794   8.580  0.1232 -2.0994 -0.2828
   58SAPC  H20T 4375   5.402   2.725   8.442 -2.4693 -1.8801  1.8993
   58SAPC   C33 4376   5.724   2.374  10.000  0.4427  0.5265  0.7947
   58SAPC   H3X 4377   5.795   2.312   9.941  0.9161 -1.1614  3.0254
   58SAPC   H3Y 4378   5.797   2.426  10.065  0.8501 -1.5200  2.0754
   58SAPC   C34 4379   5.652   2.461   9.897 -0.6588  0.4696 -0.1432
   58SAPC   H4X 4380   5.732   2.504   9.833 -0.3801 -0.3973 -0.3788
   58SAPC   H4Y 4381   5.595   2.541   9.950 -0.0772  0.4108  0.5933
   58SAPC   C35 4382   5.549   2.382   9.818  0.0776 -0.0900 -0.5679
   58SAPC   H5X 4383   5.448   2.374   9.863 -1.6795  0.5346 -4.0737
   58SAPC   H5Y 4384   5.594   2.282   9.804 -0.6481 -0.7174  1.3300
   58SAPC   C36 4385   5.524   2.443   9.677 -0.4484 -0.0083 -0.3830
   58SAPC   H6X 4386   5.484   2.546   9.688  0.3874  0.2110  0.9138
   58SAPC   H6Y 4387   5.454   2.378   9.620 -3.1014  4.2601 -2.4911
   58SAPC   C37 4388   5.654   2.441   9.586 -0.6912 -0.4395  0.0664
   58SAPC   H7X 4389   5.702   2.341   9.587  0.8042  0.0904 -3.4605
   58SAPC   H7Y 4390   5.724   2.516   9.628 -1.0242 -1.2153  2.1451
   58SAPC   C38 4391   5.615   2.482   9.442  0.7445 -0.0357  0.6632
   58SAPC   H8X 4392   5.695   2.539   9.390  0.8645 -2.6132 -2.2241
   58SAPC   H8Y 4393   5.537   2.561   9.447  1.1421  0.4209 -0.1221
   58SAPC   C39 4394   5.581   2.365   9.342  1.1157  0.8760  0.4085
   58SAPC   H9X 4395   5.501   2.303   9.389  1.0851 -0.1733 -0.9789
   58SAPC   H9Y 4396   5.670   2.309   9.306  1.3766  0.8670  1.0517
   58SAPC  C310 4397   5.516   2.425   9.214  0.4953  0.4311  0.2029
   58SAPC  H10X 4398   5.580   2.507   9.175  2.7620 -2.4111 -2.5762
   58SAPC  H10Y 4399   5.421   2.478   9.235 -0.0326 -0.5336  0.3191
   58SAPC  C311 4400   5.505   2.304   9.114  0.3338  0.7949  0.9111
   58SAPC  H11X 4401   5.436   2.222   9.145  1.6825 -1.0223 -0.6416
   58SAPC  H11Y 4402   5.607   2.260   9.110  0.4313  1.1350 -1.0365
   58SAPC  C312 4403   5.471   2.359   8.970  0.0781  0.5169 -0.8302
   58SAPC  H12X 4404   5.534   2.444   8.936 -2.6572  2.3680 -1.6013
   58SAPC  H12Y 4405   5.371   2.408   8.979 -1.1803 -2.1802  1.6161
   58SAPC  C313 4406   5.465   2.251   8.856  0.4917 -0.1693 -0.4196
   58SAPC  H13X 4407   5.568   2.210   8.862  1.1108  1.5211  2.0816
   58SAPC  H13Y 4408   5.445   2.299   8.757  0.3350  0.1743 -0.2230
   58SAPC  C314 4409   5.357   2.139   8.884 -0.7715  0.3923  0.1470
   58SAPC  H14X 4410   5.261   2.193   8.868 -1.0015  0.3737  1.4236
   58SAPC  H14Y 4411   5.355   2.105   8.989  1.4417  0.2639  0.1946
   58SAPC  C315 4412   5.358   2.029   8.779  0.0736  0.5998 -0.0516
   58SAPC  H15X 4413   5.364   2.075   8.678  0.8167  2.8510  0.9619
   58SAPC  H15Y 4414   5.263   1.972   8.775 -0.1549  0.7746  2.1038
   58SAPC  C316 4415   5.479   1.930   8.789  0.1143 -0.3424  0.0197
   58SAPC  H16X 4416   5.572   1.990   8.802 -0.6288  0.7620  0.4764
   58SAPC  H16Y 4417   5.489   1.876   8.693  1.0589 -0.2153  0.0421
   58SAPC  C317 4418   5.457   1.821   8.893  0.2630 -0.7839  0.5540
   58SAPC  H17X 4419   5.350   1.789   8.896  0.7452 -2.5288  0.2098
   58SAPC  H17Y 4420   5.458   1.869   8.993 -2.0908  3.0796 -1.0355
   58SAPC  C318 4421   5.552   1.708   8.888 -0.2991 -0.2806  0.3072
   58SAPC  H18X 4422   5.535   1.651   8.982  2.2575 -1.3230  0.2273
   58SAPC  H18Y 4423   5.660   1.730   8.872 -0.7771  2.5978  0.5669
   58SAPC  H18Z 4424   5.527   1.637   8.807 -1.5428 -2.2506  2.3004
   59SAPC     N 4425   2.518   4.769  11.088 -0.8320 -0.0784  0.9816
   59SAPC   C12 4426   2.476   4.624  11.126  0.4368  0.3844 -0.7134
   59SAPC  H12A 4427   2.558   4.593  11.189  2.7380  2.5464 -2.4574
   59SAPC  H12B 4428   2.470   4.563  11.038  1.2548  0.4379 -0.8076
   59SAPC   C13 4429   2.541   4.851  11.208  0.2589 -0.3321 -0.0397
   59SAPC  H13A 4430   2.615   4.803  11.271  0.3817 -0.4484 -0.2704
   59SAPC  H13B 4431   2.577   4.948  11.175 -1.0462  0.6322  1.2649
   59SAPC  H13C 4432   2.449   4.862  11.262 -0.5924  2.2939 -1.8347
   59SAPC   C14 4433   2.646   4.762  11.008 -0.4918 -0.2075  0.3169
   59SAPC  H14A 4434   2.669   4.860  10.968  2.8486 -0.7917  0.5344
   59SAPC  H14B 4435   2.726   4.714  11.062 -1.4444  0.2629  2.2263
   59SAPC  H14C 4436   2.635   4.710  10.914 -0.7550 -0.9966  0.7731
   59SAPC   C15 4437   2.409   4.847  11.006  0.2979  0.9123  0.0277
   59SAPC  H15A 4438   2.311   4.830  11.050  0.8382  1.3575  1.4354
   59SAPC  H15B 4439   2.410   4.955  11.010 -2.1480  0.9732  2.6681
   59SAPC  H15C 4440   2.399   4.818  10.902  0.6296 -0.9019  0.4795
   59SAPC   C11 4441   2.341   4.613  11.204  0.0750  0.0966 -0.0316
   59SAPC  H11A 4442   2.355   4.674  11.296 -0.9797  0.0664  0.1579
   59SAPC  H11B 4443   2.327   4.512  11.249  1.7914  0.8580  2.4180
   59SAPC     P 4444   2.161   4.554  11.032 -0.0848  0.1143 -0.0264
   59SAPC   O13 4445   2.088   4.454  11.116 -0.6676 -0.3723  0.4209
   59SAPC   O14 4446   2.080   4.628  10.932 -0.3326 -0.2322  0.1886
   59SAPC   O12 4447   2.226   4.662  11.130 -0.6213 -0.1602  0.1382
   59SAPC   O11 4448   2.286   4.487  10.962 -0.2459 -0.1796  0.5026
   59SAPC    C1 4449   2.275   4.416  10.840 -0.3260 -0.2186 -0.6252
   59SAPC    HA 4450   2.347   4.332  10.836  3.0825  2.3407  1.7174
   59SAPC    HB 4451   2.174   4.372  10.825 -0.6811  0.1261  0.6554
   59SAPC    C2 4452   2.315   4.509  10.718 -0.4164 -0.2302 -0.2153
   59SAPC    HS 4453   2.255   4.601  10.738 -0.0058 -0.5653  3.0039
   59SAPC   O21 4454   2.294   4.437  10.593  0.4338 -0.3308 -0.6676
   59SAPC   C21 4455   2.239   4.506  10.497 -0.3287 -0.3229 -0.2065
   59SAPC   O22 4456   2.202   4.622  10.500  0.0561  0.6736 -0.1234
   59SAPC   C22 4457   2.242   4.421  10.371  0.2283 -0.7144 -0.4701
   59SAPC   H2R 4458   2.342   4.373  10.375  0.3553 -0.3821  1.1038
   59SAPC   H2S 4459   2.179   4.337  10.405  0.9589 -0.7134  0.9756
   59SAPC    C3 4460   2.463   4.551  10.727  0.5155 -0.5142  0.3154
   59SAPC    HX 4461   2.524   4.458  10.734  2.0224  0.4969  1.2741
   59SAPC    HY 4462   2.480   4.598  10.826 -1.4709  1.0102 -0.0167
   59SAPC   O31 4463   2.510   4.632  10.615 -0.6523  0.3533 -0.3415
   59SAPC   C31 4464   2.474   4.755  10.618  0.3962  0.0235 -0.3265
   59SAPC   O32 4465   2.415   4.803  10.714  0.3128  0.3172 -0.1087
   59SAPC   C32 4466   2.535   4.821  10.501  0.0174 -0.1915 -0.5139
   59SAPC   H2X 4467   2.510   4.757  10.414  0.4340 -2.9097  1.2433
   59SAPC   H2Y 4468   2.645   4.822  10.517 -0.3881  0.1589  3.2272
   59SAPC   C23 4469   2.186   4.492  10.240  0.1715  0.0385  0.0273
   59SAPC   H3R 4470   2.093   4.548  10.263  1.1486  1.3200  0.9902
   59SAPC   H3S 4471   2.153   4.409  10.173  2.2089  0.2520 -1.3473
   59SAPC   C24 4472   2.293   4.565  10.163 -0.0241  0.4414  0.7503
   59SAPC   H4R 4473   2.347   4.476  10.123  0.5184  1.3343 -0.5798
   59SAPC   H4S 4474   2.347   4.629  10.236 -0.0366  1.5743 -0.1940
   59SAPC   C25 4475   2.231   4.632  10.039 -0.3978  0.5531 -0.2048
   59SAPC   H5R 4476   2.228   4.742  10.042  0.9184  0.5935 -0.0822
   59SAPC   C26 4477   2.189   4.573   9.923 -1.2310  0.0996  0.5120
   59SAPC   H6R 4478   2.156   4.632   9.836 -0.6465 -0.8108 -0.3465
   59SAPC   C27 4479   2.206   4.422   9.888  0.2507 -0.2485 -0.8268
   59SAPC   H7R 4480   2.241   4.362   9.975  0.8387 -0.3475 -1.1247
   59SAPC   H7S 4481   2.280   4.416   9.805 -0.6401 -0.7430 -1.6046
   59SAPC   C28 4482   2.072   4.363   9.835  0.3071  0.3173  0.2163
   59SAPC   H8R 4483   1.999   4.363   9.917  0.1642  1.3588  0.1004
   59SAPC   C29 4484   2.051   4.305   9.718 -0.4332 -0.2804 -0.4193
   59SAPC   H9R 4485   1.950   4.269   9.697  0.1300 -1.1840 -1.7003
   59SAPC  C210 4486   2.143   4.293   9.600  0.0560 -0.1457  0.4945
   59SAPC  H10R 4487   2.130   4.189   9.564 -0.9402 -0.1356  0.8140
   59SAPC  H10S 4488   2.250   4.303   9.630  0.1490 -0.6417  0.3459
   59SAPC  C211 4489   2.107   4.390   9.494 -0.5900  0.0846 -0.7975
   59SAPC  H11R 4490   2.012   4.376   9.441 -1.9488 -1.8106  1.8891
   59SAPC  C212 4491   2.184   4.490   9.452 -0.0642  0.1138  0.0633
   59SAPC  H12R 4492   2.134   4.556   9.379  0.7921 -0.8620 -1.4476
   59SAPC  C213 4493   2.325   4.531   9.500 -0.5299 -0.0081 -0.0903
   59SAPC  H13R 4494   2.374   4.463   9.572 -0.0197 -1.2880 -1.6000
   59SAPC  H13S 4495   2.322   4.619   9.568 -0.1828  0.1419 -0.2657
   59SAPC  C214 4496   2.425   4.580   9.392  0.6575  0.1976 -0.3820
   59SAPC  H14R 4497   2.424   4.690   9.384  1.9058  0.5228  2.4925
   59SAPC  C215 4498   2.506   4.507   9.318  0.2803  0.7369  0.6860
   59SAPC  H15R 4499   2.591   4.551   9.263  0.9606  0.1749  1.2655
   59SAPC  C216 4500   2.514   4.353   9.336  0.3558  0.0166  0.7359
   59SAPC  H16R 4501   2.450   4.312   9.417 -0.1861 -0.9654 -0.1747
   59SAPC  H16S 4502   2.618   4.324   9.363  0.4293 -1.7777 -1.2495
   59SAPC  C217 4503   2.475   4.275   9.209  0.9662 -0.3779 -0.4190
   59SAPC  H17R 4504   2.367   4.260   9.190  1.4014 -1.7572 -2.0698
   59SAPC  H17S 4505   2.521   4.174   9.220  1.6214  0.1249  2.2812
   59SAPC  C218 4506   2.536   4.330   9.075  0.0920 -0.1996 -0.3623
   59SAPC  H18R 4507   2.640   4.366   9.094 -0.9585  2.5839  0.6261
   59SAPC  H18S 4508   2.473   4.418   9.052  1.6128  1.2799  0.8528
   59SAPC  C219 4509   2.529   4.220   8.969  0.3643 -0.3920 -0.1985
   59SAPC  H19R 4510   2.448   4.148   8.995 -1.1837  1.4357  0.2938
   59SAPC  H19S 4511   2.630   4.176   8.974  1.7481  2.3030 -1.9137
   59SAPC  C220 4512   2.502   4.274   8.832  0.0664 -0.2925  0.1718
   59SAPC  H20R 4513   2.600   4.308   8.792 -0.2825  0.9784  0.3752
   59SAPC  H20S 4514   2.421   4.349   8.823  0.7147  0.7209  2.1234
   59SAPC  H20T 4515   2.467   4.190   8.767 -0.2542 -0.7017  0.8531
   59SAPC   C33 4516   2.505   4.973  10.488 -0.5403 -0.1098 -0.2260
   59SAPC   H3X 4517   2.523   5.012  10.591  1.4496  2.5166 -1.4421
   59SAPC   H3Y 4518   2.405   4.996  10.446 -0.7784  0.9017  0.8295
   59SAPC   C34 4519   2.612   5.053  10.407  0.4702 -0.5294 -0.3598
   59SAPC   H4X 4520   2.714   5.024  10.439 -0.2784 -1.9153  0.9243
   59SAPC   H4Y 4521   2.602   5.161  10.432 -0.9688 -0.6439 -0.3109
   59SAPC   C35 4522   2.604   5.040  10.253 -0.0896  0.6504  0.4047
   59SAPC   H5X 4523   2.672   5.108  10.198  0.4055 -1.3957 -1.7011
   59SAPC   H5Y 4524   2.505   5.072  10.214  1.2736  2.3813 -1.9767
   59SAPC   C36 4525   2.646   4.907  10.194 -0.1101  0.5076 -0.0933
   59SAPC   H6X 4526   2.562   4.834  10.195  1.2929 -1.1863  1.0845
   59SAPC   H6Y 4527   2.719   4.855  10.260 -0.0669  0.3878 -0.2342
   59SAPC   C37 4528   2.694   4.925  10.049 -0.2569  0.2087  0.2148
   59SAPC   H7X 4529   2.700   4.821  10.009  0.5307  0.0501  0.7158
   59SAPC   H7Y 4530   2.796   4.968  10.035 -0.7782  0.9592 -1.4572
   59SAPC   C38 4531   2.603   5.006   9.960 -0.0152  0.7646  0.6525
   59SAPC   H8X 4532   2.602   5.114   9.984 -0.4333  1.6831 -2.8669
   59SAPC   H8Y 4533   2.497   4.976   9.974 -0.1957  1.6770  1.3504
   59SAPC   C39 4534   2.640   4.994   9.811  0.1645 -0.4447  0.0997
   59SAPC   H9X 4535   2.645   4.884   9.795 -0.9790 -0.4455 -0.3762
   59SAPC   H9Y 4536   2.746   5.020   9.792 -0.6455  1.0111 -3.1157
   59SAPC  C310 4537   2.553   5.081   9.721  0.2437  0.3599 -0.1068
   59SAPC  H10X 4538   2.585   5.187   9.723  0.9913  0.1392  0.4053
   59SAPC  H10Y 4539   2.446   5.080   9.751 -1.0080 -1.0349 -4.0140
   59SAPC  C311 4540   2.559   5.031   9.573 -0.7745 -0.2340 -0.6660
   59SAPC  H11X 4541   2.520   4.928   9.557 -1.8878  0.2436 -1.1116
   59SAPC  H11Y 4542   2.668   5.041   9.550 -0.6596  2.5745  0.7283
   59SAPC  C312 4543   2.479   5.126   9.476  0.5280 -1.1196  1.1630
   59SAPC  H12X 4544   2.513   5.232   9.473 -2.4163 -0.0721 -2.0181
   59SAPC  H12Y 4545   2.371   5.130   9.499 -0.0261  1.3561 -1.2912
   59SAPC  C313 4546   2.505   5.087   9.327  1.0808  0.0515 -0.3132
   59SAPC  H13X 4547   2.485   4.978   9.336  2.4721 -0.2655 -0.7687
   59SAPC  H13Y 4548   2.615   5.093   9.313  1.1464 -0.6088 -0.1235
   59SAPC  C314 4549   2.418   5.168   9.225 -0.0328  0.5654 -0.6390
   59SAPC  H14X 4550   2.453   5.272   9.208 -1.4791  1.4371  1.3151
   59SAPC  H14Y 4551   2.316   5.180   9.268 -0.7156 -5.5800  0.3860
   59SAPC  C315 4552   2.410   5.103   9.086  0.4601  0.5656 -0.1622
   59SAPC  H15X 4553   2.348   5.011   9.098 -1.1107  1.8137  1.9672
   59SAPC  H15Y 4554   2.512   5.064   9.065  0.1651  0.5730 -1.7079
   59SAPC  C316 4555   2.345   5.192   8.988 -0.0849 -0.1495 -0.3742
   59SAPC  H16X 4556   2.411   5.278   8.963  1.0445  0.2463  3.3099
   59SAPC  H16Y 4557   2.252   5.235   9.032  0.0689 -0.4020  0.2083
   59SAPC  C317 4558   2.308   5.117   8.851 -0.2266  0.4170 -0.4339
   59SAPC  H17X 4559   2.246   5.188   8.793  1.3948  1.0755 -1.4337
   59SAPC  H17Y 4560   2.249   5.026   8.875 -2.2594  1.0161 -2.7843
   59SAPC  C318 4561   2.437   5.077   8.778  0.3925 -0.0928  0.0599
   59SAPC  H18X 4562   2.412   5.038   8.677 -0.1442 -0.6904  0.4189
   59SAPC  H18Y 4563   2.504   5.005   8.830  1.9872  0.0822 -1.6584
   59SAPC  H18Z 4564   2.510   5.158   8.756  0.0316  0.2000 -0.0783
   60SAPC     N 4565   2.019   3.365  10.822 -0.6588  0.3831  0.2430
   60SAPC   C12 4566   2.085   3.248  10.754 -0.1132  0.3815 -0.3258
   60SAPC  H12A 4567   2.031   3.155  10.768 -1.1111  1.3003  2.4321
   60SAPC  H12B 4568   2.178   3.214  10.799 -0.5452  1.2073  1.2414
   60SAPC   C13 4569   1.881   3.404  10.768 -0.1710  0.7935 -0.1750
   60SAPC  H13A 4570   1.885   3.462  10.677 -0.1014 -0.9419 -1.3238
   60SAPC  H13B 4571   1.832   3.311  10.744 -1.3662  1.9007 -2.3382
   60SAPC  H13C 4572   1.827   3.456  10.846  0.6318 -0.3084  1.1606
   60SAPC   C14 4573   2.002   3.320  10.969  0.3650  0.2237  0.4310
   60SAPC  H14A 4574   2.092   3.284  11.016 -1.3718 -2.9520  1.6193
   60SAPC  H14B 4575   1.971   3.404  11.031  1.1232 -0.3589  1.6348
   60SAPC  H14C 4576   1.931   3.239  10.968  1.5835 -0.8614  0.1615
   60SAPC   C15 4577   2.116   3.483  10.828 -0.4920  0.1717  0.0671
   60SAPC  H15A 4578   2.127   3.535  10.734  1.2771 -0.6248 -0.2186
   60SAPC  H15B 4579   2.077   3.554  10.899 -3.0888  0.2427 -1.2911
   60SAPC  H15C 4580   2.217   3.451  10.850 -0.8713  0.0009  1.6248
   60SAPC   C11 4581   2.114   3.251  10.601 -0.3014  0.7702 -0.1578
   60SAPC  H11A 4582   2.018   3.243  10.547 -0.1623  1.4578 -0.5251
   60SAPC  H11B 4583   2.164   3.153  10.588 -2.5032 -0.5588  0.9427
   60SAPC     P 4584   2.347   3.340  10.538  0.0681  0.3768  0.1617
   60SAPC   O13 4585   2.405   3.454  10.467 -0.2043 -0.4999 -0.0755
   60SAPC   O14 4586   2.405   3.303  10.669 -0.7204  0.2112 -0.2388
   60SAPC   O12 4587   2.190   3.362  10.562  0.5107 -0.0390  0.5789
   60SAPC   O11 4588   2.373   3.211  10.446  0.0867 -0.0024  0.6179
   60SAPC    C1 4589   2.299   3.196  10.328 -0.6237  0.0901 -0.6190
   60SAPC    HA 4590   2.288   3.087  10.309 -0.0305 -0.0840  0.0219
   60SAPC    HB 4591   2.194   3.231  10.339 -0.8045  0.1336 -2.2279
   60SAPC    C2 4592   2.372   3.255  10.207 -0.1408  0.1192  0.7676
   60SAPC    HS 4593   2.373   3.365  10.225  1.6984  0.3625 -0.5391
   60SAPC   O21 4594   2.316   3.213  10.082 -0.0487 -0.9021  0.3847
   60SAPC   C21 4595   2.339   3.295   9.981  0.5423 -0.7787 -0.5512
   60SAPC   O22 4596   2.397   3.404   9.978  0.2349  0.3758 -0.1145
   60SAPC   C22 4597   2.293   3.223   9.856 -0.9841 -0.4361 -0.2922
   60SAPC   H2R 4598   2.339   3.122   9.855  0.9995  0.3342  1.9476
   60SAPC   H2S 4599   2.185   3.201   9.860 -1.4902  1.8412  3.2036
   60SAPC    C3 4600   2.527   3.212  10.213 -0.7831  0.0892  0.1337
   60SAPC    HX 4601   2.525   3.101  10.215  1.0050  0.0045 -0.3844
   60SAPC    HY 4602   2.564   3.238  10.314 -0.3871  2.0253 -0.4759
   60SAPC   O31 4603   2.610   3.263  10.100 -0.0801 -0.4468  0.2974
   60SAPC   C31 4604   2.679   3.368  10.131 -0.2369 -0.3651 -0.1598
   60SAPC   O32 4605   2.680   3.424  10.237  0.4200 -0.2021  0.0300
   60SAPC   C32 4606   2.774   3.412  10.017  0.5819  0.5312  0.1030
   60SAPC   H2X 4607   2.881   3.389  10.038  1.0062  2.5500  0.3109
   60SAPC   H2Y 4608   2.775   3.523  10.021  1.7781  0.5101  0.8014
   60SAPC   C23 4609   2.339   3.285   9.719  0.0790 -0.1852 -0.0352
   60SAPC   H3R 4610   2.449   3.271   9.705  0.0016 -2.3326  1.0705
   60SAPC   H3S 4611   2.304   3.389   9.730 -1.0093 -0.6082  0.6002
   60SAPC   C24 4612   2.257   3.218   9.606 -0.5440  0.2168  0.1515
   60SAPC   H4R 4613   2.152   3.251   9.618 -0.1052  1.5309  0.5462
   60SAPC   H4S 4614   2.260   3.110   9.629  3.3571  0.2862  0.6195
   60SAPC   C25 4615   2.303   3.228   9.463  0.6469 -0.4729 -0.0271
   60SAPC   H5R 4616   2.408   3.259   9.458 -0.0693  2.1629 -0.3394
   60SAPC   C26 4617   2.226   3.200   9.346  0.3320 -0.3129  0.7666
   60SAPC   H6R 4618   2.272   3.218   9.247 -1.9609  0.3018 -0.2430
   60SAPC   C27 4619   2.098   3.124   9.350 -0.2545 -0.2716 -0.0005
   60SAPC   H7R 4620   2.061   3.101   9.452 -0.0883  1.3147  0.4452
   60SAPC   H7S 4621   2.111   3.025   9.302 -3.9295 -1.3996  0.9698
   60SAPC   C28 4622   1.990   3.198   9.273 -0.1096  0.0119 -0.0490
   60SAPC   H8R 4623   1.975   3.300   9.312 -0.9641 -0.5920  1.2357
   60SAPC   C29 4624   1.924   3.149   9.174  0.2664  0.1970  0.5785
   60SAPC   H9R 4625   1.845   3.211   9.129 -0.6988 -1.4160 -0.0190
   60SAPC  C210 4626   1.924   3.015   9.108  0.5499  0.9187  0.1627
   60SAPC  H10R 4627   1.951   2.942   9.187 -0.8200  0.0204 -0.1585
   60SAPC  H10S 4628   2.004   3.012   9.031 -0.6449 -1.1090 -1.1059
   60SAPC  C211 4629   1.804   2.963   9.032 -0.5387  0.3767  0.1103
   60SAPC  H11R 4630   1.715   2.955   9.097 -0.2082 -1.4584  0.4067
   60SAPC  C212 4631   1.797   2.920   8.899  0.3724 -0.1502  0.7284
   60SAPC  H12R 4632   1.700   2.882   8.863  2.3665 -1.3814 -4.0443
   60SAPC  C213 4633   1.907   2.931   8.794 -0.0351 -0.1802  0.1215
   60SAPC  H13R 4634   1.979   2.854   8.825  0.6715  0.6122  0.4835
   60SAPC  H13S 4635   1.960   3.029   8.799  1.5305 -0.9623 -0.6025
   60SAPC  C214 4636   1.848   2.910   8.656 -0.1922 -0.4417  0.2433
   60SAPC  H14R 4637   1.821   3.002   8.603 -0.1883  0.0316  1.0540
   60SAPC  C215 4638   1.839   2.796   8.592 -0.3735  0.9417  0.3459
   60SAPC  H15R 4639   1.787   2.803   8.495 -0.6342  4.5752  0.6034
   60SAPC  C216 4640   1.881   2.662   8.648 -0.1540  0.4910 -0.5115
   60SAPC  H16R 4641   1.806   2.582   8.634  0.5722 -0.1785 -0.6403
   60SAPC  H16S 4642   1.906   2.668   8.756  2.4105  1.3336 -1.0586
   60SAPC  C217 4643   2.020   2.602   8.601 -0.1020 -0.3161 -0.4630
   60SAPC  H17R 4644   2.099   2.675   8.575 -0.8949  0.4876 -0.6763
   60SAPC  H17S 4645   2.006   2.541   8.509  1.4109 -0.3971 -0.6587
   60SAPC  C218 4646   2.077   2.512   8.715  0.5244 -0.6631  1.1034
   60SAPC  H18R 4647   1.986   2.455   8.741  0.2678 -0.9031 -0.2626
   60SAPC  H18S 4648   2.097   2.566   8.810  1.1305 -1.2383  1.3109
   60SAPC  C219 4649   2.189   2.423   8.665  0.1022 -0.6833  0.6032
   60SAPC  H19R 4650   2.287   2.474   8.669  0.4820 -1.0531 -1.9923
   60SAPC  H19S 4651   2.178   2.387   8.560  1.0889  0.4018  0.1019
   60SAPC  C220 4652   2.193   2.296   8.747  0.3030 -0.2453 -0.2418
   60SAPC  H20R 4653   2.269   2.233   8.697  0.6451  0.3043 -0.4260
   60SAPC  H20S 4654   2.098   2.240   8.761 -0.4497  1.3857  1.5645
   60SAPC  H20T 4655   2.231   2.327   8.846 -0.4991  0.8234 -0.2449
   60SAPC   C33 4656   2.729   3.361   9.872 -0.3368 -0.8294  0.3800
   60SAPC   H3X 4657   2.629   3.404   9.851  0.4877  2.1801  1.9900
   60SAPC   H3Y 4658   2.732   3.250   9.870  0.9749 -0.7997 -1.3642
   60SAPC   C34 4659   2.818   3.421   9.762  0.3566 -0.4245 -0.7554
   60SAPC   H4X 4660   2.925   3.395   9.778  0.0301 -0.7290  1.2491
   60SAPC   H4Y 4661   2.802   3.531   9.765  0.0538 -0.4710 -0.6558
   60SAPC   C35 4662   2.770   3.366   9.627  0.5587 -0.2039 -0.1564
   60SAPC   H5X 4663   2.661   3.386   9.612  0.5696 -0.2381 -0.2829
   60SAPC   H5Y 4664   2.787   3.256   9.622 -2.4568 -0.7123 -2.4980
   60SAPC   C36 4665   2.840   3.436   9.515  0.1496 -0.1409 -0.0461
   60SAPC   H6X 4666   2.947   3.409   9.534 -0.2156 -2.7821 -1.2823
   60SAPC   H6Y 4667   2.825   3.546   9.521  2.5292  0.2001  1.1799
   60SAPC   C37 4668   2.804   3.362   9.385  0.4572  0.1833 -0.3958
   60SAPC   H7X 4669   2.696   3.388   9.379  0.2913 -0.5945 -0.9049
   60SAPC   H7Y 4670   2.810   3.253   9.407  1.7094  0.1617 -0.7450
   60SAPC   C38 4671   2.885   3.407   9.263 -0.1579 -0.0732 -0.2664
   60SAPC   H8X 4672   2.991   3.378   9.278  0.0462  0.9163  0.3022
   60SAPC   H8Y 4673   2.872   3.517   9.268 -1.3989 -0.2502  1.2654
   60SAPC   C39 4674   2.830   3.346   9.132 -0.3240  0.0514  0.4455
   60SAPC   H9X 4675   2.836   3.237   9.148  1.5225  0.2217  1.1392
   60SAPC   H9Y 4676   2.894   3.387   9.051  3.0225  0.6264  3.1481
   60SAPC  C310 4677   2.685   3.382   9.088 -0.0617 -0.0493  0.1072
   60SAPC  H10X 4678   2.703   3.484   9.047 -0.8027  0.7561  1.6798
   60SAPC  H10Y 4679   2.623   3.382   9.181 -0.8448 -1.8067 -0.3623
   60SAPC  C311 4680   2.633   3.294   8.978 -0.0274  0.3492 -0.0576
   60SAPC  H11X 4681   2.539   3.345   8.951 -0.1966 -0.0382 -0.2143
   60SAPC  H11Y 4682   2.615   3.194   9.025 -0.5672  0.5947  0.2708
   60SAPC  C312 4683   2.726   3.285   8.861 -0.0475 -0.3412  0.3345
   60SAPC  H12X 4684   2.657   3.233   8.791  0.3850  0.5587 -0.7876
   60SAPC  H12Y 4685   2.816   3.225   8.883  0.1390  0.0596  0.6889
   60SAPC  C313 4686   2.770   3.421   8.802 -0.6374  0.1924 -0.0323
   60SAPC  H13X 4687   2.805   3.486   8.885  1.5833 -2.0830  0.9251
   60SAPC  H13Y 4688   2.685   3.472   8.750 -1.4238 -0.3804  0.6746
   60SAPC  C314 4689   2.891   3.427   8.699  0.0034 -0.0853 -1.0811
   60SAPC  H14X 4690   2.977   3.379   8.750 -2.7971 -3.2083  1.1792
   60SAPC  H14Y 4691   2.912   3.532   8.670  2.6530 -0.2111  0.0449
   60SAPC  C315 4692   2.870   3.344   8.575 -0.4452 -0.3380  0.5134
   60SAPC  H15X 4693   2.770   3.375   8.536 -0.8250  0.0786  1.7443
   60SAPC  H15Y 4694   2.872   3.236   8.598 -1.7266 -0.5592 -0.3147
   60SAPC  C316 4695   2.978   3.375   8.465  0.3664  0.4387 -0.8679
   60SAPC  H16X 4696   3.079   3.339   8.495  0.1244 -0.4135 -1.0541
   60SAPC  H16Y 4697   2.986   3.486   8.459 -1.2474  0.7077  1.0290
   60SAPC  C317 4698   2.959   3.294   8.337 -0.6485  0.6327  0.3973
   60SAPC  H17X 4699   2.906   3.198   8.358  0.5001 -0.3682 -1.0811
   60SAPC  H17Y 4700   3.060   3.277   8.294 -0.9864 -0.6654  0.0647
   60SAPC  C318 4701   2.873   3.368   8.237 -0.5219  0.4818 -0.7208
   60SAPC  H18X 4702   2.847   3.299   8.154  0.1703 -1.7509  0.8236
   60SAPC  H18Y 4703   2.935   3.453   8.201 -0.2590  0.5754 -0.0552
   60SAPC  H18Z 4704   2.780   3.415   8.276 -1.2484 -1.6229  0.2183
   61SAPC     N 4705   3.526   1.335  11.264 -0.3060  0.2065  0.1969
   61SAPC   C12 4706   3.644   1.425  11.221  0.2485  0.4193  0.6860
   61SAPC  H12A 4707   3.723   1.366  11.176 -1.8104 -0.3815 -2.2171
   61SAPC  H12B 4708   3.685   1.466  11.312 -0.6487 -1.6256  2.0889
   61SAPC   C13 4709   3.565   1.209  11.335  0.2201  0.1753  1.0793
   61SAPC  H13A 4710   3.637   1.163  11.268 -2.6429  0.4369 -2.5164
   61SAPC  H13B 4711   3.606   1.228  11.433 -0.6947  0.9026  1.3317
   61SAPC  H13C 4712   3.487   1.135  11.341  3.9338 -4.3549 -0.2883
   61SAPC   C14 4713   3.428   1.419  11.348  0.5184  0.1888  0.2216
   61SAPC  H14A 4714   3.365   1.345  11.395 -0.4465  0.0396 -1.2495
   61SAPC  H14B 4715   3.487   1.480  11.415  1.6874 -0.9088  0.2152
   61SAPC  H14C 4716   3.364   1.481  11.287 -1.7960 -0.5783  1.7352
   61SAPC   C15 4717   3.450   1.278  11.142 -0.3880  0.2325  0.0094
   61SAPC  H15A 4718   3.512   1.213  11.082  1.1820 -0.7212  2.4852
   61SAPC  H15B 4719   3.369   1.215  11.176 -2.5070  2.2022 -1.1482
   61SAPC  H15C 4720   3.402   1.353  11.082 -1.3582 -0.9521 -0.7441
   61SAPC   C11 4721   3.625   1.545  11.120  0.1562 -0.1074 -0.3287
   61SAPC  H11A 4722   3.545   1.604  11.170 -1.9131 -2.5902 -0.5016
   61SAPC  H11B 4723   3.586   1.515  11.021  1.4742  0.5139 -1.0712
   61SAPC     P 4724   3.844   1.564  10.996 -0.5661  0.2233 -0.1018
   61SAPC   O13 4725   3.979   1.592  11.047 -0.5008  0.2685  0.0186
   61SAPC   O14 4726   3.813   1.418  10.982 -0.0515 -0.0766  0.4447
   61SAPC   O12 4727   3.741   1.630  11.098  0.1009  0.1717  0.0453
   61SAPC   O11 4728   3.821   1.653  10.865  0.4199  0.1306  0.1859
   61SAPC    C1 4729   3.721   1.623  10.766 -0.8892  0.0238  0.2139
   61SAPC    HA 4730   3.627   1.590  10.816 -2.4034 -0.9788 -3.0625
   61SAPC    HB 4731   3.696   1.721  10.720 -0.0746  0.7724  1.3093
   61SAPC    C2 4732   3.768   1.519  10.665  0.5991 -1.1475 -0.4255
   61SAPC    HS 4733   3.799   1.426  10.718  0.6658 -1.1699 -0.5021
   61SAPC   O21 4734   3.888   1.576  10.603 -0.5989 -0.2521  0.2398
   61SAPC   C21 4735   3.969   1.481  10.557 -0.1718 -0.4082 -0.3612
   61SAPC   O22 4736   3.943   1.363  10.544  0.5298 -0.1822 -0.0246
   61SAPC   C22 4737   4.109   1.528  10.511 -0.0207 -0.0234  0.0215
   61SAPC   H2R 4738   4.169   1.558  10.600  0.3848  1.5035 -0.7354
   61SAPC   H2S 4739   4.168   1.448  10.462 -1.7391 -0.0525 -2.1745
   61SAPC    C3 4740   3.653   1.487  10.567  0.5671 -0.1338 -0.1068
   61SAPC    HX 4741   3.585   1.414  10.617 -0.8494  1.3337  0.1734
   61SAPC    HY 4742   3.696   1.425  10.485  0.8327 -0.3189  0.1691
   61SAPC   O31 4743   3.567   1.599  10.519 -0.2973 -0.3193  0.2423
   61SAPC   C31 4744   3.597   1.633  10.394 -0.2700 -0.0486 -0.0092
   61SAPC   O32 4745   3.690   1.594  10.330 -0.1969  0.2943 -0.2755
   61SAPC   C32 4746   3.507   1.755  10.345 -0.5517 -0.4297 -0.0840
   61SAPC   H2X 4747   3.570   1.843  10.323 -1.3834 -0.2661 -1.9603
   61SAPC   H2Y 4748   3.437   1.786  10.425  0.3877 -0.4945  0.7935
   61SAPC   C23 4749   4.112   1.660  10.427  0.3871 -0.3685  0.6206
   61SAPC   H3R 4750   4.201   1.717  10.461 -0.7876  0.8535  1.8074
   61SAPC   H3S 4751   4.023   1.721  10.454  1.3045  0.5539  1.6421
   61SAPC   C24 4752   4.117   1.643  10.276 -0.2165 -0.0825 -0.6619
   61SAPC   H4R 4753   4.207   1.583  10.250  0.4446  1.3345 -1.7882
   61SAPC   H4S 4754   4.138   1.740  10.226  1.0042 -0.8159 -1.6391
   61SAPC   C25 4755   3.989   1.577  10.233  0.0382 -0.2356 -0.0579
   61SAPC   H5R 4756   3.920   1.542  10.311 -0.2045 -0.1519 -0.2340
   61SAPC   C26 4757   3.942   1.567  10.107  0.0982 -0.6872 -0.0660
   61SAPC   H6R 4758   3.842   1.523  10.091 -0.2832 -0.7619  2.1482
   61SAPC   C27 4759   4.000   1.616   9.977  0.8727 -0.6223  0.1928
   61SAPC   H7R 4760   4.073   1.541   9.941  1.5647 -0.0251  0.3295
   61SAPC   H7S 4761   4.047   1.716   9.991 -0.5551  0.0295  0.5255
   61SAPC   C28 4762   3.893   1.637   9.874 -0.3334 -0.0165 -0.5157
   61SAPC   H8R 4763   3.807   1.699   9.905  0.0587  0.1163  0.3248
   61SAPC   C29 4764   3.894   1.593   9.749  0.2648 -0.1960  0.4761
   61SAPC   H9R 4765   3.806   1.622   9.690  0.2157  0.4574  0.8562
   61SAPC  C210 4766   3.988   1.502   9.678 -0.7624  0.7986  0.4520
   61SAPC  H10R 4767   3.949   1.486   9.576  5.4296  0.1326 -2.2599
   61SAPC  H10S 4768   3.987   1.404   9.732  0.6259 -0.0957 -1.0588
   61SAPC  C211 4769   4.131   1.545   9.672 -0.2095  0.1621  0.3917
   61SAPC  H11R 4770   4.177   1.577   9.767 -0.2215  1.9412 -0.1537
   61SAPC  C212 4771   4.217   1.566   9.562 -0.1645  0.2325  0.1390
   61SAPC  H12R 4772   4.322   1.589   9.585 -0.0815 -0.2634  0.2602
   61SAPC  C213 4773   4.180   1.557   9.416  0.7804  0.0392 -0.3597
   61SAPC  H13R 4774   4.100   1.480   9.409  2.8507 -2.3281  0.4177
   61SAPC  H13S 4775   4.257   1.504   9.357  0.2422 -1.0211 -0.1374
   61SAPC  C214 4776   4.144   1.695   9.361  0.4181  0.5114 -0.1086
   61SAPC  H14R 4777   4.144   1.777   9.434 -1.9045  0.2608  0.2499
   61SAPC  C215 4778   4.125   1.727   9.231  0.0787 -0.0924  0.6593
   61SAPC  H15R 4779   4.096   1.830   9.207 -2.2143 -0.3485  1.9971
   61SAPC  C216 4780   4.115   1.625   9.116  0.3484  0.8038  0.4838
   61SAPC  H16R 4781   4.032   1.644   9.045 -0.3871  0.1880  1.1578
   61SAPC  H16S 4782   4.101   1.520   9.151 -0.1622  0.5305 -0.4955
   61SAPC  C217 4783   4.248   1.627   9.035 -0.7192  0.1484  0.4537
   61SAPC  H17R 4784   4.337   1.629   9.102  0.1762  0.8762 -0.7114
   61SAPC  H17S 4785   4.259   1.720   8.975  1.1419  0.0831  0.6194
   61SAPC  C218 4786   4.257   1.502   8.941  0.0324 -0.2228  0.3235
   61SAPC  H18R 4787   4.163   1.496   8.882  0.6992 -0.9106 -0.7072
   61SAPC  H18S 4788   4.251   1.410   9.001 -3.3458 -1.9238 -2.2835
   61SAPC  C219 4789   4.381   1.511   8.855 -0.0049  0.0278  0.1401
   61SAPC  H19R 4790   4.469   1.519   8.923  0.6456 -2.3595 -0.3061
   61SAPC  H19S 4791   4.388   1.601   8.790  0.9889  0.4359  0.7800
   61SAPC  C220 4792   4.405   1.389   8.769  0.5347 -0.3672  0.1336
   61SAPC  H20R 4793   4.424   1.306   8.841 -0.3842 -0.6376  0.0770
   61SAPC  H20S 4794   4.491   1.406   8.701  0.2828  0.0848 -0.0782
   61SAPC  H20T 4795   4.312   1.374   8.710 -0.6588 -0.5312  1.9461
   61SAPC   C33 4796   3.447   1.718  10.208  0.4882 -0.3840  0.3339
   61SAPC   H3X 4797   3.364   1.647  10.228 -0.2110  0.1116 -0.7158
   61SAPC   H3Y 4798   3.521   1.674  10.138  2.6454  3.7449 -0.3129
   61SAPC   C34 4799   3.395   1.838  10.125 -0.3524 -0.2104 -0.0685
   61SAPC   H4X 4800   3.473   1.916  10.114 -2.3334  1.8067 -0.5952
   61SAPC   H4Y 4801   3.312   1.893  10.173 -1.3023 -1.7016  0.0835
   61SAPC   C35 4802   3.354   1.798   9.981 -0.4745 -0.2039 -0.5041
   61SAPC   H5X 4803   3.275   1.869   9.947 -1.4845 -1.5099 -0.9583
   61SAPC   H5Y 4804   3.312   1.695   9.977  0.6177 -0.7912  1.7269
   61SAPC   C36 4805   3.479   1.802   9.887  0.5919  0.3197  0.5880
   61SAPC   H6X 4806   3.565   1.752   9.937  1.7542  3.2803  1.7794
   61SAPC   H6Y 4807   3.526   1.903   9.876 -0.8040  0.9154 -0.1888
   61SAPC   C37 4808   3.452   1.740   9.742  0.1007 -0.0527 -0.7488
   61SAPC   H7X 4809   3.364   1.790   9.697  0.2694 -0.1868 -1.2362
   61SAPC   H7Y 4810   3.441   1.629   9.747 -1.9146  0.1564  0.2560
   61SAPC   C38 4811   3.559   1.778   9.643  0.3910  0.2003 -0.0754
   61SAPC   H8X 4812   3.652   1.742   9.691  0.4012 -0.2362 -0.4132
   61SAPC   H8Y 4813   3.559   1.889   9.628 -3.4315  0.4502  0.7906
   61SAPC   C39 4814   3.538   1.704   9.509 -0.2782  0.6962  0.8541
   61SAPC   H9X 4815   3.451   1.752   9.458 -0.9783 -2.6147 -1.3611
   61SAPC   H9Y 4816   3.524   1.595   9.523  1.0961  0.5094  0.8748
   61SAPC  C310 4817   3.653   1.729   9.410  0.2337 -0.6281  0.9207
   61SAPC  H10X 4818   3.750   1.684   9.441  0.6481 -0.2985  0.1354
   61SAPC  H10Y 4819   3.665   1.839   9.410  0.4521 -0.6463  0.3436
   61SAPC  C311 4820   3.619   1.684   9.262 -0.1218 -0.2403  0.1926
   61SAPC  H11X 4821   3.545   1.755   9.220  0.9420  1.3466  0.9121
   61SAPC  H11Y 4822   3.559   1.591   9.270  0.4327 -0.6961 -0.7981
   61SAPC  C312 4823   3.739   1.651   9.173  0.6378 -0.3579  0.2939
   61SAPC  H12X 4824   3.797   1.563   9.208  0.1239 -0.9664 -0.3817
   61SAPC  H12Y 4825   3.817   1.730   9.164  1.0382 -0.8464 -0.6150
   61SAPC  C313 4826   3.697   1.627   9.031  1.0610  0.3844  0.5792
   61SAPC  H13X 4827   3.642   1.531   9.026 -0.1362  1.0647  0.0911
   61SAPC  H13Y 4828   3.788   1.617   8.968  0.7769  4.5379 -0.7875
   61SAPC  C314 4829   3.626   1.747   8.971  0.3941 -0.0596 -0.3078
   61SAPC  H14X 4830   3.669   1.842   9.011  1.0009  0.4911 -2.1916
   61SAPC  H14Y 4831   3.520   1.736   9.001  1.2810 -0.7226  3.0285
   61SAPC  C315 4832   3.624   1.753   8.819  0.5733  0.2360  0.0609
   61SAPC  H15X 4833   3.728   1.759   8.779  1.5479  3.9882  2.6257
   61SAPC  H15Y 4834   3.561   1.837   8.785  0.5295  0.4588  0.6745
   61SAPC  C316 4835   3.576   1.618   8.763  0.7439  0.6399 -0.9084
   61SAPC  H16X 4836   3.480   1.591   8.813  0.9674  2.7339  0.7963
   61SAPC  H16Y 4837   3.649   1.538   8.792  1.3212  2.0220  1.8243
   61SAPC  C317 4838   3.573   1.624   8.613  0.7177  0.2997 -0.2478
   61SAPC  H17X 4839   3.678   1.619   8.578 -0.1170 -1.6257 -2.7723
   61SAPC  H17Y 4840   3.526   1.719   8.578 -0.6454 -0.2096  0.1156
   61SAPC  C318 4841   3.506   1.498   8.555 -0.6802 -1.0756 -0.2079
   61SAPC  H18X 4842   3.404   1.499   8.600 -0.5737  2.9858  0.3683
   61SAPC  H18Y 4843   3.568   1.408   8.578 -0.0495 -0.1995  1.7989
   61SAPC  H18Z 4844   3.503   1.510   8.445  0.9498  2.0282 -0.0343
   62SAPC     N 4845   2.381   1.665  10.772  0.7047  0.3252 -0.3531
   62SAPC   C12 4846   2.466   1.573  10.678  0.5014 -0.2571  0.1062
   62SAPC  H12A 4847   2.397   1.497  10.644  2.4503 -2.8361  1.6167
   62SAPC  H12B 4848   2.547   1.528  10.733  0.7455  0.6243  0.4913
   62SAPC   C13 4849   2.358   1.601  10.903 -0.5777 -0.1293  0.0771
   62SAPC  H13A 4850   2.305   1.674  10.962  1.0492 -0.3550  1.8955
   62SAPC  H13B 4851   2.306   1.507  10.899  0.0838 -0.5114  0.2590
   62SAPC  H13C 4852   2.447   1.582  10.961 -0.8080 -0.7500  0.2298
   62SAPC   C14 4853   2.447   1.796  10.784 -0.1135 -0.0215 -0.4745
   62SAPC  H14A 4854   2.394   1.882  10.822  2.4086  2.0970 -1.4507
   62SAPC  H14B 4855   2.537   1.795  10.844 -0.5126 -0.1523  0.1302
   62SAPC  H14C 4856   2.477   1.835  10.688 -1.6276 -1.0892 -1.4319
   62SAPC   C15 4857   2.246   1.686  10.716 -0.1955 -0.0441  0.1664
   62SAPC  H15A 4858   2.181   1.604  10.690  0.1048  0.6431 -3.1946
   62SAPC  H15B 4859   2.191   1.761  10.772 -0.9683 -0.8714  0.5401
   62SAPC  H15C 4860   2.258   1.729  10.618  0.5719  0.9045  0.6585
   62SAPC   C11 4861   2.521   1.634  10.547 -1.2804  0.4873 -0.2871
   62SAPC  H11A 4862   2.597   1.707  10.582 -1.4655  0.0952  0.9614
   62SAPC  H11B 4863   2.443   1.697  10.498 -0.7171  1.3352 -0.1134
   62SAPC     P 4864   2.725   1.482  10.488  0.5429 -0.1524 -0.6321
   62SAPC   O13 4865   2.788   1.564  10.597  1.0424 -0.3877 -0.6284
   62SAPC   O14 4866   2.716   1.334  10.512  0.0367  0.1796  0.4380
   62SAPC   O12 4867   2.579   1.535  10.460 -0.1334  0.3135 -0.5487
   62SAPC   O11 4868   2.796   1.519  10.354 -0.1274 -0.2011  0.2226
   62SAPC    C1 4869   2.743   1.530  10.224 -0.1510 -0.1145 -0.5220
   62SAPC    HA 4870   2.660   1.605  10.224 -1.2603 -1.3147 -0.3268
   62SAPC    HB 4871   2.827   1.569  10.162  0.2464 -1.0754 -0.5925
   62SAPC    C2 4872   2.692   1.404  10.149 -0.1837 -0.5688 -0.3425
   62SAPC    HS 4873   2.629   1.345  10.219  0.7420 -1.9826 -0.6700
   62SAPC   O21 4874   2.814   1.329  10.114 -0.5290  0.0253  0.6626
   62SAPC   C21 4875   2.786   1.195  10.113  0.8759  0.4632  0.6545
   62SAPC   O22 4876   2.673   1.150  10.121  0.5063 -0.4880 -0.3138
   62SAPC   C22 4877   2.907   1.111  10.082 -0.2302 -0.8016 -0.0081
   62SAPC   H2R 4878   2.988   1.183  10.055  0.5740 -2.0946 -1.2010
   62SAPC   H2S 4879   2.939   1.047  10.167 -1.2698 -2.1045 -0.5659
   62SAPC    C3 4880   2.597   1.446  10.032 -0.0546  0.3687 -1.0248
   62SAPC    HX 4881   2.510   1.503  10.071  0.8435  0.7673  0.4592
   62SAPC    HY 4882   2.559   1.353   9.984 -1.0093  0.8207 -1.1845
   62SAPC   O31 4883   2.663   1.523   9.934 -0.1659  0.8866 -0.3569
   62SAPC   C31 4884   2.721   1.466   9.834  0.4938  1.1472  0.0489
   62SAPC   O32 4885   2.732   1.347   9.809 -0.1835 -0.1755 -0.4378
   62SAPC   C32 4886   2.757   1.579   9.737  0.0500 -0.1483  0.6110
   62SAPC   H2X 4887   2.867   1.567   9.727 -0.1263  0.0634 -3.3418
   62SAPC   H2Y 4888   2.726   1.681   9.768  2.1906  0.2369  1.6694
   62SAPC   C23 4889   2.885   1.015   9.965 -0.2933  0.3266  0.1915
   62SAPC   H3R 4890   2.834   1.071   9.884  0.5052  1.1705  0.2564
   62SAPC   H3S 4891   2.810   0.940   9.997  1.1691 -0.6649  1.4614
   62SAPC   C24 4892   3.004   0.937   9.900  0.5462  0.6400 -1.1523
   62SAPC   H4R 4893   2.954   0.871   9.826 -0.8260 -0.1979  0.4735
   62SAPC   H4S 4894   3.040   0.869   9.980 -2.2331 -2.6269 -2.4644
   62SAPC   C25 4895   3.114   1.020   9.844 -0.0754  0.0864  0.6925
   62SAPC   H5R 4896   3.181   1.073   9.914  1.2800 -1.8018  0.9162
   62SAPC   C26 4897   3.143   1.032   9.710 -0.2067  0.4865 -0.5058
   62SAPC   H6R 4898   3.212   1.110   9.674 -0.8678  0.9558 -0.7885
   62SAPC   C27 4899   3.063   0.980   9.597 -0.5864 -0.7559 -0.3461
   62SAPC   H7R 4900   3.032   0.880   9.636 -0.3314  0.0907  2.1809
   62SAPC   H7S 4901   3.135   0.965   9.514 -1.2076  0.8164 -1.2005
   62SAPC   C28 4902   2.938   1.062   9.560 -0.0159  0.1802  0.1641
   62SAPC   H8R 4903   2.890   1.119   9.641 -1.6196 -0.7880 -0.0676
   62SAPC   C29 4904   2.890   1.076   9.431 -0.9192 -0.1599 -0.0104
   62SAPC   H9R 4905   2.806   1.142   9.406 -1.4447  0.0234  2.0419
   62SAPC  C210 4906   2.958   1.020   9.315 -0.2021 -0.6555 -0.3482
   62SAPC  H10R 4907   2.968   0.910   9.321 -1.7598 -0.7469  1.4670
   62SAPC  H10S 4908   3.064   1.055   9.322 -0.1945 -0.6082 -0.6828
   62SAPC  C211 4909   2.903   1.062   9.177  0.1292  0.8063 -1.4045
   62SAPC  H11R 4910   2.819   1.133   9.181  0.7489  1.5211  1.1216
   62SAPC  C212 4911   2.947   1.014   9.061  0.6460 -0.1513 -0.5758
   62SAPC  H12R 4912   2.900   1.066   8.976 -0.1592  0.4925  0.2466
   62SAPC  C213 4913   3.058   0.917   9.029 -0.3189 -0.3016 -0.0657
   62SAPC  H13R 4914   3.103   0.892   9.128  0.0951  1.9108  0.3414
   62SAPC  H13S 4915   3.133   0.970   8.968  1.1871  0.4960  2.3289
   62SAPC  C214 4916   3.015   0.785   8.975 -0.6312 -0.1541 -0.4107
   62SAPC  H14R 4917   2.991   0.707   9.048 -0.8082  0.2315 -0.0528
   62SAPC  C215 4918   2.994   0.748   8.851  0.1232 -0.1409  0.2143
   62SAPC  H15R 4919   2.955   0.646   8.840  0.1356 -0.0194 -0.9977
   62SAPC  C216 4920   3.000   0.830   8.725  0.3673 -0.5224  0.0054
   62SAPC  H16R 4921   3.002   0.747   8.651  1.0856 -2.4894  2.0958
   62SAPC  H16S 4922   3.100   0.878   8.726  1.2393 -2.2687  0.8073
   62SAPC  C217 4923   2.884   0.932   8.704  0.1525 -0.0260 -0.1854
   62SAPC  H17R 4924   2.891   0.994   8.612  0.7915 -0.9113 -0.7515
   62SAPC  H17S 4925   2.885   0.999   8.793  0.8294 -1.8095  1.1926
   62SAPC  C218 4926   2.749   0.853   8.695 -0.3604 -0.1319  0.4760
   62SAPC  H18R 4927   2.740   0.786   8.783 -0.6544 -0.6416  0.0631
   62SAPC  H18S 4928   2.767   0.787   8.607  1.3946 -0.6708  1.1970
   62SAPC  C219 4929   2.624   0.930   8.679  0.2208  0.6082 -0.5494
   62SAPC  H19R 4930   2.629   1.013   8.604  1.0258  1.0507 -0.0167
   62SAPC  H19S 4931   2.596   0.967   8.780 -1.1537  0.8154 -0.9828
   62SAPC  C220 4932   2.516   0.836   8.623 -0.1570 -0.3831 -0.3289
   62SAPC  H20R 4933   2.494   0.758   8.699 -3.0353  0.5159 -0.1286
   62SAPC  H20S 4934   2.542   0.780   8.530  1.1952 -0.3078 -0.0107
   62SAPC  H20T 4935   2.422   0.890   8.598 -0.3878 -1.4831 -1.9772
   62SAPC   C33 4936   2.711   1.544   9.590 -0.2625  0.0723  0.3200
   62SAPC   H3X 4937   2.639   1.623   9.560 -1.6656 -1.0360  0.6781
   62SAPC   H3Y 4938   2.662   1.446   9.571  0.4258 -0.4820  1.2890
   62SAPC   C34 4939   2.824   1.546   9.489  0.3561  0.9780 -0.1245
   62SAPC   H4X 4940   2.896   1.472   9.530  0.4724  0.2709 -1.5744
   62SAPC   H4Y 4941   2.872   1.646   9.483  1.3226  0.4764 -1.1033
   62SAPC   C35 4942   2.774   1.499   9.355 -0.3722 -0.4509  0.7093
   62SAPC   H5X 4943   2.678   1.552   9.336  0.7524  1.5092  0.1389
   62SAPC   H5Y 4944   2.754   1.390   9.358 -0.4393 -0.4350  0.8402
   62SAPC   C36 4945   2.877   1.541   9.245  0.7853  0.6850  0.3028
   62SAPC   H6X 4946   2.976   1.498   9.274  0.8681  1.6584  1.5351
   62SAPC   H6Y 4947   2.886   1.652   9.251 -0.4394  0.7596  0.9792
   62SAPC   C37 4948   2.859   1.476   9.103  0.1349 -0.3063 -0.1489
   62SAPC   H7X 4949   2.765   1.520   9.064  0.6826  0.4270 -0.6852
   62SAPC   H7Y 4950   2.863   1.365   9.099  1.0183 -0.2676 -0.7900
   62SAPC   C38 4951   2.961   1.531   9.009 -0.5547  0.2756  0.2152
   62SAPC   H8X 4952   3.063   1.498   9.037 -0.5590  1.2661  1.5089
   62SAPC   H8Y 4953   2.955   1.641   9.020 -0.4908  0.1714  1.3924
   62SAPC   C39 4954   2.926   1.490   8.868 -0.4494 -1.0118 -0.0168
   62SAPC   H9X 4955   2.835   1.542   8.835 -0.8942 -0.0947  2.4212
   62SAPC   H9Y 4956   2.890   1.385   8.861  2.5848 -2.1624  0.0074
   62SAPC  C310 4957   3.038   1.534   8.757  0.4585 -0.0252 -0.2675
   62SAPC  H10X 4958   3.131   1.473   8.765 -0.5517 -1.5097  0.8957
   62SAPC  H10Y 4959   3.061   1.642   8.771 -0.4769  0.1635 -0.0878
   62SAPC  C311 4960   2.987   1.524   8.614  0.1688 -0.4467  0.0010
   62SAPC  H11X 4961   3.064   1.559   8.541 -0.7184  0.2604 -0.6106
   62SAPC  H11Y 4962   2.894   1.583   8.606  0.1882 -0.5952 -1.9193
   62SAPC  C312 4963   2.949   1.381   8.564  0.3300 -0.0092 -0.5357
   62SAPC  H12X 4964   2.838   1.379   8.570  0.3629 -0.1524  0.1007
   62SAPC  H12Y 4965   2.995   1.307   8.634 -0.7763  1.8771  2.3567
   62SAPC  C313 4966   2.988   1.363   8.418 -0.3326  0.1624  0.8241
   62SAPC  H13X 4967   3.095   1.388   8.407 -0.6755  0.9334 -1.1099
   62SAPC  H13Y 4968   2.922   1.438   8.370  0.7436 -0.4621 -1.7644
   62SAPC  C314 4969   2.963   1.228   8.353 -0.6189 -0.8952  0.0442
   62SAPC  H14X 4970   3.000   1.219   8.249  0.9572  1.4702  0.3274
   62SAPC  H14Y 4971   2.854   1.206   8.353 -0.1527 -3.5642 -1.3327
   62SAPC  C315 4972   3.036   1.111   8.428  0.4771 -0.2229  0.3842
   62SAPC  H15X 4973   2.977   1.018   8.408  3.0100 -2.0932  1.1300
   62SAPC  H15Y 4974   3.039   1.133   8.537  2.4737  2.1886 -0.0817
   62SAPC  C316 4975   3.177   1.085   8.367 -0.1731  0.7131 -0.2681
   62SAPC  H16X 4976   3.240   1.162   8.418  1.8775 -1.6584  0.9757
   62SAPC  H16Y 4977   3.168   1.099   8.257 -0.2603 -1.4973 -0.5769
   62SAPC  C317 4978   3.220   0.943   8.399 -0.4737 -0.5387 -0.0387
   62SAPC  H17X 4979   3.181   0.927   8.502  1.6310 -0.2801  0.8491
   62SAPC  H17Y 4980   3.330   0.930   8.398 -0.4183 -0.3845  1.7090
   62SAPC  C318 4981   3.156   0.838   8.308 -0.0867  0.7946  0.1639
   62SAPC  H18X 4982   3.047   0.855   8.296 -0.2435 -0.9150 -1.1452
   62SAPC  H18Y 4983   3.167   0.734   8.348  0.1606 -0.4820 -2.9611
   62SAPC  H18Z 4984   3.196   0.842   8.205  1.4954  0.8817  0.7474
   63SAPC     N 4985   0.747   4.995   6.094  0.3443 -0.2099  0.2176
   63SAPC   C12 4986   0.742   5.076   6.225 -0.4004 -0.2320  0.2172
   63SAPC  H12A 4987   0.825   5.048   6.287 -0.5128  1.7928  1.3888
   63SAPC  H12B 4988   0.650   5.043   6.271 -1.2231  0.8941 -0.5577
   63SAPC   C13 4989   0.893   4.992   6.049  0.6673 -1.0759  0.1725
   63SAPC  H13A 4990   0.928   5.094   6.059 -1.5140 -0.2111 -0.3381
   63SAPC  H13B 4991   0.961   4.928   6.102  1.3039  0.3046  1.1018
   63SAPC  H13C 4992   0.893   4.963   5.945 -0.9831  1.9899 -0.8346
   63SAPC   C14 4993   0.704   4.861   6.128 -0.0304 -0.3924  0.4710
   63SAPC  H14A 4994   0.709   4.801   6.038  0.6440 -0.0027  0.2394
   63SAPC  H14B 4995   0.763   4.819   6.208 -0.1234  0.2865  0.9056
   63SAPC  H14C 4996   0.602   4.863   6.163  0.7087  1.5809  2.7911
   63SAPC   C15 4997   0.663   5.063   5.990  0.4452  0.4887  0.3194
   63SAPC  H15A 4998   0.669   4.998   5.904 -2.9417  0.4911 -0.0389
   63SAPC  H15B 4999   0.562   5.086   6.020  0.5333  0.4791  0.6364
   63SAPC  H15C 5000   0.698   5.163   5.971  1.4953  0.2670  0.9457
   63SAPC   C11 5001   0.743   5.234   6.223 -0.2591 -0.4374  0.1282
   63SAPC  H11A 5002   0.706   5.280   6.317  1.0956  0.0541  0.4401
   63SAPC  H11B 5003   0.663   5.253   6.148 -1.8915 -4.9101  0.4031
   63SAPC     P 5004   0.993   5.287   6.260 -0.4012 -0.1460 -0.2912
   63SAPC   O13 5005   1.040   5.150   6.274  0.1672 -0.4830 -0.3961
   63SAPC   O14 5006   1.089   5.385   6.199 -0.2641 -0.6179  0.5112
   63SAPC   O12 5007   0.861   5.293   6.179 -0.5136  0.5101  0.2879
   63SAPC   O11 5008   0.947   5.335   6.407 -0.4522 -0.1515  0.3600
   63SAPC    C1 5009   1.001   5.460   6.451 -0.0052 -0.5935 -0.0540
   63SAPC    HA 5010   0.995   5.540   6.374 -0.9902 -0.6299 -0.0368
   63SAPC    HB 5011   0.934   5.498   6.532  1.7454  2.2079  0.2014
   63SAPC    C2 5012   1.146   5.443   6.511 -0.8670 -0.7392  0.5882
   63SAPC    HS 5013   1.212   5.401   6.432 -0.9959  1.0478 -0.5305
   63SAPC   O21 5014   1.126   5.358   6.624 -0.2194 -0.3125 -0.6483
   63SAPC   C21 5015   1.234   5.300   6.667  0.6026 -0.4332 -0.8773
   63SAPC   O22 5016   1.341   5.299   6.611  0.3166 -0.0261  0.0428
   63SAPC   C22 5017   1.209   5.248   6.809  0.6481 -0.8992 -0.0052
   63SAPC   H2R 5018   1.115   5.192   6.823 -0.9278  2.0872  2.6833
   63SAPC   H2S 5019   1.291   5.176   6.830 -0.6865 -2.9878 -1.5618
   63SAPC    C3 5020   1.200   5.576   6.557 -0.4193 -1.3323  0.9776
   63SAPC    HX 5021   1.157   5.601   6.656  1.9086  0.6751  1.5730
   63SAPC    HY 5022   1.164   5.649   6.481  1.1977  0.0156  1.4565
   63SAPC   O31 5023   1.342   5.577   6.564  0.0576 -0.0333 -0.2617
   63SAPC   C31 5024   1.418   5.657   6.499  0.4516 -1.2104  0.0890
   63SAPC   O32 5025   1.379   5.751   6.430 -0.2391  0.3991 -0.1806
   63SAPC   C32 5026   1.570   5.640   6.527 -0.5763  0.3189 -0.4204
   63SAPC   H2X 5027   1.619   5.682   6.436 -1.6291  1.0953 -0.6465
   63SAPC   H2Y 5028   1.591   5.532   6.536  1.1991  0.5863 -0.8937
   63SAPC   C23 5029   1.214   5.366   6.908  0.0819  0.7663 -0.6039
   63SAPC   H3R 5030   1.125   5.426   6.879 -2.1056 -2.0365 -0.2679
   63SAPC   H3S 5031   1.305   5.428   6.896 -0.0565  1.0796 -0.0524
   63SAPC   C24 5032   1.210   5.307   7.051  0.0930 -1.0793 -0.5517
   63SAPC   H4R 5033   1.280   5.221   7.051  0.6702 -0.6191  0.0985
   63SAPC   H4S 5034   1.111   5.255   7.052 -0.5439  0.0911 -0.8305
   63SAPC   C25 5035   1.229   5.417   7.164  0.0135  0.2679  0.1168
   63SAPC   H5R 5036   1.261   5.517   7.131  0.5591 -0.1892 -0.7738
   63SAPC   C26 5037   1.204   5.396   7.291 -0.8688  0.0470  0.2301
   63SAPC   H6R 5038   1.235   5.464   7.371  0.0248  0.5514 -0.5223
   63SAPC   C27 5039   1.142   5.271   7.347 -0.0194  0.2970 -0.7108
   63SAPC   H7R 5040   1.227   5.214   7.389 -0.0428 -0.8920 -2.2022
   63SAPC   H7S 5041   1.102   5.200   7.272 -2.1213  0.6414  0.0003
   63SAPC   C28 5042   1.033   5.294   7.446 -0.0356  0.1160  0.1117
   63SAPC   H8R 5043   0.935   5.263   7.409  0.1298  0.3327 -0.5152
   63SAPC   C29 5044   1.054   5.321   7.577 -0.6011  0.2390  0.0754
   63SAPC   H9R 5045   0.970   5.324   7.648 -0.5097  0.8190  0.1658
   63SAPC  C210 5046   1.183   5.365   7.640 -0.3965 -0.6651  0.0997
   63SAPC  H10R 5047   1.208   5.473   7.633  0.7864 -0.8865  0.7397
   63SAPC  H10S 5048   1.272   5.320   7.590 -0.3892 -0.4961 -0.0433
   63SAPC  C211 5049   1.175   5.330   7.785 -0.0667  0.2239  0.4740
   63SAPC  H11R 5050   1.170   5.222   7.806 -0.5992  0.1443 -0.0577
   63SAPC  C212 5051   1.173   5.418   7.893 -1.2144  0.1490 -0.3393
   63SAPC  H12R 5052   1.173   5.382   7.997  0.1774  1.1315  0.0286
   63SAPC  C213 5053   1.175   5.571   7.882  0.4498 -0.5123  0.5604
   63SAPC  H13R 5054   1.070   5.597   7.907 -0.4433 -2.2395 -1.1476
   63SAPC  H13S 5055   1.194   5.603   7.778 -2.0523 -0.3609  0.0864
   63SAPC  C214 5056   1.266   5.651   7.972  0.5367  0.3334 -0.3513
   63SAPC  H14R 5057   1.332   5.720   7.918  1.3319  1.4799  1.9629
   63SAPC  C215 5058   1.275   5.643   8.104  0.5123  0.2629  0.1959
   63SAPC  H15R 5059   1.345   5.706   8.161  1.8630 -1.6086  0.6843
   63SAPC  C216 5060   1.188   5.558   8.199  0.1392  0.4491  0.0133
   63SAPC  H16R 5061   1.246   5.470   8.236 -0.1861 -0.2926 -1.1877
   63SAPC  H16S 5062   1.112   5.501   8.141 -0.1749  0.2649  0.5954
   63SAPC  C217 5063   1.101   5.639   8.302  0.2065  0.0390  0.1061
   63SAPC  H17R 5064   1.046   5.560   8.358  1.6677 -0.0575  1.4607
   63SAPC  H17S 5065   1.028   5.699   8.241  1.3841  1.4457  0.0228
   63SAPC  C218 5066   1.174   5.732   8.400  0.2401 -0.2513  0.7577
   63SAPC  H18R 5067   1.102   5.776   8.472 -0.5074 -0.4779  0.1617
   63SAPC  H18S 5068   1.203   5.818   8.336 -2.8848 -0.2219 -0.8524
   63SAPC  C219 5069   1.284   5.661   8.474  0.2726  0.0816  0.1361
   63SAPC  H19R 5070   1.347   5.606   8.401 -2.7762 -1.7087 -1.3604
   63SAPC  H19S 5071   1.228   5.587   8.534  0.1686 -0.2889 -0.4056
   63SAPC  C220 5072   1.367   5.754   8.552  0.7885 -0.3065  0.5690
   63SAPC  H20R 5073   1.296   5.803   8.621  0.9967  1.1619 -0.2169
   63SAPC  H20S 5074   1.426   5.826   8.491  1.9444 -0.6314  1.2597
   63SAPC  H20T 5075   1.441   5.702   8.617  2.0141  0.5204 -0.1209
   63SAPC   C33 5076   1.616   5.714   6.658 -0.4896  0.2841 -0.5601
   63SAPC   H3X 5077   1.573   5.817   6.657 -0.8891  0.2031  1.7194
   63SAPC   H3Y 5078   1.726   5.723   6.649 -0.2610 -0.0153  1.4924
   63SAPC   C34 5079   1.591   5.626   6.780 -0.0369 -0.0606  0.9236
   63SAPC   H4X 5080   1.648   5.531   6.767  0.6258  0.2178  1.7267
   63SAPC   H4Y 5081   1.483   5.604   6.789  0.3248 -1.4499  2.2890
   63SAPC   C35 5082   1.649   5.696   6.909 -0.3949  1.3483  0.6498
   63SAPC   H5X 5083   1.571   5.769   6.940 -2.3782 -1.6165  3.1686
   63SAPC   H5Y 5084   1.739   5.755   6.880 -0.2187  0.6842 -0.1834
   63SAPC   C36 5085   1.677   5.608   7.027 -0.7484  0.1543  0.8154
   63SAPC   H6X 5086   1.756   5.534   7.005 -1.0936 -0.0349  0.1985
   63SAPC   H6Y 5087   1.587   5.552   7.059  0.9622 -1.9315  2.2051
   63SAPC   C37 5088   1.730   5.685   7.147 -0.0375  0.1121 -0.7392
   63SAPC   H7X 5089   1.817   5.734   7.099  0.4145 -1.5024 -1.6485
   63SAPC   H7Y 5090   1.753   5.614   7.229  0.5599  1.6486  0.4723
   63SAPC   C38 5091   1.633   5.787   7.206  0.5275  0.1048  0.9656
   63SAPC   H8X 5092   1.600   5.851   7.122  4.0886 -1.0666 -1.5374
   63SAPC   H8Y 5093   1.670   5.872   7.267 -1.5455  4.1654 -2.9006
   63SAPC   C39 5094   1.508   5.726   7.277  0.7421 -0.0430 -0.4755
   63SAPC   H9X 5095   1.536   5.620   7.296  1.3094  0.0469 -0.7911
   63SAPC   H9Y 5096   1.415   5.735   7.217 -0.3713  0.8283  1.2946
   63SAPC  C310 5097   1.479   5.786   7.421 -0.3812  0.3226 -0.1456
   63SAPC  H10X 5098   1.393   5.729   7.463 -0.4612 -0.1014 -0.8674
   63SAPC  H10Y 5099   1.454   5.894   7.420  0.1171  0.4406 -0.2776
   63SAPC  C311 5100   1.588   5.768   7.533  0.8782 -0.0914 -0.3032
   63SAPC  H11X 5101   1.667   5.843   7.511  2.4758 -2.2264 -2.4227
   63SAPC  H11Y 5102   1.640   5.672   7.516  4.8473  2.1148 -2.1632
   63SAPC  C312 5103   1.530   5.781   7.672 -0.2803 -0.6965  1.5571
   63SAPC  H12X 5104   1.449   5.707   7.691  0.4782 -1.6960  0.9958
   63SAPC  H12Y 5105   1.490   5.885   7.674  0.1491 -0.5077  0.6948
   63SAPC  C313 5106   1.640   5.760   7.775  0.3834  0.5439 -0.3088
   63SAPC  H13X 5107   1.721   5.833   7.754  1.3181 -0.3546  0.1472
   63SAPC  H13Y 5108   1.693   5.663   7.764  0.3614  0.7054 -2.3344
   63SAPC  C314 5109   1.605   5.783   7.916  0.1524 -0.0526  0.4091
   63SAPC  H14X 5110   1.694   5.782   7.983 -0.8201 -0.0422  1.7496
   63SAPC  H14Y 5111   1.528   5.710   7.949 -0.4620 -0.0414 -0.9712
   63SAPC  C315 5112   1.548   5.929   7.944 -0.0134  0.7361  0.6001
   63SAPC  H15X 5113   1.445   5.929   7.904  0.4116 -1.2179 -0.6179
   63SAPC  H15Y 5114   1.607   6.008   7.893  0.7677  0.6423  1.3172
   63SAPC  C316 5115   1.564   5.955   8.089  0.4983  0.8229  0.0741
   63SAPC  H16X 5116   1.673   5.964   8.105  0.8405 -1.4329 -0.6412
   63SAPC  H16Y 5117   1.531   5.866   8.148  1.3973  0.1067 -0.4768
   63SAPC  C317 5118   1.477   6.071   8.128  0.2929 -0.4130 -0.4511
   63SAPC  H17X 5119   1.369   6.054   8.108  0.4488 -0.7157 -1.0520
   63SAPC  H17Y 5120   1.516   6.152   8.064  0.0458 -0.5196 -0.7444
   63SAPC  C318 5121   1.492   6.137   8.267  0.0159  0.2156 -0.1933
   63SAPC  H18X 5122   1.428   6.082   8.339  2.5253  1.6041  3.4097
   63SAPC  H18Y 5123   1.460   6.244   8.269  1.3226  0.6169  1.4621
   63SAPC  H18Z 5124   1.595   6.128   8.309 -0.7296 -1.9282  1.3401
   64SAPC     N 5125   3.377   6.428   5.705  0.3162  0.3351  0.1952
   64SAPC   C12 5126   3.326   6.386   5.843  0.1459 -0.2298 -0.5388
   64SAPC  H12A 5127   3.225   6.349   5.836 -0.0864  0.5668 -1.6967
   64SAPC  H12B 5128   3.309   6.475   5.903 -1.6777 -0.8534 -0.0508
   64SAPC   C13 5129   3.523   6.460   5.708 -0.1799  0.1655 -0.5318
   64SAPC  H13A 5130   3.577   6.373   5.742 -0.2051 -0.8713 -2.9617
   64SAPC  H13B 5131   3.558   6.481   5.608  2.3105  0.0237  0.2538
   64SAPC  H13C 5132   3.552   6.547   5.765 -0.1189 -0.2710  0.1166
   64SAPC   C14 5133   3.354   6.313   5.607  0.0450  0.1011 -1.0893
   64SAPC  H14A 5134   3.391   6.222   5.652  1.4705  1.1447 -0.0500
   64SAPC  H14B 5135   3.247   6.298   5.598 -0.4259 -0.1194  2.9332
   64SAPC  H14C 5136   3.399   6.326   5.510  1.1018  0.0527 -0.6162
   64SAPC   C15 5137   3.303   6.546   5.661  0.2156 -0.1238  0.0026
   64SAPC  H15A 5138   3.331   6.586   5.564  0.0957  1.5349  0.6295
   64SAPC  H15B 5139   3.198   6.524   5.650  0.2380 -0.9394  1.2273
   64SAPC  H15C 5140   3.319   6.627   5.731  1.9354  0.1797 -0.6888
   64SAPC   C11 5141   3.415   6.288   5.926  1.4426  0.7826 -0.1376
   64SAPC  H11A 5142   3.350   6.274   6.016 -2.3016  1.8263 -2.4455
   64SAPC  H11B 5143   3.513   6.336   5.947  0.3298  3.6797 -0.9937
   64SAPC     P 5144   3.555   6.088   5.831  0.0479  0.3867 -0.4670
   64SAPC   O13 5145   3.528   5.965   5.754  0.1375 -0.1167 -0.3764
   64SAPC   O14 5146   3.651   6.179   5.763  0.1566  0.9609 -0.0744
   64SAPC   O12 5147   3.419   6.165   5.853  0.7891 -0.0178 -0.1595
   64SAPC   O11 5148   3.607   6.060   5.974  0.2233  0.1578 -0.2556
   64SAPC    C1 5149   3.534   5.994   6.076 -0.4156  0.3373 -0.4564
   64SAPC    HA 5150   3.429   6.030   6.071 -1.2642 -2.1655 -2.7797
   64SAPC    HB 5151   3.532   5.884   6.066  1.1431  0.4363 -2.4054
   64SAPC    C2 5152   3.609   6.021   6.208 -0.1999  0.0628  0.5311
   64SAPC    HS 5153   3.712   5.979   6.202 -0.0074  0.6742 -0.9750
   64SAPC   O21 5154   3.523   5.956   6.309 -0.0809 -0.1585  0.7346
   64SAPC   C21 5155   3.589   5.936   6.426  0.1345  0.9476  1.3338
   64SAPC   O22 5156   3.710   5.943   6.444 -0.3226  0.1825 -0.4881
   64SAPC   C22 5157   3.490   5.889   6.530  0.1934  0.1332 -0.5336
   64SAPC   H2R 5158   3.405   5.960   6.523 -0.8826 -0.9416  1.0554
   64SAPC   H2S 5159   3.462   5.787   6.496  0.7569 -0.9263  1.9770
   64SAPC    C3 5160   3.612   6.178   6.229 -0.3345  0.3777  0.2399
   64SAPC    HX 5161   3.506   6.208   6.221 -0.4291 -0.2844 -1.2830
   64SAPC    HY 5162   3.656   6.232   6.143 -0.5670 -1.5341 -1.1479
   64SAPC   O31 5163   3.651   6.214   6.363  0.1335  0.2325  0.3955
   64SAPC   C31 5164   3.779   6.246   6.376  0.0868  0.0330 -0.0972
   64SAPC   O32 5165   3.858   6.243   6.284 -0.8396  0.1348  0.5209
   64SAPC   C32 5166   3.815   6.293   6.515  0.1677  0.1640 -0.1390
   64SAPC   H2X 5167   3.743   6.255   6.591  0.1417  1.4554  0.5193
   64SAPC   H2Y 5168   3.822   6.404   6.511  1.1092  0.2454  2.2150
   64SAPC   C23 5169   3.542   5.883   6.672 -0.0465 -0.2361 -0.3430
   64SAPC   H3R 5170   3.634   5.822   6.659 -0.8848 -1.3662 -1.1440
   64SAPC   H3S 5171   3.471   5.836   6.743  3.1991 -3.8268  0.8402
   64SAPC   C24 5172   3.589   6.014   6.742  0.1595  0.1966 -0.7726
   64SAPC   H4R 5173   3.649   6.074   6.671 -0.9867  1.1377 -0.9818
   64SAPC   H4S 5174   3.666   6.001   6.821 -1.2079 -1.3443  0.3691
   64SAPC   C25 5175   3.465   6.094   6.782 -0.3053  0.0097 -0.2596
   64SAPC   H5R 5176   3.439   6.170   6.708  1.2016  0.8385  0.0177
   64SAPC   C26 5177   3.411   6.092   6.908  0.3787  0.7063 -0.4324
   64SAPC   H6R 5178   3.318   6.148   6.928  0.6347  0.4792  1.5439
   64SAPC   C27 5179   3.453   5.990   7.016  0.5026  0.3457  0.1182
   64SAPC   H7R 5180   3.460   5.885   6.980 -1.5810 -0.2633  1.2858
   64SAPC   H7S 5181   3.368   5.984   7.088  1.2652 -0.2872  0.9849
   64SAPC   C28 5182   3.582   6.027   7.091 -0.4101 -0.2298  0.0863
   64SAPC   H8R 5183   3.675   6.021   7.033 -1.1725  1.7041 -1.4432
   64SAPC   C29 5184   3.584   6.059   7.226  0.1107  0.1048  0.0813
   64SAPC   H9R 5185   3.682   6.086   7.266  0.2878  1.2406 -1.0391
   64SAPC  C210 5186   3.467   6.073   7.321  0.8753 -0.5257  0.8911
   64SAPC  H10R 5187   3.457   5.982   7.384 -1.2540 -1.6133 -0.8642
   64SAPC  H10S 5188   3.363   6.062   7.282  0.4424 -0.5062  1.9987
   64SAPC  C211 5189   3.470   6.199   7.403  0.6374 -0.1547  0.0967
   64SAPC  H11R 5190   3.477   6.289   7.340  0.6114  0.1380  0.5055
   64SAPC  C212 5191   3.458   6.219   7.539 -0.4447 -0.2169  0.2733
   64SAPC  H12R 5192   3.443   6.319   7.582  0.4353 -0.2235  0.6150
   64SAPC  C213 5193   3.417   6.105   7.630  0.0208  0.2897  0.1494
   64SAPC  H13R 5194   3.435   6.009   7.578  0.7559  0.9223 -0.7982
   64SAPC  H13S 5195   3.308   6.104   7.651  0.1472  0.1686  0.8207
   64SAPC  C214 5196   3.505   6.103   7.755 -0.6517  0.5848  0.3705
   64SAPC  H14R 5197   3.590   6.034   7.757 -1.6033 -0.6317  0.0521
   64SAPC  C215 5198   3.462   6.169   7.864 -0.0329  0.7455 -0.5639
   64SAPC  H15R 5199   3.529   6.171   7.951  0.1821 -1.5538 -0.6141
   64SAPC  C216 5200   3.331   6.240   7.887  0.2015  0.1469  0.0326
   64SAPC  H16R 5201   3.244   6.179   7.918  0.6232  0.2403  1.4974
   64SAPC  H16S 5202   3.297   6.274   7.787  0.5189 -1.3980 -0.6222
   64SAPC  C217 5203   3.358   6.347   7.994  0.6494 -0.0241  0.0299
   64SAPC  H17R 5204   3.439   6.414   7.959  0.0463  0.0720 -1.2337
   64SAPC  H17S 5205   3.392   6.307   8.091 -0.7574 -1.1768  0.0825
   64SAPC  C218 5206   3.238   6.430   8.026  0.6445  0.6507  0.3895
   64SAPC  H18R 5207   3.161   6.366   8.074  0.0245 -0.1465 -1.5822
   64SAPC  H18S 5208   3.181   6.468   7.939 -2.5739 -0.1650  1.9970
   64SAPC  C219 5209   3.268   6.547   8.113 -0.2587 -0.2697  0.1234
   64SAPC  H19R 5210   3.342   6.608   8.057 -1.4238  1.2990  0.2516
   64SAPC  H19S 5211   3.305   6.529   8.216 -3.2010 -1.7876  1.0588
   64SAPC  C220 5212   3.143   6.637   8.132 -0.1440 -0.9615  0.1558
   64SAPC  H20R 5213   3.082   6.644   8.040  1.0389  1.6148 -0.5402
   64SAPC  H20S 5214   3.161   6.741   8.168  0.3363 -0.7877 -0.5821
   64SAPC  H20T 5215   3.080   6.589   8.210 -0.4792 -2.2421 -0.8893
   64SAPC   C33 5216   3.959   6.258   6.567 -0.2571 -0.2521  0.8243
   64SAPC   H3X 5217   4.040   6.282   6.495  1.2754 -2.2215  1.7837
   64SAPC   H3Y 5218   3.971   6.154   6.606 -1.8346  0.7578  4.3356
   64SAPC   C34 5219   3.990   6.352   6.689 -0.3447  0.5993  0.1964
   64SAPC   H4X 5220   3.972   6.459   6.663 -2.0279  1.1695  3.2164
   64SAPC   H4Y 5221   4.097   6.329   6.711 -0.9096 -2.8930 -0.2301
   64SAPC   C35 5222   3.910   6.322   6.817 -0.5588 -0.1843  0.0371
   64SAPC   H5X 5223   3.949   6.223   6.850  0.9376 -0.1116 -1.3775
   64SAPC   H5Y 5224   3.802   6.321   6.793 -0.5906 -0.5579  0.1854
   64SAPC   C36 5225   3.934   6.413   6.939 -0.8663  0.3192  0.2006
   64SAPC   H6X 5226   3.909   6.353   7.029  2.1086 -1.3166  0.0528
   64SAPC   H6Y 5227   3.881   6.510   6.927  0.5590  0.8633 -2.3020
   64SAPC   C37 5228   4.087   6.447   6.954  0.4414  0.3378 -0.3755
   64SAPC   H7X 5229   4.117   6.499   6.860  1.1772  1.2389  0.3445
   64SAPC   H7Y 5230   4.144   6.354   6.974 -1.5490 -1.0275 -0.7567
   64SAPC   C38 5231   4.116   6.522   7.083 -0.0652 -0.1446  0.4108
   64SAPC   H8X 5232   4.036   6.594   7.111 -0.4954 -0.8928  1.1416
   64SAPC   H8Y 5233   4.219   6.564   7.086  0.4495 -1.3660  0.2547
   64SAPC   C39 5234   4.117   6.428   7.203  0.8125 -0.0718  0.9841
   64SAPC   H9X 5235   4.184   6.340   7.195 -0.6166 -1.2268  1.3518
   64SAPC   H9Y 5236   4.014   6.388   7.212  1.6122 -3.1025 -1.6821
   64SAPC  C310 5237   4.162   6.495   7.326  0.2745  0.5527  0.0024
   64SAPC  H10X 5238   4.100   6.585   7.347  1.9162  1.3555  1.7324
   64SAPC  H10Y 5239   4.267   6.529   7.314  0.4667 -0.1122 -0.2390
   64SAPC  C311 5240   4.146   6.404   7.455 -0.0845  0.2932  0.7156
   64SAPC  H11X 5241   4.211   6.316   7.440 -0.6183  0.0236 -0.0438
   64SAPC  H11Y 5242   4.041   6.368   7.461  0.4040 -1.6338 -1.2288
   64SAPC  C312 5243   4.181   6.485   7.575  0.1357 -0.1171 -0.2716
   64SAPC  H12X 5244   4.111   6.570   7.589  1.1130  0.7801 -0.7455
   64SAPC  H12Y 5245   4.288   6.510   7.561 -0.5228  3.2372  0.0408
   64SAPC  C313 5246   4.180   6.402   7.707  0.5928 -0.8101  0.0636
   64SAPC  H13X 5247   4.242   6.309   7.707  0.4344 -0.9157 -0.2436
   64SAPC  H13Y 5248   4.080   6.375   7.746  0.1712  0.5936 -0.0199
   64SAPC  C314 5249   4.224   6.498   7.825  0.3013  0.6964  0.0502
   64SAPC  H14X 5250   4.160   6.589   7.822  0.2806  0.6897  0.2676
   64SAPC  H14Y 5251   4.324   6.540   7.801  0.0759  2.1217  1.4372
   64SAPC  C315 5252   4.207   6.434   7.963 -0.0968 -0.3910  0.2962
   64SAPC  H15X 5253   4.252   6.504   8.037 -0.7925 -0.6635  0.9905
   64SAPC  H15Y 5254   4.245   6.330   7.966  0.4720 -0.1800  0.5399
   64SAPC  C316 5255   4.056   6.440   8.007 -0.2507  0.0539  0.2632
   64SAPC  H16X 5256   3.989   6.395   7.930  1.1217 -2.9330  0.6795
   64SAPC  H16Y 5257   4.035   6.546   8.032  0.1983  0.0678  0.5862
   64SAPC  C317 5258   4.028   6.353   8.137 -0.6570 -0.4882 -0.2907
   64SAPC  H17X 5259   4.084   6.404   8.218  2.0369 -4.3447  0.5728
   64SAPC  H17Y 5260   4.072   6.252   8.123 -2.7039 -1.4771  0.0572
   64SAPC  C318 5261   3.878   6.355   8.177  0.6245  0.3785  0.2133
   64SAPC  H18X 5262   3.862   6.293   8.268 -3.7522 -1.0289 -1.2668
   64SAPC  H18Y 5263   3.821   6.315   8.091  1.8531  0.8978 -0.8859
   64SAPC  H18Z 5264   3.843   6.459   8.197 -0.1160 -0.0387  1.1716
   65SAPC     N 5265   3.705   1.876   5.955 -0.3409 -0.2068 -0.3375
   65SAPC   C12 5266   3.756   1.739   5.906 -0.0179 -0.1144  0.3044
   65SAPC  H12A 5267   3.736   1.734   5.800 -0.1442 -2.0608  0.3995
   65SAPC  H12B 5268   3.709   1.650   5.945  0.3433 -0.7880 -0.7457
   65SAPC   C13 5269   3.735   1.887   6.105 -0.0892 -0.1100  0.3299
   65SAPC  H13A 5270   3.661   1.831   6.161 -1.6166  0.4511 -1.0615
   65SAPC  H13B 5271   3.835   1.851   6.124 -0.2478  0.2128  1.9227
   65SAPC  H13C 5272   3.728   1.990   6.136 -0.0216  0.2516 -0.8113
   65SAPC   C14 5273   3.774   1.983   5.873  0.9139  0.8174 -0.5137
   65SAPC  H14A 5274   3.878   1.991   5.901  0.3258 -1.2718  2.8266
   65SAPC  H14B 5275   3.759   1.986   5.766  3.5720  1.5220 -0.9438
   65SAPC  H14C 5276   3.740   2.076   5.916  1.6229  0.4420  0.9357
   65SAPC   C15 5277   3.556   1.884   5.934 -0.7240  0.7863  0.1534
   65SAPC  H15A 5278   3.526   1.847   5.837  2.5459 -0.3612 -0.5595
   65SAPC  H15B 5279   3.508   1.821   6.007 -0.9861 -1.2875 -1.6847
   65SAPC  H15C 5280   3.535   1.987   5.956  2.5359  2.0053 -1.7943
   65SAPC   C11 5281   3.904   1.722   5.925 -0.1012  0.7497  0.4357
   65SAPC  H11A 5282   3.965   1.801   5.876  1.8314 -1.0611 -0.2336
   65SAPC  H11B 5283   3.934   1.630   5.870  1.4518  0.8242  1.0915
   65SAPC     P 5284   3.940   1.561   6.131  0.1368 -0.0839 -0.0507
   65SAPC   O13 5285   3.803   1.550   6.191  0.7156 -0.2479  0.1923
   65SAPC   O14 5286   3.981   1.461   6.032 -0.0218 -0.0843  0.2843
   65SAPC   O12 5287   3.949   1.701   6.063 -0.2574  0.3865  0.4028
   65SAPC   O11 5288   4.044   1.576   6.245 -0.1852 -0.5647 -0.3319
   65SAPC    C1 5289   4.096   1.707   6.291  0.8291  0.5397  0.2202
   65SAPC    HA 5290   4.198   1.686   6.331  0.7727  0.1812  0.1801
   65SAPC    HB 5291   4.100   1.786   6.213 -0.1635  0.3960  0.0049
   65SAPC    C2 5292   4.030   1.762   6.423 -0.5013 -0.0593  0.5563
   65SAPC    HS 5293   4.108   1.749   6.502 -0.8538  0.5713  1.0262
   65SAPC   O21 5294   3.904   1.698   6.457 -0.2015  0.1835  0.2349
   65SAPC   C21 5295   3.933   1.578   6.513  0.0255 -0.3569  0.4814
   65SAPC   O22 5296   4.040   1.526   6.536 -0.2647  0.7209  0.0243
   65SAPC   C22 5297   3.796   1.514   6.525  0.4376  0.0131  0.0330
   65SAPC   H2R 5298   3.725   1.585   6.574  1.2256  0.4924  0.5151
   65SAPC   H2S 5299   3.760   1.495   6.422 -0.4639  0.7525  0.1933
   65SAPC    C3 5300   4.006   1.911   6.407  0.5204  0.0454  0.2053
   65SAPC    HX 5301   3.949   1.923   6.312  0.6380 -1.7256 -0.1253
   65SAPC    HY 5302   4.107   1.956   6.397  1.2736 -1.7633 -1.0764
   65SAPC   O31 5303   3.923   1.972   6.511  0.5720 -0.7129 -0.1474
   65SAPC   C31 5304   3.988   2.024   6.613 -0.3058 -0.1998 -0.1362
   65SAPC   O32 5305   4.108   2.020   6.625  0.2147 -0.3816  0.0658
   65SAPC   C32 5306   3.897   2.100   6.707  0.2263 -0.0160 -0.0566
   65SAPC   H2X 5307   3.819   2.032   6.747  0.8002 -1.8206 -1.8683
   65SAPC   H2Y 5308   3.841   2.183   6.658 -0.6732 -0.0977  0.7984
   65SAPC   C23 5309   3.793   1.372   6.591  0.2275 -0.4392  0.7810
   65SAPC   H3R 5310   3.885   1.319   6.557  0.8826 -1.5323  3.8919
   65SAPC   H3S 5311   3.709   1.309   6.554  1.5755 -0.9997 -1.5045
   65SAPC   C24 5312   3.792   1.374   6.750  0.5320  0.6946 -0.4507
   65SAPC   H4R 5313   3.843   1.283   6.789  1.5804  1.3583 -0.2023
   65SAPC   H4S 5314   3.694   1.377   6.802  1.2548 -2.3715  1.3838
   65SAPC   C25 5315   3.877   1.477   6.815  0.4390 -0.4212 -0.0879
   65SAPC   H5R 5316   3.977   1.444   6.848  0.4607  0.8797  1.2447
   65SAPC   C26 5317   3.836   1.595   6.869  0.1884 -0.1125  0.3435
   65SAPC   H6R 5318   3.905   1.654   6.932 -1.0034 -0.6562  2.2297
   65SAPC   C27 5319   3.704   1.660   6.879  0.6130  0.2754 -0.1666
   65SAPC   H7R 5320   3.652   1.588   6.945 -0.4303  1.6380  0.5454
   65SAPC   H7S 5321   3.644   1.647   6.786  2.3080 -1.1986 -1.1157
   65SAPC   C28 5322   3.694   1.800   6.922 -0.9888  0.1500  0.0787
   65SAPC   H8R 5323   3.725   1.872   6.845 -0.6441 -0.3185 -0.2279
   65SAPC   C29 5324   3.661   1.843   7.044 -0.8552 -0.3528 -0.4296
   65SAPC   H9R 5325   3.640   1.950   7.061  0.0766  0.0440 -1.6599
   65SAPC  C210 5326   3.624   1.757   7.163  1.1133 -0.0901 -0.6102
   65SAPC  H10R 5327   3.586   1.659   7.128 -0.6247  0.0972  0.6032
   65SAPC  H10S 5328   3.531   1.802   7.204  1.6495  0.0758  0.4622
   65SAPC  C211 5329   3.719   1.751   7.286 -0.1186  0.2414  0.6438
   65SAPC  H11R 5330   3.727   1.842   7.347  0.8977  2.1753 -2.1619
   65SAPC  C212 5331   3.791   1.643   7.328  0.3361  0.3573  0.2093
   65SAPC  H12R 5332   3.871   1.660   7.402  1.6412 -1.4494 -0.7250
   65SAPC  C213 5333   3.780   1.507   7.267 -0.2728 -0.1307 -0.0971
   65SAPC  H13R 5334   3.825   1.518   7.166  0.0539 -0.7227 -0.0212
   65SAPC  H13S 5335   3.676   1.476   7.244 -0.3996  0.2376 -0.0331
   65SAPC  C214 5336   3.855   1.407   7.347  0.3822 -0.4997 -0.0521
   65SAPC  H14R 5337   3.959   1.389   7.317  0.9087  1.3192  0.5510
   65SAPC  C215 5338   3.808   1.351   7.459 -0.4968 -0.6782 -0.4325
   65SAPC  H15R 5339   3.859   1.265   7.506 -1.0223 -0.5741  0.3536
   65SAPC  C216 5340   3.675   1.382   7.517 -0.7988  0.3430  0.5223
   65SAPC  H16R 5341   3.616   1.291   7.539 -1.3549  0.0220 -2.0033
   65SAPC  H16S 5342   3.616   1.433   7.438  0.9889 -2.6442 -3.0487
   65SAPC  C217 5343   3.699   1.456   7.647 -0.5922 -0.3536 -0.1946
   65SAPC  H17R 5344   3.604   1.513   7.658  0.1970  1.6445 -2.7291
   65SAPC  H17S 5345   3.784   1.527   7.635 -0.3647 -0.5771  0.0821
   65SAPC  C218 5346   3.710   1.351   7.761 -0.3336  0.1768  0.5156
   65SAPC  H18R 5347   3.795   1.284   7.736  0.8513  1.4746  0.9505
   65SAPC  H18S 5348   3.623   1.286   7.780  0.3484 -1.0346 -0.3580
   65SAPC  C219 5349   3.747   1.415   7.900  0.5849  0.0422  0.3701
   65SAPC  H19R 5350   3.655   1.464   7.938 -0.8029  0.2581 -2.9499
   65SAPC  H19S 5351   3.839   1.476   7.896 -0.3667  1.7181  2.1349
   65SAPC  C220 5352   3.778   1.299   7.993 -0.5439 -0.1647 -0.3812
   65SAPC  H20R 5353   3.852   1.227   7.949 -1.6475 -0.4055 -1.9534
   65SAPC  H20S 5354   3.690   1.231   7.993  0.3396 -1.3543 -0.9352
   65SAPC  H20T 5355   3.799   1.328   8.098 -1.1285 -0.8924 -0.0582
   65SAPC   C33 5356   3.963   2.175   6.829 -0.8917 -0.6891 -0.2728
   65SAPC   H3X 5357   4.060   2.222   6.802 -1.3767  0.1184 -0.6836
   65SAPC   H3Y 5358   3.982   2.097   6.906 -0.9940  0.3442  0.8281
   65SAPC   C34 5359   3.865   2.291   6.869 -1.0360 -0.5820  0.3693
   65SAPC   H4X 5360   3.767   2.238   6.867 -1.4106  0.1173 -0.5295
   65SAPC   H4Y 5361   3.880   2.377   6.800 -0.5004 -0.4379  0.6658
   65SAPC   C35 5362   3.884   2.336   7.015  0.4093 -0.2198  0.1619
   65SAPC   H5X 5363   3.809   2.416   7.035  0.7307  0.1296 -0.0173
   65SAPC   H5Y 5364   3.981   2.388   7.028  0.7403 -0.3512 -1.5487
   65SAPC   C36 5365   3.846   2.235   7.121 -0.1486 -0.0270 -0.1321
   65SAPC   H6X 5366   3.888   2.134   7.104 -0.4101 -0.6379  2.4637
   65SAPC   H6Y 5367   3.735   2.223   7.117 -0.0972 -1.5362  1.6598
   65SAPC   C37 5368   3.890   2.281   7.265 -0.0437  0.1765 -0.3732
   65SAPC   H7X 5369   3.834   2.375   7.284 -0.9087 -0.5824  1.0652
   65SAPC   H7Y 5370   3.999   2.298   7.271 -0.2118  1.4284 -0.5512
   65SAPC   C38 5371   3.848   2.177   7.369  0.2489  0.1319  0.1517
   65SAPC   H8X 5372   3.851   2.073   7.331  0.7953  0.6666 -1.3367
   65SAPC   H8Y 5373   3.738   2.176   7.385 -0.3825 -2.1455 -3.2412
   65SAPC   C39 5374   3.940   2.177   7.499 -0.1802  0.4391  0.8720
   65SAPC   H9X 5375   3.965   2.281   7.531  2.9820 -0.9479  3.4529
   65SAPC   H9Y 5376   4.032   2.131   7.457 -1.2293 -0.8608 -0.0867
   65SAPC  C310 5377   3.875   2.096   7.611 -0.1427 -0.0253  0.2399
   65SAPC  H10X 5378   3.774   2.138   7.633 -0.1116  0.1054  0.1395
   65SAPC  H10Y 5379   3.934   2.124   7.701  1.8577 -0.6931 -0.7960
   65SAPC  C311 5380   3.861   1.941   7.609  0.4901  0.7150  0.1771
   65SAPC  H11X 5381   3.962   1.897   7.624  0.9606  1.6965  0.0132
   65SAPC  H11Y 5382   3.834   1.916   7.504 -0.8466  2.4052  0.0587
   65SAPC  C312 5383   3.772   1.880   7.715 -0.3612 -0.2014  0.2416
   65SAPC  H12X 5384   3.819   1.891   7.814  1.1664 -2.2582 -0.1983
   65SAPC  H12Y 5385   3.784   1.770   7.709  1.3908 -0.0416  0.4537
   65SAPC  C313 5386   3.626   1.925   7.710 -0.5517  0.7208  0.1250
   65SAPC  H13X 5387   3.595   1.931   7.603 -1.5952 -2.3737  0.1547
   65SAPC  H13Y 5388   3.618   2.024   7.760  0.0874  0.6033  0.4606
   65SAPC  C314 5389   3.531   1.820   7.768 -0.6136 -0.4831  0.2380
   65SAPC  H14X 5390   3.528   1.724   7.712  0.8855 -0.7281  0.5441
   65SAPC  H14Y 5391   3.424   1.851   7.777 -0.4957  0.0945 -0.2530
   65SAPC  C315 5392   3.560   1.802   7.918 -0.8424 -0.8110 -0.2013
   65SAPC  H15X 5393   3.582   1.901   7.963  0.3547 -1.9561  1.9094
   65SAPC  H15Y 5394   3.651   1.739   7.927 -0.2794 -0.2788 -1.7776
   65SAPC  C316 5395   3.457   1.715   7.989  0.2456 -0.2799  1.2683
   65SAPC  H16X 5396   3.414   1.640   7.920 -1.9177  1.1710  0.9632
   65SAPC  H16Y 5397   3.370   1.776   8.019  1.9678  1.8751  2.1398
   65SAPC  C317 5398   3.501   1.651   8.125  1.2307 -0.2773 -0.3213
   65SAPC  H17X 5399   3.531   1.547   8.100  2.0886 -0.0019 -0.4680
   65SAPC  H17Y 5400   3.412   1.642   8.190  0.3531 -0.5604 -1.5283
   65SAPC  C318 5401   3.591   1.730   8.220 -0.5716  0.0377  0.9729
   65SAPC  H18X 5402   3.549   1.830   8.245  2.7963  1.8554 -0.0482
   65SAPC  H18Y 5403   3.689   1.736   8.168 -0.7594 -0.4450  0.5566
   65SAPC  H18Z 5404   3.608   1.678   8.317  0.8494 -1.4952 -0.0416
   66SAPC     N 5405   1.303   5.745   5.770 -0.1764  0.2119  0.1931
   66SAPC   C12 5406   1.308   5.714   5.910 -0.4164  0.0056 -0.3314
   66SAPC  H12A 5407   1.311   5.607   5.926 -0.5464 -0.2212 -1.6814
   66SAPC  H12B 5408   1.214   5.742   5.955 -0.6787 -2.0441  0.5053
   66SAPC   C13 5409   1.315   5.886   5.744 -0.2899  0.3755  0.3354
   66SAPC  H13A 5410   1.402   5.920   5.799 -0.0145 -1.8380  1.3901
   66SAPC  H13B 5411   1.318   5.904   5.638  0.2924 -3.4133 -0.4332
   66SAPC  H13C 5412   1.234   5.949   5.779 -0.0477  1.2107 -0.5819
   66SAPC   C14 5413   1.434   5.690   5.705 -0.0756  0.2742  0.2089
   66SAPC  H14A 5414   1.513   5.712   5.775  0.0655  0.4379 -0.0022
   66SAPC  H14B 5415   1.419   5.584   5.698  0.4626  0.2729 -1.3775
   66SAPC  H14C 5416   1.443   5.739   5.609 -0.4822  3.2158  1.5416
   66SAPC   C15 5417   1.183   5.680   5.696 -0.1889  0.0733 -0.3445
   66SAPC  H15A 5418   1.191   5.673   5.589 -0.3079 -1.9108 -0.2558
   66SAPC  H15B 5419   1.180   5.579   5.734 -0.0195  1.0438  2.5580
   66SAPC  H15C 5420   1.097   5.738   5.726  0.2265  1.7944 -2.2442
   66SAPC   C11 5421   1.412   5.792   5.994  0.1024 -0.5948  0.4635
   66SAPC  H11A 5422   1.514   5.791   5.950  0.1602 -0.1807  0.5850
   66SAPC  H11B 5423   1.423   5.741   6.092  2.2242 -1.9190 -0.3975
   66SAPC     P 5424   1.460   6.050   6.023 -0.0506  0.2447 -0.0644
   66SAPC   O13 5425   1.552   6.034   5.906  0.2683 -0.0793  0.2663
   66SAPC   O14 5426   1.384   6.178   6.034 -0.4821 -0.2160  0.2342
   66SAPC   O12 5427   1.357   5.933   6.015  0.2488 -0.6249 -0.1884
   66SAPC   O11 5428   1.542   6.016   6.156  0.1083  0.7504 -0.2952
   66SAPC    C1 5429   1.471   6.025   6.283 -0.4659 -0.0063 -0.0997
   66SAPC    HA 5430   1.361   6.038   6.270 -0.9829 -2.3922  1.2988
   66SAPC    HB 5431   1.478   5.925   6.330 -1.9600 -0.1371 -0.1117
   66SAPC    C2 5432   1.528   6.139   6.378  0.1031 -0.6939 -0.3759
   66SAPC    HS 5433   1.537   6.234   6.322 -5.9971  1.5799  1.5612
   66SAPC   O21 5434   1.658   6.096   6.417 -0.2454 -0.3354  0.1404
   66SAPC   C21 5435   1.734   6.176   6.495 -0.1374  0.4756  0.4590
   66SAPC   O22 5436   1.708   6.290   6.518 -0.8359 -0.6743  0.6386
   66SAPC   C22 5437   1.860   6.098   6.543 -0.3534  0.7641 -1.3217
   66SAPC   H2R 5438   1.850   5.989   6.523 -0.9300  0.6420 -0.4048
   66SAPC   H2S 5439   1.946   6.144   6.490  1.7212  0.4556  1.5637
   66SAPC    C3 5440   1.432   6.161   6.503  0.3360 -0.1589 -0.6320
   66SAPC    HX 5441   1.341   6.189   6.447  0.7552  0.2586 -1.1182
   66SAPC    HY 5442   1.466   6.252   6.558  2.3491 -1.8668  1.1661
   66SAPC   O31 5443   1.421   6.051   6.590  0.5517 -0.4786  0.6392
   66SAPC   C31 5444   1.300   6.018   6.627 -0.1952 -0.2857 -0.3406
   66SAPC   O32 5445   1.198   6.057   6.570  0.1090  0.4039 -0.3506
   66SAPC   C32 5446   1.313   5.930   6.759  0.0460  0.0863 -0.2437
   66SAPC   H2X 5447   1.368   6.006   6.819  2.7918 -2.0758  0.2018
   66SAPC   H2Y 5448   1.382   5.846   6.733 -0.7790 -0.7672  0.2696
   66SAPC   C23 5449   1.897   6.116   6.692  0.3524 -0.3391  0.0193
   66SAPC   H3R 5450   1.900   6.223   6.720 -3.5291 -0.2778  0.7402
   66SAPC   H3S 5451   2.000   6.080   6.712 -0.1002 -1.0909  1.0815
   66SAPC   C24 5452   1.808   6.027   6.799 -0.3002  1.0860  0.0137
   66SAPC   H4R 5453   1.794   5.926   6.757 -0.0751  1.3731 -0.7679
   66SAPC   H4S 5454   1.705   6.068   6.806 -0.7403 -0.1532  1.2901
   66SAPC   C25 5455   1.865   6.026   6.936  0.4484 -0.9161  1.1383
   66SAPC   H5R 5456   1.934   5.942   6.951  1.5649 -0.5730 -1.4551
   66SAPC   C26 5457   1.812   6.091   7.046 -0.4500 -0.2442 -0.4383
   66SAPC   H6R 5458   1.881   6.094   7.132 -0.3425 -1.8540 -0.4410
   66SAPC   C27 5459   1.680   6.162   7.068 -0.0941  0.5832  0.3987
   66SAPC   H7R 5460   1.604   6.102   7.014 -0.2602  1.7520 -0.7072
   66SAPC   H7S 5461   1.690   6.261   7.020 -0.7439  0.5890  0.2674
   66SAPC   C28 5462   1.639   6.198   7.207  0.1750  0.3945  0.4600
   66SAPC   H8R 5463   1.713   6.240   7.276 -0.5441 -0.4674  1.8297
   66SAPC   C29 5464   1.520   6.172   7.265  0.5242 -0.3469  0.5640
   66SAPC   H9R 5465   1.500   6.196   7.371  0.0677  0.0758  0.3803
   66SAPC  C210 5466   1.393   6.097   7.209 -0.5485 -0.4472 -0.2841
   66SAPC  H10R 5467   1.354   6.024   7.283 -1.4611 -0.9011 -1.1794
   66SAPC  H10S 5468   1.425   6.031   7.126 -0.2490 -1.5021  0.6426
   66SAPC  C211 5469   1.288   6.189   7.151  0.3737  0.2557  0.1365
   66SAPC  H11R 5470   1.299   6.214   7.044  1.1891 -0.4923  0.0339
   66SAPC  C212 5471   1.186   6.243   7.216  0.4728  0.4685  0.7715
   66SAPC  H12R 5472   1.117   6.305   7.157  1.3903 -0.2257 -1.1159
   66SAPC  C213 5473   1.144   6.227   7.364 -0.3622 -0.2010 -0.0994
   66SAPC  H13R 5474   1.220   6.167   7.420  0.6237  3.0943  2.4052
   66SAPC  H13S 5475   1.049   6.170   7.363  0.1010 -0.9921 -0.0863
   66SAPC  C214 5476   1.117   6.367   7.429  0.4103 -0.3686  0.2145
   66SAPC  H14R 5477   1.030   6.418   7.385 -0.9510 -1.2617  1.7350
   66SAPC  C215 5478   1.184   6.420   7.540 -0.0395 -0.0596  0.4376
   66SAPC  H15R 5479   1.147   6.509   7.593 -1.0500 -1.6825  2.6354
   66SAPC  C216 5480   1.300   6.370   7.616 -0.5424 -0.1780  0.1481
   66SAPC  H16R 5481   1.386   6.439   7.607 -0.0830 -0.8800 -1.0510
   66SAPC  H16S 5482   1.332   6.274   7.572 -0.4448 -0.0203 -0.1262
   66SAPC  C217 5483   1.267   6.344   7.768  0.1298  0.0511  0.7414
   66SAPC  H17R 5484   1.341   6.274   7.813  1.6120  2.1261  1.6734
   66SAPC  H17S 5485   1.174   6.283   7.759  1.4732 -2.0555  0.2798
   66SAPC  C218 5486   1.256   6.474   7.844 -0.1722 -0.5072  0.0725
   66SAPC  H18R 5487   1.178   6.542   7.804 -0.2415  1.5719  3.3534
   66SAPC  H18S 5488   1.357   6.520   7.836 -0.1188 -0.7584 -0.8431
   66SAPC  C219 5489   1.217   6.449   7.991  0.2492  0.1645  0.6580
   66SAPC  H19R 5490   1.277   6.359   8.018  0.3101 -1.1718 -3.3241
   66SAPC  H19S 5491   1.110   6.426   8.011  0.2276  0.6099  1.0759
   66SAPC  C220 5492   1.274   6.552   8.087  0.1639 -0.5229  0.3851
   66SAPC  H20R 5493   1.375   6.582   8.054 -0.4133  0.4698 -0.5591
   66SAPC  H20S 5494   1.283   6.520   8.192 -1.1788  0.7267  0.9188
   66SAPC  H20T 5495   1.211   6.644   8.089 -1.1349 -1.3614 -0.2209
   66SAPC   C33 5496   1.177   5.890   6.824 -0.5187  0.0750 -0.0485
   66SAPC   H3X 5497   1.109   5.839   6.752 -1.8249  3.5732 -1.4914
   66SAPC   H3Y 5498   1.121   5.985   6.831 -0.5401  0.4833 -3.5821
   66SAPC   C34 5499   1.198   5.812   6.960 -0.1082  0.5717  0.1680
   66SAPC   H4X 5500   1.271   5.856   7.031 -0.1138 -0.4213  0.7913
   66SAPC   H4Y 5501   1.244   5.714   6.935 -0.2475  0.7466 -0.8106
   66SAPC   C35 5502   1.071   5.785   7.033 -0.4338  0.1649  0.2444
   66SAPC   H5X 5503   1.028   5.690   6.997 -0.7127 -0.0426  1.0980
   66SAPC   H5Y 5504   1.001   5.868   7.009 -0.4379  1.2687  3.5128
   66SAPC   C36 5505   1.106   5.778   7.182  0.3983  0.5713  0.5561
   66SAPC   H6X 5506   1.145   5.880   7.205  0.1730  0.1003  3.3919
   66SAPC   H6Y 5507   1.193   5.710   7.185 -0.6968 -0.8548  0.7495
   66SAPC   C37 5508   1.002   5.734   7.279  0.2484 -0.2479 -0.0483
   66SAPC   H7X 5509   0.952   5.640   7.246 -0.2324 -0.4192  1.1157
   66SAPC   H7Y 5510   0.909   5.795   7.280  0.4089  0.0786  2.5527
   66SAPC   C38 5511   1.044   5.722   7.422 -0.4388 -0.4530 -0.7124
   66SAPC   H8X 5512   1.140   5.666   7.419 -0.4989 -0.5213 -1.9335
   66SAPC   H8Y 5513   0.974   5.655   7.476  1.5337 -2.3984 -0.4398
   66SAPC   C39 5514   1.045   5.858   7.502 -0.0363  0.3313 -0.5095
   66SAPC   H9X 5515   0.941   5.896   7.510 -0.5803 -1.4594  3.1272
   66SAPC   H9Y 5516   1.101   5.939   7.451 -0.1347 -0.2933 -1.6392
   66SAPC  C310 5517   1.093   5.845   7.650  0.7962 -0.7839 -1.0405
   66SAPC  H10X 5518   1.199   5.811   7.652  0.5406 -1.5882 -0.3402
   66SAPC  H10Y 5519   1.029   5.765   7.694 -1.5313  2.5572  2.3606
   66SAPC  C311 5520   1.080   5.981   7.726  0.1908  0.4937  0.0927
   66SAPC  H11X 5521   0.973   6.011   7.724 -0.4202 -1.5721 -1.3893
   66SAPC  H11Y 5522   1.136   6.063   7.677  1.3475  0.5033  1.3838
   66SAPC  C312 5523   1.115   5.957   7.870  0.0399 -0.4498 -0.2344
   66SAPC  H12X 5524   1.223   5.930   7.869 -0.0056 -0.7065 -1.7744
   66SAPC  H12Y 5525   1.057   5.871   7.909  1.3530 -1.4366 -0.3833
   66SAPC  C313 5526   1.096   6.069   7.977  0.2549 -0.5450  0.1916
   66SAPC  H13X 5527   1.003   6.129   7.966 -0.4424 -1.5859  0.3436
   66SAPC  H13Y 5528   1.182   6.140   7.969 -0.8729  0.6931 -1.5625
   66SAPC  C314 5529   1.098   6.009   8.113 -0.0082  0.4678  0.3830
   66SAPC  H14X 5530   1.190   5.947   8.118 -0.0957  0.0374 -2.0506
   66SAPC  H14Y 5531   1.010   5.941   8.107  0.0728  0.4644 -1.6417
   66SAPC  C315 5532   1.080   6.107   8.223  0.2197  0.1962  0.4876
   66SAPC  H15X 5533   1.140   6.197   8.199  1.1048 -0.5927 -0.3181
   66SAPC  H15Y 5534   1.107   6.063   8.321  2.4606  0.6924  0.1540
   66SAPC  C316 5535   0.936   6.161   8.245  0.2271 -0.6868  0.3964
   66SAPC  H16X 5536   0.865   6.077   8.227 -0.0239 -0.7708  1.6427
   66SAPC  H16Y 5537   0.931   6.243   8.171  0.5223 -1.6837 -0.7655
   66SAPC  C317 5538   0.908   6.202   8.394 -0.2846  0.2332 -1.0831
   66SAPC  H17X 5539   0.930   6.118   8.463 -0.5538  0.2849 -0.9272
   66SAPC  H17Y 5540   0.802   6.218   8.423 -0.1984 -1.8667  0.6295
   66SAPC  C318 5541   0.986   6.326   8.421 -0.9968  0.8951  0.1279
   66SAPC  H18X 5542   0.945   6.405   8.354 -1.5215 -0.1215 -0.7903
   66SAPC  H18Y 5543   1.093   6.304   8.401 -0.9889 -0.6209  1.6439
   66SAPC  H18Z 5544   0.974   6.355   8.527 -0.3822  1.5101  0.0351
   67SAPC     N 5545   4.455   2.633   6.234 -0.0842 -0.0917  0.8371
   67SAPC   C12 5546   4.390   2.767   6.193  0.6025 -0.0125  0.2475
   67SAPC  H12A 5547   4.312   2.793   6.264 -0.6047  0.7332 -1.3037
   67SAPC  H12B 5548   4.340   2.754   6.098  1.2724 -1.2297  0.0338
   67SAPC   C13 5549   4.469   2.646   6.382 -0.5949 -1.0109  0.8740
   67SAPC  H13A 5550   4.369   2.676   6.409 -0.6782  1.8014 -2.0094
   67SAPC  H13B 5551   4.507   2.554   6.425 -0.0102 -0.9584  0.4808
   67SAPC  H13C 5552   4.542   2.719   6.414 -1.0171 -0.2240  0.0736
   67SAPC   C14 5553   4.369   2.513   6.212  0.5038 -0.0721  0.7119
   67SAPC  H14A 5554   4.418   2.417   6.210 -1.1021 -0.9327  1.0366
   67SAPC  H14B 5555   4.288   2.504   6.284 -0.2467 -1.7393 -0.2847
   67SAPC  H14C 5556   4.321   2.529   6.117  3.4899  0.5092 -0.7908
   67SAPC   C15 5557   4.594   2.617   6.180 -0.5340  0.2980 -0.0010
   67SAPC  H15A 5558   4.646   2.712   6.177 -1.7745  0.9939 -2.0462
   67SAPC  H15B 5559   4.646   2.547   6.243 -2.0851  0.0140  1.0074
   67SAPC  H15C 5560   4.590   2.584   6.077  0.9469 -1.7100  0.5236
   67SAPC   C11 5561   4.483   2.892   6.184  0.3494 -0.3147 -0.1317
   67SAPC  H11A 5562   4.421   2.981   6.158 -0.5631 -0.9348 -0.1210
   67SAPC  H11B 5563   4.543   2.869   6.093 -0.7088 -0.1635 -0.8885
   67SAPC     P 5564   4.529   3.021   6.406  0.1959  0.0281  0.6248
   67SAPC   O13 5565   4.556   3.157   6.355  0.7371  0.3544 -0.6274
   67SAPC   O14 5566   4.390   2.994   6.455  0.2230  0.0823  0.1736
   67SAPC   O12 5567   4.574   2.913   6.295 -0.0340 -0.1046 -0.0361
   67SAPC   O11 5568   4.619   2.984   6.535  0.1901  0.0798 -0.4395
   67SAPC    C1 5569   4.629   2.857   6.600  0.3132  0.0139 -0.9188
   67SAPC    HA 5570   4.540   2.791   6.602 -0.3607  0.9026  1.3132
   67SAPC    HB 5571   4.719   2.806   6.560  0.0031 -0.3997 -1.0955
   67SAPC    C2 5572   4.646   2.891   6.751  1.3407 -0.5125  0.3072
   67SAPC    HS 5573   4.557   2.951   6.780  0.1287 -2.0254 -0.1930
   67SAPC   O21 5574   4.766   2.962   6.778 -0.0372  0.0290  0.4676
   67SAPC   C21 5575   4.757   3.092   6.820  0.2239 -0.3156 -0.3119
   67SAPC   O22 5576   4.653   3.146   6.843  0.1682 -0.5767 -0.1391
   67SAPC   C22 5577   4.901   3.137   6.865  0.2587  0.3611 -0.1437
   67SAPC   H2R 5578   4.978   3.059   6.848  0.4748  0.3373  0.9035
   67SAPC   H2S 5579   4.925   3.208   6.782 -0.0527 -0.7761 -1.2429
   67SAPC    C3 5580   4.631   2.753   6.832  0.0523 -0.4424 -0.7455
   67SAPC    HX 5581   4.721   2.698   6.797  1.8417  1.4451  0.6900
   67SAPC    HY 5582   4.536   2.708   6.795  0.6020 -0.5318 -2.1204
   67SAPC   O31 5583   4.650   2.766   6.977 -0.1832  0.0802  0.2155
   67SAPC   C31 5584   4.550   2.820   7.037 -0.1818  0.1874  0.4285
   67SAPC   O32 5585   4.457   2.876   6.986  0.5579  0.1842 -0.6925
   67SAPC   C32 5586   4.566   2.795   7.189 -0.2734 -0.1747  0.9254
   67SAPC   H2X 5587   4.643   2.863   7.231  1.0043 -0.9070 -0.1170
   67SAPC   H2Y 5588   4.614   2.697   7.212  2.4138  0.8229 -0.0393
   67SAPC   C23 5589   4.894   3.188   7.011  0.5167 -0.0164  0.1881
   67SAPC   H3R 5590   4.801   3.248   7.018  0.2227 -0.5215  0.7407
   67SAPC   H3S 5591   4.976   3.260   7.032  1.0085 -0.1532 -1.1837
   67SAPC   C24 5592   4.879   3.080   7.117 -0.3186 -0.1662 -0.7752
   67SAPC   H4R 5593   4.775   3.045   7.106  0.4181 -2.2369 -1.6985
   67SAPC   H4S 5594   4.879   3.129   7.217 -1.0171 -0.2006 -0.7527
   67SAPC   C25 5595   4.977   2.967   7.111  0.1565  0.1623 -0.2423
   67SAPC   H5R 5596   5.002   2.938   7.009  1.7184  1.8634 -0.4082
   67SAPC   C26 5597   5.031   2.904   7.214  0.3752 -0.1918 -0.0332
   67SAPC   H6R 5598   5.096   2.821   7.182 -2.4407 -2.0317 -1.4023
   67SAPC   C27 5599   5.020   2.941   7.362  0.3713 -0.1648  0.5388
   67SAPC   H7R 5600   5.056   3.044   7.380 -2.4445  0.9143  0.5774
   67SAPC   H7S 5601   5.084   2.863   7.410  1.1153 -0.8548 -1.4806
   67SAPC   C28 5602   4.884   2.922   7.409 -0.2858  0.6805  0.1977
   67SAPC   H8R 5603   4.833   2.832   7.373  1.1523  0.1183 -0.4951
   67SAPC   C29 5604   4.826   2.984   7.514 -0.1817 -0.5454 -0.1898
   67SAPC   H9R 5605   4.722   2.958   7.539 -0.6510  1.2020 -0.2279
   67SAPC  C210 5606   4.880   3.091   7.604 -0.3377 -0.1908 -0.6092
   67SAPC  H10R 5607   4.805   3.141   7.669 -0.6694 -2.1204  0.5563
   67SAPC  H10S 5608   4.919   3.175   7.542  1.6284 -0.9085 -0.4222
   67SAPC  C211 5609   4.996   3.041   7.691  0.7786 -0.0585  0.5101
   67SAPC  H11R 5610   5.100   3.048   7.657  1.0466  0.3314  1.3771
   67SAPC  C212 5611   4.977   2.998   7.822 -0.2640  0.6929  0.4446
   67SAPC  H12R 5612   5.064   2.959   7.877 -0.5166 -1.3390 -0.4874
   67SAPC  C213 5613   4.849   2.972   7.896 -0.2796  0.4574  0.6071
   67SAPC  H13R 5614   4.760   2.981   7.830  0.5013 -1.6584 -0.8665
   67SAPC  H13S 5615   4.847   3.048   7.977  0.0497  0.6355  0.4485
   67SAPC  C214 5616   4.849   2.830   7.944  0.3362  0.2443  0.4900
   67SAPC  H14R 5617   4.783   2.772   7.878  2.5120 -1.3255 -0.4394
   67SAPC  C215 5618   4.885   2.781   8.066  0.2408  0.3938 -0.2687
   67SAPC  H15R 5619   4.886   2.673   8.088 -0.7305  0.2236 -1.0000
   67SAPC  C216 5620   4.937   2.864   8.177 -0.3260 -0.2088 -0.2436
   67SAPC  H16R 5621   4.849   2.875   8.244 -0.1223 -0.2406  0.0284
   67SAPC  H16S 5622   4.976   2.962   8.143 -2.2595  1.3663  1.7783
   67SAPC  C217 5623   5.036   2.781   8.271  0.3261 -0.0729 -0.1479
   67SAPC  H17R 5624   5.084   2.849   8.346  2.2911  0.7658 -2.0716
   67SAPC  H17S 5625   5.118   2.739   8.209 -0.3568 -2.5171  0.5273
   67SAPC  C218 5626   4.966   2.673   8.352 -0.8053 -0.6099 -0.0611
   67SAPC  H18R 5627   4.942   2.594   8.277  0.4544  0.4748 -1.6839
   67SAPC  H18S 5628   4.874   2.719   8.393 -0.2069  0.6565 -0.1065
   67SAPC  C219 5629   5.047   2.605   8.458 -0.1197  1.0732  0.2631
   67SAPC  H19R 5630   5.089   2.681   8.528  0.8731  0.8470 -0.0815
   67SAPC  H19S 5631   5.133   2.554   8.412 -2.0870 -0.4119 -2.0004
   67SAPC  C220 5632   4.972   2.502   8.545 -0.3608 -0.0420 -0.1991
   67SAPC  H20R 5633   4.879   2.538   8.593 -1.3768 -2.6297 -0.0790
   67SAPC  H20S 5634   5.042   2.468   8.624  2.1304  0.1112 -2.2140
   67SAPC  H20T 5635   4.934   2.420   8.481 -0.0284 -0.7782  0.5183
   67SAPC   C33 5636   4.426   2.799   7.255  0.8484 -0.6522  0.1132
   67SAPC   H3X 5637   4.377   2.699   7.248  0.6937 -0.4639 -2.2389
   67SAPC   H3Y 5638   4.359   2.871   7.202  1.2726  0.4753  1.0917
   67SAPC   C34 5639   4.440   2.853   7.398  0.0594 -0.2381  0.4554
   67SAPC   H4X 5640   4.339   2.867   7.442  0.3912 -2.9087  2.2823
   67SAPC   H4Y 5641   4.513   2.935   7.410 -0.3126  0.0012  1.0859
   67SAPC   C35 5642   4.482   2.741   7.503  0.6750  0.2500  0.3962
   67SAPC   H5X 5643   4.558   2.675   7.457 -1.6222 -1.1541 -1.6827
   67SAPC   H5Y 5644   4.395   2.671   7.499  1.5398 -0.8064 -1.3671
   67SAPC   C36 5645   4.492   2.775   7.651 -0.3992  0.0386 -0.6202
   67SAPC   H6X 5646   4.401   2.827   7.687 -1.9133 -1.3971 -2.2346
   67SAPC   H6Y 5647   4.588   2.827   7.672  0.1308 -0.2954 -2.1326
   67SAPC   C37 5648   4.494   2.644   7.746 -0.4326 -0.2821  0.3283
   67SAPC   H7X 5649   4.588   2.585   7.736 -0.2165  0.1325 -0.0992
   67SAPC   H7Y 5650   4.405   2.580   7.729 -0.8260 -0.0079  1.2918
   67SAPC   C38 5651   4.488   2.681   7.893 -0.0622  0.8798 -0.1757
   67SAPC   H8X 5652   4.386   2.724   7.901 -0.4395  0.3710 -1.9580
   67SAPC   H8Y 5653   4.572   2.752   7.906  1.1471 -0.1723 -1.9302
   67SAPC   C39 5654   4.490   2.556   7.990  0.3337  0.0291 -0.0894
   67SAPC   H9X 5655   4.418   2.477   7.961 -0.1823  0.9994 -1.5286
   67SAPC   H9Y 5656   4.455   2.581   8.093  1.9960 -2.2686  1.1317
   67SAPC  C310 5657   4.628   2.501   8.024 -0.3509 -0.4618  0.4677
   67SAPC  H10X 5658   4.699   2.579   8.060  1.7805 -2.1308  0.1307
   67SAPC  H10Y 5659   4.688   2.461   7.939  2.4961  2.2742  0.9806
   67SAPC  C311 5660   4.617   2.386   8.128 -0.2590 -0.5719  0.4435
   67SAPC  H11X 5661   4.518   2.337   8.114 -0.9823  0.7880  0.6066
   67SAPC  H11Y 5662   4.622   2.419   8.234  1.3138 -0.6764  0.4289
   67SAPC  C312 5663   4.727   2.280   8.106 -0.1910 -0.8277 -0.3777
   67SAPC  H12X 5664   4.729   2.251   7.999 -3.1732 -1.2907 -0.4053
   67SAPC  H12Y 5665   4.703   2.189   8.165 -1.9297  0.6226  1.3050
   67SAPC  C313 5666   4.869   2.331   8.135 -1.0750  0.8055 -0.2233
   67SAPC  H13X 5667   4.870   2.365   8.241  0.8072 -0.4246  0.2091
   67SAPC  H13Y 5668   4.898   2.412   8.065 -1.1397  1.8754  0.9593
   67SAPC  C314 5669   4.981   2.219   8.117  0.6418 -0.5282  0.0641
   67SAPC  H14X 5670   4.972   2.171   8.018  3.2085  1.3785 -1.2224
   67SAPC  H14Y 5671   4.959   2.135   8.187 -1.4386 -1.1670 -1.2599
   67SAPC  C315 5672   5.125   2.266   8.138  0.6715  0.1950  1.2921
   67SAPC  H15X 5673   5.139   2.288   8.246 -0.8541 -0.0736  1.5666
   67SAPC  H15Y 5674   5.159   2.348   8.071  2.3682 -0.4120  1.3699
   67SAPC  C316 5675   5.206   2.146   8.125 -0.0495 -0.9147  0.1454
   67SAPC  H16X 5676   5.201   2.090   8.029 -3.2365  0.4991 -0.6584
   67SAPC  H16Y 5677   5.167   2.083   8.207 -0.9471  2.4604  2.5556
   67SAPC  C317 5678   5.352   2.173   8.161  0.9740  0.5857 -0.1142
   67SAPC  H17X 5679   5.359   2.214   8.264  0.1969 -0.2983  0.2982
   67SAPC  H17Y 5680   5.403   2.246   8.094  0.0207  1.2423 -0.1476
   67SAPC  C318 5681   5.424   2.041   8.146 -0.2614  0.9301 -0.6116
   67SAPC  H18X 5682   5.393   1.984   8.056 -2.9695 -0.5875  1.1463
   67SAPC  H18Y 5683   5.398   1.967   8.225  1.2011 -0.8177 -1.6898
   67SAPC  H18Z 5684   5.535   2.046   8.152 -0.3505  1.5699  1.4217
   68SAPC     N 5685   1.495   6.780   6.020 -1.0300  1.0488  0.0094
   68SAPC   C12 5686   1.579   6.888   6.099  1.1163 -0.5193 -0.5949
   68SAPC  H12A 5687   1.553   6.874   6.203  1.1374 -2.8522 -0.8444
   68SAPC  H12B 5688   1.540   6.988   6.090  2.1796 -0.0157  0.1294
   68SAPC   C13 5689   1.540   6.648   6.078 -0.0841  0.1810  0.0801
   68SAPC  H13A 5690   1.648   6.646   6.075  0.0628  3.3728  0.5966
   68SAPC  H13B 5691   1.508   6.618   6.176 -0.2674 -2.0338 -0.5897
   68SAPC  H13C 5692   1.505   6.569   6.013  2.0781  0.5939 -1.7269
   68SAPC   C14 5693   1.349   6.799   6.062  0.5166 -0.0117  0.6422
   68SAPC  H14A 5694   1.339   6.904   6.043  4.6239  0.1990 -1.4985
   68SAPC  H14B 5695   1.280   6.738   6.006  0.6911  0.0766  0.3316
   68SAPC  H14C 5696   1.323   6.781   6.165  0.5597  0.3340  0.7157
   68SAPC   C15 5697   1.508   6.797   5.875 -0.7264 -0.5822 -0.2426
   68SAPC  H15A 5698   1.610   6.790   5.840 -0.6887 -0.0363 -0.2545
   68SAPC  H15B 5699   1.452   6.723   5.820 -0.5555  0.1947 -1.5133
   68SAPC  H15C 5700   1.474   6.896   5.849  0.1527  1.0838  4.1058
   68SAPC   C11 5701   1.732   6.899   6.080 -0.6036  0.2279  0.0565
   68SAPC  H11A 5702   1.765   6.972   6.157  2.8420  0.5338 -1.5208
   68SAPC  H11B 5703   1.757   6.945   5.982 -0.3128 -2.3466 -1.1665
   68SAPC     P 5704   1.888   6.737   6.214 -0.1116 -0.2428  0.2472
   68SAPC   O13 5705   1.932   6.598   6.196  0.4396  0.0072  0.2139
   68SAPC   O14 5706   1.995   6.837   6.210  0.7613  0.0549  0.0520
   68SAPC   O12 5707   1.794   6.770   6.094 -0.0364 -0.2074 -0.2404
   68SAPC   O11 5708   1.791   6.756   6.339 -0.8628  0.1891  0.2865
   68SAPC    C1 5709   1.764   6.644   6.418 -0.1308 -0.4470  0.0881
   68SAPC    HA 5710   1.696   6.572   6.367  1.3282 -2.6898  1.1402
   68SAPC    HB 5711   1.851   6.578   6.440 -0.3483 -1.1948 -1.2154
   68SAPC    C2 5712   1.702   6.668   6.558 -0.4846  0.1597  0.0374
   68SAPC    HS 5713   1.604   6.720   6.553 -0.4978  0.4223  2.1143
   68SAPC   O21 5714   1.801   6.748   6.627  0.3210  0.2762  0.7423
   68SAPC   C21 5715   1.744   6.848   6.699  0.1141 -1.0041 -0.4915
   68SAPC   O22 5716   1.628   6.851   6.738 -0.3785  0.0413  0.1615
   68SAPC   C22 5717   1.846   6.962   6.711  0.8554 -0.7662  1.4887
   68SAPC   H2R 5718   1.944   6.916   6.685  1.0981  1.2959 -1.8501
   68SAPC   H2S 5719   1.811   7.020   6.624  1.4232 -1.9751  0.4267
   68SAPC    C3 5720   1.681   6.545   6.648  0.6914  0.0920  0.4155
   68SAPC    HX 5721   1.767   6.475   6.637  0.1099 -0.5668 -0.0307
   68SAPC    HY 5722   1.596   6.484   6.609  2.3286 -1.6872 -0.5573
   68SAPC   O31 5723   1.652   6.568   6.782  0.0761  0.2386 -0.4592
   68SAPC   C31 5724   1.519   6.577   6.821 -0.7151  0.7302  0.5686
   68SAPC   O32 5725   1.423   6.566   6.746  0.0054  0.1987  0.1160
   68SAPC   C32 5726   1.516   6.592   6.972 -0.7971  0.5351 -0.3892
   68SAPC   H2X 5727   1.561   6.689   7.004 -1.6594  0.0451  2.7156
   68SAPC   H2Y 5728   1.562   6.499   7.012 -0.8523 -0.3761 -2.3672
   68SAPC   C23 5729   1.845   7.032   6.849 -0.6625  0.4152  0.0159
   68SAPC   H3R 5730   1.740   7.048   6.882 -0.9083 -0.6795 -0.1998
   68SAPC   H3S 5731   1.894   7.128   6.823 -0.3733  0.4328  0.6081
   68SAPC   C24 5732   1.928   6.961   6.957 -1.0614 -0.2456 -0.4169
   68SAPC   H4R 5733   1.992   7.035   7.009  2.5161 -2.2137 -1.6953
   68SAPC   H4S 5734   1.998   6.890   6.908  1.2542 -0.5647  3.0198
   68SAPC   C25 5735   1.842   6.880   7.050 -0.7323  0.0535  0.3359
   68SAPC   H5R 5736   1.837   6.771   7.043 -0.4207  0.0403  0.3338
   68SAPC   C26 5737   1.760   6.930   7.143 -0.2996 -0.1842 -0.8928
   68SAPC   H6R 5738   1.698   6.863   7.204 -3.1041  0.7719 -2.4878
   68SAPC   C27 5739   1.742   7.075   7.180 -0.2668  0.2051  0.9720
   68SAPC   H7R 5740   1.818   7.143   7.136 -2.5004  1.3597 -1.3515
   68SAPC   H7S 5741   1.758   7.090   7.289  1.7545 -2.2438  1.1287
   68SAPC   C28 5742   1.604   7.127   7.139  0.1791  0.7244  0.7796
   68SAPC   H8R 5743   1.561   7.083   7.048 -1.7354  1.6601  1.1897
   68SAPC   C29 5744   1.539   7.220   7.208  0.2254  0.0624 -0.1514
   68SAPC   H9R 5745   1.441   7.249   7.167 -0.2479 -0.8806  0.2935
   68SAPC  C210 5746   1.597   7.285   7.332  0.7644  0.3619 -0.2807
   68SAPC  H10R 5747   1.692   7.334   7.304 -0.0449  1.6268 -0.9026
   68SAPC  H10S 5748   1.618   7.209   7.411  0.1460  2.5219  2.0986
   68SAPC  C211 5749   1.517   7.391   7.397  0.0615 -0.3150  0.0048
   68SAPC  H11R 5750   1.477   7.454   7.316 -1.0000 -2.0973 -0.9258
   68SAPC  C212 5751   1.500   7.426   7.527 -0.0053 -0.4470  0.0388
   68SAPC  H12R 5752   1.418   7.493   7.556 -0.8402 -0.9072 -1.2089
   68SAPC  C213 5753   1.572   7.371   7.641 -0.1814 -0.5322  0.2854
   68SAPC  H13R 5754   1.663   7.317   7.609  1.0264  0.7891  1.3459
   68SAPC  H13S 5755   1.507   7.301   7.698 -1.7088 -0.1629 -0.9123
   68SAPC  C214 5756   1.615   7.488   7.730  0.3855  0.0208 -0.6150
   68SAPC  H14R 5757   1.575   7.586   7.700 -2.2447 -1.1926 -1.3371
   68SAPC  C215 5758   1.694   7.481   7.845 -0.4251 -0.1464  0.2815
   68SAPC  H15R 5759   1.715   7.570   7.905 -4.3871 -0.3815  2.3384
   68SAPC  C216 5760   1.755   7.366   7.913 -0.2190 -0.3417  0.4030
   68SAPC  H16R 5761   1.850   7.335   7.864  0.9860  2.6315  0.5919
   68SAPC  H16S 5762   1.683   7.282   7.927 -0.2113 -0.2848  0.8175
   68SAPC  C217 5763   1.796   7.414   8.052 -0.5146  0.7193 -0.0412
   68SAPC  H17R 5764   1.715   7.448   8.120 -0.2800  0.7774  0.2073
   68SAPC  H17S 5765   1.866   7.499   8.043 -2.0284  1.8694 -1.6659
   68SAPC  C218 5766   1.866   7.295   8.121 -0.2482  0.5985  0.0981
   68SAPC  H18R 5767   1.941   7.248   8.054 -0.9389  1.2565 -1.1747
   68SAPC  H18S 5768   1.780   7.227   8.140 -0.1120  0.3780 -0.0816
   68SAPC  C219 5769   1.934   7.332   8.254 -0.0730  0.7038  0.3059
   68SAPC  H19R 5770   1.965   7.240   8.308 -0.1004 -0.0726 -0.9560
   68SAPC  H19S 5771   1.862   7.392   8.314  0.4418  0.8932  0.7360
   68SAPC  C220 5772   2.069   7.407   8.235 -0.3611 -0.2933  0.3794
   68SAPC  H20R 5773   2.037   7.512   8.214 -0.7636 -0.1449  1.6059
   68SAPC  H20S 5774   2.131   7.355   8.160  0.3234  1.3535 -0.2408
   68SAPC  H20T 5775   2.125   7.406   8.331  0.4386 -1.0849 -0.0881
   68SAPC   C33 5776   1.377   6.593   7.025  1.0718 -0.5941 -0.6680
   68SAPC   H3X 5777   1.323   6.498   7.001 -0.5510 -0.6894  2.6812
   68SAPC   H3Y 5778   1.314   6.683   7.005  1.0308 -0.6797 -0.9275
   68SAPC   C34 5779   1.394   6.593   7.179  0.3529 -0.0812 -0.1392
   68SAPC   H4X 5780   1.444   6.503   7.220 -0.5520  0.3143  2.0093
   68SAPC   H4Y 5781   1.292   6.586   7.222  0.6623 -1.5669  0.4082
   68SAPC   C35 5782   1.454   6.724   7.233 -0.1342 -0.4613 -0.1293
   68SAPC   H5X 5783   1.393   6.815   7.215 -2.2969 -1.0366  3.2887
   68SAPC   H5Y 5784   1.555   6.736   7.189 -0.7299 -0.6118 -1.5793
   68SAPC   C36 5785   1.469   6.698   7.388  0.3760 -0.2976  1.1230
   68SAPC   H6X 5786   1.546   6.620   7.405 -0.0812 -0.7304  1.2028
   68SAPC   H6Y 5787   1.373   6.661   7.428 -0.2920 -1.3288 -1.2900
   68SAPC   C37 5788   1.503   6.834   7.452  0.4695 -0.0054 -0.1341
   68SAPC   H7X 5789   1.443   6.921   7.420 -0.4503 -0.4084  0.4628
   68SAPC   H7Y 5790   1.605   6.859   7.416  0.2057  0.3424 -0.6390
   68SAPC   C38 5791   1.509   6.835   7.602  0.5724  0.4015  0.3306
   68SAPC   H8X 5792   1.584   6.767   7.647  1.9071  0.8938 -1.0597
   68SAPC   H8Y 5793   1.414   6.800   7.649  0.6140  1.1531  0.9960
   68SAPC   C39 5794   1.539   6.978   7.647  0.3867 -0.0851 -0.1683
   68SAPC   H9X 5795   1.449   7.042   7.635  2.0642  2.2618 -0.8876
   68SAPC   H9Y 5796   1.617   7.022   7.582 -1.0404  3.5977  0.3783
   68SAPC  C310 5797   1.581   6.981   7.797  0.0491 -0.0755 -0.3287
   68SAPC  H10X 5798   1.591   7.080   7.846  0.0427  0.7878 -1.9970
   68SAPC  H10Y 5799   1.669   6.916   7.815 -0.7988 -1.1242  0.1680
   68SAPC  C311 5800   1.465   6.920   7.889 -0.1460  0.3255 -0.6283
   68SAPC  H11X 5801   1.436   6.816   7.862  3.6649 -1.3962  1.0734
   68SAPC  H11Y 5802   1.375   6.984   7.877 -1.0492 -1.0405 -1.4491
   68SAPC  C312 5803   1.507   6.924   8.036  0.1708  0.0881  0.4670
   68SAPC  H12X 5804   1.423   6.891   8.101 -0.4375  2.8526  1.2133
   68SAPC  H12Y 5805   1.531   7.029   8.062  0.2785 -0.3908  2.5050
   68SAPC  C313 5806   1.623   6.828   8.070  0.1921 -0.5064  0.6738
   68SAPC  H13X 5807   1.707   6.831   7.998 -1.0483  0.3004 -0.7907
   68SAPC  H13Y 5808   1.593   6.722   8.088 -0.7578  0.0618  2.7947
   68SAPC  C314 5809   1.684   6.865   8.205  0.1288 -0.2938  0.1233
   68SAPC  H14X 5810   1.718   6.771   8.253 -1.5784 -1.5227 -0.9552
   68SAPC  H14Y 5811   1.609   6.922   8.264 -0.1203  0.5819 -1.0042
   68SAPC  C315 5812   1.807   6.951   8.193  0.2507  1.1581  0.4307
   68SAPC  H15X 5813   1.818   7.012   8.285 -1.3030  0.5650  1.0541
   68SAPC  H15Y 5814   1.804   7.015   8.103  1.4632  2.1858  1.0956
   68SAPC  C316 5815   1.930   6.856   8.184 -0.1044  0.1151  0.3037
   68SAPC  H16X 5816   1.908   6.779   8.107  1.5770 -1.2950  1.1579
   68SAPC  H16Y 5817   1.944   6.802   8.280  1.8595 -2.6472 -1.3770
   68SAPC  C317 5818   2.059   6.929   8.150 -0.7575 -0.0568  1.0887
   68SAPC  H17X 5819   2.081   7.022   8.207  0.9645  1.1253 -1.3362
   68SAPC  H17Y 5820   2.060   6.963   8.045 -0.6188 -1.1039  0.7335
   68SAPC  C318 5821   2.189   6.851   8.161 -0.0903  0.5571 -0.6920
   68SAPC  H18X 5822   2.191   6.796   8.257 -0.6991 -1.9693 -2.0160
   68SAPC  H18Y 5823   2.283   6.910   8.157 -0.6041  1.8710  2.9736
   68SAPC  H18Z 5824   2.190   6.764   8.090 -0.0443 -2.5479  2.8180
   69SLPC     N 5825   4.373   1.151  11.226  0.1900 -0.1245  0.5560
   69SLPC   C13 5826   4.255   1.138  11.133  0.3611 -0.0975 -0.2758
   69SLPC  H13A 5827   4.221   1.037  11.147  0.2894  0.2179  2.2557
   69SLPC  H13B 5828   4.185   1.219  11.148  1.3768  0.4694  1.6360
   69SLPC  H13C 5829   4.289   1.145  11.030 -0.5930  1.7813 -0.4990
   69SLPC   C14 5830   4.464   1.034  11.202 -0.3079 -0.3767  0.6545
   69SLPC  H14A 5831   4.453   0.947  11.265  0.9731  1.2615  3.2739
   69SLPC  H14B 5832   4.461   1.002  11.098 -0.3838 -0.4652  0.6835
   69SLPC  H14C 5833   4.563   1.070  11.224 -0.3042 -1.2275  2.1197
   69SLPC   C15 5834   4.334   1.151  11.364 -0.1674 -0.1693  0.0686
   69SLPC  H15A 5835   4.299   1.054  11.394  0.7688 -0.1665  1.2954
   69SLPC  H15B 5836   4.408   1.181  11.437 -1.5412 -0.4181  1.6363
   69SLPC  H15C 5837   4.248   1.216  11.372 -0.6080 -0.6154 -0.9714
   69SLPC   C12 5838   4.437   1.285  11.191 -1.1172 -0.1568 -0.0211
   69SLPC  H12A 5839   4.370   1.364  11.220 -1.3401 -1.0737  2.2376
   69SLPC  H12B 5840   4.451   1.283  11.084  0.9509  0.7015  0.1944
   69SLPC   C11 5841   4.577   1.330  11.241 -0.3836 -0.1710 -0.2770
   69SLPC  H11A 5842   4.598   1.335  11.350  2.4027  0.9474 -0.7969
   69SLPC  H11B 5843   4.603   1.429  11.200 -0.8403 -0.0091 -0.1789
   69SLPC     P 5844   4.742   1.266  11.059 -0.1890  0.0678  0.5061
   69SLPC   O13 5845   4.631   1.282  10.970 -0.2133 -0.4399  0.0389
   69SLPC   O14 5846   4.840   1.371  11.077 -0.1221 -0.2738 -0.2719
   69SLPC   O12 5847   4.682   1.240  11.195 -0.4285 -0.7540 -0.3970
   69SLPC   O11 5848   4.813   1.127  11.028 -0.2192 -0.1860 -0.3245
   69SLPC    C1 5849   4.941   1.124  10.961  0.3605  0.6792  0.2437
   69SLPC    HA 5850   5.011   1.207  10.979 -0.9112  1.7440  0.4432
   69SLPC    HB 5851   4.979   1.028  11.003 -1.0458  0.6259  1.4806
   69SLPC    C2 5852   4.917   1.101  10.806 -0.2633  0.5470 -0.3275
   69SLPC    HS 5853   5.006   1.055  10.758 -1.8787 -1.6889 -1.3563
   69SLPC   O21 5854   4.882   1.228  10.746  0.1296  0.2214  0.5220
   69SLPC   C21 5855   4.983   1.301  10.715 -0.4681 -0.6865 -0.3849
   69SLPC   O22 5856   5.102   1.273  10.732  0.1315 -0.4009  0.1222
   69SLPC   C22 5857   4.935   1.427  10.651  0.8525  0.2990 -0.2309
   69SLPC   H2R 5858   4.834   1.415  10.607 -0.2467  0.2358  2.1707
   69SLPC   H2S 5859   4.909   1.494  10.735  1.8513 -0.2448  0.5363
   69SLPC    C3 5860   4.805   0.993  10.771 -0.8968 -0.3492 -0.2426
   69SLPC    HX 5861   4.713   1.034  10.820 -0.4747 -0.6648  0.8475
   69SLPC    HY 5862   4.835   0.897  10.818 -0.3642 -0.2947 -0.4726
   69SLPC   O31 5863   4.802   0.963  10.635 -0.2984 -0.0228 -0.3496
   69SLPC   C31 5864   4.676   0.936  10.582 -0.2084  0.0198 -0.2558
   69SLPC   O32 5865   4.575   0.934  10.652 -0.1666 -0.6325 -0.3066
   69SLPC   C32 5866   4.685   0.907  10.441  1.0018  0.2315  0.6699
   69SLPC   H2X 5867   4.781   0.855  10.422  0.8427  0.0517  0.3610
   69SLPC   H2Y 5868   4.685   1.003  10.385 -0.9363  0.7045  1.4025
   69SLPC   C23 5869   5.035   1.488  10.561 -0.1394  0.5140  0.3880
   69SLPC   H3R 5870   5.132   1.501  10.612  0.5987 -1.3421 -0.4506
   69SLPC   H3S 5871   4.994   1.585  10.523 -2.4992 -1.8112 -3.8387
   69SLPC   C24 5872   5.059   1.408  10.432  0.4587  0.0140  0.6166
   69SLPC   H4R 5873   4.961   1.414  10.380 -0.1244  0.2533  1.6968
   69SLPC   H4S 5874   5.090   1.304  10.455 -1.7942 -0.5987  1.2160
   69SLPC   C25 5875   5.157   1.467  10.331 -0.2685 -0.8308 -0.1188
   69SLPC   H5R 5876   5.260   1.469  10.372  0.5234  2.0573 -1.9401
   69SLPC   H5S 5877   5.124   1.573  10.327 -1.0563 -0.9916  1.4618
   69SLPC   C26 5878   5.153   1.407  10.186  1.7762 -0.3431 -0.0069
   69SLPC   H6R 5879   5.049   1.409  10.147  1.3848  1.9531  0.9844
   69SLPC   H6S 5880   5.195   1.304  10.177  0.6038 -1.0439  1.9325
   69SLPC   C27 5881   5.242   1.490  10.084  0.1066  0.1171 -0.5625
   69SLPC   H7R 5882   5.338   1.439  10.062  0.9812  0.8693  1.2633
   69SLPC   H7S 5883   5.275   1.580  10.140  1.7428 -0.2068 -0.9635
   69SLPC   C28 5884   5.161   1.525   9.956  0.2955  0.7000  0.6423
   69SLPC   H8R 5885   5.068   1.580   9.982 -1.0190  1.0149 -3.7871
   69SLPC   H8S 5886   5.134   1.428   9.909  0.0669  0.1819  1.8040
   69SLPC   C29 5887   5.236   1.614   9.859  0.1955  0.0040 -0.0018
   69SLPC   H9R 5888   5.319   1.676   9.896  0.6207 -1.0698  0.8812
   69SLPC  C210 5889   5.210   1.616   9.728 -0.6214 -0.0292  0.0811
   69SLPC  H10R 5890   5.267   1.691   9.672  2.0866 -1.3204  0.9219
   69SLPC  C211 5891   5.098   1.543   9.653  0.6448 -0.6566 -0.3066
   69SLPC  H11R 5892   5.030   1.513   9.735  1.1703  2.0395  1.2084
   69SLPC  H11S 5893   5.146   1.453   9.609  1.4334  0.3051 -1.4584
   69SLPC  C212 5894   5.019   1.627   9.553  0.3435 -0.4884  0.9266
   69SLPC  H12R 5895   4.932   1.673   9.603 -0.1309 -1.9088  1.4840
   69SLPC  C213 5896   5.039   1.634   9.421  0.2319 -0.0089  0.6173
   69SLPC  H13R 5897   4.974   1.698   9.360  1.0227  2.0968  1.8562
   69SLPC  C214 5898   5.150   1.572   9.337  0.0396  0.0133  0.5196
   69SLPC  H14R 5899   5.118   1.488   9.271  0.7700 -0.2437  0.4814
   69SLPC  H14S 5900   5.227   1.529   9.404 -0.1741  1.4227  1.7278
   69SLPC  C215 5901   5.233   1.659   9.235 -0.2214  0.6221 -0.1542
   69SLPC  H15R 5902   5.323   1.604   9.201 -0.5187 -0.4889  0.7651
   69SLPC  H15S 5903   5.251   1.758   9.282  1.3471  0.1761  0.2301
   69SLPC  C216 5904   5.151   1.687   9.108 -0.1164 -0.7604  0.4056
   69SLPC  H16R 5905   5.206   1.773   9.064 -1.6967  0.9249  1.5643
   69SLPC  H16S 5906   5.053   1.733   9.132 -0.0365 -1.3843  2.0270
   69SLPC  C217 5907   5.149   1.577   9.000  0.0062 -0.5245  0.0078
   69SLPC  H17R 5908   5.076   1.499   9.029 -1.7204  0.2453 -1.9819
   69SLPC  H17S 5909   5.241   1.516   9.005  0.4430  0.2011  3.0559
   69SLPC  C218 5910   5.114   1.608   8.856  0.2244 -0.4751  0.2843
   69SLPC  H18R 5911   5.079   1.513   8.812 -1.2738 -0.3467  1.1089
   69SLPC  H18S 5912   5.204   1.656   8.814  0.7279 -0.7460  1.0392
   69SLPC  H18T 5913   5.031   1.682   8.853  1.2087  0.6505 -0.0489
   69SLPC   C33 5914   4.579   0.796  10.388 -0.1409 -0.0680 -0.5537
   69SLPC   H3X 5915   4.486   0.811  10.446 -0.8815 -0.8551 -1.5121
   69SLPC   H3Y 5916   4.624   0.699  10.420  0.3388  0.3094 -0.0497
   69SLPC   C34 5917   4.546   0.792  10.241  0.5787 -0.1400  0.1785
   69SLPC   H4X 5918   4.474   0.873  10.213 -1.0914 -2.4670 -2.8509
   69SLPC   H4Y 5919   4.482   0.703  10.223  1.1757 -0.7908  1.2143
   69SLPC   C35 5920   4.658   0.782  10.135 -0.5383 -0.0178  0.0665
   69SLPC   H5X 5921   4.690   0.676  10.143 -0.7853 -0.2176 -1.2642
   69SLPC   H5Y 5922   4.744   0.847  10.163 -1.3412  0.6904  0.9454
   69SLPC   C36 5923   4.615   0.796   9.992  0.0327  0.6598  0.3184
   69SLPC   H6X 5924   4.605   0.901   9.957  1.1308  0.7445  0.2081
   69SLPC   H6Y 5925   4.522   0.740   9.970  2.0930 -4.3971  2.9028
   69SLPC   C37 5926   4.730   0.715   9.916 -0.4642  0.2169 -0.2210
   69SLPC   H7X 5927   4.731   0.610   9.951  2.5908  0.5073  0.9001
   69SLPC   H7Y 5928   4.825   0.769   9.933 -0.7954 -0.1808  3.5850
   69SLPC   C38 5929   4.698   0.716   9.769 -0.3851  0.5481 -0.4254
   69SLPC   H8X 5930   4.683   0.819   9.730  1.1470  1.2457  0.7432
   69SLPC   H8Y 5931   4.599   0.664   9.764  0.2057 -0.5755 -0.6686
   69SLPC   C39 5932   4.810   0.657   9.683 -0.4166  0.2301  0.4381
   69SLPC   H9X 5933   4.816   0.554   9.725  0.6967 -0.0516 -0.3429
   69SLPC   H9Y 5934   4.904   0.706   9.716  1.9111 -2.8488 -1.0403
   69SLPC  C310 5935   4.768   0.662   9.536 -0.3973  0.6474 -0.6079
   69SLPC  H10X 5936   4.661   0.636   9.523  0.2943 -2.4925 -0.8391
   69SLPC  H10Y 5937   4.822   0.577   9.487 -0.3588  0.1067  0.3426
   69SLPC  C311 5938   4.817   0.794   9.471 -0.0625 -0.3053  0.2452
   69SLPC  H11X 5939   4.927   0.784   9.458 -0.2126 -1.7046 -0.1078
   69SLPC  H11Y 5940   4.797   0.872   9.547 -0.5967  0.3592 -0.5654
   69SLPC  C312 5941   4.763   0.822   9.329  0.3726  0.9593 -0.8214
   69SLPC  H12X 5942   4.799   0.920   9.291 -1.5561  3.3037  2.7109
   69SLPC  H12Y 5943   4.654   0.846   9.332 -0.4115 -2.1573  1.7259
   69SLPC  C313 5944   4.782   0.707   9.226 -0.0661 -0.6192 -0.5543
   69SLPC  H13X 5945   4.708   0.709   9.143 -1.1257 -0.3750  0.3691
   69SLPC  H13Y 5946   4.773   0.607   9.273 -0.0163 -0.4594 -0.2043
   69SLPC  C314 5947   4.922   0.709   9.166 -0.7381 -0.0764  0.1227
   69SLPC  H14X 5948   4.988   0.697   9.255  2.2758 -0.0943 -1.9757
   69SLPC  H14Y 5949   4.942   0.803   9.111  0.2690 -1.4240 -1.9091
   69SLPC  C315 5950   4.960   0.590   9.073  0.3523 -0.6005  0.2320
   69SLPC  H15X 5951   4.939   0.490   9.117 -0.0734  0.4536  2.5498
   69SLPC  H15Y 5952   5.070   0.594   9.055  0.3360 -0.4832  0.1539
   69SLPC  C316 5953   4.896   0.602   8.936 -0.2314 -0.4686 -1.1512
   69SLPC  H16X 5954   4.787   0.580   8.939  0.1412 -2.4198 -0.8120
   69SLPC  H16Y 5955   4.927   0.515   8.874 -2.5343 -2.2539  0.0356
   69SLPC  C317 5956   4.929   0.726   8.863 -0.0238  0.4193  0.1529
   69SLPC  H17X 5957   5.038   0.741   8.876  0.3470  0.6020 -2.7202
   69SLPC  H17Y 5958   4.882   0.817   8.908  0.2549 -0.0669  1.4635
   69SLPC  C318 5959   4.891   0.724   8.714 -0.0546  0.0035  0.8044
   69SLPC  H18X 5960   4.781   0.731   8.706 -0.0256 -0.2387  0.1137
   69SLPC  H18Y 5961   4.915   0.629   8.660  0.7071 -0.3884  1.8015
   69SLPC  H18Z 5962   4.931   0.808   8.653 -0.0142 -0.6213 -0.0421
   70SLPC     N 5963   6.783   3.477  10.906 -0.0877  0.6897  0.4977
   70SLPC   C13 5964   6.646   3.472  10.970 -0.5594  0.4273 -0.1743
   70SLPC  H13A 5965   6.644   3.544  11.050  3.0954  0.4090  0.1238
   70SLPC  H13B 5966   6.563   3.482  10.902 -2.1318  0.6900  1.7037
   70SLPC  H13C 5967   6.631   3.378  11.021  1.3618  0.7922  1.1760
   70SLPC   C14 5968   6.894   3.426  10.997 -0.0437 -0.1356  0.0152
   70SLPC  H14A 5969   6.884   3.322  11.026 -0.3985  0.7453  3.4050
   70SLPC  H14B 5970   6.991   3.454  10.960  0.1327  2.6465  2.2495
   70SLPC  H14C 5971   6.887   3.475  11.093  2.9364  0.3916  0.0429
   70SLPC   C15 5972   6.816   3.615  10.874  0.4461  0.1279 -0.5534
   70SLPC  H15A 5973   6.919   3.628  10.843  1.6621  0.3964  3.1345
   70SLPC  H15B 5974   6.759   3.650  10.789  0.4963 -2.6519 -1.8648
   70SLPC  H15C 5975   6.792   3.676  10.960  1.4561  0.4018 -0.4505
   70SLPC   C12 5976   6.794   3.397  10.779  0.1988 -0.0442 -0.8190
   70SLPC  H12A 5977   6.787   3.293  10.810  2.3223 -0.3734 -1.3100
   70SLPC  H12B 5978   6.885   3.411  10.723  0.8547 -1.6703 -0.2136
   70SLPC   C11 5979   6.677   3.424  10.667  0.0499 -0.1652 -0.5314
   70SLPC  H11A 5980   6.702   3.371  10.572 -0.1390 -0.7822 -0.2405
   70SLPC  H11B 5981   6.682   3.530  10.634 -0.4102 -0.1114 -0.4323
   70SLPC     P 5982   6.501   3.237  10.704  0.2185 -0.2276 -0.2388
   70SLPC   O13 5983   6.607   3.136  10.714 -0.6671  0.4337 -0.1396
   70SLPC   O14 5984   6.384   3.213  10.791  0.3138  0.2188 -0.0563
   70SLPC   O12 5985   6.550   3.384  10.726  0.2859 -0.2029  0.3535
   70SLPC   O11 5986   6.447   3.238  10.555  0.1217 -0.0979 -0.2984
   70SLPC    C1 5987   6.517   3.207  10.437  0.0845  1.1734 -0.2044
   70SLPC    HA 5988   6.600   3.277  10.415  1.4429 -1.0089 -2.6110
   70SLPC    HB 5989   6.564   3.106  10.440  0.5954  1.4151 -0.0082
   70SLPC    C2 5990   6.428   3.205  10.316  0.0159  0.8496 -0.7396
   70SLPC    HS 5991   6.472   3.124  10.254 -1.2211 -3.0775  3.0200
   70SLPC   O21 5992   6.429   3.337  10.262 -0.1732  0.2635  0.4475
   70SLPC   C21 5993   6.369   3.341  10.140 -0.2201  0.0035  0.5565
   70SLPC   O22 5994   6.329   3.248  10.076  0.3215  0.0934  0.1503
   70SLPC   C22 5995   6.346   3.488  10.094  0.1727  0.0926 -0.2290
   70SLPC   H2R 5996   6.260   3.481  10.024 -0.7079 -0.3523  0.8786
   70SLPC   H2S 5997   6.316   3.549  10.182  1.5271  1.7378 -0.8681
   70SLPC    C3 5998   6.289   3.148  10.356  0.1326  0.4405 -0.5691
   70SLPC    HX 5999   6.233   3.220  10.419 -1.0011 -1.6218  0.9229
   70SLPC    HY 6000   6.316   3.067  10.426  1.9259 -0.7359 -2.5023
   70SLPC   O31 6001   6.206   3.099  10.248 -0.5785  0.2170  0.4050
   70SLPC   C31 6002   6.234   2.982  10.196  0.4071  0.2295  0.5028
   70SLPC   O32 6003   6.324   2.904  10.229 -0.1865 -0.0056 -0.4984
   70SLPC   C32 6004   6.127   2.948  10.088  0.3241 -0.7977  0.1503
   70SLPC   H2X 6005   6.156   3.007   9.998 -1.1208 -0.8776 -0.3942
   70SLPC   H2Y 6006   6.028   2.989  10.117  0.1788 -0.9534 -0.1168
   70SLPC   C23 6007   6.466   3.557  10.014 -0.3873 -1.0257  0.3504
   70SLPC   H3R 6008   6.554   3.550  10.082  0.0307  1.4023  0.1508
   70SLPC   H3S 6009   6.430   3.661   9.998  1.1793 -0.4500  0.3898
   70SLPC   C24 6010   6.501   3.504   9.877  0.2803 -0.4278  0.1993
   70SLPC   H4R 6011   6.416   3.450   9.830  1.2640 -1.3982 -0.4963
   70SLPC   H4S 6012   6.571   3.420   9.898 -1.1627 -1.1548  2.5766
   70SLPC   C25 6013   6.573   3.603   9.787 -0.0193  0.1390  0.5506
   70SLPC   H5R 6014   6.674   3.612   9.832  0.6170 -1.8962 -0.3295
   70SLPC   H5S 6015   6.520   3.697   9.762  1.7780  0.9262 -0.4909
   70SLPC   C26 6016   6.604   3.539   9.648 -0.5724 -0.1131  0.3525
   70SLPC   H6R 6017   6.522   3.481   9.601  0.3446 -0.1867 -1.2371
   70SLPC   H6S 6018   6.668   3.449   9.668 -2.1868 -1.0324  1.6302
   70SLPC   C27 6019   6.664   3.634   9.546  0.2708  0.3863 -0.2876
   70SLPC   H7R 6020   6.706   3.574   9.463  0.9601 -1.0943  1.0824
   70SLPC   H7S 6021   6.744   3.688   9.602  1.5994 -0.6258 -1.1693
   70SLPC   C28 6022   6.552   3.725   9.486 -0.2834  0.3800  0.4178
   70SLPC   H8R 6023   6.596   3.815   9.436 -0.8968 -0.2278 -1.3146
   70SLPC   H8S 6024   6.492   3.757   9.574 -1.2335 -0.8963  0.2573
   70SLPC   C29 6025   6.470   3.640   9.386  0.3100 -0.3123 -0.2598
   70SLPC   H9R 6026   6.419   3.550   9.422  0.6509 -0.3662  0.1016
   70SLPC  C210 6027   6.438   3.681   9.258 -0.9027  0.0513  0.9418
   70SLPC  H10R 6028   6.378   3.614   9.195  0.8689 -0.0942 -0.6723
   70SLPC  C211 6029   6.491   3.803   9.185  0.6121 -0.1008 -0.2076
   70SLPC  H11R 6030   6.547   3.775   9.093 -2.3162 -1.0523 -1.8278
   70SLPC  H11S 6031   6.563   3.848   9.256 -0.8285  0.2842  1.0455
   70SLPC  C212 6032   6.384   3.906   9.173 -0.2066 -0.8074  0.5099
   70SLPC  H12R 6033   6.339   3.942   9.267 -1.4764 -1.0837  0.0292
   70SLPC  C213 6034   6.348   3.969   9.062 -0.1044 -0.5054  0.4699
   70SLPC  H13R 6035   6.271   4.046   9.068 -1.2085 -1.4350 -1.0983
   70SLPC  C214 6036   6.410   3.939   8.931 -0.3492 -0.3512  0.0965
   70SLPC  H14R 6037   6.353   3.861   8.877 -0.4343  1.2729 -2.3748
   70SLPC  H14S 6038   6.516   3.911   8.947 -0.8070 -2.3166 -0.1669
   70SLPC  C215 6039   6.388   4.062   8.845 -0.0306 -0.4723 -0.3670
   70SLPC  H15R 6040   6.461   4.138   8.878  1.8741 -2.2192 -0.3286
   70SLPC  H15S 6041   6.286   4.101   8.867  0.1284  2.1930 -3.5755
   70SLPC  C216 6042   6.404   4.030   8.695 -0.7567  0.3805  0.6263
   70SLPC  H16R 6043   6.334   3.955   8.654 -1.5667  0.5734  1.6256
   70SLPC  H16S 6044   6.507   3.990   8.685 -1.6201 -1.6048 -0.9096
   70SLPC  C217 6045   6.391   4.155   8.606 -0.6466  0.0658  0.1196
   70SLPC  H17R 6046   6.433   4.129   8.506 -0.4585  0.5671  0.0675
   70SLPC  H17S 6047   6.457   4.235   8.647  1.6311 -1.3715 -0.5369
   70SLPC  C218 6048   6.255   4.210   8.578  0.3475  0.7216 -0.3762
   70SLPC  H18R 6049   6.213   4.240   8.676  1.0828  0.1435  0.1257
   70SLPC  H18S 6050   6.185   4.133   8.538  0.8641 -0.0958  0.2495
   70SLPC  H18T 6051   6.247   4.295   8.507  1.3320  1.1647  0.0246
   70SLPC   C33 6052   6.104   2.800  10.058 -0.6643  0.4719 -1.0116
   70SLPC   H3X 6053   6.083   2.737  10.148 -0.3245 -0.1013 -1.3253
   70SLPC   H3Y 6054   6.201   2.767  10.016  0.0124  1.1963 -0.0626
   70SLPC   C34 6055   5.997   2.771   9.958 -0.7302  0.4257  0.2236
   70SLPC   H4X 6056   5.909   2.831   9.991 -0.7398  0.1874  0.6403
   70SLPC   H4Y 6057   6.000   2.660   9.955  2.8838  0.3979  0.3030
   70SLPC   C35 6058   6.039   2.817   9.819 -0.9708 -0.4089  0.0519
   70SLPC   H5X 6059   6.120   2.744   9.793 -1.2364 -0.7423  0.1469
   70SLPC   H5Y 6060   6.081   2.919   9.809  0.4602 -0.6753  2.5382
   70SLPC   C36 6061   5.916   2.807   9.719 -0.0483 -0.5359  0.0617
   70SLPC   H6X 6062   5.835   2.879   9.743 -0.2314 -1.5280  2.8146
   70SLPC   H6Y 6063   5.875   2.703   9.712  0.4255 -0.7154 -0.0491
   70SLPC   C37 6064   5.964   2.849   9.579  0.5060  0.5651  0.0610
   70SLPC   H7X 6065   6.041   2.776   9.544 -0.7204 -0.2222 -1.0779
   70SLPC   H7Y 6066   6.001   2.953   9.590  1.1549  0.1897  1.8270
   70SLPC   C38 6067   5.844   2.849   9.481  0.1757  0.8291 -0.6359
   70SLPC   H8X 6068   5.756   2.907   9.518  0.1900  1.0719 -0.9809
   70SLPC   H8Y 6069   5.806   2.745   9.477  1.5463  0.3416 -1.3220
   70SLPC   C39 6070   5.893   2.897   9.349  0.1415  0.2579  0.2943
   70SLPC   H9X 6071   5.805   2.886   9.282 -0.2203  0.3427  0.7443
   70SLPC   H9Y 6072   5.973   2.831   9.311  0.5131  0.3828  0.8443
   70SLPC  C310 6073   5.950   3.033   9.349 -0.2860 -0.1392 -0.0766
   70SLPC  H10X 6074   6.058   3.024   9.371  0.3952  0.9306 -2.6179
   70SLPC  H10Y 6075   5.897   3.093   9.427 -0.1089 -1.3303  0.9822
   70SLPC  C311 6076   5.940   3.104   9.216 -0.8598  0.2547 -0.4884
   70SLPC  H11X 6077   5.984   3.206   9.223  0.0988 -0.1954  0.3232
   70SLPC  H11Y 6078   5.832   3.118   9.190 -1.5695 -1.7912  1.0679
   70SLPC  C312 6079   6.013   3.040   9.089  0.0889 -0.3221  0.4227
   70SLPC  H12X 6080   5.987   2.932   9.077 -0.6015  0.0344 -1.8460
   70SLPC  H12Y 6081   6.122   3.057   9.101  0.2255  1.5449 -2.4434
   70SLPC  C313 6082   5.972   3.111   8.956 -0.0165  0.3753  0.0290
   70SLPC  H13X 6083   5.864   3.099   8.934  0.1889 -0.0977 -0.7463
   70SLPC  H13Y 6084   6.022   3.055   8.874  0.0074 -2.4383  1.8205
   70SLPC  C314 6085   6.013   3.260   8.952  0.8477 -0.1761 -0.1440
   70SLPC  H14X 6086   6.115   3.270   8.993  0.4297  2.0000  0.5005
   70SLPC  H14Y 6087   5.940   3.319   9.013  2.1961  2.1647 -0.6915
   70SLPC  C315 6088   6.017   3.324   8.808  0.2061 -0.6911 -0.0777
   70SLPC  H15X 6089   6.084   3.260   8.746 -0.0886 -0.7532 -0.3333
   70SLPC  H15Y 6090   6.057   3.428   8.815  1.2871 -1.1905  1.7957
   70SLPC  C316 6091   5.883   3.333   8.727  0.7717 -0.6414  0.2162
   70SLPC  H16X 6092   5.803   3.367   8.797 -0.3597 -0.1141 -1.2795
   70SLPC  H16Y 6093   5.841   3.235   8.697  2.3283 -0.1657 -4.1818
   70SLPC  C317 6094   5.910   3.410   8.599  0.4690 -0.3997 -0.3135
   70SLPC  H17X 6095   6.008   3.372   8.562 -0.1280 -1.8631 -0.4831
   70SLPC  H17Y 6096   5.913   3.517   8.628 -0.7584 -0.8387  1.6093
   70SLPC  C318 6097   5.805   3.398   8.488 -0.5539  0.3413 -0.7302
   70SLPC  H18X 6098   5.775   3.292   8.478  0.9643  0.1254 -4.0284
   70SLPC  H18Y 6099   5.852   3.431   8.393  1.7351 -1.0897 -0.1648
   70SLPC  H18Z 6100   5.723   3.469   8.514  0.9846  1.7020  0.6105
   71SLPC     N 6101   4.833   3.782  10.906 -0.3319 -0.1535  0.6356
   71SLPC   C13 6102   4.841   3.712  11.038 -0.3800  0.2735 -0.2097
   71SLPC  H13A 6103   4.817   3.607  11.023 -1.4698  0.4129  0.4434
   71SLPC  H13B 6104   4.940   3.727  11.076 -0.8962  1.6985  0.6500
   71SLPC  H13C 6105   4.781   3.756  11.116  0.3957 -0.3664  0.7665
   71SLPC   C14 6106   4.884   3.919  10.926 -0.0948 -0.5937 -0.3400
   71SLPC  H14A 6107   4.980   3.918  10.977 -1.0154 -0.9509  1.4554
   71SLPC  H14B 6108   4.902   3.971  10.833 -3.8178  0.7499 -0.4391
   71SLPC  H14C 6109   4.814   3.973  10.987  0.4028  0.9343 -1.0709
   71SLPC   C15 6110   4.692   3.766  10.852  0.2959  0.4262 -0.1159
   71SLPC  H15A 6111   4.620   3.794  10.927 -0.4376 -0.4376 -0.4643
   71SLPC  H15B 6112   4.678   3.821  10.760 -0.1379 -0.9542 -0.9029
   71SLPC  H15C 6113   4.671   3.664  10.823 -2.5395  1.0607 -0.6172
   71SLPC   C12 6114   4.930   3.723  10.800 -0.0008  0.6545  0.2762
   71SLPC  H12A 6115   5.029   3.744  10.838  0.5792 -3.0829  1.1940
   71SLPC  H12B 6116   4.921   3.771  10.704  1.7302 -2.1566 -1.4355
   71SLPC   C11 6117   4.924   3.566  10.774 -0.5855  0.4635 -0.1597
   71SLPC  H11A 6118   4.968   3.534  10.871  0.1818  1.0676 -0.2990
   71SLPC  H11B 6119   4.997   3.530  10.699  1.9303  1.7389  1.5119
   71SLPC     P 6120   4.779   3.369  10.687 -0.1467 -0.2404  0.1310
   71SLPC   O13 6121   4.874   3.282  10.755 -0.0551  0.2867 -0.0593
   71SLPC   O14 6122   4.636   3.333  10.697  0.1317 -0.0569  0.1350
   71SLPC   O12 6123   4.796   3.513  10.755  0.0672 -0.4489 -0.1819
   71SLPC   O11 6124   4.814   3.391  10.531  0.3335  0.1683  0.2607
   71SLPC    C1 6125   4.804   3.512  10.456 -0.0405  0.5068 -0.9895
   71SLPC    HA 6126   4.851   3.593  10.516  1.5767 -0.5605 -0.7475
   71SLPC    HB 6127   4.874   3.501  10.371 -1.2774  0.0590 -1.9734
   71SLPC    C2 6128   4.662   3.518  10.400 -1.1097 -0.6832  0.6048
   71SLPC    HS 6129   4.603   3.533  10.493  1.6030  1.0666  2.2299
   71SLPC   O21 6130   4.634   3.402  10.323  0.0369 -0.1240  0.2540
   71SLPC   C21 6131   4.510   3.364  10.335  0.0883  0.1253 -0.6531
   71SLPC   O22 6132   4.417   3.427  10.382  0.3853 -0.2876  1.1138
   71SLPC   C22 6133   4.491   3.234  10.269  0.0072 -0.4209  0.2958
   71SLPC   H2R 6134   4.578   3.207  10.205 -0.1437 -1.5659  0.5583
   71SLPC   H2S 6135   4.493   3.155  10.347  0.1730 -3.8282 -2.8494
   71SLPC    C3 6136   4.645   3.650  10.317  0.0580  0.0706 -0.3087
   71SLPC    HX 6137   4.685   3.730  10.383 -0.5227  0.4329 -0.3896
   71SLPC    HY 6138   4.537   3.664  10.298  0.4825  0.6758 -2.6023
   71SLPC   O31 6139   4.712   3.637  10.191  0.1130 -0.0910 -0.6900
   71SLPC   C31 6140   4.821   3.717  10.184 -1.0532 -0.8764  0.5158
   71SLPC   O32 6141   4.851   3.812  10.257  0.4938  0.2437  0.3519
   71SLPC   C32 6142   4.922   3.650  10.092 -1.6217 -0.3788 -0.2643
   71SLPC   H2X 6143   4.870   3.616  10.000 -0.4314 -1.8134 -0.4492
   71SLPC   H2Y 6144   4.950   3.556  10.145 -1.9026 -0.5376 -0.3987
   71SLPC   C23 6145   4.364   3.226  10.184 -0.2908  0.1175  0.2114
   71SLPC   H3R 6146   4.274   3.253  10.243 -1.3345 -1.9853 -0.3107
   71SLPC   H3S 6147   4.354   3.122  10.145  2.0359  0.6376 -2.1406
   71SLPC   C24 6148   4.376   3.301  10.055  0.2530 -0.7186 -0.6306
   71SLPC   H4R 6149   4.476   3.286  10.009 -0.5504  0.5099 -2.9447
   71SLPC   H4S 6150   4.383   3.409  10.084  3.4487  0.5802 -5.1661
   71SLPC   C25 6151   4.283   3.266   9.946 -0.4909 -0.7993  0.4469
   71SLPC   H5R 6152   4.182   3.239   9.983 -1.1344  0.3726 -0.3942
   71SLPC   H5S 6153   4.330   3.190   9.881 -0.5473  0.9834 -1.8051
   71SLPC   C26 6154   4.273   3.392   9.857  0.0733 -0.0982 -0.5475
   71SLPC   H6R 6155   4.373   3.423   9.821  0.8571  0.9241  2.2788
   71SLPC   H6S 6156   4.226   3.468   9.924  0.1642 -1.0548  0.6262
   71SLPC   C27 6157   4.174   3.372   9.748  0.0082  0.0036  0.0325
   71SLPC   H7R 6158   4.075   3.354   9.797  0.0590 -2.9002 -0.7174
   71SLPC   H7S 6159   4.220   3.287   9.694  0.1173 -0.5832  1.0288
   71SLPC   C28 6160   4.161   3.489   9.644 -0.0483 -0.2504 -0.5607
   71SLPC   H8R 6161   4.260   3.513   9.600 -0.9869 -0.4872 -2.9203
   71SLPC   H8S 6162   4.125   3.582   9.693  0.5033 -0.6028  0.5494
   71SLPC   C29 6163   4.074   3.452   9.529  0.9526  1.1286 -0.1756
   71SLPC   H9R 6164   3.973   3.425   9.563  1.4345  0.4547  0.7752
   71SLPC  C210 6165   4.105   3.426   9.405  0.3496 -0.3950  0.1645
   71SLPC  H10R 6166   4.017   3.399   9.344 -2.0358 -0.4696  3.3492
   71SLPC  C211 6167   4.241   3.448   9.344  0.5270 -1.0834 -0.2222
   71SLPC  H11R 6168   4.238   3.383   9.253  0.0826  1.3264 -2.0244
   71SLPC  H11S 6169   4.317   3.392   9.402 -0.6012 -2.0646  0.3745
   71SLPC  C212 6170   4.281   3.590   9.322  0.4409  0.1796 -0.3208
   71SLPC  H12R 6171   4.287   3.658   9.408 -3.1104  1.2059 -0.6975
   71SLPC  C213 6172   4.320   3.646   9.206 -0.1961 -0.3107  0.6647
   71SLPC  H13R 6173   4.338   3.754   9.216  2.2035 -0.6823  1.0717
   71SLPC  C214 6174   4.332   3.583   9.071 -0.1007  0.3035 -0.2303
   71SLPC  H14R 6175   4.271   3.491   9.056  2.8108 -1.3747 -3.2191
   71SLPC  H14S 6176   4.429   3.531   9.059 -0.8387 -0.9279 -1.1620
   71SLPC  C215 6177   4.317   3.689   8.955  0.3000  0.5772 -0.6643
   71SLPC  H15R 6178   4.379   3.780   8.971  2.0116 -0.4843 -0.9639
   71SLPC  H15S 6179   4.211   3.720   8.963  0.0493 -0.7005  2.7759
   71SLPC  C216 6180   4.350   3.630   8.821 -0.3317  0.2689  0.6583
   71SLPC  H16R 6181   4.267   3.558   8.804  1.0758 -1.5646  1.1434
   71SLPC  H16S 6182   4.443   3.571   8.837 -0.8889 -0.6990  0.3876
   71SLPC  C217 6183   4.344   3.739   8.714 -0.8921  0.2924  0.6349
   71SLPC  H17R 6184   4.246   3.792   8.720 -0.9419  0.0746  2.3186
   71SLPC  H17S 6185   4.339   3.700   8.611 -1.1273 -0.2316  0.8412
   71SLPC  C218 6186   4.458   3.842   8.724 -0.6566 -0.2572 -0.7979
   71SLPC  H18R 6187   4.564   3.811   8.737 -0.7007  0.3059  1.1664
   71SLPC  H18S 6188   4.445   3.910   8.811 -2.2258 -0.7887 -0.5771
   71SLPC  H18T 6189   4.451   3.915   8.641 -0.5526  1.1095  0.3715
   71SLPC   C33 6190   5.041   3.745  10.065 -0.4182  0.0163 -0.2875
   71SLPC   H3X 6191   5.113   3.737  10.149 -1.0547 -0.9822  0.1805
   71SLPC   H3Y 6192   5.008   3.849  10.044 -0.7435 -0.5143 -2.6810
   71SLPC   C34 6193   5.115   3.712   9.933 -0.4498  0.4615  0.3149
   71SLPC   H4X 6194   5.134   3.603   9.928  0.6809  0.6898 -0.8293
   71SLPC   H4Y 6195   5.215   3.759   9.921  0.0229 -0.5655  0.1450
   71SLPC   C35 6196   5.028   3.748   9.811  0.8111 -0.0138  0.2758
   71SLPC   H5X 6197   4.985   3.849   9.829 -0.4710 -0.5971  0.5577
   71SLPC   H5Y 6198   4.941   3.680   9.803  0.6575  0.2861 -0.7198
   71SLPC   C36 6199   5.095   3.768   9.675  0.3701 -0.0630 -0.0142
   71SLPC   H6X 6200   5.148   3.674   9.650 -1.6595 -1.8216  1.8646
   71SLPC   H6Y 6201   5.170   3.848   9.691  0.5229 -0.5798  2.1546
   71SLPC   C37 6202   4.998   3.804   9.567 -0.0563 -0.3372  0.1626
   71SLPC   H7X 6203   4.955   3.901   9.597  1.6176  0.1493  1.1092
   71SLPC   H7Y 6204   4.914   3.731   9.569 -0.4609  0.1298  0.4044
   71SLPC   C38 6205   5.050   3.813   9.421 -0.0727  0.1275 -0.6721
   71SLPC   H8X 6206   5.099   3.721   9.383  1.8843  0.6996  0.3198
   71SLPC   H8Y 6207   5.136   3.883   9.416 -0.1312  0.1901 -0.8271
   71SLPC   C39 6208   4.944   3.850   9.325  1.0504 -1.2664  0.2851
   71SLPC   H9X 6209   4.910   3.953   9.348  2.4543 -0.1773 -2.1267
   71SLPC   H9Y 6210   4.857   3.781   9.332  0.2109 -0.5297 -1.9128
   71SLPC  C310 6211   4.993   3.870   9.180 -0.1351 -0.0542 -0.3139
   71SLPC  H10X 6212   5.034   3.769   9.158 -0.8300 -0.2934 -0.5085
   71SLPC  H10Y 6213   5.072   3.948   9.189 -0.6715  0.2730  3.2203
   71SLPC  C311 6214   4.887   3.914   9.072 -0.1566  0.3879 -0.0671
   71SLPC  H11X 6215   4.853   4.015   9.102  0.7134  0.4097  0.9064
   71SLPC  H11Y 6216   4.816   3.831   9.050  3.3086 -2.9129  0.1051
   71SLPC  C312 6217   4.963   3.952   8.946 -0.6524  0.9112  0.0695
   71SLPC  H12X 6218   5.025   3.868   8.907  0.5162  1.5728  0.4416
   71SLPC  H12Y 6219   5.028   4.039   8.970 -2.2264  2.0778  0.2059
   71SLPC  C313 6220   4.872   3.990   8.826  0.1953 -0.3706  0.2351
   71SLPC  H13X 6221   4.790   4.058   8.856 -0.3188 -0.0106 -1.8283
   71SLPC  H13Y 6222   4.827   3.893   8.796 -1.7813  0.0131  1.7359
   71SLPC  C314 6223   4.952   4.045   8.710  0.0438  0.2700 -0.2712
   71SLPC  H14X 6224   5.050   4.077   8.752 -0.6209 -1.6127  3.1067
   71SLPC  H14Y 6225   4.903   4.140   8.680 -0.3699  0.1531  0.0191
   71SLPC  C315 6226   4.965   3.956   8.588  0.0970  0.3291 -0.3450
   71SLPC  H15X 6227   5.013   3.863   8.627  0.0345 -0.2650 -1.6221
   71SLPC  H15Y 6228   5.036   3.989   8.509 -1.6275  0.0886 -2.0913
   71SLPC  C316 6229   4.832   3.924   8.524  0.1597 -0.4216 -1.1224
   71SLPC  H16X 6230   4.780   4.022   8.512 -1.0579 -0.8922  0.0659
   71SLPC  H16Y 6231   4.771   3.855   8.586  1.9694 -1.0648  0.0060
   71SLPC  C317 6232   4.856   3.873   8.387  0.5330 -0.0606  0.3378
   71SLPC  H17X 6233   4.911   3.951   8.330  0.7771 -1.0605 -0.8366
   71SLPC  H17Y 6234   4.759   3.874   8.332  0.6735  1.4569  0.0766
   71SLPC  C318 6235   4.923   3.739   8.374  0.3589  0.4126  0.6902
   71SLPC  H18X 6236   5.004   3.722   8.448 -0.4286 -1.4107  1.1736
   71SLPC  H18Y 6237   4.976   3.738   8.276 -0.9470 -0.9510 -0.0507
   71SLPC  H18Z 6238   4.841   3.664   8.372  0.0945  0.5800  2.8246
   72SLPC     N 6239   0.500   1.467  11.136  0.5797  0.9230 -0.0901
   72SLPC   C13 6240   0.353   1.498  11.109 -0.4844 -0.1456 -0.3464
   72SLPC  H13A 6241   0.346   1.507  11.001 -1.1746  1.3802 -0.1914
   72SLPC  H13B 6242   0.300   1.410  11.143  0.3880 -0.3094  0.6279
   72SLPC  H13C 6243   0.317   1.586  11.160 -0.0298  0.6398 -1.3470
   72SLPC   C14 6244   0.534   1.327  11.099  0.1911 -0.0848 -0.2973
   72SLPC  H14A 6245   0.530   1.324  10.992  3.9917 -0.1888 -0.5732
   72SLPC  H14B 6246   0.638   1.311  11.124  0.4841  2.3588  0.2585
   72SLPC  H14C 6247   0.461   1.261  11.144  1.6122 -1.3659  0.2097
   72SLPC   C15 6248   0.527   1.483  11.282  0.1116  0.2547  0.2774
   72SLPC  H15A 6249   0.463   1.565  11.312  1.1946  0.9243  0.8571
   72SLPC  H15B 6250   0.493   1.404  11.347 -1.1886  1.7626  1.4990
   72SLPC  H15C 6251   0.627   1.520  11.301 -0.1472  2.4543 -2.0476
   72SLPC   C12 6252   0.595   1.567  11.066 -0.7918 -0.5319  0.3862
   72SLPC  H12A 6253   0.696   1.549  11.100 -0.8007  0.2389  0.8446
   72SLPC  H12B 6254   0.586   1.671  11.096  1.4701  0.3375 -1.6789
   72SLPC   C11 6255   0.604   1.557  10.905  0.0559 -0.0896 -0.1229
   72SLPC  H11A 6256   0.680   1.631  10.875  0.5359 -0.3791  0.3570
   72SLPC  H11B 6257   0.502   1.591  10.875  1.0612  1.1665 -2.2994
   72SLPC     P 6258   0.757   1.397  10.772 -0.1987 -0.0722  0.5603
   72SLPC   O13 6259   0.863   1.413  10.868  0.5142  0.1574  0.1206
   72SLPC   O14 6260   0.750   1.274  10.694 -0.1193 -0.7605  0.1563
   72SLPC   O12 6261   0.625   1.429  10.847  0.4275 -0.0123 -0.3747
   72SLPC   O11 6262   0.766   1.518  10.668  0.0094 -0.2883 -0.1691
   72SLPC    C1 6263   0.651   1.556  10.586 -0.0315  0.5459  0.3897
   72SLPC    HA 6264   0.653   1.499  10.491 -1.1480 -1.7683  1.6725
   72SLPC    HB 6265   0.557   1.535  10.641  0.9626 -0.7033  1.7217
   72SLPC    C2 6266   0.640   1.705  10.551 -0.6207 -0.2151 -0.1299
   72SLPC    HS 6267   0.550   1.749  10.599  0.1829  1.2855  0.0627
   72SLPC   O21 6268   0.634   1.725  10.411 -0.1187  0.0321 -0.2971
   72SLPC   C21 6269   0.557   1.832  10.372  0.3970  1.0947  0.2334
   72SLPC   O22 6270   0.495   1.909  10.437 -0.1346  0.5000  0.2788
   72SLPC   C22 6271   0.564   1.831  10.214 -0.0364 -0.5910 -0.4584
   72SLPC   H2R 6272   0.665   1.868  10.187 -0.3083  0.7579  0.2768
   72SLPC   H2S 6273   0.542   1.728  10.180  2.0740 -2.0286  2.1263
   72SLPC    C3 6274   0.761   1.790  10.608  0.0987 -0.6196 -0.5842
   72SLPC    HX 6275   0.766   1.765  10.716 -0.7063  1.5080 -0.0120
   72SLPC    HY 6276   0.732   1.897  10.603 -2.1029 -1.2120 -1.7690
   72SLPC   O31 6277   0.885   1.764  10.542 -0.5199  0.1416 -0.2874
   72SLPC   C31 6278   0.920   1.833  10.433  0.0268 -0.4559  0.4278
   72SLPC   O32 6279   0.853   1.928  10.387 -0.0283  0.3159  0.1779
   72SLPC   C32 6280   1.067   1.798  10.404 -0.3559  0.4321  0.4798
   72SLPC   H2X 6281   1.067   1.687  10.411 -2.4375  0.4666  2.1938
   72SLPC   H2Y 6282   1.128   1.838  10.487  3.8364 -1.8765 -1.2081
   72SLPC   C23 6283   0.447   1.920  10.163  0.6752  0.6285 -0.3531
   72SLPC   H3R 6284   0.466   2.023  10.199  1.2049  0.7221 -0.8813
   72SLPC   H3S 6285   0.352   1.875  10.199  0.9808 -0.6137 -1.0317
   72SLPC   C24 6286   0.457   1.935  10.007  0.3571 -0.5172  0.0072
   72SLPC   H4R 6287   0.563   1.964   9.990  0.5532 -1.0202  0.3562
   72SLPC   H4S 6288   0.397   2.028   9.991 -1.3193 -1.5636 -0.0236
   72SLPC   C25 6289   0.408   1.816   9.925 -0.2634 -0.1049 -0.0744
   72SLPC   H5R 6290   0.303   1.800   9.955 -0.9177  2.7209 -0.5551
   72SLPC   H5S 6291   0.472   1.728   9.948  0.3005  0.0820 -0.8901
   72SLPC   C26 6292   0.397   1.855   9.774  0.0406 -0.3697  0.0814
   72SLPC   H6R 6293   0.495   1.841   9.722  0.0303  2.6684 -0.9457
   72SLPC   H6S 6294   0.354   1.956   9.761 -0.7606 -0.5240  1.3536
   72SLPC   C27 6295   0.309   1.750   9.710  0.0251  0.4469 -0.4223
   72SLPC   H7R 6296   0.205   1.757   9.748  0.4587  0.3470  0.7979
   72SLPC   H7S 6297   0.355   1.651   9.729  0.5178  0.6977 -0.2962
   72SLPC   C28 6298   0.283   1.780   9.560  0.0171  0.5720 -0.4262
   72SLPC   H8R 6299   0.222   1.872   9.553 -1.1151  0.0572  1.6503
   72SLPC   H8S 6300   0.227   1.696   9.513 -0.7707  0.3260  0.8790
   72SLPC   C29 6301   0.416   1.785   9.490 -0.1406 -0.3568  0.6982
   72SLPC   H9R 6302   0.490   1.717   9.535 -0.7769 -0.3523  1.8065
   72SLPC  C210 6303   0.443   1.869   9.391 -0.0674  0.5194  0.9029
   72SLPC  H10R 6304   0.541   1.869   9.340 -1.1581  0.5502 -1.2857
   72SLPC  C211 6305   0.352   1.974   9.330  0.5311 -0.0577  1.0759
   72SLPC  H11R 6306   0.409   2.033   9.256  0.3008  0.5445  1.3756
   72SLPC  H11S 6307   0.317   2.040   9.412  0.9178  0.5814  0.7251
   72SLPC  C212 6308   0.231   1.911   9.256 -0.0201  0.1009 -0.7729
   72SLPC  H12R 6309   0.179   1.834   9.315 -0.1213  0.9721  0.3083
   72SLPC  C213 6310   0.164   1.954   9.143  0.1463 -0.4859 -0.0039
   72SLPC  H13R 6311   0.076   1.892   9.119 -1.2751  1.0992  0.8614
   72SLPC  C214 6312   0.198   2.075   9.061 -0.3657  0.0524 -0.5429
   72SLPC  H14R 6313   0.269   2.137   9.120  1.0596 -2.0851  0.1351
   72SLPC  H14S 6314   0.104   2.130   9.039 -0.8314 -0.8210 -0.7926
   72SLPC  C215 6315   0.264   2.042   8.922  0.3622  0.5609  0.2911
   72SLPC  H15R 6316   0.339   1.962   8.939  3.1499  2.6444 -1.4338
   72SLPC  H15S 6317   0.320   2.132   8.891  1.7445 -0.8900 -1.6253
   72SLPC  C216 6318   0.171   1.975   8.814 -0.9230 -0.0308 -0.5031
   72SLPC  H16R 6319   0.090   2.047   8.792  0.3456  1.9632  1.0255
   72SLPC  H16S 6320   0.123   1.883   8.855 -3.8762  2.1692  1.3411
   72SLPC  C217 6321   0.248   1.957   8.685  0.1468  0.1927  0.3576
   72SLPC  H17R 6322   0.320   1.873   8.700 -0.0211  0.2838  1.8069
   72SLPC  H17S 6323   0.303   2.050   8.660 -2.2208  1.6763  0.4144
   72SLPC  C218 6324   0.163   1.917   8.566 -0.3440 -0.1770  0.0754
   72SLPC  H18R 6325   0.220   1.911   8.471 -2.6648  1.1596 -1.5067
   72SLPC  H18S 6326   0.077   1.987   8.558  0.7425  1.3753  1.3475
   72SLPC  H18T 6327   0.137   1.811   8.589  1.5405 -0.9063 -0.9505
   72SLPC   C33 6328   1.132   1.865  10.279  1.4847 -0.0736 -0.6789
   72SLPC   H3X 6329   1.240   1.872  10.302  1.8841 -4.0490 -0.5237
   72SLPC   H3Y 6330   1.086   1.960  10.246  1.4272 -0.5373 -1.9894
   72SLPC   C34 6331   1.119   1.770  10.156  0.1747  0.2521 -0.8517
   72SLPC   H4X 6332   1.147   1.673  10.203 -0.3867  1.5252  2.3397
   72SLPC   H4Y 6333   1.201   1.795  10.084  0.8913 -1.4152 -0.6688
   72SLPC   C35 6334   0.980   1.770  10.086 -0.4331  1.0217 -0.0980
   72SLPC   H5X 6335   0.967   1.857  10.018 -0.5358  1.2477  0.2029
   72SLPC   H5Y 6336   0.902   1.775  10.166 -0.5259  3.4488 -0.2510
   72SLPC   C36 6337   0.946   1.645  10.010  1.1426 -0.1113  0.4655
   72SLPC   H6X 6338   0.840   1.655   9.981  0.4708 -1.2130  2.3934
   72SLPC   H6Y 6339   0.959   1.552  10.069  2.9983 -1.3101 -1.6608
   72SLPC   C37 6340   1.023   1.616   9.877  0.0359 -0.4536  0.6096
   72SLPC   H7X 6341   0.992   1.517   9.836  0.5916  0.1189 -1.2732
   72SLPC   H7Y 6342   1.132   1.627   9.899 -0.3291  0.1473  2.2890
   72SLPC   C38 6343   0.995   1.725   9.775 -0.5431 -0.2769 -0.1663
   72SLPC   H8X 6344   1.067   1.711   9.690  0.6032 -2.9136  1.1293
   72SLPC   H8Y 6345   1.013   1.826   9.818 -4.0052  1.9089 -3.2192
   72SLPC   C39 6346   0.851   1.733   9.727  0.5342  0.4560  0.0555
   72SLPC   H9X 6347   0.788   1.781   9.804 -2.2913 -0.8189 -1.3386
   72SLPC   H9Y 6348   0.814   1.634   9.695  2.7278 -0.0060 -1.2481
   72SLPC  C310 6349   0.850   1.829   9.603  0.3115 -0.4044  0.0989
   72SLPC  H10X 6350   0.913   1.917   9.630  1.1853 -0.6106 -1.1827
   72SLPC  H10Y 6351   0.750   1.872   9.581 -1.1917 -2.4288  2.4481
   72SLPC  C311 6352   0.903   1.773   9.472  0.4742 -0.1800 -0.8771
   72SLPC  H11X 6353   0.864   1.670   9.457  1.2123 -0.5809 -0.0926
   72SLPC  H11Y 6354   1.011   1.766   9.495  0.2286  0.0207  0.3687
   72SLPC  C312 6355   0.879   1.870   9.355  0.2617  0.3989  0.1575
   72SLPC  H12X 6356   0.939   1.960   9.382 -1.8002  1.3154  1.9101
   72SLPC  H12Y 6357   0.775   1.908   9.359  0.5392  1.0598  2.0712
   72SLPC  C313 6358   0.914   1.819   9.218 -0.2827  0.5243 -0.3528
   72SLPC  H13X 6359   0.865   1.725   9.183  1.1177 -1.5483  2.8201
   72SLPC  H13Y 6360   1.021   1.789   9.227 -0.1801  0.5116 -1.4271
   72SLPC  C314 6361   0.901   1.920   9.104 -0.7135 -0.5411 -0.1162
   72SLPC  H14X 6362   0.944   1.878   9.011  0.7339  1.5309 -0.4700
   72SLPC  H14Y 6363   0.972   2.003   9.125 -0.2212 -1.6265  3.0348
   72SLPC  C315 6364   0.759   1.975   9.075 -0.3338 -0.9160 -0.6958
   72SLPC  H15X 6365   0.702   1.947   9.166 -1.7647  3.5997  0.0460
   72SLPC  H15Y 6366   0.709   1.916   8.996 -0.2007 -2.7690  0.5200
   72SLPC  C316 6367   0.758   2.129   9.062  0.6004 -0.6738 -0.0818
   72SLPC  H16X 6368   0.844   2.176   9.114 -1.3232  0.3681  2.3170
   72SLPC  H16Y 6369   0.667   2.163   9.115 -0.3855 -2.9678 -0.1715
   72SLPC  C317 6370   0.764   2.177   8.917  0.2197  0.2159 -0.0213
   72SLPC  H17X 6371   0.747   2.286   8.910 -1.9632 -0.1343 -1.0482
   72SLPC  H17Y 6372   0.679   2.132   8.862  0.7155 -0.4663 -0.2458
   72SLPC  C318 6373   0.892   2.141   8.849 -0.1774  0.4939 -0.2315
   72SLPC  H18X 6374   0.903   2.182   8.746  0.7625 -1.3770 -0.9220
   72SLPC  H18Y 6375   0.906   2.032   8.832  1.7827  0.6565  0.0776
   72SLPC  H18Z 6376   0.981   2.165   8.911  0.6073  1.3231 -1.6456
   73SLPC     N 6377   1.450   6.457  10.719 -0.2506 -0.3215  0.2398
   73SLPC   C13 6378   1.430   6.420  10.860 -0.1414  0.2613 -0.4503
   73SLPC  H13A 6379   1.491   6.335  10.887  0.2625  0.2829 -1.2607
   73SLPC  H13B 6380   1.454   6.485  10.944  0.4340 -2.1037  1.3129
   73SLPC  H13C 6381   1.326   6.396  10.875  0.1438 -0.4363  0.5093
   73SLPC   C14 6382   1.586   6.506  10.692  0.6318 -0.0933 -0.0076
   73SLPC  H14A 6383   1.663   6.431  10.704  1.0724  0.2667 -0.5121
   73SLPC  H14B 6384   1.595   6.541  10.590 -1.3048 -1.6984 -0.7891
   73SLPC  H14C 6385   1.604   6.591  10.757 -1.2398  0.0011  0.4543
   73SLPC   C15 6386   1.356   6.569  10.701 -0.2872 -0.3962 -0.6035
   73SLPC  H15A 6387   1.258   6.546  10.741 -0.9596 -0.0288 -1.9776
   73SLPC  H15B 6388   1.390   6.651  10.761 -0.7300 -0.4678 -0.2516
   73SLPC  H15C 6389   1.354   6.607  10.600 -1.8864  1.2104 -0.0207
   73SLPC   C12 6390   1.418   6.345  10.628  0.2450  0.5953 -0.3765
   73SLPC  H12A 6391   1.477   6.259  10.657  1.9688  1.3423 -1.5123
   73SLPC  H12B 6392   1.451   6.375  10.530 -0.1902  0.4027 -0.5840
   73SLPC   C11 6393   1.274   6.296  10.623 -0.2217 -0.7034 -0.0603
   73SLPC  H11A 6394   1.257   6.215  10.549  0.9111  0.3668 -1.5458
   73SLPC  H11B 6395   1.211   6.382  10.591  0.5804 -0.4061 -0.8690
   73SLPC     P 6396   1.094   6.295  10.806 -0.0201  0.3224  0.6269
   73SLPC   O13 6397   1.093   6.225  10.934  0.7925  0.2213 -0.3527
   73SLPC   O14 6398   1.081   6.445  10.809  0.4758  0.0532  0.0443
   73SLPC   O12 6399   1.232   6.254  10.751  0.2746  0.0522 -0.0891
   73SLPC   O11 6400   1.001   6.222  10.706  0.3598  0.3564  0.7163
   73SLPC    C1 6401   0.868   6.269  10.673 -0.4804 -0.6503  0.0957
   73SLPC    HA 6402   0.790   6.206  10.722  0.1343 -1.6512 -0.1926
   73SLPC    HB 6403   0.849   6.374  10.701 -0.7958 -0.4172 -0.9554
   73SLPC    C2 6404   0.839   6.256  10.521  0.5807 -0.1055 -0.2647
   73SLPC    HS 6405   0.798   6.355  10.493  0.2576  0.4049  1.9079
   73SLPC   O21 6406   0.741   6.147  10.496  0.8411 -0.3638 -0.0565
   73SLPC   C21 6407   0.612   6.181  10.533  0.6488 -0.1243 -0.2615
   73SLPC   O22 6408   0.587   6.289  10.578 -0.3211  0.6399  0.1318
   73SLPC   C22 6409   0.512   6.067  10.500 -0.1011  0.2630 -0.4378
   73SLPC   H2R 6410   0.570   5.974  10.480 -1.8342 -0.5602 -1.9068
   73SLPC   H2S 6411   0.458   6.044  10.594  2.4519  0.6255  1.2420
   73SLPC    C3 6412   0.958   6.233  10.432 -0.2153  0.2585 -0.9200
   73SLPC    HX 6413   1.006   6.145  10.479  0.0630  1.1269  0.4625
   73SLPC    HY 6414   1.023   6.323  10.444  1.2926 -0.8651 -0.4385
   73SLPC   O31 6415   0.915   6.219  10.293  0.5522  0.3134  0.7521
   73SLPC   C31 6416   1.009   6.248  10.205  0.1136  0.4259 -0.2745
   73SLPC   O32 6417   1.127   6.263  10.235 -0.0781 -0.0392 -0.1772
   73SLPC   C32 6418   0.958   6.232  10.059  0.7580 -0.1430 -0.1611
   73SLPC   H2X 6419   0.905   6.326  10.032 -1.9771 -1.1900  1.1354
   73SLPC   H2Y 6420   0.894   6.141  10.061  1.2329 -0.5419  3.4836
   73SLPC   C23 6421   0.413   6.102  10.395 -0.0605 -0.1205  0.3057
   73SLPC   H3R 6422   0.391   6.211  10.397  0.3758 -0.0224  2.2614
   73SLPC   H3S 6423   0.318   6.050  10.421 -1.0605  1.4692 -0.0591
   73SLPC   C24 6424   0.459   6.043  10.256 -0.5491  0.6386 -0.1844
   73SLPC   H4R 6425   0.468   5.933  10.270 -0.6519  0.6057 -0.3716
   73SLPC   H4S 6426   0.560   6.080  10.230 -0.5948 -0.0135 -1.3719
   73SLPC   C25 6427   0.364   6.089  10.137 -0.4853  0.1448 -0.1404
   73SLPC   H5R 6428   0.365   6.198  10.160 -0.6362 -0.2215  1.8310
   73SLPC   H5S 6429   0.261   6.050  10.151 -0.0409 -1.1786 -0.4126
   73SLPC   C26 6430   0.417   6.051   9.996 -0.7795  0.1170  0.4070
   73SLPC   H6R 6431   0.525   6.076   9.990 -0.8428  0.5248  0.9017
   73SLPC   H6S 6432   0.372   6.113   9.915 -2.2182 -0.2534  0.9029
   73SLPC   C27 6433   0.404   5.904   9.952  0.3707 -0.3348  0.1294
   73SLPC   H7R 6434   0.297   5.878   9.952 -0.0410  1.1428  1.8198
   73SLPC   H7S 6435   0.450   5.849  10.037  0.5035 -0.6965 -0.1733
   73SLPC   C28 6436   0.482   5.862   9.828 -0.5584 -0.7196  0.0354
   73SLPC   H8R 6437   0.463   5.755   9.805  0.2176 -1.0912  1.0674
   73SLPC   H8S 6438   0.589   5.871   9.854 -0.4246  0.6475 -0.9289
   73SLPC   C29 6439   0.463   5.956   9.712 -0.2438  0.7432  0.6091
   73SLPC   H9R 6440   0.482   6.062   9.733  2.4593  0.5030 -0.2568
   73SLPC  C210 6441   0.428   5.917   9.589  0.6017  0.3833  0.3213
   73SLPC  H10R 6442   0.438   5.996   9.513  1.5930 -2.1437 -2.3558
   73SLPC  C211 6443   0.399   5.779   9.536  0.3693 -0.6939 -0.5538
   73SLPC  H11R 6444   0.481   5.710   9.566  0.9540 -0.6470 -1.9716
   73SLPC  H11S 6445   0.411   5.782   9.426  0.4959 -0.5463 -0.5364
   73SLPC  C212 6446   0.256   5.738   9.568  0.5168 -0.2674  0.2713
   73SLPC  H12R 6447   0.222   5.748   9.672 -1.1656  0.1101 -0.2901
   73SLPC  C213 6448   0.176   5.661   9.490 -0.1238 -0.5819 -0.0280
   73SLPC  H13R 6449   0.070   5.650   9.520  0.1270 -1.1097  0.6991
   73SLPC  C214 6450   0.206   5.606   9.352 -0.6553 -0.0303 -0.8305
   73SLPC  H14R 6451   0.154   5.511   9.327  0.6815 -0.0884 -3.9634
   73SLPC  H14S 6452   0.314   5.585   9.333 -0.3046  1.2352 -0.3008
   73SLPC  C215 6453   0.165   5.714   9.250 -0.1921  0.2996  0.5509
   73SLPC  H15R 6454   0.224   5.808   9.251 -1.1414  0.9620 -1.0920
   73SLPC  H15S 6455   0.061   5.741   9.277 -0.5194 -1.5622  1.2686
   73SLPC  C216 6456   0.162   5.675   9.099 -0.0627 -0.1177 -0.5616
   73SLPC  H16R 6457   0.105   5.581   9.087 -0.2964 -0.2032  1.0214
   73SLPC  H16S 6458   0.260   5.637   9.066  0.5356 -0.5576  1.5597
   73SLPC  C217 6459   0.108   5.796   9.015 -0.2141 -0.2789 -0.1453
   73SLPC  H17R 6460   0.169   5.887   9.031 -0.2802 -0.1616 -0.5326
   73SLPC  H17S 6461   0.007   5.811   9.058 -0.2185 -0.0500 -0.2311
   73SLPC  C218 6462   0.088   5.757   8.871 -0.7348  0.3416  0.3503
   73SLPC  H18R 6463   0.183   5.734   8.816 -1.9542  1.4729 -2.4505
   73SLPC  H18S 6464   0.043   5.844   8.819  0.4255  1.4036  1.0904
   73SLPC  H18T 6465   0.019   5.670   8.865  1.4373 -1.4401 -4.2945
   73SLPC   C33 6466   1.061   6.215   9.959 -0.6780  0.1848  0.0010
   73SLPC   H3X 6467   1.116   6.119   9.969 -1.5915 -0.2549  0.9351
   73SLPC   H3Y 6468   1.132   6.301   9.962  0.9492 -1.1295  1.2547
   73SLPC   C34 6469   1.005   6.213   9.821 -0.6240 -0.8182  0.5151
   73SLPC   H4X 6470   0.939   6.303   9.816  2.2315  1.3564 -3.2416
   73SLPC   H4Y 6471   0.946   6.122   9.796 -1.7442 -0.3341  1.2714
   73SLPC   C35 6472   1.115   6.234   9.716  0.7717 -0.3076 -0.3545
   73SLPC   H5X 6473   1.192   6.157   9.740  0.5332 -0.4436 -0.0153
   73SLPC   H5Y 6474   1.159   6.334   9.731 -2.0953  1.0848 -0.4193
   73SLPC   C36 6475   1.070   6.236   9.571  0.0268 -0.4652 -0.1955
   73SLPC   H6X 6476   1.034   6.340   9.558  0.7663 -0.4172 -2.1088
   73SLPC   H6Y 6477   0.992   6.160   9.551  0.3166 -0.4883 -1.2996
   73SLPC   C37 6478   1.192   6.238   9.469 -0.1450 -0.7574  1.2503
   73SLPC   H7X 6479   1.250   6.147   9.496  2.4891  0.9041  1.5139
   73SLPC   H7Y 6480   1.257   6.328   9.470  1.6103 -1.9639  0.8734
   73SLPC   C38 6481   1.146   6.223   9.323  0.1981 -0.1286 -0.0098
   73SLPC   H8X 6482   1.056   6.288   9.312 -0.1045 -0.3990  0.7873
   73SLPC   H8Y 6483   1.110   6.118   9.320  0.0392 -0.0547 -0.9050
   73SLPC   C39 6484   1.257   6.255   9.218  0.1665 -0.7888  0.1189
   73SLPC   H9X 6485   1.331   6.173   9.209  0.3942 -0.6386  0.5645
   73SLPC   H9Y 6486   1.304   6.354   9.237 -1.0557 -0.1158 -0.2592
   73SLPC  C310 6487   1.199   6.271   9.077  0.7958  0.2743  0.3118
   73SLPC  H10X 6488   1.108   6.206   9.073  0.9082  0.0279  1.3369
   73SLPC  H10Y 6489   1.274   6.238   9.002 -2.5045  0.1504 -3.2428
   73SLPC  C311 6490   1.150   6.410   9.039 -0.6831 -0.1682 -0.4932
   73SLPC  H11X 6491   1.228   6.489   9.034 -1.4897  1.1133  3.6804
   73SLPC  H11Y 6492   1.102   6.439   9.134  1.4629 -0.3299  0.7046
   73SLPC  C312 6493   1.061   6.415   8.917 -0.2214  0.1521 -0.0718
   73SLPC  H12X 6494   1.007   6.319   8.907 -0.3196  0.3375 -1.4225
   73SLPC  H12Y 6495   1.114   6.432   8.821  0.5011 -1.9399 -0.0920
   73SLPC  C313 6496   0.954   6.523   8.942 -0.3858  0.0411 -0.0413
   73SLPC  H13X 6497   1.009   6.618   8.962 -0.5100 -0.0634  0.8625
   73SLPC  H13Y 6498   0.892   6.502   9.032  0.2991 -2.3090 -0.0406
   73SLPC  C314 6499   0.871   6.549   8.814  0.2085  0.3095 -0.2589
   73SLPC  H14X 6500   0.830   6.450   8.785  1.3740 -0.7793  1.6098
   73SLPC  H14Y 6501   0.942   6.571   8.732 -1.1774 -3.0856 -2.5724
   73SLPC  C315 6502   0.738   6.636   8.822  0.0454  0.3217  0.4047
   73SLPC  H15X 6503   0.759   6.743   8.845 -0.1830  0.2966  0.7505
   73SLPC  H15Y 6504   0.674   6.595   8.903 -0.7124 -0.9739 -0.8089
   73SLPC  C316 6505   0.663   6.634   8.691 -0.0255 -0.6061  0.8729
   73SLPC  H16X 6506   0.635   6.531   8.659 -3.2371  0.0498  1.2332
   73SLPC  H16Y 6507   0.728   6.673   8.610  0.8728 -0.3731  1.6876
   73SLPC  C317 6508   0.526   6.701   8.704 -0.0600  0.3146 -0.3681
   73SLPC  H17X 6509   0.536   6.804   8.743  0.1735  0.2717 -0.3116
   73SLPC  H17Y 6510   0.468   6.642   8.778  0.2066 -1.5585 -1.5715
   73SLPC  C318 6511   0.440   6.702   8.568 -0.8864 -0.0569 -1.1595
   73SLPC  H18X 6512   0.503   6.732   8.481  0.9301  0.3280  0.2275
   73SLPC  H18Y 6513   0.373   6.787   8.589  1.0700  1.2098  0.2158
   73SLPC  H18Z 6514   0.395   6.602   8.549  2.0604 -1.0922 -3.6269
   74SLPC     N 6515   6.471   6.480  10.699 -0.2429 -0.3016  0.4861
   74SLPC   C13 6516   6.548   6.371  10.630  0.4359  0.5771  0.0416
   74SLPC  H13A 6517   6.564   6.291  10.700 -0.1731  0.5735  0.1798
   74SLPC  H13B 6518   6.484   6.333  10.551 -2.1746 -2.6985  3.3898
   74SLPC  H13C 6519   6.638   6.411  10.584  1.7371  0.3513  2.2769
   74SLPC   C14 6520   6.342   6.424  10.745  0.0849  0.0476 -0.3717
   74SLPC  H14A 6521   6.276   6.402  10.662 -0.6329 -0.2900  0.2714
   74SLPC  H14B 6522   6.359   6.335  10.804  0.6670  0.2464 -0.2444
   74SLPC  H14C 6523   6.295   6.494  10.812  0.9737  2.1982 -1.9189
   74SLPC   C15 6524   6.434   6.584  10.593  0.1306  0.1777  1.0337
   74SLPC  H15A 6525   6.386   6.527  10.516  1.3776 -1.3479  1.3403
   74SLPC  H15B 6526   6.362   6.651  10.639  1.7348  2.4247  0.4593
   74SLPC  H15C 6527   6.524   6.635  10.563  0.6945 -1.7566 -0.7087
   74SLPC   C12 6528   6.547   6.541  10.809 -0.0746  0.2567 -0.4349
   74SLPC  H12A 6529   6.568   6.464  10.882  1.0671  2.2060  1.4069
   74SLPC  H12B 6530   6.470   6.600  10.856 -1.4724 -1.5562 -0.3188
   74SLPC   C11 6531   6.673   6.621  10.781 -0.3601 -0.3625 -0.4903
   74SLPC  H11A 6532   6.698   6.678  10.873  2.0729  0.2014 -1.4236
   74SLPC  H11B 6533   6.656   6.693  10.699 -1.4241  0.0885  0.1059
   74SLPC     P 6534   6.877   6.549  10.634  0.2989 -0.0420 -0.7614
   74SLPC   O13 6535   6.917   6.694  10.618  0.1392  0.6664  0.2376
   74SLPC   O14 6536   6.983   6.444  10.641 -0.2360 -0.4036 -0.0496
   74SLPC   O12 6537   6.784   6.524  10.761  0.4187 -0.3693 -0.5386
   74SLPC   O11 6538   6.782   6.509  10.515 -0.1169  0.1622  0.3655
   74SLPC    C1 6539   6.830   6.458  10.389  0.0385  0.1299 -0.0744
   74SLPC    HA 6540   6.879   6.539  10.331 -2.4311 -0.1116 -2.7028
   74SLPC    HB 6541   6.918   6.391  10.403  0.0517 -0.0832 -1.0705
   74SLPC    C2 6542   6.726   6.384  10.307 -0.5435 -0.9673 -0.6715
   74SLPC    HS 6543   6.681   6.313  10.380 -0.1853 -0.5891 -0.0731
   74SLPC   O21 6544   6.786   6.318  10.198  0.1281  0.4243  0.7807
   74SLPC   C21 6545   6.714   6.211  10.150 -0.3542  0.2043  0.3603
   74SLPC   O22 6546   6.612   6.172  10.205 -0.0942  0.3053  0.0841
   74SLPC   C22 6547   6.791   6.135  10.037  0.9198  0.0097  0.3293
   74SLPC   H2R 6548   6.890   6.179  10.015  0.2208  0.4554 -2.2544
   74SLPC   H2S 6549   6.804   6.031  10.075 -0.3269  0.3942  1.9429
   74SLPC    C3 6550   6.621   6.485  10.259  0.5162  0.5301  0.2868
   74SLPC    HX 6551   6.661   6.567  10.195 -1.7272 -0.3981 -2.5706
   74SLPC    HY 6552   6.580   6.532  10.351 -1.4188 -1.6600  0.6363
   74SLPC   O31 6553   6.513   6.422  10.178 -0.1065  0.3165 -0.4014
   74SLPC   C31 6554   6.404   6.384  10.240  0.1071 -0.3815 -0.9164
   74SLPC   O32 6555   6.379   6.392  10.359  0.3930 -0.3227 -0.0195
   74SLPC   C32 6556   6.297   6.339  10.156 -0.2462  0.2078 -0.1219
   74SLPC   H2X 6557   6.201   6.389  10.182 -1.2821 -1.7667  0.0843
   74SLPC   H2Y 6558   6.291   6.229  10.168 -2.4495  0.3532  0.5527
   74SLPC   C23 6559   6.709   6.145   9.904 -0.2303  0.2844 -0.3138
   74SLPC   H3R 6560   6.604   6.113   9.920  0.0172  0.0119  0.8195
   74SLPC   H3S 6561   6.744   6.077   9.823 -0.2795  1.7689 -1.6381
   74SLPC   C24 6562   6.717   6.283   9.842 -0.1641 -0.7291  0.7230
   74SLPC   H4R 6563   6.823   6.313   9.826  0.2717 -1.8662  1.3921
   74SLPC   H4S 6564   6.675   6.350   9.921 -1.7143  0.3159 -0.9008
   74SLPC   C25 6565   6.625   6.309   9.724  0.3423  0.0278  0.2388
   74SLPC   H5R 6566   6.650   6.408   9.680 -1.2501 -0.2487 -1.3966
   74SLPC   H5S 6567   6.519   6.304   9.755  0.1502 -0.4180 -0.4616
   74SLPC   C26 6568   6.646   6.216   9.603 -0.0988 -0.2114 -0.5402
   74SLPC   H6R 6569   6.575   6.132   9.617  0.5484 -0.6166  0.3941
   74SLPC   H6S 6570   6.749   6.176   9.612 -0.3603 -0.8046 -0.1249
   74SLPC   C27 6571   6.622   6.286   9.463 -0.4188 -0.3452 -0.0543
   74SLPC   H7R 6572   6.713   6.348   9.447  0.7302 -1.8853  0.2037
   74SLPC   H7S 6573   6.534   6.353   9.460 -0.0089  0.1732 -1.6472
   74SLPC   C28 6574   6.589   6.175   9.361  0.9663 -0.4404 -0.5883
   74SLPC   H8R 6575   6.521   6.211   9.281  0.3744  1.1709  0.5849
   74SLPC   H8S 6576   6.523   6.110   9.423 -1.2229  0.7063 -1.5847
   74SLPC   C29 6577   6.707   6.099   9.307  0.4496  0.5332  0.0170
   74SLPC   H9R 6578   6.764   6.056   9.391  2.3975  0.7759 -1.1027
   74SLPC  C210 6579   6.757   6.095   9.184  0.2744  0.2055  0.0824
   74SLPC  H10R 6580   6.848   6.039   9.160 -0.9197 -2.1731  0.8025
   74SLPC  C211 6581   6.691   6.158   9.059  0.5537 -0.7706 -0.1523
   74SLPC  H11R 6582   6.647   6.260   9.066  2.1960 -0.0564  0.4763
   74SLPC  H11S 6583   6.606   6.093   9.031 -0.8077  0.9561 -0.2029
   74SLPC  C212 6584   6.786   6.165   8.941 -0.8517  0.1726  1.2763
   74SLPC  H12R 6585   6.876   6.101   8.943 -1.5478 -0.9176 -0.0364
   74SLPC  C213 6586   6.774   6.253   8.840  0.0956  0.3431 -0.0073
   74SLPC  H13R 6587   6.840   6.254   8.752  1.6930 -0.6213  1.1298
   74SLPC  C214 6588   6.660   6.355   8.815  0.2898  0.4474  0.2503
   74SLPC  H14R 6589   6.559   6.317   8.839  0.5193  0.7331  1.7743
   74SLPC  H14S 6590   6.653   6.389   8.709 -0.2326  0.3970  0.2689
   74SLPC  C215 6591   6.678   6.481   8.899 -0.1041  0.0091  0.2272
   74SLPC  H15R 6592   6.770   6.536   8.870  0.0151 -0.1471  0.3053
   74SLPC  H15S 6593   6.702   6.453   9.004 -0.7989 -1.7035 -0.0393
   74SLPC  C216 6594   6.559   6.574   8.904  0.0339 -1.2107 -0.1190
   74SLPC  H16R 6595   6.476   6.547   8.835 -0.8247 -2.0293  1.1797
   74SLPC  H16S 6596   6.605   6.669   8.869  0.2327 -1.9655 -2.0387
   74SLPC  C217 6597   6.498   6.601   9.043 -0.4901 -0.1568  0.2503
   74SLPC  H17R 6598   6.429   6.689   9.049  2.2088  2.1160 -0.0204
   74SLPC  H17S 6599   6.579   6.643   9.106  1.0397 -1.0899 -1.0322
   74SLPC  C218 6600   6.432   6.475   9.101 -0.4697  0.2675 -0.0620
   74SLPC  H18R 6601   6.361   6.496   9.184 -2.8231  0.1588 -1.9759
   74SLPC  H18S 6602   6.518   6.411   9.132 -1.0135 -0.0267  0.8770
   74SLPC  H18T 6603   6.374   6.424   9.022  0.1152  1.4961 -1.3305
   74SLPC   C33 6604   6.295   6.374  10.003  0.3698 -0.3230  0.2783
   74SLPC   H3X 6605   6.396   6.367   9.957  1.0182  0.5563  1.5186
   74SLPC   H3Y 6606   6.255   6.477   9.993  0.9927  0.0507  1.4483
   74SLPC   C34 6607   6.199   6.276   9.931  0.9460  0.2679 -0.2460
   74SLPC   H4X 6608   6.132   6.229  10.006  4.0900 -2.1521  1.3007
   74SLPC   H4Y 6609   6.263   6.187   9.911 -0.3557 -0.7048 -0.2673
   74SLPC   C35 6610   6.133   6.320   9.795  0.2509 -0.0656  0.3260
   74SLPC   H5X 6611   6.056   6.395   9.823  1.4251  1.2672  0.0913
   74SLPC   H5Y 6612   6.090   6.233   9.742  0.9737 -0.6035  0.6005
   74SLPC   C36 6613   6.228   6.396   9.704 -0.3370  0.0148  0.0208
   74SLPC   H6X 6614   6.301   6.324   9.661  0.0519 -0.6338  1.6599
   74SLPC   H6Y 6615   6.287   6.473   9.757 -0.0721 -0.4902  0.4771
   74SLPC   C37 6616   6.143   6.473   9.597  0.6445  0.2544 -0.1164
   74SLPC   H7X 6617   6.082   6.545   9.655  3.3185  3.9120 -1.5080
   74SLPC   H7Y 6618   6.081   6.398   9.543  0.1145 -0.1954  1.0704
   74SLPC   C38 6619   6.244   6.550   9.504 -1.0945 -0.4935  0.0605
   74SLPC   H8X 6620   6.205   6.561   9.400 -0.4302  2.1152  0.0089
   74SLPC   H8Y 6621   6.333   6.484   9.501 -0.7534 -0.1767  2.0829
   74SLPC   C39 6622   6.280   6.690   9.557  0.5591 -0.0101  0.1476
   74SLPC   H9X 6623   6.312   6.678   9.663  1.3985  0.2759 -0.0645
   74SLPC   H9Y 6624   6.187   6.752   9.551  1.7199  1.7953 -0.0502
   74SLPC  C310 6625   6.389   6.758   9.465  0.7658 -0.4952  0.4113
   74SLPC  H10X 6626   6.478   6.694   9.447  0.5083 -0.7942  0.1701
   74SLPC  H10Y 6627   6.428   6.848   9.515 -1.6292  1.6608 -1.3005
   74SLPC  C311 6628   6.336   6.800   9.330 -0.2141  0.0208  0.3682
   74SLPC  H11X 6629   6.232   6.835   9.352  0.1979  1.4095  0.2113
   74SLPC  H11Y 6630   6.331   6.708   9.269 -2.4101 -0.8391  1.7091
   74SLPC  C312 6631   6.408   6.912   9.249  0.4115 -0.2189 -0.2027
   74SLPC  H12X 6632   6.504   6.871   9.212  0.6054 -0.9730  1.0726
   74SLPC  H12Y 6633   6.436   6.988   9.325  1.7389 -2.5814  1.8376
   74SLPC  C313 6634   6.323   6.952   9.128 -0.6324  0.0624  0.6677
   74SLPC  H13X 6635   6.229   6.999   9.163 -1.0938  0.4981 -1.0914
   74SLPC  H13Y 6636   6.291   6.858   9.077 -1.0903  0.1891  0.7183
   74SLPC  C314 6637   6.386   7.042   9.024  0.3475 -0.3820 -0.0006
   74SLPC  H14X 6638   6.421   7.128   9.084  0.4400 -0.4063 -0.0172
   74SLPC  H14Y 6639   6.298   7.084   8.972  0.7441  1.4231  0.7028
   74SLPC  C315 6640   6.478   6.979   8.924  0.1580  0.3457 -0.6389
   74SLPC  H15X 6641   6.426   6.904   8.861  2.2413 -0.1648 -1.8466
   74SLPC  H15Y 6642   6.561   6.932   8.981 -0.4860  1.1781  1.0542
   74SLPC  C316 6643   6.538   7.082   8.821 -0.1348 -0.7150 -0.0994
   74SLPC  H16X 6644   6.470   7.101   8.735 -0.1444  1.5256  0.3332
   74SLPC  H16Y 6645   6.635   7.044   8.781  1.3581  1.8293  0.8057
   74SLPC  C317 6646   6.586   7.214   8.887  0.3830 -0.6045 -0.7097
   74SLPC  H17X 6647   6.653   7.191   8.972 -0.3385  1.9933  0.6792
   74SLPC  H17Y 6648   6.503   7.266   8.938  0.3134 -1.1966 -0.2165
   74SLPC  C318 6649   6.645   7.312   8.787 -0.2802 -0.0617  0.1688
   74SLPC  H18X 6650   6.731   7.262   8.736  1.0540 -0.2306  2.4556
   74SLPC  H18Y 6651   6.681   7.407   8.832 -0.0136 -0.2969  0.4550
   74SLPC  H18Z 6652   6.575   7.330   8.702 -0.6472 -0.7168  0.3257
   75SLPC     N 6653   0.115   3.047   6.490  0.3250 -0.1842 -0.0237
   75SLPC   C13 6654   0.187   2.939   6.420 -0.0884  0.0116  0.4717
   75SLPC  H13A 6655   0.223   2.983   6.328 -1.7406 -1.5926 -1.0481
   75SLPC  H13B 6656   0.274   2.902   6.473  1.2491  1.0688 -0.8752
   75SLPC  H13C 6657   0.120   2.860   6.389  1.4972 -0.9223 -0.8170
   75SLPC   C14 6658   0.213   3.161   6.506  0.1961  0.4226  0.0561
   75SLPC  H14A 6659   0.209   3.219   6.415 -1.2691 -0.7307 -0.6484
   75SLPC  H14B 6660   0.173   3.220   6.587  0.4970 -0.4216  0.8377
   75SLPC  H14C 6661   0.310   3.115   6.519  0.3237  0.5596 -0.3739
   75SLPC   C15 6662   0.079   2.994   6.624  0.2998 -0.3615 -0.3123
   75SLPC  H15A 6663   0.050   3.068   6.697 -1.7131  0.0851 -1.4864
   75SLPC  H15B 6664   0.007   2.913   6.625  0.7523 -0.8990 -3.1996
   75SLPC  H15C 6665   0.169   2.951   6.666  0.5621  0.3690 -0.1100
   75SLPC   C12 6666  -0.003   3.082   6.408 -0.1329 -0.1110  0.2521
   75SLPC  H12A 6667  -0.076   3.005   6.424  0.2551 -0.4529  0.3762
   75SLPC  H12B 6668   0.005   3.076   6.300 -3.8612 -1.1865 -0.1339
   75SLPC   C11 6669  -0.072   3.219   6.430 -1.1886 -0.3650 -0.7246
   75SLPC  H11A 6670  -0.137   3.251   6.346 -1.4057  2.3054  0.3825
   75SLPC  H11B 6671   0.004   3.299   6.421 -1.7961  0.0823 -2.1071
   75SLPC     P 6672  -0.283   3.148   6.564  0.3701  0.2718  0.4989
   75SLPC   O13 6673  -0.383   3.227   6.492  0.1452  0.5099  0.5425
   75SLPC   O14 6674  -0.284   3.003   6.525 -0.1549 -0.2642 -0.0866
   75SLPC   O12 6675  -0.140   3.215   6.557  0.0436 -0.3236  0.0699
   75SLPC   O11 6676  -0.322   3.158   6.710 -0.2364 -0.2709 -0.1107
   75SLPC    C1 6677  -0.242   3.081   6.817 -0.0890  0.3374  0.4136
   75SLPC    HA 6678  -0.246   2.972   6.794 -1.1505 -0.0499  2.2669
   75SLPC    HB 6679  -0.134   3.106   6.805 -0.0149 -0.5131 -0.9102
   75SLPC    C2 6680  -0.282   3.111   6.961 -0.2677  0.7961  0.3061
   75SLPC    HS 6681  -0.211   3.057   7.027 -3.7749 -0.0393  3.7575
   75SLPC   O21 6682  -0.416   3.060   6.984  0.7019  0.9239 -0.2863
   75SLPC   C21 6683  -0.417   2.923   6.997  0.0447 -0.2582  0.8449
   75SLPC   O22 6684  -0.324   2.851   6.968  0.2961  0.6218  0.3290
   75SLPC   C22 6685  -0.556   2.871   7.033 -0.0135 -0.4647  0.3631
   75SLPC   H2R 6686  -0.625   2.907   6.954  1.7547 -0.0534 -1.0873
   75SLPC   H2S 6687  -0.556   2.760   7.025 -0.8597 -0.4126 -0.4783
   75SLPC    C3 6688  -0.265   3.264   6.990 -0.4649 -0.1129 -0.8067
   75SLPC    HX 6689  -0.344   3.306   6.924 -0.2520 -0.2129 -1.1298
   75SLPC    HY 6690  -0.163   3.297   6.961 -0.1372  0.1246  0.5693
   75SLPC   O31 6691  -0.280   3.302   7.130  0.1948  0.2246 -0.2652
   75SLPC   C31 6692  -0.270   3.427   7.146 -0.4831  0.1918  0.0824
   75SLPC   O32 6693  -0.278   3.510   7.056 -0.1677 -0.0293  0.1031
   75SLPC   C32 6694  -0.254   3.472   7.287  0.1498  0.0383  0.0851
   75SLPC   H2X 6695  -0.262   3.385   7.356 -0.6596 -1.7858 -2.1847
   75SLPC   H2Y 6696  -0.341   3.539   7.305 -0.6724 -0.5604 -1.4755
   75SLPC   C23 6697  -0.613   2.916   7.171 -1.1256 -0.0399 -0.3346
   75SLPC   H3R 6698  -0.717   2.878   7.171 -2.2700  2.8540  0.6061
   75SLPC   H3S 6699  -0.613   3.026   7.188 -1.5878  0.0346 -0.7940
   75SLPC   C24 6700  -0.539   2.847   7.286 -0.4612  0.2594 -0.1938
   75SLPC   H4R 6701  -0.430   2.836   7.267 -0.4125 -2.1989  1.0926
   75SLPC   H4S 6702  -0.572   2.741   7.281  1.9536 -0.5467 -0.3148
   75SLPC   C25 6703  -0.555   2.901   7.428  0.0097 -0.6199  0.1787
   75SLPC   H5R 6704  -0.658   2.941   7.434 -0.6315 -1.7373 -2.1079
   75SLPC   H5S 6705  -0.492   2.989   7.451 -0.4085  0.3700 -2.1396
   75SLPC   C26 6706  -0.545   2.799   7.542 -0.2534 -0.4356  0.2729
   75SLPC   H6R 6707  -0.462   2.730   7.515  0.9868  0.5417  1.4875
   75SLPC   H6S 6708  -0.637   2.735   7.538  0.2333 -1.2143  1.1830
   75SLPC   C27 6709  -0.525   2.856   7.683  0.1322 -0.4048  0.5153
   75SLPC   H7R 6710  -0.624   2.894   7.715 -0.7420 -1.7425 -0.4880
   75SLPC   H7S 6711  -0.450   2.938   7.677 -1.5815  1.2082  0.5014
   75SLPC   C28 6712  -0.478   2.759   7.787  0.0526  0.0784  0.3076
   75SLPC   H8R 6713  -0.375   2.726   7.762 -0.3903 -0.3611 -0.9890
   75SLPC   H8S 6714  -0.529   2.661   7.772  0.6895 -0.5188  1.7977
   75SLPC   C29 6715  -0.480   2.799   7.928  0.7005 -0.1323 -0.3177
   75SLPC   H9R 6716  -0.411   2.878   7.962 -1.2371  0.9528  1.2455
   75SLPC  C210 6717  -0.559   2.745   8.018  0.2155  0.5356 -0.5275
   75SLPC  H10R 6718  -0.534   2.777   8.120  3.1281  0.1882 -1.0554
   75SLPC  C211 6719  -0.654   2.620   8.020 -0.1673 -0.0177  0.0812
   75SLPC  H11R 6720  -0.666   2.577   7.919 -2.9158 -0.6671  0.6042
   75SLPC  H11S 6721  -0.759   2.643   8.047 -0.0614 -0.9946  1.4531
   75SLPC  C212 6722  -0.603   2.513   8.112 -0.0530 -0.4053  0.0443
   75SLPC  H12R 6723  -0.564   2.423   8.063 -1.9819 -0.4109 -1.5628
   75SLPC  C213 6724  -0.618   2.506   8.249  0.2281  0.2750 -0.0368
   75SLPC  H13R 6725  -0.609   2.411   8.303 -3.2718 -1.0155 -1.4275
   75SLPC  C214 6726  -0.682   2.615   8.333  0.2511  0.0682  0.3470
   75SLPC  H14R 6727  -0.693   2.714   8.284  0.6413 -0.0755 -0.0344
   75SLPC  H14S 6728  -0.613   2.615   8.421  0.2507  0.9697  0.3566
   75SLPC  C215 6729  -0.823   2.585   8.387 -0.1103 -0.2793 -0.3103
   75SLPC  H15R 6730  -0.852   2.669   8.452  1.0954  0.1403 -0.2854
   75SLPC  H15S 6731  -0.825   2.486   8.439  1.2323  0.5238  1.3600
   75SLPC  C216 6732  -0.931   2.583   8.280 -0.1624 -0.6224 -0.1055
   75SLPC  H16R 6733  -0.898   2.513   8.200 -0.8251 -1.5648  0.4258
   75SLPC  H16S 6734  -0.936   2.686   8.239 -0.5614 -0.9090 -0.8047
   75SLPC  C217 6735  -1.069   2.540   8.333 -0.3593  0.0823 -0.1039
   75SLPC  H17R 6736  -1.144   2.536   8.251 -0.9349 -2.3825  0.4318
   75SLPC  H17S 6737  -1.105   2.607   8.414 -0.7571 -2.2045  1.7246
   75SLPC  C218 6738  -1.078   2.392   8.376  0.5184 -0.0840  0.6614
   75SLPC  H18R 6739  -1.038   2.321   8.300 -0.7177  0.1876 -0.2857
   75SLPC  H18S 6740  -1.176   2.352   8.410 -0.2326 -0.1967 -1.4460
   75SLPC  H18T 6741  -1.018   2.368   8.466 -2.3953  0.8433  3.0184
   75SLPC   C33 6742  -0.126   3.572   7.301  0.5123  0.1460  0.5919
   75SLPC   H3X 6743  -0.031   3.515   7.302  0.5750  0.2549  1.2945
   75SLPC   H3Y 6744  -0.139   3.650   7.223  1.5488  1.8890  2.1010
   75SLPC   C34 6745  -0.127   3.650   7.432  0.0383  0.2140 -0.5034
   75SLPC   H4X 6746  -0.212   3.722   7.438  1.2939  1.7126 -0.0925
   75SLPC   H4Y 6747  -0.033   3.709   7.439  0.6841 -0.8307 -0.1362
   75SLPC   C35 6748  -0.128   3.565   7.564 -0.1464 -0.4598 -0.1902
   75SLPC   H5X 6749  -0.029   3.517   7.578  0.4587  1.0741  1.0413
   75SLPC   H5Y 6750  -0.201   3.481   7.568 -0.5100 -0.1154  0.6484
   75SLPC   C36 6751  -0.135   3.649   7.695  0.5899  0.4873 -0.0407
   75SLPC   H6X 6752  -0.234   3.699   7.698 -1.1224 -2.6991  1.7397
   75SLPC   H6Y 6753  -0.065   3.736   7.693 -0.0069  1.0345  1.2838
   75SLPC   C37 6754  -0.090   3.575   7.826  0.5473  0.4489 -0.1474
   75SLPC   H7X 6755   0.011   3.530   7.813  0.3760  0.0469 -0.0941
   75SLPC   H7Y 6756  -0.159   3.489   7.838  1.8982 -0.5820  0.3826
   75SLPC   C38 6757  -0.108   3.658   7.952 -0.1693  0.1565  0.1652
   75SLPC   H8X 6758  -0.215   3.679   7.972  0.8517  4.8488  2.0706
   75SLPC   H8Y 6759  -0.054   3.753   7.928 -1.0165  0.5201 -0.3553
   75SLPC   C39 6760  -0.057   3.576   8.074 -0.1538 -0.5662 -0.2480
   75SLPC   H9X 6761   0.039   3.524   8.052  0.1698  0.1648 -0.5822
   75SLPC   H9Y 6762  -0.132   3.500   8.104 -1.7885  1.1786  0.2622
   75SLPC  C310 6763  -0.021   3.670   8.194 -0.1983  0.2552  0.3870
   75SLPC  H10X 6764  -0.110   3.735   8.207 -1.2056 -1.1856  0.9483
   75SLPC  H10Y 6765   0.063   3.735   8.161 -1.3766  1.1620 -0.9576
   75SLPC  C311 6766  -0.011   3.594   8.330 -0.3006  0.0244 -1.0610
   75SLPC  H11X 6767  -0.096   3.535   8.371  0.4790  1.0434  2.2947
   75SLPC  H11Y 6768   0.001   3.671   8.409  4.7640  0.0263 -1.4804
   75SLPC  C312 6769   0.111   3.498   8.334 -0.7135 -0.3570  0.1137
   75SLPC  H12X 6770   0.132   3.461   8.231 -1.0876 -1.4444  0.4208
   75SLPC  H12Y 6771   0.093   3.410   8.400 -0.2237  1.3581  2.6808
   75SLPC  C313 6772   0.236   3.574   8.384 -0.0422  0.2319  1.0483
   75SLPC  H13X 6773   0.217   3.622   8.482 -1.3138  1.5190  0.2203
   75SLPC  H13Y 6774   0.246   3.649   8.303 -0.1896 -0.1159  0.7064
   75SLPC  C314 6775   0.364   3.490   8.393 -0.6689  0.1089 -0.2460
   75SLPC  H14X 6776   0.388   3.456   8.290  0.0177 -0.2215  0.0170
   75SLPC  H14Y 6777   0.340   3.396   8.448  3.4125 -0.7531  0.4060
   75SLPC  C315 6778   0.479   3.567   8.461 -0.3875 -0.0251  0.4425
   75SLPC  H15X 6779   0.445   3.606   8.559  2.5984  3.1540  0.3834
   75SLPC  H15Y 6780   0.513   3.648   8.393  0.6588 -0.1524  0.7901
   75SLPC  C316 6781   0.612   3.484   8.476  0.3032  0.4502  0.1869
   75SLPC  H16X 6782   0.679   3.556   8.528  0.8950 -0.2869  0.4575
   75SLPC  H16Y 6783   0.643   3.452   8.375  0.2387 -0.6522  0.5025
   75SLPC  C317 6784   0.608   3.353   8.563  0.3178  0.3858  0.1874
   75SLPC  H17X 6785   0.697   3.286   8.562  1.2947  1.6573 -0.0066
   75SLPC  H17Y 6786   0.525   3.283   8.534  0.4473  1.1202 -2.2258
   75SLPC  C318 6787   0.590   3.387   8.712 -0.5824 -0.8169 -0.4841
   75SLPC  H18X 6788   0.489   3.413   8.751 -0.3604 -1.2363  0.3821
   75SLPC  H18Y 6789   0.661   3.467   8.739 -0.2040 -1.5556  0.7758
   75SLPC  H18Z 6790   0.618   3.303   8.778 -1.7384  0.6175  1.9670
   76SLPC     N 6791   1.446   0.791   6.159  0.5264  0.2262  0.3286
   76SLPC   C13 6792   1.471   0.800   6.015  0.0943 -1.0829  0.0624
   76SLPC  H13A 6793   1.391   0.859   5.973  2.0365  1.3312 -0.4550
   76SLPC  H13B 6794   1.561   0.857   5.998  0.5009 -1.2784  1.4207
   76SLPC  H13C 6795   1.475   0.701   5.972 -2.1616 -1.4061  0.4348
   76SLPC   C14 6796   1.325   0.708   6.177 -0.1060  0.1785 -0.0468
   76SLPC  H14A 6797   1.239   0.759   6.136 -1.7379 -1.8699  0.6032
   76SLPC  H14B 6798   1.334   0.616   6.120 -1.4483 -0.6558  1.0088
   76SLPC  H14C 6799   1.305   0.680   6.280 -0.3674  0.5026 -0.0055
   76SLPC   C15 6800   1.415   0.925   6.218  0.1070  0.8790  0.6661
   76SLPC  H15A 6801   1.352   0.988   6.158 -0.5166 -1.0855 -0.8481
   76SLPC  H15B 6802   1.362   0.913   6.312  0.4208  0.8679  0.8416
   76SLPC  H15C 6803   1.508   0.974   6.241  1.3245 -0.7736 -0.5535
   76SLPC   C12 6804   1.566   0.725   6.216 -0.3346  0.3642  0.2885
   76SLPC  H12A 6805   1.582   0.624   6.181 -0.3248 -0.1955  1.8255
   76SLPC  H12B 6806   1.564   0.716   6.324  2.2660  1.1556  0.4746
   76SLPC   C11 6807   1.703   0.792   6.192  0.2533  0.0676 -0.3015
   76SLPC  H11A 6808   1.718   0.804   6.082  0.4632 -3.5457 -0.7809
   76SLPC  H11B 6809   1.775   0.721   6.237 -2.3143 -1.3050  1.9038
   76SLPC     P 6810   1.834   1.016   6.233  0.0570 -0.7458  0.0686
   76SLPC   O13 6811   1.805   1.100   6.114 -0.2159 -0.3098 -0.3010
   76SLPC   O14 6812   1.870   1.079   6.364  0.2707  0.1965 -0.1730
   76SLPC   O12 6813   1.710   0.913   6.258 -0.1183  0.3529  0.1521
   76SLPC   O11 6814   1.943   0.912   6.195  0.5860 -0.4894  0.0054
   76SLPC    C1 6815   2.076   0.961   6.166  0.8701  0.3200 -0.0344
   76SLPC    HA 6816   2.093   0.945   6.057 -2.1814  0.9777 -0.7134
   76SLPC    HB 6817   2.081   1.071   6.181  2.3743  0.0462  1.9292
   76SLPC    C2 6818   2.169   0.890   6.260 -0.3460 -0.8941 -0.5814
   76SLPC    HS 6819   2.132   0.786   6.277 -0.9021 -0.8409 -1.4313
   76SLPC   O21 6820   2.166   0.970   6.384  0.5971 -0.3317 -0.0366
   76SLPC   C21 6821   2.087   0.925   6.482 -0.0737 -0.6839  1.2779
   76SLPC   O22 6822   2.013   0.829   6.479  0.2962  0.0893  0.4561
   76SLPC   C22 6823   2.105   1.023   6.598  0.9073  0.0771 -0.1138
   76SLPC   H2R 6824   2.203   1.012   6.648  0.0159  0.1211  1.7064
   76SLPC   H2S 6825   2.106   1.119   6.542  2.3136 -0.2680 -0.7365
   76SLPC    C3 6826   2.312   0.890   6.217 -0.3321 -0.4469 -0.4964
   76SLPC    HX 6827   2.337   0.994   6.188 -1.4993  0.4872  1.6355
   76SLPC    HY 6828   2.331   0.832   6.124  0.5960  1.0325 -1.2623
   76SLPC   O31 6829   2.391   0.825   6.323  0.7381  0.1212  0.0202
   76SLPC   C31 6830   2.477   0.910   6.380 -0.1950  0.3860 -0.2673
   76SLPC   O32 6831   2.520   1.016   6.342  0.1237  0.7341  0.1483
   76SLPC   C32 6832   2.531   0.847   6.514  0.2005 -0.1884  0.1934
   76SLPC   H2X 6833   2.636   0.884   6.520 -0.6655  2.6817 -0.7527
   76SLPC   H2Y 6834   2.520   0.736   6.514 -3.9904  0.0028  2.3109
   76SLPC   C23 6835   1.991   1.017   6.706 -0.6380  0.2518  0.2157
   76SLPC   H3R 6836   1.992   0.913   6.745 -0.6016  0.4016  0.6213
   76SLPC   H3S 6837   1.897   1.051   6.658 -0.2611  0.7257 -0.2019
   76SLPC   C24 6838   2.021   1.118   6.818  0.1821 -0.0638 -0.0358
   76SLPC   H4R 6839   2.041   1.222   6.785 -0.7809 -0.2496 -1.3003
   76SLPC   H4S 6840   2.116   1.076   6.857 -0.3078 -2.6310 -1.3978
   76SLPC   C25 6841   1.912   1.120   6.927 -0.2909 -0.3281  0.5020
   76SLPC   H5R 6842   1.902   1.024   6.982 -0.9001  0.6264  2.1308
   76SLPC   H5S 6843   1.811   1.141   6.887 -0.3561  0.7762  1.2028
   76SLPC   C26 6844   1.926   1.238   7.026  0.1621  0.0249  0.0365
   76SLPC   H6R 6845   1.837   1.241   7.091  1.0321 -3.8053  1.7058
   76SLPC   H6S 6846   1.923   1.325   6.957  0.4158 -0.1731 -0.2293
   76SLPC   C27 6847   2.046   1.247   7.129 -0.4301  0.2251  0.6153
   76SLPC   H7R 6848   2.134   1.216   7.070 -0.8277 -0.3314  0.2988
   76SLPC   H7S 6849   2.031   1.170   7.208  1.5106 -1.7535 -0.8116
   76SLPC   C28 6850   2.062   1.378   7.202  0.2253 -0.0708 -0.3862
   76SLPC   H8R 6851   2.047   1.465   7.134 -2.1327  1.5852  2.0253
   76SLPC   H8S 6852   1.976   1.393   7.272 -1.1872  2.5558 -2.4501
   76SLPC   C29 6853   2.193   1.380   7.273 -0.3369  0.1984 -0.2688
   76SLPC   H9R 6854   2.276   1.398   7.204  0.6573 -1.3752  0.4617
   76SLPC  C210 6855   2.220   1.384   7.410 -0.5821 -0.4322 -0.3629
   76SLPC  H10R 6856   2.323   1.388   7.449 -0.9131  0.1712  0.4904
   76SLPC  C211 6857   2.114   1.384   7.520 -0.4258  0.3379 -0.1500
   76SLPC  H11R 6858   2.012   1.385   7.474  0.0945 -1.4682 -1.4646
   76SLPC  H11S 6859   2.118   1.473   7.587  1.2544 -0.8283  1.4153
   76SLPC  C212 6860   2.120   1.255   7.614 -0.2562 -0.0582  0.7048
   76SLPC  H12R 6861   2.046   1.177   7.591 -1.2128  0.5046  1.7192
   76SLPC  C213 6862   2.196   1.237   7.726  0.3859 -0.0730  0.0079
   76SLPC  H13R 6863   2.193   1.142   7.782  1.2008  0.5859  1.2226
   76SLPC  C214 6864   2.286   1.337   7.793 -0.4039  0.3358  0.1463
   76SLPC  H14R 6865   2.245   1.367   7.891  0.2529  1.6958  0.0249
   76SLPC  H14S 6866   2.282   1.433   7.737 -1.5299  0.9973  1.3254
   76SLPC  C215 6867   2.430   1.298   7.816  0.6129  0.0979 -0.6858
   76SLPC  H15R 6868   2.442   1.212   7.885 -0.5205  0.2806 -0.2206
   76SLPC  H15S 6869   2.489   1.376   7.869  0.8161 -0.4578 -0.0882
   76SLPC  C216 6870   2.508   1.267   7.682 -0.1875  0.1060 -0.1724
   76SLPC  H16R 6871   2.496   1.357   7.618 -2.2814  0.3881  0.5463
   76SLPC  H16S 6872   2.458   1.183   7.629 -0.3848  0.6319 -0.8186
   76SLPC  C217 6873   2.658   1.235   7.701  0.2476 -0.1669 -0.1690
   76SLPC  H17R 6874   2.711   1.318   7.752 -0.9716  0.8286 -0.4667
   76SLPC  H17S 6875   2.712   1.246   7.604  0.0304  2.5325 -0.0717
   76SLPC  C218 6876   2.698   1.112   7.783 -0.5279 -0.7463 -0.7507
   76SLPC  H18R 6877   2.673   1.124   7.891 -0.6918 -3.7658 -0.3450
   76SLPC  H18S 6878   2.804   1.079   7.776 -0.2690 -0.0485 -0.2086
   76SLPC  H18T 6879   2.628   1.034   7.747  0.5090 -0.7467 -2.9180
   76SLPC   C33 6880   2.448   0.902   6.632 -0.6384  0.4871  0.0758
   76SLPC   H3X 6881   2.373   0.823   6.656  0.0530  0.5456  2.7933
   76SLPC   H3Y 6882   2.397   0.999   6.615  1.7075  1.6108 -0.9446
   76SLPC   C34 6883   2.525   0.908   6.766  0.4151 -0.5192 -0.3209
   76SLPC   H4X 6884   2.457   0.934   6.850 -0.2689 -0.7649 -0.7917
   76SLPC   H4Y 6885   2.601   0.989   6.760 -1.0084  1.0546  1.5613
   76SLPC   C35 6886   2.602   0.786   6.799  0.2985  0.5646  0.0790
   76SLPC   H5X 6887   2.675   0.749   6.725 -1.9942 -1.3357 -1.3659
   76SLPC   H5Y 6888   2.526   0.705   6.801  2.2203 -1.3176  0.6568
   76SLPC   C36 6889   2.673   0.790   6.939  0.1604  0.4463  0.2588
   76SLPC   H6X 6890   2.594   0.786   7.016 -0.3370 -0.6383 -0.2794
   76SLPC   H6Y 6891   2.743   0.876   6.951  1.0172 -0.1247 -0.4519
   76SLPC   C37 6892   2.760   0.665   6.960 -1.0270  0.0975 -0.1214
   76SLPC   H7X 6893   2.836   0.665   6.878 -3.6319 -1.9572 -2.7198
   76SLPC   H7Y 6894   2.699   0.580   6.923 -1.0977  0.6344 -1.2886
   76SLPC   C38 6895   2.835   0.663   7.096  0.0865  0.6755  0.4824
   76SLPC   H8X 6896   2.766   0.668   7.183  0.7745  0.4912  1.0391
   76SLPC   H8Y 6897   2.908   0.747   7.097  0.3364  0.5216 -1.3747
   76SLPC   C39 6898   2.916   0.530   7.119  0.4375  0.1079 -0.1769
   76SLPC   H9X 6899   2.990   0.531   7.036 -1.8573  0.3933 -2.3543
   76SLPC   H9Y 6900   2.850   0.441   7.108  0.4889  0.2899 -2.2467
   76SLPC  C310 6901   2.983   0.530   7.255 -0.0069  0.9090 -0.1678
   76SLPC  H10X 6902   3.027   0.631   7.274  1.5901  0.4500 -1.1975
   76SLPC  H10Y 6903   3.072   0.465   7.239 -0.6427 -0.0249  0.0134
   76SLPC  C311 6904   2.898   0.478   7.376  0.1249  0.2804 -0.5726
   76SLPC  H11X 6905   2.848   0.384   7.342  0.8793 -0.5473  0.5463
   76SLPC  H11Y 6906   2.830   0.560   7.409  2.1908  2.3695 -1.1998
   76SLPC  C312 6907   2.985   0.425   7.490  0.2921 -0.3710 -0.2764
   76SLPC  H12X 6908   3.066   0.376   7.432  0.6879  2.5369 -2.3949
   76SLPC  H12Y 6909   2.929   0.348   7.548  1.4660 -0.7565  0.3868
   76SLPC  C313 6910   3.047   0.530   7.583  0.1846  0.3644  0.2455
   76SLPC  H13X 6911   3.109   0.594   7.515 -2.8299  1.4885 -1.6603
   76SLPC  H13Y 6912   3.122   0.491   7.655  0.5236 -0.3692 -0.4906
   76SLPC  C314 6913   2.948   0.611   7.663  0.1636 -0.7747 -0.3694
   76SLPC  H14X 6914   2.884   0.544   7.723 -0.6688  0.1832 -0.1533
   76SLPC  H14Y 6915   2.872   0.670   7.607 -0.1727 -1.0364 -0.1868
   76SLPC  C315 6916   3.017   0.708   7.763 -0.0555  0.4281  0.7414
   76SLPC  H15X 6917   3.047   0.794   7.700  0.4005 -1.9283 -2.5383
   76SLPC  H15Y 6918   3.108   0.666   7.811 -0.6073 -0.2973  1.1793
   76SLPC  C316 6919   2.908   0.747   7.869  0.0840 -0.2375 -0.1370
   76SLPC  H16X 6920   2.900   0.652   7.926 -2.8626 -0.1358 -0.1979
   76SLPC  H16Y 6921   2.807   0.780   7.835  0.2808  1.3854  0.7515
   76SLPC  C317 6922   2.962   0.857   7.962  0.0088  0.2291 -0.3528
   76SLPC  H17X 6923   2.997   0.939   7.896  0.1813 -0.9083 -1.7355
   76SLPC  H17Y 6924   3.048   0.815   8.018 -1.3466  0.4700  2.0576
   76SLPC  C318 6925   2.867   0.916   8.057  0.0883 -0.7336 -0.2460
   76SLPC  H18X 6926   2.854   0.851   8.147 -0.2262 -0.4208 -0.0654
   76SLPC  H18Y 6927   2.769   0.920   8.005 -0.5992 -1.6152  0.9206
   76SLPC  H18Z 6928   2.893   1.019   8.090 -2.0487  0.3821 -1.8372
   77SLPC     N 6929   3.728   2.876   6.488 -0.0709 -0.0243  0.7113
   77SLPC   C13 6930   3.730   2.837   6.341 -0.6431  0.6551 -0.4471
   77SLPC  H13A 6931   3.778   2.911   6.278  1.9073 -0.7578 -0.2730
   77SLPC  H13B 6932   3.798   2.755   6.325 -0.5510  0.8246 -0.9524
   77SLPC  H13C 6933   3.634   2.807   6.300 -1.1470 -0.2900  1.3412
   77SLPC   C14 6934   3.643   2.772   6.560  0.1817  0.0480  0.3007
   77SLPC  H14A 6935   3.683   2.672   6.550  0.2278  0.0864  0.1023
   77SLPC  H14B 6936   3.640   2.805   6.663 -1.9338 -0.1930  0.3617
   77SLPC  H14C 6937   3.542   2.770   6.522  0.4057 -0.6521 -0.2677
   77SLPC   C15 6938   3.661   3.018   6.484 -0.2436 -0.0832 -0.1999
   77SLPC  H15A 6939   3.558   2.997   6.458 -1.1524  1.1576  2.1270
   77SLPC  H15B 6940   3.663   3.061   6.583  1.9576  1.7931 -0.9631
   77SLPC  H15C 6941   3.701   3.090   6.414 -1.2106  0.0081 -0.6668
   77SLPC   C12 6942   3.864   2.883   6.546 -0.3819  0.0173  0.3054
   77SLPC  H12A 6943   3.855   2.933   6.641 -2.4257 -0.6096  0.4760
   77SLPC  H12B 6944   3.922   2.948   6.482 -2.4454  0.1874 -1.5176
   77SLPC   C11 6945   3.935   2.748   6.573  0.3155 -0.3542  0.6401
   77SLPC  H11A 6946   3.905   2.693   6.665  1.8097  1.5722  2.3967
   77SLPC  H11B 6947   4.036   2.787   6.597 -0.4081  1.0832  1.5238
   77SLPC     P 6948   4.068   2.642   6.367 -0.3404 -0.2852 -0.1826
   77SLPC   O13 6949   4.031   2.539   6.264 -0.0052 -0.1931  0.1775
   77SLPC   O14 6950   4.112   2.774   6.318  0.2528 -0.1298 -0.8913
   77SLPC   O12 6951   3.940   2.659   6.459  0.3981 -0.5288  0.5563
   77SLPC   O11 6952   4.192   2.588   6.459 -0.6485 -0.2431 -0.6609
   77SLPC    C1 6953   4.166   2.478   6.550  0.8932  0.5716 -0.1657
   77SLPC    HA 6954   4.059   2.459   6.573  1.5247 -1.0889  1.6873
   77SLPC    HB 6955   4.213   2.384   6.514  1.7147  0.6650  0.6154
   77SLPC    C2 6956   4.223   2.507   6.693 -0.3184  0.4515 -0.7170
   77SLPC    HS 6957   4.195   2.417   6.753  3.0598 -0.0620  0.2974
   77SLPC   O21 6958   4.172   2.625   6.743  0.6895 -0.2782  0.2637
   77SLPC   C21 6959   4.149   2.620   6.881 -0.0387 -0.2734  1.2252
   77SLPC   O22 6960   4.176   2.516   6.941  0.6023  0.3185 -0.4272
   77SLPC   C22 6961   4.102   2.758   6.934 -0.4298 -0.1116 -0.1201
   77SLPC   H2R 6962   4.189   2.823   6.911 -0.1693  1.1734  3.7140
   77SLPC   H2S 6963   4.019   2.793   6.869  0.1176  1.4998 -0.0158
   77SLPC    C3 6964   4.382   2.507   6.687 -0.4637 -0.6238  0.0279
   77SLPC    HX 6965   4.413   2.603   6.640 -2.7570 -0.3560 -1.0787
   77SLPC    HY 6966   4.413   2.421   6.625  0.7026 -0.1017 -0.1465
   77SLPC   O31 6967   4.447   2.499   6.818 -0.5655  0.0978  0.5971
   77SLPC   C31 6968   4.437   2.382   6.886  0.5176  0.3016  0.1711
   77SLPC   O32 6969   4.396   2.277   6.837 -0.3801 -0.1271  0.2367
   77SLPC   C32 6970   4.487   2.403   7.035 -0.4462 -0.2024 -0.3431
   77SLPC   H2X 6971   4.439   2.498   7.068  0.3059 -0.1914  0.7856
   77SLPC   H2Y 6972   4.597   2.420   7.036 -0.3640 -0.1829 -2.8902
   77SLPC   C23 6973   4.072   2.768   7.084  0.2081  0.1470 -0.0250
   77SLPC   H3R 6974   4.079   2.876   7.111  0.5055  0.5827 -1.7527
   77SLPC   H3S 6975   4.157   2.719   7.137  0.2501  0.4981  0.2394
   77SLPC   C24 6976   3.942   2.707   7.132  0.0779  0.2811  0.4252
   77SLPC   H4R 6977   3.932   2.603   7.092  1.2817  0.2170  0.2568
   77SLPC   H4S 6978   3.856   2.760   7.086  0.6768  0.9933  0.1152
   77SLPC   C25 6979   3.916   2.722   7.288  0.1321  0.1918  0.8745
   77SLPC   H5R 6980   3.813   2.685   7.309  0.0060 -0.2216 -0.3721
   77SLPC   H5S 6981   3.917   2.832   7.301  2.3053  0.4810 -1.1000
   77SLPC   C26 6982   4.015   2.669   7.390 -0.2172  0.1081 -0.1064
   77SLPC   H6R 6983   4.117   2.710   7.372 -0.3649 -0.3601 -2.1267
   77SLPC   H6S 6984   4.032   2.560   7.383  0.3606  0.3050 -3.7706
   77SLPC   C27 6985   3.970   2.694   7.530 -1.0205  0.0484 -0.2569
   77SLPC   H7R 6986   3.875   2.652   7.568 -0.4770  0.3953  1.5975
   77SLPC   H7S 6987   3.953   2.804   7.529 -0.6940  0.1085 -2.4546
   77SLPC   C28 6988   4.082   2.661   7.631  0.2704 -0.0155  0.3721
   77SLPC   H8R 6989   4.185   2.667   7.591  1.0803  1.7593  2.5233
   77SLPC   H8S 6990   4.051   2.558   7.660  0.2080 -1.1708 -3.2958
   77SLPC   C29 6991   4.082   2.754   7.750  0.7834 -0.0348 -0.0563
   77SLPC   H9R 6992   4.065   2.860   7.729  1.7430  0.0201 -0.5908
   77SLPC  C210 6993   4.091   2.729   7.881 -0.6888 -0.1361  0.0069
   77SLPC  H10R 6994   4.108   2.814   7.949 -2.2297  0.2310 -0.0121
   77SLPC  C211 6995   4.105   2.603   7.949 -0.4895 -0.4678  0.2877
   77SLPC  H11R 6996   4.194   2.598   8.017 -0.4332  2.3662  0.5474
   77SLPC  H11S 6997   4.118   2.516   7.881  1.0019  1.1608 -1.6471
   77SLPC  C212 6998   3.975   2.585   8.019 -0.2101 -0.6689 -0.3084
   77SLPC  H12R 6999   3.888   2.600   7.953 -0.2894 -1.4992 -0.4012
   77SLPC  C213 7000   3.956   2.571   8.152 -0.2689  0.4301  0.4318
   77SLPC  H13R 7001   3.856   2.548   8.191 -0.2016 -0.5605  0.0620
   77SLPC  C214 7002   4.067   2.569   8.260  0.1565  0.3188 -0.1215
   77SLPC  H14R 7003   4.157   2.517   8.221  0.5128 -0.3218  1.4636
   77SLPC  H14S 7004   4.031   2.494   8.334 -0.1168  0.9448  0.3861
   77SLPC  C215 7005   4.098   2.698   8.331 -0.8164 -0.9689 -0.5070
   77SLPC  H15R 7006   4.149   2.765   8.259  1.3061 -1.4104  0.5175
   77SLPC  H15S 7007   4.167   2.671   8.414 -1.1265  0.4165  0.2315
   77SLPC  C216 7008   3.990   2.791   8.379 -0.3172  0.5708  0.3387
   77SLPC  H16R 7009   3.927   2.730   8.448 -1.6861  1.5448 -0.0098
   77SLPC  H16S 7010   3.926   2.824   8.294  0.3314 -0.1883 -0.4572
   77SLPC  C217 7011   4.043   2.916   8.460  0.0077 -0.3422 -0.3799
   77SLPC  H17R 7012   3.961   2.991   8.462 -1.8528 -2.2628  0.0105
   77SLPC  H17S 7013   4.132   2.958   8.410 -0.3385 -1.9359 -2.4744
   77SLPC  C218 7014   4.081   2.878   8.606 -0.1659  0.3210 -0.4513
   77SLPC  H18R 7015   4.004   2.822   8.663 -0.2231  1.5006  0.6543
   77SLPC  H18S 7016   4.106   2.964   8.671  0.8971 -1.5886  1.8258
   77SLPC  H18T 7017   4.171   2.814   8.589 -1.3794 -1.3742 -0.6907
   77SLPC   C33 7018   4.454   2.286   7.136  0.0954  0.3218 -0.3909
   77SLPC   H3X 7019   4.524   2.199   7.136  1.0770  1.0885 -0.8815
   77SLPC   H3Y 7020   4.351   2.252   7.111 -0.3168 -1.0300  2.6963
   77SLPC   C34 7021   4.447   2.341   7.278  0.1914  0.0098 -0.0318
   77SLPC   H4X 7022   4.388   2.436   7.286 -0.6802 -0.3688 -1.6964
   77SLPC   H4Y 7023   4.550   2.371   7.309  1.5057 -0.9369 -3.1992
   77SLPC   C35 7024   4.392   2.242   7.377  1.0710  1.1196  0.8031
   77SLPC   H5X 7025   4.461   2.157   7.397  0.0418  0.2873  0.9162
   77SLPC   H5Y 7026   4.303   2.205   7.321  2.9767 -1.3614 -0.7768
   77SLPC   C36 7027   4.352   2.296   7.513 -0.1308 -0.4791  0.3308
   77SLPC   H6X 7028   4.262   2.358   7.494 -1.0144 -1.7991  0.1551
   77SLPC   H6Y 7029   4.434   2.361   7.552  0.2183 -1.3341  1.0397
   77SLPC   C37 7030   4.315   2.194   7.627  0.0786 -1.0656 -0.2796
   77SLPC   H7X 7031   4.409   2.143   7.657 -0.9016 -0.6646  4.1701
   77SLPC   H7Y 7032   4.236   2.124   7.590 -1.4190  1.1182 -1.4098
   77SLPC   C38 7033   4.265   2.279   7.740  0.2658 -0.2422  1.0233
   77SLPC   H8X 7034   4.167   2.318   7.706 -0.5330 -2.2738  0.8667
   77SLPC   H8Y 7035   4.326   2.369   7.766 -1.8865  1.1122  1.5865
   77SLPC   C39 7036   4.255   2.196   7.868  0.2135  0.3965  0.2146
   77SLPC   H9X 7037   4.358   2.188   7.909  0.1113 -0.3996  0.3288
   77SLPC   H9Y 7038   4.204   2.103   7.837  0.0248  0.3408  0.6816
   77SLPC  C310 7039   4.162   2.250   7.976 -0.2582 -0.2985  0.1996
   77SLPC  H10X 7040   4.071   2.275   7.917 -0.4001  0.8328  0.8760
   77SLPC  H10Y 7041   4.205   2.344   8.018 -1.7641 -0.1816  1.5322
   77SLPC  C311 7042   4.155   2.155   8.096  0.8488  0.3360 -0.4294
   77SLPC  H11X 7043   4.254   2.139   8.145 -0.5371 -0.7029  2.2195
   77SLPC  H11Y 7044   4.133   2.052   8.061 -1.8957  0.3146  1.1233
   77SLPC  C312 7045   4.050   2.196   8.206  0.2353 -0.1352  0.5390
   77SLPC  H12X 7046   3.952   2.214   8.156  0.1217  0.1327  0.8512
   77SLPC  H12Y 7047   4.091   2.293   8.240  0.9340  0.1876 -1.1391
   77SLPC  C313 7048   4.038   2.081   8.305 -0.3116  0.4308 -0.6653
   77SLPC  H13X 7049   4.139   2.049   8.339 -0.5561 -1.1719 -1.3625
   77SLPC  H13Y 7050   3.999   1.990   8.254 -2.1479  0.4184  0.6730
   77SLPC  C314 7051   3.924   2.092   8.400  0.3518  0.5242 -0.1720
   77SLPC  H14X 7052   3.823   2.096   8.354  0.4534 -0.2516 -0.4687
   77SLPC  H14Y 7053   3.933   2.188   8.456  0.5563  1.1135 -1.1887
   77SLPC  C315 7054   3.920   1.973   8.499  0.1918 -0.2989 -0.2949
   77SLPC  H15X 7055   3.934   1.882   8.436  2.1508 -0.9257  0.9287
   77SLPC  H15Y 7056   3.827   1.976   8.560  0.3658  1.3219 -0.0589
   77SLPC  C316 7057   4.037   1.978   8.596  0.2293 -0.1484 -0.4837
   77SLPC  H16X 7058   4.043   2.078   8.643  2.0096 -0.2515 -0.4445
   77SLPC  H16Y 7059   4.135   1.963   8.546 -0.4186 -1.4019 -1.4588
   77SLPC  C317 7060   4.031   1.862   8.705 -0.0529  0.3366  0.4222
   77SLPC  H17X 7061   3.922   1.857   8.727  0.0552  0.4132  1.0093
   77SLPC  H17Y 7062   4.084   1.907   8.792 -0.5095 -0.3390  1.0651
   77SLPC  C318 7063   4.088   1.725   8.659  0.4464 -0.2450 -0.2527
   77SLPC  H18X 7064   4.054   1.692   8.558 -0.0201 -3.0914  0.7307
   77SLPC  H18Y 7065   4.051   1.655   8.737 -0.2096 -1.1784 -1.3708
   77SLPC  H18Z 7066   4.199   1.727   8.664  0.4391 -1.2772  0.7818
   78SLPC     N 7067   0.671   3.061   6.090 -0.3863 -0.0727 -1.0164
   78SLPC   C13 7068   0.608   3.193   6.064 -0.7665 -0.1804  0.1440
   78SLPC  H13A 7069   0.501   3.177   6.059 -0.4730 -2.0283 -2.0541
   78SLPC  H13B 7070   0.638   3.266   6.138 -1.5546  0.6891 -0.3558
   78SLPC  H13C 7071   0.642   3.225   5.966  1.9287 -1.2994  0.6390
   78SLPC   C14 7072   0.817   3.074   6.080  0.1164  0.0559 -0.2952
   78SLPC  H14A 7073   0.863   2.976   6.086  0.1111  0.0680 -0.0318
   78SLPC  H14B 7074   0.856   3.116   5.988  0.2740 -0.1616 -0.3295
   78SLPC  H14C 7075   0.847   3.135   6.164  0.6265  0.7226 -0.9472
   78SLPC   C15 7076   0.629   2.964   5.991 -0.0920  0.3603 -0.8226
   78SLPC  H15A 7077   0.522   2.955   5.993 -0.2107  1.6596  1.6750
   78SLPC  H15B 7078   0.660   2.992   5.891  1.7539  2.3547  0.2141
   78SLPC  H15C 7079   0.660   2.866   6.023 -1.2764 -0.3272 -1.7248
   78SLPC   C12 7080   0.632   3.017   6.232 -0.1858 -0.4020  0.0532
   78SLPC  H12A 7081   0.528   3.037   6.252 -0.6528 -0.8783 -1.6837
   78SLPC  H12B 7082   0.685   3.094   6.286 -2.2990 -0.1592  1.9547
   78SLPC   C11 7083   0.685   2.890   6.289  0.0967 -0.4447 -0.2761
   78SLPC  H11A 7084   0.684   2.888   6.401 -1.5567 -1.3297 -0.2839
   78SLPC  H11B 7085   0.792   2.891   6.260 -0.0335 -0.4926 -0.7556
   78SLPC     P 7086   0.489   2.717   6.249 -0.3218 -0.7633  0.3760
   78SLPC   O13 7087   0.385   2.817   6.214 -0.3270  0.3461 -0.2731
   78SLPC   O14 7088   0.505   2.588   6.185  0.0737 -0.4398  0.0721
   78SLPC   O12 7089   0.630   2.780   6.221  0.4748  0.1683  0.1231
   78SLPC   O11 7090   0.492   2.709   6.405 -0.2308  0.2857 -0.0328
   78SLPC    C1 7091   0.593   2.639   6.475 -0.1896  0.0637  0.1588
   78SLPC    HA 7092   0.689   2.641   6.419 -0.7543  1.2314 -0.8245
   78SLPC    HB 7093   0.589   2.671   6.581 -2.0145 -1.1157  0.4869
   78SLPC    C2 7094   0.568   2.484   6.476  0.4382 -0.0834 -0.7858
   78SLPC    HS 7095   0.577   2.431   6.379  0.2789 -1.3058 -0.1663
   78SLPC   O21 7096   0.432   2.460   6.529 -0.0433 -0.6608  0.0677
   78SLPC   C21 7097   0.373   2.340   6.511 -0.2758 -0.4045 -0.1945
   78SLPC   O22 7098   0.421   2.248   6.453 -0.8011 -0.2583 -0.6281
   78SLPC   C22 7099   0.231   2.333   6.572 -0.0229 -0.2198  0.0289
   78SLPC   H2R 7100   0.159   2.320   6.489  1.3735  1.3677 -1.5098
   78SLPC   H2S 7101   0.228   2.241   6.634  0.1300 -0.1307  0.1686
   78SLPC    C3 7102   0.675   2.408   6.559 -0.6678 -0.4086 -0.8963
   78SLPC    HX 7103   0.773   2.423   6.509  0.7244  0.4373  1.8821
   78SLPC    HY 7104   0.665   2.297   6.560 -1.3706 -0.3763  1.4060
   78SLPC   O31 7105   0.692   2.456   6.696 -0.4320 -0.3900 -0.0831
   78SLPC   C31 7106   0.634   2.382   6.797  0.3788  0.6964 -0.2895
   78SLPC   O32 7107   0.569   2.283   6.777 -0.4375 -0.2008 -0.1706
   78SLPC   C32 7108   0.667   2.441   6.929  0.2308  0.1898  0.0924
   78SLPC   H2X 7109   0.606   2.531   6.950  0.9933  0.4656  1.2401
   78SLPC   H2Y 7110   0.774   2.472   6.921  0.0184  0.5300 -1.8720
   78SLPC   C23 7111   0.177   2.459   6.655 -0.2446  0.9109 -0.5405
   78SLPC   H3R 7112   0.068   2.442   6.650 -0.2324  0.3810  0.6186
   78SLPC   H3S 7113   0.205   2.559   6.614 -0.8055  2.2734  2.1355
   78SLPC   C24 7114   0.232   2.461   6.797  0.0043  0.7593  0.0679
   78SLPC   H4R 7115   0.343   2.461   6.790  0.0180  0.3095  0.2252
   78SLPC   H4S 7116   0.200   2.367   6.848 -1.9669  0.3318 -1.8025
   78SLPC   C25 7117   0.178   2.584   6.867  0.0160 -0.2816  0.3098
   78SLPC   H5R 7118   0.068   2.584   6.882 -0.1575  0.1489 -0.8709
   78SLPC   H5S 7119   0.207   2.667   6.799 -0.0740  0.8266  1.5709
   78SLPC   C26 7120   0.248   2.606   7.002 -0.1741  0.1913 -0.4621
   78SLPC   H6R 7121   0.263   2.714   7.021  0.8648 -0.3321  2.1137
   78SLPC   H6S 7122   0.345   2.554   7.014 -0.0792  0.6912  1.0732
   78SLPC   C27 7123   0.159   2.563   7.125  0.5020  0.4807 -0.5189
   78SLPC   H7R 7124   0.060   2.611   7.112  0.6352  1.3810  1.3833
   78SLPC   H7S 7125   0.221   2.610   7.205  0.1973  1.9637 -1.1249
   78SLPC   C28 7126   0.150   2.412   7.156 -0.3196  0.0098  0.3145
   78SLPC   H8R 7127   0.090   2.362   7.077 -1.3861  0.5728  0.7444
   78SLPC   H8S 7128   0.089   2.398   7.247 -1.6919  1.4761 -0.3393
   78SLPC   C29 7129   0.279   2.329   7.178 -0.3061 -0.0663  0.2015
   78SLPC   H9R 7130   0.333   2.314   7.083 -0.4603  0.0216  0.1004
   78SLPC  C210 7131   0.343   2.304   7.294  0.4423  0.4900 -0.0128
   78SLPC  H10R 7132   0.427   2.234   7.295  0.9053  1.0278 -0.2411
   78SLPC  C211 7133   0.306   2.335   7.436 -0.3555 -0.3107 -0.0044
   78SLPC  H11R 7134   0.287   2.444   7.444 -0.4526 -0.4453  2.5248
   78SLPC  H11S 7135   0.389   2.310   7.505 -1.2896 -3.7751  0.0444
   78SLPC  C212 7136   0.180   2.266   7.478  0.4039  0.6978  0.0850
   78SLPC  H12R 7137   0.148   2.188   7.407  2.5797 -0.3124  0.1355
   78SLPC  C213 7138   0.113   2.287   7.590 -0.2524 -0.0890 -0.1730
   78SLPC  H13R 7139   0.014   2.244   7.611 -1.8762  3.3663  0.0272
   78SLPC  C214 7140   0.167   2.391   7.694 -0.4687  0.0496  0.2853
   78SLPC  H14R 7141   0.080   2.439   7.743 -0.1670  2.5588 -1.4615
   78SLPC  H14S 7142   0.218   2.482   7.655  3.1744 -1.6188  0.7096
   78SLPC  C215 7143   0.264   2.325   7.797  0.3784  0.5599 -0.0935
   78SLPC  H15R 7144   0.332   2.265   7.734  0.4601 -0.3946  0.8776
   78SLPC  H15S 7145   0.208   2.249   7.856  0.8872 -1.6941 -2.3113
   78SLPC  C216 7146   0.356   2.428   7.867 -0.1361  0.6061  0.1583
   78SLPC  H16R 7147   0.399   2.482   7.781  0.4266  1.8877  1.2138
   78SLPC  H16S 7148   0.441   2.374   7.913  0.0024 -0.9026 -1.7386
   78SLPC  C217 7149   0.288   2.523   7.958 -0.2475 -0.2865 -0.4460
   78SLPC  H17R 7150   0.222   2.588   7.897  0.1776 -0.3894 -1.0268
   78SLPC  H17S 7151   0.364   2.588   8.006 -1.6281  1.4908 -0.5575
   78SLPC  C218 7152   0.205   2.465   8.079 -0.4886 -0.7396 -0.0146
   78SLPC  H18R 7153   0.156   2.371   8.046  1.0473 -2.0405  1.2492
   78SLPC  H18S 7154   0.123   2.530   8.116  0.2458 -0.1825  0.6667
   78SLPC  H18T 7155   0.271   2.433   8.162 -0.8979  0.5872  0.8498
   78SLPC   C33 7156   0.646   2.338   7.043  0.0826 -0.6860 -0.1538
   78SLPC   H3X 7157   0.692   2.239   7.021  0.8130 -0.0687 -1.5111
   78SLPC   H3Y 7158   0.538   2.317   7.059 -0.1609  0.2004 -0.5603
   78SLPC   C34 7159   0.703   2.396   7.177  0.0649  0.1348 -0.2512
   78SLPC   H4X 7160   0.659   2.356   7.272  1.7480  0.3342  0.6403
   78SLPC   H4Y 7161   0.672   2.503   7.174 -1.0039 -0.1212  0.6249
   78SLPC   C35 7162   0.850   2.374   7.183  0.4328 -0.5120  0.2699
   78SLPC   H5X 7163   0.907   2.390   7.089  2.0877  0.6799  1.3985
   78SLPC   H5Y 7164   0.867   2.269   7.213 -1.5610 -1.1762 -0.7434
   78SLPC   C36 7165   0.928   2.460   7.298 -0.1050 -0.9919 -0.1684
   78SLPC   H6X 7166   0.948   2.565   7.268 -0.3817 -1.1481 -0.9121
   78SLPC   H6Y 7167   1.029   2.421   7.321 -0.1884 -0.7303  0.6766
   78SLPC   C37 7168   0.857   2.470   7.434  0.1564  0.5263  0.2514
   78SLPC   H7X 7169   0.858   2.368   7.479  1.8245 -0.8599 -2.5828
   78SLPC   H7Y 7170   0.759   2.520   7.424  0.7000  1.9376  1.6083
   78SLPC   C38 7171   0.937   2.549   7.536  0.2228 -0.2136 -0.2256
   78SLPC   H8X 7172   0.961   2.653   7.507 -0.4727  0.0242  0.0338
   78SLPC   H8Y 7173   1.030   2.487   7.536 -0.5428 -1.4015  0.8200
   78SLPC   C39 7174   0.854   2.547   7.662 -0.1780 -1.5257 -1.1103
   78SLPC   H9X 7175   0.823   2.450   7.706 -0.0091 -1.8089 -1.6084
   78SLPC   H9Y 7176   0.763   2.609   7.650 -0.6264 -0.8134  3.7531
   78SLPC  C310 7177   0.959   2.613   7.765 -0.4865  0.2089  0.2665
   78SLPC  H10X 7178   0.951   2.723   7.761  0.5213  0.2501 -1.8000
   78SLPC  H10Y 7179   1.064   2.580   7.752  0.0635  1.1360  1.9932
   78SLPC  C311 7180   0.934   2.575   7.915  0.1674  0.6052 -0.4610
   78SLPC  H11X 7181   0.947   2.465   7.923  2.4277  0.8295 -0.4421
   78SLPC  H11Y 7182   0.834   2.606   7.951  1.3425  0.5145  3.2968
   78SLPC  C312 7183   1.039   2.638   8.015  0.3057  0.4628  0.8182
   78SLPC  H12X 7184   1.051   2.743   7.980 -2.3703  1.6436  3.1146
   78SLPC  H12Y 7185   1.136   2.584   7.998 -0.2160 -0.5459  0.9472
   78SLPC  C313 7186   1.001   2.633   8.160  0.6151 -0.5014  0.0423
   78SLPC  H13X 7187   1.085   2.679   8.216  1.3508  1.4228 -2.4868
   78SLPC  H13Y 7188   0.997   2.527   8.195 -2.1504 -1.3600 -2.4000
   78SLPC  C314 7189   0.866   2.699   8.208  0.0457 -0.2800 -0.1021
   78SLPC  H14X 7190   0.794   2.618   8.181  2.2911 -2.2415 -0.5855
   78SLPC  H14Y 7191   0.849   2.793   8.152 -1.3852  0.4680  1.5133
   78SLPC  C315 7192   0.846   2.728   8.358  0.0272 -0.8165  0.3250
   78SLPC  H15X 7193   0.781   2.816   8.378  1.2166 -0.0620  1.0054
   78SLPC  H15Y 7194   0.946   2.764   8.391 -0.8747  2.0471  0.2299
   78SLPC  C316 7195   0.803   2.610   8.441  0.5078 -0.7667  0.2521
   78SLPC  H16X 7196   0.865   2.518   8.434  0.1830 -1.0043  0.4907
   78SLPC  H16Y 7197   0.703   2.581   8.401 -0.1020  2.4271 -0.8738
   78SLPC  C317 7198   0.774   2.650   8.581  0.7057 -0.3886  0.0694
   78SLPC  H17X 7199   0.706   2.738   8.576 -1.9405 -2.3257  0.0568
   78SLPC  H17Y 7200   0.870   2.673   8.631 -0.1264  2.0537  0.6653
   78SLPC  C318 7201   0.701   2.544   8.674  0.1021 -0.3717  0.1598
   78SLPC  H18X 7202   0.630   2.490   8.608 -0.0163 -2.0649  1.6034
   78SLPC  H18Y 7203   0.655   2.595   8.761 -0.6771  1.0282 -1.0058
   78SLPC  H18Z 7204   0.779   2.484   8.726 -0.0240  1.0969  2.1656
   79SLPC     N 7205   3.511   4.235   6.157 -0.3577 -0.2265 -0.0863
   79SLPC   C13 7206   3.495   4.084   6.171 -0.2568 -0.4637  0.6239
   79SLPC  H13A 7207   3.397   4.065   6.214  0.2170 -0.5406  1.7023
   79SLPC  H13B 7208   3.513   4.038   6.075 -0.6501  0.4149  0.1137
   79SLPC  H13C 7209   3.571   4.036   6.231  1.2659  0.3288 -0.5973
   79SLPC   C14 7210   3.414   4.288   6.061 -0.4337 -0.1443  0.0582
   79SLPC  H14A 7211   3.442   4.249   5.964 -1.7084 -2.3124  0.4796
   79SLPC  H14B 7212   3.311   4.259   6.072 -0.2725 -1.9475 -2.3112
   79SLPC  H14C 7213   3.424   4.395   6.070  0.9208 -0.3710  1.8896
   79SLPC   C15 7214   3.650   4.263   6.103  0.2764 -0.2545 -0.4969
   79SLPC  H15A 7215   3.677   4.200   6.020  1.7342  1.0263 -1.0474
   79SLPC  H15B 7216   3.645   4.367   6.073 -2.8808  0.1364  0.9559
   79SLPC  H15C 7217   3.720   4.252   6.185  0.5223 -3.1043 -0.9866
   79SLPC   C12 7218   3.501   4.304   6.295 -0.5615 -0.3202  0.0273
   79SLPC  H12A 7219   3.572   4.254   6.360  0.8189 -0.3196 -1.4287
   79SLPC  H12B 7220   3.401   4.292   6.334 -0.3636 -2.1311  0.0556
   79SLPC   C11 7221   3.545   4.451   6.305  0.0636 -0.3170 -0.3875
   79SLPC  H11A 7222   3.524   4.489   6.407 -2.6505  0.4263 -1.1165
   79SLPC  H11B 7223   3.472   4.511   6.246  0.8152 -0.6269 -1.6688
   79SLPC     P 7224   3.742   4.632   6.283  0.7003 -0.1050 -0.0043
   79SLPC   O13 7225   3.864   4.638   6.201 -0.0697  0.7872  0.2511
   79SLPC   O14 7226   3.635   4.736   6.252  0.1624 -0.6322  0.2256
   79SLPC   O12 7227   3.677   4.486   6.270 -0.1764 -0.4237 -0.2349
   79SLPC   O11 7228   3.794   4.646   6.432  0.1929 -0.7218  0.3504
   79SLPC    C1 7229   3.847   4.539   6.514  0.4534  0.0415 -0.5603
   79SLPC    HA 7230   3.774   4.456   6.527 -0.3795  0.8997  0.4521
   79SLPC    HB 7231   3.938   4.495   6.468 -0.5559 -0.8441 -1.7859
   79SLPC    C2 7232   3.872   4.584   6.660 -0.3708 -0.1733  0.0327
   79SLPC    HS 7233   3.792   4.642   6.711 -0.2979  0.2504 -0.3262
   79SLPC   O21 7234   4.001   4.648   6.673  0.3038 -0.1948 -0.7347
   79SLPC   C21 7235   4.016   4.742   6.773 -0.3376  0.0386 -0.5950
   79SLPC   O22 7236   3.928   4.772   6.855 -0.1767  0.2799  0.6856
   79SLPC   C22 7237   4.154   4.803   6.767  0.1906 -0.0663  0.2168
   79SLPC   H2R 7238   4.190   4.800   6.662  0.2093 -0.2752  0.2267
   79SLPC   H2S 7239   4.147   4.912   6.784 -0.6805 -0.2108  0.8344
   79SLPC    C3 7240   3.875   4.457   6.745  0.5000  0.3568 -0.2686
   79SLPC    HX 7241   3.945   4.387   6.694  1.0095  2.8431 -3.2636
   79SLPC    HY 7242   3.780   4.401   6.753  0.2453  0.7330 -0.6360
   79SLPC   O31 7243   3.924   4.481   6.881 -0.5572 -0.3673 -0.1032
   79SLPC   C31 7244   3.834   4.515   6.969 -0.9888 -0.6468  0.7466
   79SLPC   O32 7245   3.716   4.510   6.945  0.3979 -0.3012 -0.7625
   79SLPC   C32 7246   3.904   4.539   7.105  0.5843  0.2279  0.3229
   79SLPC   H2X 7247   4.010   4.556   7.076  1.1013 -2.1427  0.6202
   79SLPC   H2Y 7248   3.899   4.435   7.143 -1.5198 -0.3247 -1.2767
   79SLPC   C23 7249   4.252   4.732   6.862 -0.3248  0.1838  0.1433
   79SLPC   H3R 7250   4.355   4.728   6.821 -0.2784 -2.8665  0.3161
   79SLPC   H3S 7251   4.225   4.624   6.871  1.0413 -0.4195 -2.3038
   79SLPC   C24 7252   4.251   4.798   6.999 -0.2511  0.0740 -0.0280
   79SLPC   H4R 7253   4.156   4.768   7.049  0.1687 -0.8789  0.2351
   79SLPC   H4S 7254   4.260   4.908   6.989 -1.2969  0.2507  0.7229
   79SLPC   C25 7255   4.378   4.746   7.074  0.2223  0.5729 -0.8445
   79SLPC   H5R 7256   4.473   4.785   7.033  0.5536 -0.1526 -0.7863
   79SLPC   H5S 7257   4.375   4.635   7.067  0.3396  0.5211 -0.1631
   79SLPC   C26 7258   4.383   4.793   7.223 -0.0603 -0.0604 -0.5614
   79SLPC   H6R 7259   4.286   4.765   7.270  0.4752 -3.0385 -1.0621
   79SLPC   H6S 7260   4.398   4.901   7.245  0.7222 -0.4953  1.1423
   79SLPC   C27 7261   4.490   4.718   7.304 -0.0710  0.0570 -0.1532
   79SLPC   H7R 7262   4.584   4.745   7.252  0.6684 -1.1241  0.5371
   79SLPC   H7S 7263   4.477   4.608   7.311 -0.4035  0.1706  1.3220
   79SLPC   C28 7264   4.511   4.781   7.442 -0.1521  0.2223  0.4233
   79SLPC   H8R 7265   4.526   4.891   7.440  1.4445  0.0552  1.2071
   79SLPC   H8S 7266   4.613   4.745   7.469 -0.2575  0.3353  0.9794
   79SLPC   C29 7267   4.406   4.725   7.537 -0.0769 -0.2112  0.5898
   79SLPC   H9R 7268   4.346   4.642   7.497 -0.3128  0.3655 -0.2907
   79SLPC  C210 7269   4.385   4.777   7.660  0.1070  0.8624 -0.3861
   79SLPC  H10R 7270   4.316   4.730   7.731  0.4511 -1.1982 -1.3245
   79SLPC  C211 7271   4.456   4.896   7.712 -0.0257  0.1357 -0.3122
   79SLPC  H11R 7272   4.386   4.958   7.772 -1.5359 -0.5299 -1.3425
   79SLPC  H11S 7273   4.488   4.973   7.638  0.9731  0.4942  0.4521
   79SLPC  C212 7274   4.578   4.849   7.793 -0.4147  0.3509  0.2375
   79SLPC  H12R 7275   4.610   4.746   7.773 -1.4711  0.5317 -2.9708
   79SLPC  C213 7276   4.639   4.934   7.883 -0.0054 -0.5021 -0.8059
   79SLPC  H13R 7277   4.727   4.902   7.942 -1.1992 -0.8212  0.8755
   79SLPC  C214 7278   4.605   5.082   7.915  0.2862  0.3413  0.7262
   79SLPC  H14R 7279   4.496   5.102   7.912  0.1675  0.0164  2.2870
   79SLPC  H14S 7280   4.658   5.140   7.836  1.5295 -1.7339 -0.0696
   79SLPC  C215 7281   4.672   5.128   8.042  0.1231 -0.3319 -0.4062
   79SLPC  H15R 7282   4.674   5.239   8.044  1.2897 -0.3511  0.4955
   79SLPC  H15S 7283   4.778   5.095   8.040  0.8118  1.6363  0.6602
   79SLPC  C216 7284   4.626   5.057   8.169  0.5094  0.2164  0.5084
   79SLPC  H16R 7285   4.624   4.946   8.165  1.1760  0.2169 -0.1583
   79SLPC  H16S 7286   4.524   5.099   8.183 -0.4095 -0.6316 -2.7704
   79SLPC  C217 7287   4.720   5.083   8.288 -0.5507 -0.1237  0.2415
   79SLPC  H17R 7288   4.716   5.191   8.313 -2.3692 -0.0479 -0.2663
   79SLPC  H17S 7289   4.823   5.043   8.271  0.0523  0.0134  2.9962
   79SLPC  C218 7290   4.662   5.004   8.402  0.0133 -0.2279  0.0147
   79SLPC  H18R 7291   4.707   5.040   8.497 -1.5952 -0.1728  0.7912
   79SLPC  H18S 7292   4.682   4.897   8.379  2.3555  0.7118 -2.9930
   79SLPC  H18T 7293   4.552   5.012   8.411  0.0827 -0.4928  1.3296
   79SLPC   C33 7294   3.843   4.645   7.200 -0.0413 -0.2955 -0.0414
   79SLPC   H3X 7295   3.746   4.622   7.250 -0.4682 -0.3303 -0.8599
   79SLPC   H3Y 7296   3.806   4.731   7.140 -0.9145 -0.8282 -0.2989
   79SLPC   C34 7297   3.943   4.707   7.300 -0.0276 -0.7424  0.3670
   79SLPC   H4X 7298   3.896   4.800   7.339  1.8455  1.2822 -1.9125
   79SLPC   H4Y 7299   4.033   4.744   7.246 -1.5524  0.6746 -1.3048
   79SLPC   C35 7300   3.985   4.613   7.410  0.3935  0.0973  0.6037
   79SLPC   H5X 7301   4.054   4.541   7.361 -0.1543 -0.2684  0.3527
   79SLPC   H5Y 7302   3.900   4.546   7.437  0.1454 -0.2848 -1.0491
   79SLPC   C36 7303   4.037   4.676   7.539  0.0861  0.0976 -0.4401
   79SLPC   H6X 7304   3.961   4.755   7.556  0.3120  0.2077  0.0803
   79SLPC   H6Y 7305   4.130   4.729   7.512 -0.4116  0.3085 -1.8172
   79SLPC   C37 7306   4.055   4.568   7.650  0.0833  0.4978  0.7675
   79SLPC   H7X 7307   4.136   4.598   7.719 -0.8489 -0.3392  2.2973
   79SLPC   H7Y 7308   4.086   4.473   7.601  2.4940  0.7550  1.6768
   79SLPC   C38 7309   3.924   4.569   7.726 -0.5911  0.8167 -0.2582
   79SLPC   H8X 7310   3.846   4.531   7.656 -0.1094 -0.1384 -0.2832
   79SLPC   H8Y 7311   3.888   4.671   7.754 -0.7577  0.3386  1.3746
   79SLPC   C39 7312   3.942   4.487   7.850  0.2096 -0.8173  0.3572
   79SLPC   H9X 7313   4.019   4.408   7.834  0.4374 -0.3515 -1.0135
   79SLPC   H9Y 7314   3.847   4.437   7.878  0.1628 -0.3212  1.1013
   79SLPC  C310 7315   3.976   4.576   7.974  0.1957 -0.4248  0.1516
   79SLPC  H10X 7316   3.893   4.647   7.989  1.4512  1.0153  0.5221
   79SLPC  H10Y 7317   4.069   4.634   7.956 -1.2841  1.6207 -1.2993
   79SLPC  C311 7318   3.984   4.505   8.110  0.0155 -0.4853 -0.2756
   79SLPC  H11X 7319   4.076   4.443   8.106  1.4830  1.6448 -2.3739
   79SLPC  H11Y 7320   3.892   4.445   8.127 -1.6323  1.9829  0.0550
   79SLPC  C312 7321   4.001   4.599   8.228  0.1631  0.8764  0.1294
   79SLPC  H12X 7322   3.906   4.648   8.257 -2.2369 -3.2910  0.0856
   79SLPC  H12Y 7323   4.085   4.667   8.202  1.6234 -0.6973  0.5194
   79SLPC  C313 7324   4.046   4.526   8.349 -0.2434  0.7000 -0.0451
   79SLPC  H13X 7325   4.050   4.598   8.434  0.9758 -2.1080  2.4401
   79SLPC  H13Y 7326   4.148   4.484   8.334  0.5457  2.1786  0.8976
   79SLPC  C314 7327   3.963   4.399   8.388  0.5917 -0.0030  0.2787
   79SLPC  H14X 7328   4.024   4.353   8.468  0.1201 -1.0782  0.0422
   79SLPC  H14Y 7329   3.952   4.327   8.304 -0.8329  0.3205  0.1551
   79SLPC  C315 7330   3.827   4.437   8.446 -0.3275  0.5486 -0.0237
   79SLPC  H15X 7331   3.767   4.345   8.468  0.0307  0.4826  0.7204
   79SLPC  H15Y 7332   3.770   4.480   8.361 -1.1496  0.9388  0.7082
   79SLPC  C316 7333   3.821   4.540   8.557  0.3844 -0.1203  0.4871
   79SLPC  H16X 7334   3.778   4.637   8.524  1.4650  0.3209  0.3540
   79SLPC  H16Y 7335   3.916   4.563   8.610  0.8636  0.7126 -0.6807
   79SLPC  C317 7336   3.733   4.493   8.664  0.3596  0.4457 -0.0723
   79SLPC  H17X 7337   3.644   4.449   8.613  0.0507 -0.4747  1.2363
   79SLPC  H17Y 7338   3.694   4.585   8.713  0.9159  1.1770 -0.9670
   79SLPC  C318 7339   3.791   4.409   8.777  0.2817  0.1143  0.6678
   79SLPC  H18X 7340   3.851   4.331   8.726 -0.7575  0.6991 -1.5849
   79SLPC  H18Y 7341   3.712   4.363   8.841  0.9340 -0.0238  1.3888
   79SLPC  H18Z 7342   3.854   4.467   8.848  1.1319 -0.9017  0.7634
   80SLPC     N 7343   5.803   2.724   6.140  0.8017  0.1707  0.8513
   80SLPC   C13 7344   5.779   2.733   6.286 -0.0652  0.4021  0.0967
   80SLPC  H13A 7345   5.770   2.834   6.322 -0.5541  0.1188  0.7835
   80SLPC  H13B 7346   5.699   2.666   6.312 -1.0304  1.8045  0.9085
   80SLPC  H13C 7347   5.871   2.702   6.334 -0.5610 -0.1227  0.7223
   80SLPC   C14 7348   5.866   2.591   6.125  0.1200 -0.3894  0.0367
   80SLPC  H14A 7349   5.967   2.593   6.164  0.7423  1.2650 -1.4903
   80SLPC  H14B 7350   5.803   2.516   6.171 -1.9832  1.1261 -0.2421
   80SLPC  H14C 7351   5.868   2.557   6.022 -2.6166 -0.6796  0.0191
   80SLPC   C15 7352   5.905   2.823   6.086 -0.5327  0.1757 -0.9197
   80SLPC  H15A 7353   5.871   2.925   6.077 -4.2316 -0.7397  0.4924
   80SLPC  H15B 7354   5.991   2.831   6.151 -0.2022  1.3760 -1.4943
   80SLPC  H15C 7355   5.944   2.787   5.992 -1.0234 -1.1374 -0.6513
   80SLPC   C12 7356   5.680   2.737   6.056  0.3861  0.5893 -0.4028
   80SLPC  H12A 7357   5.700   2.722   5.951  0.9371 -0.8501 -0.1113
   80SLPC  H12B 7358   5.647   2.840   6.051  0.4483  0.5884 -0.8771
   80SLPC   C11 7359   5.558   2.651   6.103  0.9746 -0.2048 -0.6195
   80SLPC  H11A 7360   5.472   2.686   6.042  0.0983  0.6386  1.0198
   80SLPC  H11B 7361   5.536   2.684   6.207  1.6421  1.6419 -1.0281
   80SLPC     P 7362   5.552   2.407   6.212  0.2691 -0.4641 -0.0555
   80SLPC   O13 7363   5.405   2.425   6.229 -0.2160  0.6039  0.2110
   80SLPC   O14 7364   5.609   2.275   6.180  0.4063  0.3022 -0.6958
   80SLPC   O12 7365   5.593   2.509   6.095  0.3277  0.8199  0.5342
   80SLPC   O11 7366   5.625   2.476   6.343  0.5123  0.3421 -0.8766
   80SLPC    C1 7367   5.743   2.423   6.410  0.3958 -0.1516 -0.3232
   80SLPC    HA 7368   5.812   2.379   6.335  0.0456 -1.3010  0.0051
   80SLPC    HB 7369   5.790   2.512   6.457 -3.0895  2.1159 -0.6846
   80SLPC    C2 7370   5.710   2.313   6.510 -0.3671 -0.5032  0.3566
   80SLPC    HS 7371   5.670   2.228   6.451  1.0871 -0.1459 -1.2154
   80SLPC   O21 7372   5.623   2.363   6.606 -0.3275 -0.2151  0.6355
   80SLPC   C21 7373   5.542   2.285   6.659  0.2261  0.2842  0.2038
   80SLPC   O22 7374   5.526   2.164   6.632 -0.4886 -0.0945 -0.7572
   80SLPC   C22 7375   5.472   2.364   6.769  0.3470  0.4461 -0.4654
   80SLPC   H2R 7376   5.503   2.470   6.755  0.3360  0.1563 -3.4766
   80SLPC   H2S 7377   5.364   2.363   6.745  0.3685  0.2939 -0.5606
   80SLPC    C3 7378   5.842   2.273   6.589  1.0241  0.2916  0.1621
   80SLPC    HX 7379   5.868   2.353   6.661 -0.4842  3.7776 -2.8524
   80SLPC    HY 7380   5.914   2.264   6.505 -1.2868  2.0868 -2.1464
   80SLPC   O31 7381   5.817   2.149   6.659  0.2998 -0.0376  0.2642
   80SLPC   C31 7382   5.825   2.039   6.580 -0.0809 -0.1755  0.1511
   80SLPC   O32 7383   5.827   2.038   6.459 -0.1533  0.2757  0.0439
   80SLPC   C32 7384   5.849   1.912   6.668  0.7888 -0.4647 -0.0030
   80SLPC   H2X 7385   5.934   1.867   6.613 -0.1957 -2.5833  0.1020
   80SLPC   H2Y 7386   5.770   1.841   6.633 -2.5563  2.3528  1.1873
   80SLPC   C23 7387   5.487   2.309   6.912 -0.2046  0.4715 -0.5889
   80SLPC   H3R 7388   5.589   2.329   6.949  0.5160 -1.1975 -1.5694
   80SLPC   H3S 7389   5.463   2.201   6.922 -1.2643  0.8642  1.7426
   80SLPC   C24 7390   5.381   2.374   7.008  0.0395  0.1408 -0.3836
   80SLPC   H4R 7391   5.285   2.352   6.956  0.5653  0.7050 -1.6368
   80SLPC   H4S 7392   5.384   2.485   7.009  2.1536  0.2088 -3.3246
   80SLPC   C25 7393   5.387   2.325   7.156 -0.3179  0.2232  0.4259
   80SLPC   H5R 7394   5.367   2.216   7.152 -0.0219  0.1934 -1.0240
   80SLPC   H5S 7395   5.306   2.369   7.217  0.5713  0.6391  1.3351
   80SLPC   C26 7396   5.522   2.344   7.226  0.4106 -0.1700  0.0392
   80SLPC   H6R 7397   5.545   2.449   7.200  3.4646 -0.7610  0.0024
   80SLPC   H6S 7398   5.604   2.292   7.172  3.5656  1.7306  2.6332
   80SLPC   C27 7399   5.520   2.336   7.381 -0.3635 -0.1060  1.0226
   80SLPC   H7R 7400   5.457   2.417   7.424  0.5571  1.2739 -0.1349
   80SLPC   H7S 7401   5.620   2.365   7.420 -0.0586 -1.9624  1.7579
   80SLPC   C28 7402   5.475   2.208   7.451  0.1487 -0.2698  0.6082
   80SLPC   H8R 7403   5.538   2.124   7.413  1.1640  0.2400  1.1289
   80SLPC   H8S 7404   5.372   2.192   7.413  1.2529 -0.4038 -2.6165
   80SLPC   C29 7405   5.482   2.223   7.602 -0.7797 -0.1326  0.5141
   80SLPC   H9R 7406   5.492   2.329   7.633  1.1683  0.7937 -2.7879
   80SLPC  C210 7407   5.487   2.126   7.693 -0.5336 -0.0489 -0.2402
   80SLPC  H10R 7408   5.490   2.165   7.795 -0.2842  1.6327 -0.8707
   80SLPC  C211 7409   5.476   1.974   7.690 -0.6184 -0.2090  0.1552
   80SLPC  H11R 7410   5.459   1.936   7.587 -2.6904  3.4191 -1.0131
   80SLPC  H11S 7411   5.389   1.935   7.747 -0.1221  0.3627  1.3446
   80SLPC  C212 7412   5.609   1.915   7.729  0.3519 -0.0171 -0.0473
   80SLPC  H12R 7413   5.688   1.974   7.681  0.2839 -0.9837 -1.3840
   80SLPC  C213 7414   5.627   1.809   7.810  0.3489 -0.4952 -0.1618
   80SLPC  H13R 7415   5.732   1.776   7.813  1.0299  1.4895 -0.5252
   80SLPC  C214 7416   5.523   1.723   7.882  0.1307  0.0092  1.4210
   80SLPC  H14R 7417   5.531   1.618   7.846 -1.6204  0.7657 -1.4650
   80SLPC  H14S 7418   5.421   1.755   7.854 -0.2950 -2.5017 -0.2573
   80SLPC  C215 7419   5.563   1.710   8.031 -0.1413  0.1942 -0.3139
   80SLPC  H15R 7420   5.565   1.812   8.075 -1.2539  0.5262 -0.9815
   80SLPC  H15S 7421   5.661   1.660   8.023  0.6413  1.9245 -2.4482
   80SLPC  C216 7422   5.463   1.618   8.109 -0.0249 -0.8673 -0.9094
   80SLPC  H16R 7423   5.463   1.514   8.071  2.4207 -1.7338  1.1995
   80SLPC  H16S 7424   5.362   1.663   8.099 -0.1291 -0.6318  0.8922
   80SLPC  C217 7425   5.495   1.636   8.256 -0.8386  0.0786  0.7837
   80SLPC  H17R 7426   5.508   1.745   8.275 -1.2803  0.2763 -0.0226
   80SLPC  H17S 7427   5.586   1.578   8.281 -0.4927  0.4998  0.5115
   80SLPC  C218 7428   5.385   1.577   8.342 -0.5308  0.1878  0.1514
   80SLPC  H18R 7429   5.409   1.587   8.450 -2.6900  1.1853  0.5783
   80SLPC  H18S 7430   5.346   1.475   8.322 -0.9158 -0.2628  2.9139
   80SLPC  H18T 7431   5.302   1.650   8.334 -0.3924  0.1655 -3.2083
   80SLPC   C33 7432   5.848   1.914   6.826  0.7429  0.0107  0.2802
   80SLPC   H3X 7433   5.916   1.990   6.870 -0.2308  0.2888  1.3487
   80SLPC   H3Y 7434   5.876   1.813   6.865  1.9389  0.7299  1.3622
   80SLPC   C34 7435   5.705   1.939   6.880  0.0138 -0.4631  0.4546
   80SLPC   H4X 7436   5.623   1.899   6.816 -0.4111  1.8720 -0.5626
   80SLPC   H4Y 7437   5.685   2.047   6.859  0.1084 -0.9426 -2.6229
   80SLPC   C35 7438   5.691   1.897   7.027  0.4746 -0.0250  0.6508
   80SLPC   H5X 7439   5.706   1.787   7.024  0.5941 -0.0284 -3.0078
   80SLPC   H5Y 7440   5.586   1.900   7.062  0.5633 -2.0223  1.2047
   80SLPC   C36 7441   5.777   1.981   7.118 -0.2661 -0.1797  0.0531
   80SLPC   H6X 7442   5.728   2.081   7.113  0.1185  0.2416  2.9091
   80SLPC   H6Y 7443   5.878   1.998   7.075  0.0335  2.0997  1.4849
   80SLPC   C37 7444   5.780   1.937   7.270 -0.0918  0.3948 -0.5755
   80SLPC   H7X 7445   5.674   1.930   7.302 -0.9342  1.3691 -2.9740
   80SLPC   H7Y 7446   5.838   2.019   7.318  0.9297 -0.0779 -0.9857
   80SLPC   C38 7447   5.860   1.807   7.301  0.4661  0.0472  0.4604
   80SLPC   H8X 7448   5.960   1.799   7.252  0.6006 -1.1366  0.8845
   80SLPC   H8Y 7449   5.793   1.724   7.271  0.6651 -0.2273  0.7734
   80SLPC   C39 7450   5.874   1.793   7.453 -0.5659 -0.1765  0.4050
   80SLPC   H9X 7451   5.776   1.779   7.504 -1.1750 -0.9576 -0.9273
   80SLPC   H9Y 7452   5.915   1.889   7.491 -0.8691  0.2202 -0.2378
   80SLPC  C310 7453   5.978   1.693   7.498  0.3278  0.6453 -0.1482
   80SLPC  H10X 7454   6.071   1.718   7.442  1.2763 -0.8033  0.7115
   80SLPC  H10Y 7455   5.936   1.594   7.471  0.7029  0.6013 -0.5885
   80SLPC  C311 7456   6.006   1.699   7.644  0.0987 -0.4576  0.0980
   80SLPC  H11X 7457   5.913   1.672   7.698  0.2507  0.0773  0.6389
   80SLPC  H11Y 7458   6.024   1.807   7.667 -1.3146 -0.8100  3.4898
   80SLPC  C312 7459   6.126   1.614   7.684  0.0397  0.1700 -1.0779
   80SLPC  H12X 7460   6.217   1.674   7.661  1.8035 -1.8043  0.4208
   80SLPC  H12Y 7461   6.112   1.521   7.626  0.6154 -0.6488  0.0592
   80SLPC  C313 7462   6.135   1.577   7.832 -0.1888  0.0251  0.4190
   80SLPC  H13X 7463   6.055   1.516   7.878 -1.6421  0.2330 -1.7002
   80SLPC  H13Y 7464   6.138   1.668   7.896 -2.9498 -0.8601  1.9636
   80SLPC  C314 7465   6.260   1.497   7.863 -0.4277 -0.4661 -0.4991
   80SLPC  H14X 7466   6.341   1.556   7.816 -0.5161 -0.4449 -0.6272
   80SLPC  H14Y 7467   6.260   1.399   7.810  1.6190 -0.1998 -1.0801
   80SLPC  C315 7468   6.281   1.476   8.017 -0.5838 -0.6091  0.0365
   80SLPC  H15X 7469   6.366   1.407   8.035 -0.4920  0.1600  3.0996
   80SLPC  H15Y 7470   6.186   1.435   8.057 -2.7024  2.5278 -1.3986
   80SLPC  C316 7471   6.315   1.598   8.103  0.0009 -0.4277 -0.4874
   80SLPC  H16X 7472   6.235   1.673   8.119  0.2244  0.2568 -2.2615
   80SLPC  H16Y 7473   6.400   1.657   8.063 -0.0030  1.2011  1.7551
   80SLPC  C317 7474   6.328   1.547   8.241 -0.2954 -0.3219 -0.3486
   80SLPC  H17X 7475   6.409   1.471   8.241  1.4493  1.4037  1.4527
   80SLPC  H17Y 7476   6.237   1.494   8.277 -0.5941  1.4937  1.7529
   80SLPC  C318 7477   6.350   1.648   8.348  0.7154 -0.8224 -0.2528
   80SLPC  H18X 7478   6.446   1.702   8.333 -0.4318  1.1598 -0.9015
   80SLPC  H18Y 7479   6.345   1.612   8.453 -1.7794 -1.5927 -0.5771
   80SLPC  H18Z 7480   6.274   1.729   8.347  1.2470 -0.2055  2.4312
   81SAPS     N 7481   6.566   5.003  11.265  0.3685  0.7005  0.2191
   81SAPS   HN1 7482   6.491   5.044  11.325  0.5541  2.3687 -0.6389
   81SAPS   HN2 7483   6.540   4.936  11.190  0.7149 -2.6709  2.8621
   81SAPS   HN3 7484   6.641   4.952  11.315 -0.8461 -0.9038  0.4852
   81SAPS   C12 7485   6.616   5.125  11.193 -0.7051  0.3024 -0.7520
   81SAPS  H12A 7486   6.544   5.200  11.223 -0.2803  0.4679 -0.1459
   81SAPS   C13 7487   6.764   5.169  11.213  0.2461  0.1679 -0.0223
   81SAPS  O13A 7488   6.822   5.109  11.307 -0.1089 -0.3659  0.2744
   81SAPS  O13B 7489   6.815   5.263  11.151  0.7610  0.7625  0.4608
   81SAPS   C11 7490   6.600   5.091  11.042 -0.3286 -0.3894  0.4663
   81SAPS  H11A 7491   6.674   5.021  10.996 -1.1006  0.2370 -1.9069
   81SAPS  H11B 7492   6.626   5.181  10.982  0.4912 -1.6604 -1.1787
   81SAPS     P 7493   6.384   5.120  10.896 -0.0053  0.0680  0.1680
   81SAPS   O13 7494   6.265   5.040  10.855 -0.4054  0.4848  0.3562
   81SAPS   O14 7495   6.353   5.257  10.947 -0.0181  0.2453  0.2193
   81SAPS   O12 7496   6.465   5.047  11.003 -0.3753 -0.3321 -0.4315
   81SAPS   O11 7497   6.477   5.133  10.763  0.2516 -0.5083  0.0119
   81SAPS    C1 7498   6.521   5.020  10.693  0.2386 -0.0940  0.1898
   81SAPS    HA 7499   6.631   5.010  10.704 -0.0166 -3.0756  1.0025
   81SAPS    HB 7500   6.487   4.925  10.741  2.2710  0.6220  3.4111
   81SAPS    C2 7501   6.465   5.010  10.549 -0.0410 -0.3878 -0.8004
   81SAPS    HS 7502   6.469   4.910  10.500 -2.2227 -0.6860 -0.4740
   81SAPS   O21 7503   6.530   5.115  10.464  0.5097  0.3337  0.1340
   81SAPS   C21 7504   6.648   5.081  10.425  0.0924 -0.1078 -0.5069
   81SAPS   O22 7505   6.703   4.976  10.454 -0.2731 -0.0350 -0.3340
   81SAPS   C22 7506   6.711   5.197  10.341 -0.0567 -0.2638 -0.3182
   81SAPS   H2R 7507   6.630   5.260  10.299 -0.0859  0.0887  0.2631
   81SAPS   H2S 7508   6.750   5.265  10.420 -0.5500 -2.1720  1.6951
   81SAPS    C3 7509   6.306   5.036  10.535  0.7647  0.6446  0.0428
   81SAPS    HX 7510   6.282   5.131  10.586  1.0710  2.4577 -2.9521
   81SAPS    HY 7511   6.257   4.960  10.600  3.0549 -1.4366 -0.4911
   81SAPS   O31 7512   6.269   5.052  10.396 -0.2328  0.3847 -0.7395
   81SAPS   C31 7513   6.251   5.172  10.351  0.2298 -0.1532  0.0231
   81SAPS   O32 7514   6.258   5.273  10.423  0.2391  0.2430  0.0770
   81SAPS   C32 7515   6.221   5.162  10.205 -0.7353 -0.9728  0.0867
   81SAPS   H2X 7516   6.148   5.239  10.173  0.5486  1.0523  1.7215
   81SAPS   H2Y 7517   6.196   5.058  10.174 -0.1856 -1.5943  1.5866
   81SAPS   C23 7518   6.811   5.145  10.236  0.0817  1.1062  0.4187
   81SAPS   H3R 7519   6.777   5.063  10.169  1.8845  0.1705  0.5770
   81SAPS   H3S 7520   6.904   5.106  10.282 -0.6708 -1.6269 -0.1982
   81SAPS   C24 7521   6.859   5.256  10.144 -0.3642  0.6156  0.3725
   81SAPS   H4R 7522   6.950   5.224  10.089 -0.0696  2.7852 -0.5116
   81SAPS   H4S 7523   6.897   5.335  10.211 -1.8475  1.5153  0.2092
   81SAPS   C25 7524   6.747   5.305  10.062  0.6776 -0.0934 -0.7323
   81SAPS   H5R 7525   6.668   5.357  10.118  0.2448 -0.5668 -0.8966
   81SAPS   C26 7526   6.723   5.287   9.932 -0.4007  0.3004  0.2386
   81SAPS   H6R 7527   6.639   5.340   9.884  0.2643  0.0165 -1.2842
   81SAPS   C27 7528   6.813   5.208   9.842 -0.1896 -0.5571 -0.2277
   81SAPS   H7R 7529   6.761   5.143   9.769  1.0853 -2.3957  0.4413
   81SAPS   H7S 7530   6.876   5.132   9.893 -2.7751 -3.2748 -0.8171
   81SAPS   C28 7531   6.905   5.304   9.770  0.4077 -0.6761 -0.5312
   81SAPS   H8R 7532   6.916   5.405   9.812  2.0435 -1.4684  1.0609
   81SAPS   C29 7533   6.951   5.283   9.644 -0.7603 -0.1327 -0.5967
   81SAPS   H9R 7534   7.017   5.355   9.593 -1.8446 -0.3632 -2.4064
   81SAPS  C210 7535   6.918   5.161   9.560 -0.3920  0.4930  1.1374
   81SAPS  H10R 7536   6.807   5.165   9.560 -0.4631 -0.9300  0.8215
   81SAPS  H10S 7537   6.939   5.058   9.598 -2.0510  0.5192  2.2520
   81SAPS  C211 7538   6.972   5.162   9.418 -0.3983  0.0120  0.1089
   81SAPS  H11R 7539   7.022   5.254   9.387  2.0492 -2.0891 -2.8083
   81SAPS  C212 7540   6.960   5.062   9.326  0.3901 -0.3895  0.3549
   81SAPS  H12R 7541   7.003   5.073   9.226  1.1903 -3.7586  0.1909
   81SAPS  C213 7542   6.889   4.930   9.365 -0.0541 -0.7353 -0.8221
   81SAPS  H13R 7543   6.805   4.909   9.296 -0.9002 -0.9197  0.2316
   81SAPS  H13S 7544   6.860   4.917   9.472  1.0765  0.1197 -0.3840
   81SAPS  C214 7545   6.983   4.819   9.345  0.7657  0.3525 -1.1091
   81SAPS  H14R 7546   7.060   4.820   9.424 -0.5023  2.2693  0.2079
   81SAPS  C215 7547   6.999   4.740   9.242  0.1193  0.1268 -0.3103
   81SAPS  H15R 7548   7.069   4.655   9.242 -0.6732 -0.5416  0.7362
   81SAPS  C216 7549   6.932   4.753   9.109  0.7034  0.6987 -0.2532
   81SAPS  H16R 7550   6.895   4.858   9.103  0.9638  0.7343 -1.6270
   81SAPS  H16S 7551   6.849   4.680   9.100  0.5850  0.7739  0.1882
   81SAPS  C217 7552   7.040   4.744   9.002 -0.7527  0.8886  0.0073
   81SAPS  H17R 7553   7.078   4.640   9.013  0.4333  1.2351 -0.6276
   81SAPS  H17S 7554   7.117   4.824   9.012 -0.2146  0.8414 -2.8090
   81SAPS  C218 7555   6.995   4.760   8.853 -0.0200  0.1918 -0.4728
   81SAPS  H18R 7556   6.907   4.692   8.848 -1.5967  2.0852  0.1849
   81SAPS  H18S 7557   7.065   4.721   8.776 -1.7518 -1.4253 -1.3128
   81SAPS  C219 7558   6.935   4.899   8.834 -0.7514 -0.3285  0.3780
   81SAPS  H19R 7559   7.002   4.983   8.863 -0.3689 -0.6333  0.3779
   81SAPS  H19S 7560   6.845   4.911   8.898  0.3100  3.1211  1.4555
   81SAPS  C220 7561   6.866   4.917   8.699 -0.0297 -0.4411  0.1540
   81SAPS  H20R 7562   6.799   5.005   8.699  0.1435 -0.2855  1.5458
   81SAPS  H20S 7563   6.794   4.835   8.677 -1.0970  0.2194  1.1120
   81SAPS  H20T 7564   6.937   4.924   8.613 -0.0430 -2.4518 -0.0645
   81SAPS   C33 7565   6.346   5.203  10.107  0.2233  0.6068  0.3106
   81SAPS   H3X 7566   6.428   5.128  10.112 -1.4250 -1.2103  3.9471
   81SAPS   H3Y 7567   6.394   5.289  10.159 -0.9954 -0.7544  4.0391
   81SAPS   C34 7568   6.304   5.241   9.964 -0.2007  0.2271  0.1976
   81SAPS   H4X 7569   6.237   5.157   9.934  0.2185 -0.3094  0.7247
   81SAPS   H4Y 7570   6.395   5.252   9.902  1.6100 -0.3638  2.5983
   81SAPS   C35 7571   6.216   5.365   9.947 -0.0133 -0.3922 -0.4744
   81SAPS   H5X 7572   6.261   5.451  10.002 -2.0504 -0.4151  1.3692
   81SAPS   H5Y 7573   6.114   5.344   9.987  0.8550 -0.5203  1.8204
   81SAPS   C36 7574   6.198   5.421   9.796  0.1596  0.5606  0.4948
   81SAPS   H6X 7575   6.292   5.466   9.757 -0.6925  0.3993 -1.8731
   81SAPS   H6Y 7576   6.119   5.500   9.799  0.8836  1.3719 -0.7379
   81SAPS   C37 7577   6.142   5.314   9.706  0.5199 -0.2932  0.0806
   81SAPS   H7X 7578   6.054   5.265   9.753  0.5710 -0.4958 -0.0304
   81SAPS   H7Y 7579   6.208   5.230   9.675  1.1756 -0.3269  1.4733
   81SAPS   C38 7580   6.091   5.368   9.577 -0.3060 -0.5007  0.5539
   81SAPS   H8X 7581   6.010   5.437   9.608 -2.1587 -1.8294 -0.9967
   81SAPS   H8Y 7582   6.040   5.291   9.514  1.0486  0.8929 -2.4517
   81SAPS   C39 7583   6.194   5.426   9.484 -0.6576  0.5400  0.3987
   81SAPS   H9X 7584   6.279   5.355   9.475  0.1955  1.4885  0.6425
   81SAPS   H9Y 7585   6.228   5.517   9.539  1.5462  1.3897 -2.1193
   81SAPS  C310 7586   6.124   5.457   9.358  0.8137 -0.3235 -0.1830
   81SAPS  H10X 7587   6.183   5.529   9.298  0.1474  0.0791 -0.3633
   81SAPS  H10Y 7588   6.032   5.516   9.378  0.9364 -0.0801 -0.3395
   81SAPS  C311 7589   6.094   5.331   9.274 -0.5993  0.6357  0.1874
   81SAPS  H11X 7590   6.037   5.249   9.322  0.5480 -0.6060 -0.4924
   81SAPS  H11Y 7591   6.181   5.276   9.231 -2.2971 -0.9783 -1.3749
   81SAPS  C312 7592   6.019   5.373   9.142 -0.8228 -0.1105  0.6377
   81SAPS  H12X 7593   5.914   5.394   9.172 -0.9942 -0.0887  0.0367
   81SAPS  H12Y 7594   6.020   5.278   9.085  1.1225 -0.0215  0.4549
   81SAPS  C313 7595   6.073   5.480   9.048 -0.9018 -0.8502 -0.0626
   81SAPS  H13X 7596   6.179   5.454   9.025 -0.3630  1.3767 -0.3196
   81SAPS  H13Y 7597   6.065   5.581   9.092 -1.3205 -1.9127  2.4546
   81SAPS  C314 7598   6.004   5.497   8.912 -0.3098 -0.6775  0.5988
   81SAPS  H14X 7599   6.052   5.575   8.850  0.4323 -0.5727  1.2986
   81SAPS  H14Y 7600   5.903   5.531   8.945 -1.0957 -0.5691 -1.7354
   81SAPS  C315 7601   5.982   5.363   8.837 -0.8835 -0.4617 -0.3225
   81SAPS  H15X 7602   5.932   5.390   8.741  1.1233  2.4914 -0.6790
   81SAPS  H15Y 7603   5.915   5.299   8.898 -0.8783  0.0669  0.2488
   81SAPS  C316 7604   6.108   5.278   8.801 -0.5128 -0.5695 -0.0005
   81SAPS  H16X 7605   6.143   5.223   8.891  0.0007  0.0351  0.1701
   81SAPS  H16Y 7606   6.191   5.338   8.758  0.3384 -1.2668  0.6216
   81SAPS  C317 7607   6.077   5.163   8.703  0.2434  0.3648  0.2974
   81SAPS  H17X 7608   6.052   5.192   8.599  1.7616 -0.0390 -0.1946
   81SAPS  H17Y 7609   5.980   5.122   8.739  0.0242 -0.6253 -1.3292
   81SAPS  C318 7610   6.180   5.051   8.694 -0.3153  0.3332 -0.0118
   81SAPS  H18X 7611   6.278   5.103   8.701 -0.5815  0.7488  0.8861
   81SAPS  H18Y 7612   6.167   4.990   8.602  0.1325  0.5978 -0.2556
   81SAPS  H18Z 7613   6.164   4.987   8.783 -2.0587  1.0966  0.2758
   82SAPS     N 7614   4.901   4.786  11.108  0.3654  0.4186  0.4071
   82SAPS   HN1 7615   4.972   4.810  11.035  0.3938 -1.7240 -0.3394
   82SAPS   HN2 7616   4.904   4.859  11.183 -1.3009  1.4696 -0.4874
   82SAPS   HN3 7617   4.940   4.696  11.144  0.6611  0.3712 -0.0232
   82SAPS   C12 7618   4.765   4.789  11.057 -0.0032 -0.0843 -0.3755
   82SAPS  H12A 7619   4.762   4.708  10.985  2.3748 -1.3833  0.8611
   82SAPS   C13 7620   4.655   4.761  11.159 -0.2264  0.6334  0.1670
   82SAPS  O13A 7621   4.703   4.729  11.273 -0.3419 -0.0982  0.0099
   82SAPS  O13B 7622   4.534   4.730  11.126 -0.4549  0.3013  0.2414
   82SAPS   C11 7623   4.740   4.931  10.993  0.3610  1.1370 -0.4841
   82SAPS  H11A 7624   4.763   5.015  11.061  1.7404 -0.2733  0.8845
   82SAPS  H11B 7625   4.632   4.931  10.965  0.6012  1.9660 -1.4642
   82SAPS     P 7626   4.812   5.092  10.808  0.3306 -0.1701  0.2455
   82SAPS   O13 7627   4.676   5.145  10.824  0.6117 -0.0435  0.3012
   82SAPS   O14 7628   4.926   5.168  10.856 -0.3827 -0.1005  0.1813
   82SAPS   O12 7629   4.814   4.942  10.874 -0.6976  0.5960 -0.0301
   82SAPS   O11 7630   4.837   5.056  10.659 -0.0396 -0.4394  0.5754
   82SAPS    C1 7631   4.729   4.998  10.586 -0.4105 -0.2647  0.4426
   82SAPS    HA 7632   4.738   4.889  10.566  1.2548 -0.0027 -0.3927
   82SAPS    HB 7633   4.632   5.003  10.641 -1.3943  1.3588 -1.3202
   82SAPS    C2 7634   4.702   5.068  10.448  0.0967  0.0336  0.4902
   82SAPS    HS 7635   4.623   5.008  10.399 -0.0784  2.4742 -2.4679
   82SAPS   O21 7636   4.822   5.067  10.366 -0.1237  0.3657 -0.2977
   82SAPS   C21 7637   4.871   4.955  10.331 -0.4895 -0.0993 -0.1067
   82SAPS   O22 7638   4.816   4.846  10.343  0.7625 -0.3474 -0.4911
   82SAPS   C22 7639   5.019   4.977  10.283  0.2118  0.1866  0.0550
   82SAPS   H2R 7640   5.076   5.026  10.365 -1.1177  0.4291  0.8704
   82SAPS   H2S 7641   5.066   4.881  10.252  1.6059  0.8425  0.0235
   82SAPS    C3 7642   4.633   5.209  10.458  0.0539  0.9371 -0.4629
   82SAPS    HX 7643   4.711   5.283  10.488  1.5873  0.9564 -4.0019
   82SAPS    HY 7644   4.558   5.212  10.540  0.2988 -2.9819  0.0746
   82SAPS   O31 7645   4.581   5.254  10.330 -0.7632  0.6796  0.4628
   82SAPS   C31 7646   4.455   5.243  10.302  0.4958 -0.2272  0.3773
   82SAPS   O32 7647   4.377   5.196  10.380  0.6107  0.2403  0.1554
   82SAPS   C32 7648   4.415   5.316  10.170 -0.3001  0.1069 -0.4075
   82SAPS   H2X 7649   4.305   5.302  10.166 -0.4807  0.7230  1.2642
   82SAPS   H2Y 7650   4.459   5.255  10.089 -0.7992 -0.1884 -0.4644
   82SAPS   C23 7651   5.018   5.074  10.162 -0.2273  0.3668  0.4491
   82SAPS   H3R 7652   5.118   5.112  10.134 -0.2099 -0.3189 -0.4537
   82SAPS   H3S 7653   4.961   5.167  10.187 -4.0286 -2.3826  3.2562
   82SAPS   C24 7654   4.957   5.007  10.046  0.6501  0.6725  0.5907
   82SAPS   H4R 7655   4.853   4.973  10.068  1.1518 -1.1221  0.3538
   82SAPS   H4S 7656   5.015   4.918  10.013 -2.6309 -1.5114  0.2159
   82SAPS   C25 7657   4.945   5.103   9.930 -0.5064 -0.0115 -0.3640
   82SAPS   H5R 7658   4.885   5.194   9.946 -1.2597 -0.6833  0.7448
   82SAPS   C26 7659   4.994   5.094   9.800  0.1919 -0.8683  0.3286
   82SAPS   H6R 7660   4.967   5.183   9.742 -1.3165 -0.1852  1.9718
   82SAPS   C27 7661   5.066   4.980   9.733  0.1051  0.1821 -0.3099
   82SAPS   H7R 7662   5.038   4.882   9.777  2.2600 -0.2435  0.2391
   82SAPS   H7S 7663   5.172   4.987   9.766  0.0781 -2.0147  0.4079
   82SAPS   C28 7664   5.060   4.973   9.580  0.2083  0.0733  0.4992
   82SAPS   H8R 7665   5.005   4.890   9.534 -0.5864 -0.1282  1.7499
   82SAPS   C29 7666   5.115   5.058   9.494  0.3917 -0.0691  0.0858
   82SAPS   H9R 7667   5.127   5.024   9.390  5.2218 -1.1992  0.7500
   82SAPS  C210 7668   5.201   5.174   9.525  0.2598 -0.1365 -0.3155
   82SAPS  H10R 7669   5.155   5.244   9.597  1.7335  0.6056 -0.0486
   82SAPS  H10S 7670   5.192   5.234   9.431  1.0412 -1.1704 -1.0835
   82SAPS  C211 7671   5.339   5.134   9.572  0.0440  1.0480  0.1480
   82SAPS  H11R 7672   5.332   5.105   9.678 -2.9096  2.6620  0.5076
   82SAPS  C212 7673   5.454   5.153   9.505 -0.1768 -0.2261  0.6673
   82SAPS  H12R 7674   5.544   5.109   9.549  0.3593  0.0321 -0.1664
   82SAPS  C213 7675   5.470   5.210   9.362 -0.6945 -0.1228 -0.1040
   82SAPS  H13R 7676   5.419   5.309   9.358 -0.9778 -0.2992 -1.6018
   82SAPS  H13S 7677   5.412   5.145   9.293  0.8064  0.2865 -1.8171
   82SAPS  C214 7678   5.615   5.234   9.323  0.0309 -0.3242 -0.2592
   82SAPS  H14R 7679   5.649   5.338   9.337 -1.3740  0.0669  0.4062
   82SAPS  C215 7680   5.698   5.155   9.256  0.0040  0.9744  0.1736
   82SAPS  H15R 7681   5.801   5.188   9.235 -0.2153  0.5847 -1.6958
   82SAPS  C216 7682   5.661   5.013   9.205 -0.8559  0.1591  0.1662
   82SAPS  H16R 7683   5.555   4.991   9.179 -0.5672 -0.2532 -0.7290
   82SAPS  H16S 7684   5.685   4.950   9.293  0.9881 -0.3590 -0.6578
   82SAPS  C217 7685   5.743   4.962   9.081  0.1915 -0.1623 -0.0023
   82SAPS  H17R 7686   5.723   5.029   8.995  2.0012 -3.1308 -2.9705
   82SAPS  H17S 7687   5.710   4.862   9.046 -0.0012  0.0928 -0.5609
   82SAPS  C218 7688   5.895   4.949   9.113  0.4036  0.4813  0.3113
   82SAPS  H18R 7689   5.910   4.855   9.171  1.3991 -0.2801 -1.1183
   82SAPS  H18S 7690   5.929   5.034   9.175 -0.8438  0.2768  1.3043
   82SAPS  C219 7691   5.968   4.948   8.976  0.1900 -0.0231  0.0312
   82SAPS  H19R 7692   6.075   4.967   8.999  0.1835 -2.1706  2.2993
   82SAPS  H19S 7693   5.936   5.039   8.921  1.0166 -0.3683 -1.0439
   82SAPS  C220 7694   5.951   4.820   8.893  0.2844  0.5274  0.6702
   82SAPS  H20R 7695   5.977   4.729   8.950  2.8632  1.1210  0.5663
   82SAPS  H20S 7696   6.011   4.825   8.799 -0.2459  2.0847  0.3776
   82SAPS  H20T 7697   5.847   4.802   8.859  0.0241  0.5659  1.4402
   82SAPS   C33 7698   4.467   5.460  10.164 -0.2342  0.3766 -0.5771
   82SAPS   H3X 7699   4.567   5.461  10.116  0.8022  1.7480  1.4393
   82SAPS   H3Y 7700   4.491   5.509  10.261 -0.4915  1.9425 -1.2661
   82SAPS   C34 7701   4.376   5.566  10.101 -0.0551  0.1157  0.2097
   82SAPS   H4X 7702   4.394   5.669  10.141  0.0388 -0.4068  1.5819
   82SAPS   H4Y 7703   4.275   5.544  10.141 -0.7365  0.8402 -1.0496
   82SAPS   C35 7704   4.372   5.572   9.944 -0.0356 -0.1672  0.2203
   82SAPS   H5X 7705   4.332   5.479   9.900 -1.4026 -0.6527  2.3237
   82SAPS   H5Y 7706   4.476   5.579   9.906 -0.6872 -0.1829 -1.6477
   82SAPS   C36 7707   4.303   5.706   9.901 -0.4726  0.4790 -0.1431
   82SAPS   H6X 7708   4.375   5.782   9.937  0.5554 -0.9471  0.9237
   82SAPS   H6Y 7709   4.207   5.709   9.958  0.4652 -0.3344  1.5469
   82SAPS   C37 7710   4.264   5.713   9.750  0.2284  1.1199  0.5395
   82SAPS   H7X 7711   4.197   5.798   9.722  0.7462  1.1018 -0.8734
   82SAPS   H7Y 7712   4.222   5.618   9.711  0.8200  0.9834  0.2149
   82SAPS   C38 7713   4.392   5.730   9.660 -0.4209  0.6951  0.4327
   82SAPS   H8X 7714   4.443   5.632   9.649 -1.7620  0.0019  0.0630
   82SAPS   H8Y 7715   4.456   5.808   9.707  0.2153  0.9545 -0.8037
   82SAPS   C39 7716   4.361   5.767   9.508  0.0295 -0.2148 -0.4924
   82SAPS   H9X 7717   4.442   5.778   9.433 -1.6023 -1.7747 -2.6280
   82SAPS   H9Y 7718   4.306   5.863   9.513 -0.8045 -0.7219  2.4984
   82SAPS  C310 7719   4.262   5.666   9.450  0.2161 -0.1734  0.3803
   82SAPS  H10X 7720   4.164   5.686   9.498 -1.6433  0.3569 -3.2909
   82SAPS  H10Y 7721   4.293   5.563   9.479 -1.8773 -0.8512  0.4147
   82SAPS  C311 7722   4.235   5.665   9.299 -0.7941  0.6483 -0.2346
   82SAPS  H11X 7723   4.327   5.676   9.237 -1.4445 -0.3683 -1.4147
   82SAPS  H11Y 7724   4.178   5.757   9.273  2.0067  2.0311 -2.0241
   82SAPS  C312 7725   4.159   5.547   9.255  0.8196  0.3052 -0.0082
   82SAPS  H12X 7726   4.052   5.555   9.284  1.0635  2.0858  0.5230
   82SAPS  H12Y 7727   4.198   5.450   9.294  0.9768 -0.6112 -2.2575
   82SAPS  C313 7728   4.162   5.535   9.102  0.5483  0.2860 -0.0208
   82SAPS  H13X 7729   4.264   5.520   9.059 -0.6759 -1.5659 -2.5571
   82SAPS  H13Y 7730   4.129   5.632   9.059  0.4826  1.0073  1.6091
   82SAPS  C314 7731   4.068   5.423   9.059  0.0825  0.3111 -0.1842
   82SAPS  H14X 7732   3.962   5.439   9.086  0.2614  1.5016 -0.1261
   82SAPS  H14Y 7733   4.101   5.321   9.089  0.8094  0.5849 -0.0147
   82SAPS  C315 7734   4.044   5.415   8.907  0.0888 -0.2858 -0.6604
   82SAPS  H15X 7735   3.978   5.329   8.879 -0.7623  0.1605 -0.0622
   82SAPS  H15Y 7736   4.139   5.392   8.854  1.2227  0.2359  1.0878
   82SAPS  C316 7737   3.985   5.538   8.835  0.1018  0.5364  0.4662
   82SAPS  H16X 7738   4.048   5.630   8.838 -0.3494  0.9015 -0.7587
   82SAPS  H16Y 7739   3.888   5.575   8.876 -0.2632  0.3236 -0.1945
   82SAPS  C317 7740   3.953   5.506   8.687  0.5375 -0.2096  0.2498
   82SAPS  H17X 7741   3.880   5.583   8.656  1.3092  0.4740  0.0805
   82SAPS  H17Y 7742   3.899   5.409   8.687  3.1953 -1.8006  0.0293
   82SAPS  C318 7743   4.072   5.481   8.588 -0.1688 -0.3722 -0.0575
   82SAPS  H18X 7744   4.142   5.567   8.593 -1.6889  0.9423 -0.3471
   82SAPS  H18Y 7745   4.028   5.470   8.486 -1.2136  1.5442  0.1428
   82SAPS  H18Z 7746   4.134   5.390   8.600  1.0976  0.6476  1.5339
   83SAPS     N 7747   5.711   6.589  11.309 -1.1173  0.0249 -0.6210
   83SAPS   HN1 7748   5.763   6.500  11.325  1.3027  1.8658  3.2240
   83SAPS   HN2 7749   5.724   6.644  11.396  0.1768  1.2069 -1.5274
   83SAPS   HN3 7750   5.610   6.574  11.290 -1.7827 -2.6150  3.6294
   83SAPS   C12 7751   5.768   6.667  11.195 -0.1689 -0.1009 -0.9520
   83SAPS  H12A 7752   5.694   6.739  11.164 -1.4951  0.8663  3.7544
   83SAPS   C13 7753   5.900   6.744  11.230  0.1438 -0.2919  0.2155
   83SAPS  O13A 7754   5.949   6.734  11.343  0.3278  0.5271  0.2291
   83SAPS  O13B 7755   5.966   6.792  11.135  0.2034 -0.1777  0.0334
   83SAPS   C11 7756   5.788   6.560  11.081 -0.0217  0.3693  0.4302
   83SAPS  H11A 7757   5.878   6.498  11.100  0.0633 -1.0572 -3.5583
   83SAPS  H11B 7758   5.811   6.612  10.986 -0.3629  2.2434  1.3251
   83SAPS     P 7759   5.679   6.334  10.993  0.2360  0.0767 -0.3840
   83SAPS   O13 7760   5.813   6.276  11.012 -0.3976 -0.1749 -0.4525
   83SAPS   O14 7761   5.559   6.263  11.044 -0.2813  0.6446  0.0624
   83SAPS   O12 7762   5.665   6.476  11.060 -0.2453 -0.2038 -0.3103
   83SAPS   O11 7763   5.656   6.380  10.848 -0.0012  0.9578 -0.1395
   83SAPS    C1 7764   5.761   6.439  10.766 -0.2788  0.0064 -0.3190
   83SAPS    HA 7765   5.818   6.515  10.823 -1.9092  0.5886  0.5980
   83SAPS    HB 7766   5.822   6.354  10.730 -1.4870 -0.7896 -0.5588
   83SAPS    C2 7767   5.691   6.488  10.640  0.1146  0.5066 -0.4374
   83SAPS    HS 7768   5.642   6.585  10.666  1.1841  0.4356  2.2293
   83SAPS   O21 7769   5.604   6.371  10.596 -0.3622 -0.0773 -0.2276
   83SAPS   C21 7770   5.489   6.404  10.548 -0.3576 -0.4240 -0.6726
   83SAPS   O22 7771   5.453   6.522  10.529 -0.2060 -0.9942 -0.3593
   83SAPS   C22 7772   5.405   6.281  10.530 -0.0798  1.1852 -0.0309
   83SAPS   H2R 7773   5.469   6.190  10.531 -2.2794 -0.4628 -0.5294
   83SAPS   H2S 7774   5.349   6.282  10.627  0.6467  1.9280  0.3844
   83SAPS    C3 7775   5.797   6.519  10.523 -0.2678 -0.0160 -0.3620
   83SAPS    HX 7776   5.855   6.425  10.508  0.7221  0.7573 -1.4930
   83SAPS    HY 7777   5.874   6.594  10.554  0.6937 -0.2128 -2.1359
   83SAPS   O31 7778   5.723   6.551  10.403  0.3860  0.0132  0.2082
   83SAPS   C31 7779   5.689   6.673  10.393  0.9008 -0.1554 -0.2641
   83SAPS   O32 7780   5.723   6.765  10.466 -0.3506  0.3336 -0.2113
   83SAPS   C32 7781   5.621   6.695  10.251 -0.4650 -0.0608 -0.1865
   83SAPS   H2X 7782   5.514   6.665  10.260 -0.8211  1.1504 -0.1490
   83SAPS   H2Y 7783   5.686   6.638  10.182  2.0425 -1.6665  3.2552
   83SAPS   C23 7784   5.314   6.266  10.411 -0.9732  0.7960 -0.2673
   83SAPS   H3R 7785   5.265   6.364  10.397 -2.6138  0.4782  2.5075
   83SAPS   H3S 7786   5.222   6.211  10.438 -0.9770  0.1945 -1.4229
   83SAPS   C24 7787   5.395   6.228  10.284  0.0757 -1.3995 -0.7428
   83SAPS   H4R 7788   5.454   6.135  10.300  0.7176 -0.8164  0.4194
   83SAPS   H4S 7789   5.467   6.312  10.268  0.2105 -1.0452  1.4129
   83SAPS   C25 7790   5.289   6.204  10.184 -0.0674 -0.2317 -0.4809
   83SAPS   H5R 7791   5.250   6.102  10.178 -0.4232 -0.1301  0.0127
   83SAPS   C26 7792   5.243   6.296  10.091  0.7790 -0.3105 -0.3111
   83SAPS   H6R 7793   5.157   6.264  10.031  0.5542 -0.7590  0.2416
   83SAPS   C27 7794   5.282   6.442  10.073 -0.1012  0.2631 -0.5010
   83SAPS   H7R 7795   5.329   6.474   9.978  1.8410 -0.0401  0.3007
   83SAPS   H7S 7796   5.360   6.473  10.146 -0.6863  0.5181  0.0184
   83SAPS   C28 7797   5.168   6.527  10.104 -0.0183  0.0343 -0.4800
   83SAPS   H8R 7798   5.090   6.486  10.170 -0.1386 -1.5539 -1.5729
   83SAPS   C29 7799   5.157   6.659  10.071  0.0680  0.2843  0.3521
   83SAPS   H9R 7800   5.061   6.710  10.088 -0.7358 -0.8988 -0.4111
   83SAPS  C210 7801   5.255   6.742   9.999  0.1707  0.2744  0.0231
   83SAPS  H10R 7802   5.340   6.688   9.950  1.1608  1.6148  0.1921
   83SAPS  H10S 7803   5.303   6.815  10.067 -1.5521  2.7418 -1.2442
   83SAPS  C211 7804   5.174   6.830   9.901  0.0514 -0.6237 -0.2250
   83SAPS  H11R 7805   5.088   6.880   9.949  1.4447  0.8868  0.7988
   83SAPS  C212 7806   5.192   6.832   9.766 -0.2493 -0.0798 -0.7984
   83SAPS  H12R 7807   5.138   6.905   9.703  1.1290  2.0357  0.3386
   83SAPS  C213 7808   5.293   6.757   9.684  0.0261 -0.2376 -0.4160
   83SAPS  H13R 7809   5.381   6.754   9.752 -1.1066 -0.8042  1.0767
   83SAPS  H13S 7810   5.323   6.823   9.600  0.3976 -0.9602 -0.8631
   83SAPS  C214 7811   5.248   6.623   9.640 -0.2915 -0.1469 -0.2766
   83SAPS  H14R 7812   5.235   6.553   9.724 -0.7090  0.8321  0.4942
   83SAPS  C215 7813   5.211   6.584   9.521 -0.6251 -0.1908 -0.5738
   83SAPS  H15R 7814   5.171   6.483   9.505  0.5113 -0.5492 -1.2680
   83SAPS  C216 7815   5.210   6.663   9.391  0.5359 -0.2458  0.0498
   83SAPS  H16R 7816   5.213   6.773   9.408 -1.4350  0.0981 -1.4571
   83SAPS  H16S 7817   5.115   6.658   9.335  0.6851  0.3314 -0.2685
   83SAPS  C217 7818   5.321   6.614   9.303 -0.3798  0.5585  0.2927
   83SAPS  H17R 7819   5.299   6.510   9.273 -2.5720  1.1511 -0.3307
   83SAPS  H17S 7820   5.424   6.625   9.344  0.2026 -0.9369 -0.6876
   83SAPS  C218 7821   5.312   6.682   9.167  0.4470 -1.0064  0.0675
   83SAPS  H18R 7822   5.330   6.787   9.198 -0.9878 -1.0855  1.3391
   83SAPS  H18S 7823   5.210   6.680   9.124  0.1966  0.8880  0.5058
   83SAPS  C219 7824   5.421   6.615   9.079  0.6838  0.8285 -0.3486
   83SAPS  H19R 7825   5.513   6.592   9.136  0.8903 -0.7916 -1.2839
   83SAPS  H19S 7826   5.454   6.678   8.993 -0.2469  0.1465 -1.2376
   83SAPS  C220 7827   5.365   6.488   9.009  0.1245  0.0508 -0.0850
   83SAPS  H20R 7828   5.284   6.507   8.936 -1.5849  0.0095  1.7023
   83SAPS  H20S 7829   5.308   6.418   9.073 -1.8789  2.2043  0.6457
   83SAPS  H20T 7830   5.452   6.432   8.969  2.5603  1.5395  2.7350
   83SAPS   C33 7831   5.630   6.843  10.224 -0.3930  0.0326  0.0406
   83SAPS   H3X 7832   5.733   6.881  10.244  0.1906 -1.9393  1.0308
   83SAPS   H3Y 7833   5.563   6.902  10.289  0.0578 -2.0816  2.5752
   83SAPS   C34 7834   5.608   6.876  10.073 -0.0013 -0.6451 -0.1868
   83SAPS   H4X 7835   5.638   6.982  10.056 -1.3843 -0.0088  1.1790
   83SAPS   H4Y 7836   5.499   6.881  10.054  0.1456 -0.1231 -0.9454
   83SAPS   C35 7837   5.678   6.790   9.972  0.0133  0.4384  0.3644
   83SAPS   H5X 7838   5.622   6.695   9.959  1.7160 -0.6505  0.6521
   83SAPS   H5Y 7839   5.782   6.761   9.999 -0.3065 -0.9092  0.2175
   83SAPS   C36 7840   5.670   6.867   9.833 -0.0357  0.3910 -0.3716
   83SAPS   H6X 7841   5.720   6.966   9.843 -1.9434  1.4065 -0.4620
   83SAPS   H6Y 7842   5.562   6.882   9.814 -0.3713 -1.6994 -0.3535
   83SAPS   C37 7843   5.738   6.795   9.713 -0.3551 -0.5317  0.5870
   83SAPS   H7X 7844   5.679   6.702   9.698  0.6220 -1.0605 -0.1149
   83SAPS   H7Y 7845   5.843   6.772   9.742 -0.4592 -1.2469  0.4323
   83SAPS   C38 7846   5.733   6.873   9.586  0.0200  0.1150 -0.4774
   83SAPS   H8X 7847   5.802   6.959   9.589  0.1784 -0.0373  1.3326
   83SAPS   H8Y 7848   5.631   6.913   9.568  0.8417  3.3759  1.4188
   83SAPS   C39 7849   5.770   6.805   9.452 -0.2781  0.9218  0.8084
   83SAPS   H9X 7850   5.725   6.854   9.363 -0.1708 -1.0116 -0.3553
   83SAPS   H9Y 7851   5.721   6.705   9.447  0.8253  0.4427 -2.2319
   83SAPS  C310 7852   5.922   6.778   9.438 -0.2265 -0.3390 -0.3835
   83SAPS  H10X 7853   5.957   6.713   9.521  0.7192  0.1154 -0.4128
   83SAPS  H10Y 7854   5.978   6.873   9.448 -1.5472  0.5200 -0.9464
   83SAPS  C311 7855   5.954   6.704   9.308  0.5842 -0.2501 -0.1667
   83SAPS  H11X 7856   5.864   6.641   9.290 -0.2847  1.1880 -1.0901
   83SAPS  H11Y 7857   6.047   6.643   9.308 -0.0052 -1.1803  0.7571
   83SAPS  C312 7858   5.954   6.798   9.194 -0.0225  0.4747  0.1395
   83SAPS  H12X 7859   6.054   6.789   9.146  1.4066  4.6043  1.8479
   83SAPS  H12Y 7860   5.959   6.901   9.236  2.2887  0.5641 -0.2215
   83SAPS  C313 7861   5.847   6.773   9.090  0.2209 -0.0825 -0.1179
   83SAPS  H13X 7862   5.752   6.800   9.140  0.3961 -0.0211  0.1892
   83SAPS  H13Y 7863   5.849   6.662   9.077 -0.1667 -0.3898  2.0435
   83SAPS  C314 7864   5.890   6.849   8.961 -0.1153  0.2248  0.2577
   83SAPS  H14X 7865   5.809   6.834   8.886 -0.8914  1.3009  0.8608
   83SAPS  H14Y 7866   5.979   6.796   8.920  0.2453 -1.7172  3.2383
   83SAPS  C315 7867   5.909   6.998   8.975 -0.0449 -0.5460  0.4715
   83SAPS  H15X 7868   5.984   7.022   9.054  1.7811 -0.5301 -1.1845
   83SAPS  H15Y 7869   5.808   7.035   9.000  0.2687 -0.2211  1.3127
   83SAPS  C316 7870   5.968   7.055   8.848 -0.5352 -0.3785 -0.3179
   83SAPS  H16X 7871   5.923   7.003   8.761 -0.6558 -2.5595  0.9743
   83SAPS  H16Y 7872   6.074   7.022   8.851  0.4763  2.5740 -0.5382
   83SAPS  C317 7873   5.969   7.209   8.830 -0.4874  0.7565 -0.2871
   83SAPS  H17X 7874   6.025   7.228   8.736  1.3249 -0.2460  0.5497
   83SAPS  H17Y 7875   6.022   7.260   8.913 -0.5707 -0.0310  0.2689
   83SAPS  C318 7876   5.831   7.272   8.830  0.5932  0.0296 -0.3099
   83SAPS  H18X 7877   5.772   7.255   8.923  0.6519  3.6485  0.5473
   83SAPS  H18Y 7878   5.766   7.248   8.743 -1.9164  1.0595  1.1589
   83SAPS  H18Z 7879   5.848   7.382   8.837  3.1341 -0.3362 -0.1771
   84SAPS     N 7880   1.043   5.491  11.465 -0.8061  0.4427 -0.7858
   84SAPS   HN1 7881   1.137   5.534  11.454 -1.1606  0.9415 -1.9277
   84SAPS   HN2 7882   1.000   5.535  11.549 -0.0176  1.2696 -0.7974
   84SAPS   HN3 7883   1.064   5.390  11.480  0.8527  1.0429  1.6862
   84SAPS   C12 7884   0.965   5.518  11.348 -0.3532  0.5807  0.5212
   84SAPS  H12A 7885   0.862   5.498  11.370  0.1007 -0.3952  1.9081
   84SAPS   C13 7886   0.963   5.665  11.297 -0.5452 -0.2461  0.6641
   84SAPS  O13A 7887   1.035   5.753  11.344 -0.0949 -0.2436  0.2432
   84SAPS  O13B 7888   0.902   5.690  11.190 -0.6852  0.2162 -0.1606
   84SAPS   C11 7889   1.010   5.422  11.227  0.0351 -0.5746  0.1973
   84SAPS  H11A 7890   1.115   5.441  11.199  0.5184 -0.6547  1.8534
   84SAPS  H11B 7891   0.955   5.455  11.136  1.0902 -2.0226 -0.9970
   84SAPS     P 7892   0.946   5.181  11.134 -0.2583 -0.3130  0.0965
   84SAPS   O13 7893   1.019   5.053  11.149 -0.7898 -0.9171 -0.0536
   84SAPS   O14 7894   0.799   5.166  11.125 -0.1501 -0.0279 -0.4403
   84SAPS   O12 7895   0.997   5.280  11.248 -0.2995  0.5298  0.0812
   84SAPS   O11 7896   1.002   5.262  11.008 -0.3731 -0.7537  0.3710
   84SAPS    C1 7897   1.138   5.245  10.975 -0.1858 -0.1495  0.5428
   84SAPS    HA 7898   1.199   5.311  11.040  1.5106 -1.5471  0.4386
   84SAPS    HB 7899   1.180   5.148  11.008 -3.3294  0.0528  6.3176
   84SAPS    C2 7900   1.173   5.261  10.825 -0.2551 -0.1951 -0.1497
   84SAPS    HS 7901   1.284   5.267  10.821 -0.2502 -0.3750 -0.2784
   84SAPS   O21 7902   1.106   5.380  10.788  0.7487  0.4244  0.2188
   84SAPS   C21 7903   1.162   5.453  10.691 -0.1308  0.0736  0.2992
   84SAPS   O22 7904   1.275   5.436  10.657 -0.3331  0.5263  0.2946
   84SAPS   C22 7905   1.055   5.559  10.628 -0.1579  0.1387  0.0682
   84SAPS   H2R 7906   0.955   5.517  10.650  0.6426 -0.9232  1.9504
   84SAPS   H2S 7907   1.056   5.653  10.689  0.0599  1.1513 -1.4519
   84SAPS    C3 7908   1.120   5.139  10.747  0.8068 -0.1753 -0.1665
   84SAPS    HX 7909   1.011   5.125  10.762  0.5042 -0.4764 -2.3166
   84SAPS    HY 7910   1.177   5.051  10.784  1.0031  0.0149 -0.0164
   84SAPS   O31 7911   1.149   5.148  10.601  0.4505  0.3589 -0.0586
   84SAPS   C31 7912   1.042   5.165  10.526  0.2810 -0.0782  0.6823
   84SAPS   O32 7913   0.935   5.202  10.571  0.3449 -0.2025  0.6210
   84SAPS   C32 7914   1.076   5.123  10.381 -0.3960  0.5309  0.6238
   84SAPS   H2X 7915   1.088   5.014  10.369 -1.6799  0.2193  1.8051
   84SAPS   H2Y 7916   1.177   5.163  10.360 -0.7070  0.9396 -0.1358
   84SAPS   C23 7917   1.092   5.590  10.482 -0.3946  0.3021  0.1506
   84SAPS   H3R 7918   1.134   5.500  10.431  1.9236  1.9859 -1.0908
   84SAPS   H3S 7919   1.179   5.659  10.475  0.8765 -1.1391  1.0520
   84SAPS   C24 7920   0.972   5.630  10.401 -0.1896 -0.3804 -0.4016
   84SAPS   H4R 7921   0.902   5.544  10.407  0.3985 -0.8431 -0.1014
   84SAPS   H4S 7922   1.008   5.652  10.299 -1.2160  1.1069 -0.4787
   84SAPS   C25 7923   0.891   5.749  10.458 -0.2546 -0.0387  0.3466
   84SAPS   H5R 7924   0.874   5.742  10.567  1.3008  1.8863  0.7546
   84SAPS   C26 7925   0.844   5.851  10.382 -0.4402 -0.0480  0.6187
   84SAPS   H6R 7926   0.811   5.939  10.437  0.4236  1.1278 -0.6706
   84SAPS   C27 7927   0.861   5.860  10.234 -0.4052 -0.0184 -0.3202
   84SAPS   H7R 7928   0.781   5.931  10.204  1.5716  2.5772  0.1789
   84SAPS   H7S 7929   0.837   5.763  10.184  0.7672 -0.3148 -0.3521
   84SAPS   C28 7930   0.999   5.896  10.176  0.3355 -0.2580 -0.4005
   84SAPS   H8R 7931   1.072   5.933  10.249  0.6836 -1.3121 -0.1880
   84SAPS   C29 7932   1.045   5.866  10.052 -1.0220 -0.2873  0.1726
   84SAPS   H9R 7933   1.152   5.882  10.032 -1.4588  1.0024 -1.3156
   84SAPS  C210 7934   0.967   5.798   9.943  0.5053 -0.1060  0.3260
   84SAPS  H10R 7935   0.951   5.873   9.862  1.4527 -0.3222 -0.0724
   84SAPS  H10S 7936   0.865   5.767   9.975 -0.7677  3.1750 -0.1366
   84SAPS  C211 7937   1.050   5.689   9.889 -0.3542 -0.4704  0.4008
   84SAPS  H11R 7938   1.098   5.635   9.972 -2.6632 -0.7566  1.6325
   84SAPS  C212 7939   1.079   5.657   9.756  1.5766 -0.8898 -0.0615
   84SAPS  H12R 7940   1.129   5.563   9.729  2.6228 -1.1043  2.3463
   84SAPS  C213 7941   1.029   5.733   9.639 -0.7393  0.5209  0.0487
   84SAPS  H13R 7942   1.099   5.707   9.557 -2.0617 -0.2623 -0.8701
   84SAPS  H13S 7943   1.057   5.841   9.644 -0.6558  0.5169 -0.3196
   84SAPS  C214 7944   0.887   5.707   9.600  0.1176  0.2201  0.2755
   84SAPS  H14R 7945   0.856   5.602   9.607  1.5630 -0.2363  0.0451
   84SAPS  C215 7946   0.797   5.802   9.547 -0.2524 -0.4841 -0.7256
   84SAPS  H15R 7947   0.695   5.769   9.522  0.3337 -2.7343 -0.3572
   84SAPS  C216 7948   0.837   5.947   9.500 -0.1244  0.1903  1.0740
   84SAPS  H16R 7949   0.946   5.956   9.480 -0.7109  1.0786 -2.3412
   84SAPS  H16S 7950   0.803   6.029   9.566 -2.8203 -0.0458  0.1160
   84SAPS  C217 7951   0.774   5.970   9.358 -0.0566  0.0059  0.4737
   84SAPS  H17R 7952   0.664   5.984   9.356  0.1096  1.5966 -2.2232
   84SAPS  H17S 7953   0.802   5.886   9.290 -2.0862 -0.4588  0.1549
   84SAPS  C218 7954   0.815   6.103   9.301 -0.2628  0.3220 -0.4358
   84SAPS  H18R 7955   0.910   6.092   9.245 -0.4773  3.4521 -1.6060
   84SAPS  H18S 7956   0.833   6.169   9.389  5.7857 -0.4719 -0.6759
   84SAPS  C219 7957   0.711   6.151   9.195  0.1248  0.3549 -0.1797
   84SAPS  H19R 7958   0.615   6.180   9.242 -0.7882  0.0695 -1.7979
   84SAPS  H19S 7959   0.688   6.067   9.125 -0.2325  0.1703  0.1593
   84SAPS  C220 7960   0.758   6.266   9.105 -0.3686 -0.0082 -0.6665
   84SAPS  H20R 7961   0.795   6.356   9.159 -1.5216  0.0261  0.1079
   84SAPS  H20S 7962   0.678   6.311   9.042 -2.0015 -1.4722  0.2684
   84SAPS  H20T 7963   0.842   6.230   9.042 -1.4551 -1.0205 -1.5744
   84SAPS   C33 7964   0.976   5.158  10.272 -0.3959  0.6702 -0.5497
   84SAPS   H3X 7965   0.939   5.262  10.275 -0.4646  0.6271  0.3923
   84SAPS   H3Y 7966   0.889   5.090  10.271  0.8128 -0.9487 -1.4671
   84SAPS   C34 7967   1.040   5.153  10.131 -0.0691  0.2267 -0.6962
   84SAPS   H4X 7968   1.058   5.047  10.102 -0.4895 -0.1753  0.4380
   84SAPS   H4Y 7969   1.127   5.220  10.146  1.3427 -1.4743 -0.9081
   84SAPS   C35 7970   0.946   5.210  10.016  0.0492  0.1501  0.0430
   84SAPS   H5X 7971   0.908   5.308  10.051  0.0838  0.3466 -0.4662
   84SAPS   H5Y 7972   0.864   5.138   9.995 -1.9041  2.9129 -2.4763
   84SAPS   C36 7973   1.018   5.234   9.881  0.4218 -0.3985 -0.6005
   84SAPS   H6X 7974   1.102   5.164   9.865  0.8718  0.3464 -1.6038
   84SAPS   H6Y 7975   1.065   5.335   9.877  1.9464 -0.8679  2.3295
   84SAPS   C37 7976   0.915   5.215   9.770 -0.2159  0.3878 -0.2947
   84SAPS   H7X 7977   0.847   5.300   9.787  0.1350  0.5262  0.4785
   84SAPS   H7Y 7978   0.861   5.118   9.774  1.6639 -0.7221 -0.1075
   84SAPS   C38 7979   0.984   5.231   9.634  0.6480 -0.1582 -0.0273
   84SAPS   H8X 7980   1.035   5.137   9.606  1.0436 -0.7338  2.3497
   84SAPS   H8Y 7981   1.054   5.318   9.631 -0.1362  0.5905  1.7466
   84SAPS   C39 7982   0.883   5.258   9.518  0.1038  0.3971 -0.1763
   84SAPS   H9X 7983   0.846   5.363   9.518  1.9088  1.0662 -0.1008
   84SAPS   H9Y 7984   0.792   5.196   9.536  0.6127  0.2457  2.1688
   84SAPS  C310 7985   0.944   5.229   9.381 -0.9871  0.0084  0.3582
   84SAPS  H10X 7986   0.887   5.279   9.300  0.5483  0.2269 -0.6273
   84SAPS  H10Y 7987   0.939   5.120   9.357  0.4890  0.3666 -1.8883
   84SAPS  C311 7988   1.084   5.287   9.347  0.3673 -0.7834 -0.2541
   84SAPS  H11X 7989   1.163   5.240   9.410  1.2003  0.9865  0.1012
   84SAPS  H11Y 7990   1.080   5.388   9.393  1.9087 -0.9752  0.3585
   84SAPS  C312 7991   1.132   5.271   9.202  0.4454  0.4392 -0.0172
   84SAPS  H12X 7992   1.047   5.281   9.131 -0.0563  2.4408  0.7888
   84SAPS  H12Y 7993   1.180   5.173   9.183  3.0977  1.3505  1.4250
   84SAPS  C313 7994   1.234   5.382   9.158 -0.2063 -0.0935 -0.7790
   84SAPS  H13X 7995   1.328   5.388   9.217 -0.2022  1.4599 -0.8981
   84SAPS  H13Y 7996   1.184   5.480   9.175 -0.3087 -0.4031  0.9692
   84SAPS  C314 7997   1.269   5.375   9.008  0.5267  0.2865 -0.7159
   84SAPS  H14X 7998   1.186   5.420   8.950 -0.8121 -0.8563  0.2639
   84SAPS  H14Y 7999   1.284   5.270   8.975  0.5621 -0.3637  1.2496
   84SAPS  C315 8000   1.398   5.454   8.978  0.0046  0.5463  0.3310
   84SAPS  H15X 8001   1.488   5.404   9.022  0.6153  1.5140  0.2190
   84SAPS  H15Y 8002   1.394   5.557   9.019 -0.6706  0.0206  1.6367
   84SAPS  C316 8003   1.430   5.470   8.831  0.2645 -0.2600  0.4263
   84SAPS  H16X 8004   1.354   5.540   8.793  0.2684 -1.0217 -1.0406
   84SAPS  H16Y 8005   1.418   5.379   8.769  0.1993  1.6079 -2.4983
   84SAPS  C317 8006   1.579   5.523   8.818  0.1425  0.1932  0.7186
   84SAPS  H17X 8007   1.611   5.514   8.712  1.5498  1.3351  1.0063
   84SAPS  H17Y 8008   1.646   5.460   8.881  0.2587  0.7216  1.1356
   84SAPS  C318 8009   1.582   5.666   8.864  0.3836 -0.3891  0.1568
   84SAPS  H18X 8010   1.582   5.679   8.975  0.0624  2.8936 -0.1174
   84SAPS  H18Y 8011   1.510   5.729   8.808  1.8198 -0.7081 -2.1394
   84SAPS  H18Z 8012   1.686   5.701   8.848  0.5727 -0.4128  1.2465
   85SAPS     N 8013   4.412   2.503  11.115  0.2124  0.2584 -0.1015
   85SAPS   HN1 8014   4.327   2.459  11.072 -0.0565  0.4248  0.2542
   85SAPS   HN2 8015   4.388   2.602  11.136  0.1028  0.3274 -0.5286
   85SAPS   HN3 8016   4.478   2.499  11.035  0.1681 -2.8104 -0.1075
   85SAPS   C12 8017   4.474   2.410  11.212 -0.7521  0.2645  0.3363
   85SAPS  H12A 8018   4.578   2.431  11.234 -1.6539  2.5160  2.9706
   85SAPS   C13 8019   4.400   2.402  11.342  1.0754  0.7329  0.1715
   85SAPS  O13A 8020   4.295   2.465  11.362  0.1239 -0.0277 -0.2728
   85SAPS  O13B 8021   4.441   2.313  11.419  0.2870 -0.1268 -0.3006
   85SAPS   C11 8022   4.483   2.273  11.136 -0.0511 -0.2319 -0.2280
   85SAPS  H11A 8023   4.381   2.235  11.118  0.2928  0.1435 -3.6886
   85SAPS  H11B 8024   4.535   2.204  11.207 -1.6469  0.7715  2.0481
   85SAPS     P 8025   4.605   2.161  10.932  0.4020  0.1550 -0.2956
   85SAPS   O13 8026   4.672   2.201  10.807 -0.2966  0.2046 -0.8369
   85SAPS   O14 8027   4.689   2.078  11.025  0.1430  0.5573  0.8587
   85SAPS   O12 8028   4.546   2.290  11.012 -0.3145 -0.3125  0.5176
   85SAPS   O11 8029   4.476   2.083  10.893  0.6956 -0.1177 -0.3545
   85SAPS    C1 8030   4.411   2.089  10.770  0.3020 -0.1248 -0.0210
   85SAPS    HA 8031   4.307   2.126  10.783  1.0810  2.5909 -0.8019
   85SAPS    HB 8032   4.457   2.157  10.695 -0.1666  1.2996  0.9270
   85SAPS    C2 8033   4.407   1.942  10.708 -0.7661  0.6565 -0.1894
   85SAPS    HS 8034   4.512   1.909  10.697 -0.5143  1.7180 -1.2223
   85SAPS   O21 8035   4.338   1.936  10.578 -0.3382 -0.4555 -0.1760
   85SAPS   C21 8036   4.413   1.962  10.477 -0.3608 -0.2598  0.1803
   85SAPS   O22 8037   4.533   1.981  10.479 -0.6942  0.3077  0.2469
   85SAPS   C22 8038   4.336   1.953  10.348 -0.3364 -0.3215 -0.0461
   85SAPS   H2R 8039   4.334   1.846  10.319 -2.8955 -0.2081 -0.4994
   85SAPS   H2S 8040   4.231   1.980  10.371 -0.7942  0.3304 -2.6468
   85SAPS    C3 8041   4.330   1.846  10.805 -0.5348  0.8185  0.1380
   85SAPS    HX 8042   4.223   1.873  10.815 -0.4524  1.5278 -0.7917
   85SAPS    HY 8043   4.369   1.844  10.909 -1.4571  1.1803  0.5002
   85SAPS   O31 8044   4.336   1.715  10.749  0.3098 -0.0109  0.2851
   85SAPS   C31 8045   4.457   1.665  10.765  0.3477  0.2069 -1.0251
   85SAPS   O32 8046   4.551   1.716  10.825  0.1428 -0.5034 -0.0108
   85SAPS   C32 8047   4.456   1.522  10.722 -0.5069 -0.4426  0.0628
   85SAPS   H2X 8048   4.354   1.476  10.723 -1.4338  1.4202 -1.7853
   85SAPS   H2Y 8049   4.529   1.469  10.786  1.0939  0.9896 -0.5063
   85SAPS   C23 8050   4.398   2.040  10.232 -0.4690 -0.1493  0.0462
   85SAPS   H3R 8051   4.504   2.012  10.218 -0.5682 -0.1387 -0.7492
   85SAPS   H3S 8052   4.396   2.146  10.268  1.8035 -0.2926  0.7661
   85SAPS   C24 8053   4.329   2.023  10.103  1.2499 -0.5178  0.7064
   85SAPS   H4R 8054   4.367   2.114  10.051  1.0516 -0.6991  0.2442
   85SAPS   H4S 8055   4.221   2.045  10.099  1.5733  1.1497  0.3400
   85SAPS   C25 8056   4.348   1.902  10.014 -1.0941  0.0859  0.6406
   85SAPS   H5R 8057   4.390   1.811  10.060 -1.1072 -0.1300  0.2289
   85SAPS   C26 8058   4.348   1.887   9.873  0.0763 -0.0904 -0.0573
   85SAPS   H6R 8059   4.366   1.788   9.827  1.5139  0.3874 -0.5815
   85SAPS   C27 8060   4.326   1.996   9.778 -0.7449 -0.5085  0.2398
   85SAPS   H7R 8061   4.281   2.087   9.821 -0.0529  0.1916 -0.4852
   85SAPS   H7S 8062   4.248   1.953   9.711 -2.1444 -0.8442  2.0147
   85SAPS   C28 8063   4.448   2.035   9.703 -0.1586 -0.3735 -0.0120
   85SAPS   H8R 8064   4.530   2.084   9.758  1.3582 -0.3995 -2.1526
   85SAPS   C29 8065   4.476   2.023   9.569  0.0866 -1.1250 -0.1936
   85SAPS   H9R 8066   4.584   2.036   9.555  0.0362  0.7642  0.8448
   85SAPS  C210 8067   4.389   1.960   9.467  0.4275 -0.3065  0.4496
   85SAPS  H10R 8068   4.298   1.917   9.514 -0.6678 -0.4116 -1.6513
   85SAPS  H10S 8069   4.451   1.878   9.426  0.5031  0.8923 -1.9729
   85SAPS  C211 8070   4.360   2.056   9.357 -0.4360  0.0500 -0.1241
   85SAPS  H11R 8071   4.285   2.131   9.387 -0.3060  0.1939 -0.1589
   85SAPS  C212 8072   4.405   2.062   9.230  0.3645 -0.6054  0.0845
   85SAPS  H12R 8073   4.365   2.139   9.162  0.9164 -0.0965  0.3256
   85SAPS  C213 8074   4.508   1.983   9.158  0.1130  0.6223  0.0483
   85SAPS  H13R 8075   4.500   1.979   9.048 -0.3610  0.8063  0.0730
   85SAPS  H13S 8076   4.478   1.877   9.172  1.2762 -0.0429 -2.0879
   85SAPS  C214 8077   4.647   2.022   9.200 -0.0847 -0.4329  0.3146
   85SAPS  H14R 8078   4.652   2.099   9.279 -3.7383 -1.0460  1.3407
   85SAPS  C215 8079   4.757   1.980   9.128  1.5829 -0.7633  0.1258
   85SAPS  H15R 8080   4.858   2.017   9.152  0.9447  0.9847  0.2722
   85SAPS  C216 8081   4.766   1.895   9.008  0.5102  0.0022  0.9069
   85SAPS  H16R 8082   4.678   1.828   9.010  0.3352  0.2335  1.0359
   85SAPS  H16S 8083   4.854   1.827   9.011  1.3410  0.9226 -1.0359
   85SAPS  C217 8084   4.776   1.976   8.874  0.8965  0.7054 -0.1353
   85SAPS  H17R 8085   4.687   2.042   8.884 -0.3271 -0.4191 -2.6883
   85SAPS  H17S 8086   4.759   1.908   8.788 -1.8264  0.0923  0.7898
   85SAPS  C218 8087   4.910   2.042   8.853  0.0872  0.3190 -0.5722
   85SAPS  H18R 8088   4.985   1.962   8.840  0.1340  0.5449 -1.8081
   85SAPS  H18S 8089   4.940   2.094   8.947  1.1526 -1.8645  0.3545
   85SAPS  C219 8090   4.917   2.154   8.749  0.2334 -0.1040 -0.1973
   85SAPS  H19R 8091   5.012   2.203   8.780  0.6649 -1.5909  0.9680
   85SAPS  H19S 8092   4.830   2.222   8.761 -0.7193 -1.0277 -1.6353
   85SAPS  C220 8093   4.928   2.111   8.604 -0.3060 -0.2371  0.0635
   85SAPS  H20R 8094   4.940   2.202   8.542  4.2026 -1.5125 -1.3143
   85SAPS  H20S 8095   4.828   2.068   8.582 -0.6338  0.4931  0.1389
   85SAPS  H20T 8096   5.011   2.037   8.595  0.2270  0.4865 -1.2858
   85SAPS   C33 8097   4.501   1.510  10.571 -0.1339  0.2209 -0.7244
   85SAPS   H3X 8098   4.583   1.580  10.543 -0.0409  0.1840 -0.5455
   85SAPS   H3Y 8099   4.416   1.551  10.514 -0.5201  0.9529  0.3432
   85SAPS   C34 8100   4.521   1.361  10.541 -0.3278  0.2661 -0.2946
   85SAPS   H4X 8101   4.442   1.299  10.589  0.7319 -0.2313  0.8438
   85SAPS   H4Y 8102   4.619   1.324  10.576  0.8968  3.1920 -0.3662
   85SAPS   C35 8103   4.513   1.327  10.394 -0.0337  0.5595  0.1181
   85SAPS   H5X 8104   4.418   1.356  10.345  1.2098  1.3332 -1.9379
   85SAPS   H5Y 8105   4.506   1.216  10.384 -2.3070  0.6902 -0.4104
   85SAPS   C36 8106   4.628   1.386  10.315 -0.3586 -0.6804  0.1766
   85SAPS   H6X 8107   4.717   1.344  10.365 -0.3912  2.2730  3.0508
   85SAPS   H6Y 8108   4.643   1.492  10.344  3.2539 -1.2440  0.7739
   85SAPS   C37 8109   4.617   1.377  10.163  0.4177  0.5568 -0.5787
   85SAPS   H7X 8110   4.532   1.442  10.132  0.5583  1.2760  0.4579
   85SAPS   H7Y 8111   4.589   1.272  10.142  1.3762 -0.1380  1.3348
   85SAPS   C38 8112   4.737   1.401  10.076 -0.0924 -0.5342  0.0415
   85SAPS   H8X 8113   4.814   1.323  10.091  2.8780  1.8709 -1.4390
   85SAPS   H8Y 8114   4.793   1.495  10.097  1.4743 -1.6632  1.1407
   85SAPS   C39 8115   4.707   1.386   9.921  0.0083 -0.3050 -0.5715
   85SAPS   H9X 8116   4.653   1.291   9.898 -0.9743  0.3036 -0.8572
   85SAPS   H9Y 8117   4.800   1.380   9.860 -0.5793 -0.7377 -1.4528
   85SAPS  C310 8118   4.628   1.509   9.867  0.3780  0.7021  0.2121
   85SAPS  H10X 8119   4.663   1.603   9.915  4.3220 -0.2901 -0.3410
   85SAPS  H10Y 8120   4.522   1.498   9.897  1.1568 -0.8366  2.6475
   85SAPS  C311 8121   4.647   1.529   9.715  0.1579  0.0831  0.7577
   85SAPS  H11X 8122   4.750   1.529   9.676  0.2367  0.2901  0.9612
   85SAPS  H11Y 8123   4.575   1.603   9.675  1.4632  2.2417  2.1947
   85SAPS  C312 8124   4.589   1.397   9.647  0.0348  0.1118  0.5132
   85SAPS  H12X 8125   4.491   1.374   9.694  0.6219  1.0445  2.2679
   85SAPS  H12Y 8126   4.645   1.302   9.661  0.7910  0.6822  1.4866
   85SAPS  C313 8127   4.575   1.417   9.498  0.6575 -0.4151  0.1176
   85SAPS  H13X 8128   4.494   1.492   9.486  1.0462  0.0314  0.2522
   85SAPS  H13Y 8129   4.528   1.327   9.453 -1.1777  0.6898 -0.2929
   85SAPS  C314 8130   4.705   1.448   9.415  0.3176 -0.2394 -0.3457
   85SAPS  H14X 8131   4.780   1.369   9.437 -2.4011 -2.6073  1.1053
   85SAPS  H14Y 8132   4.753   1.545   9.440  0.5173 -0.0603 -1.3909
   85SAPS  C315 8133   4.685   1.429   9.265 -0.1149 -0.3857  0.2553
   85SAPS  H15X 8134   4.580   1.454   9.238  0.1550 -0.6171 -1.0434
   85SAPS  H15Y 8135   4.697   1.323   9.236 -0.0817 -0.5131  0.7285
   85SAPS  C316 8136   4.777   1.514   9.181 -0.3541 -0.2364  0.2590
   85SAPS  H16X 8137   4.882   1.489   9.205 -0.9329 -1.0944  2.1636
   85SAPS  H16Y 8138   4.756   1.618   9.215  0.4506 -0.4078  1.3248
   85SAPS  C317 8139   4.749   1.510   9.032 -0.4124 -0.0072  0.1053
   85SAPS  H17X 8140   4.799   1.598   8.987  1.7891 -0.8407  0.7483
   85SAPS  H17Y 8141   4.640   1.525   9.014 -0.9863 -1.3176  2.1784
   85SAPS  C318 8142   4.801   1.380   8.964  0.2548 -0.5219  0.1060
   85SAPS  H18X 8143   4.906   1.370   8.999  0.1232  1.9251  1.4540
   85SAPS  H18Y 8144   4.786   1.397   8.855  0.4072  0.5415  0.2350
   85SAPS  H18Z 8145   4.741   1.296   9.004 -1.0450 -0.4124 -1.5019
   86SAPS     N 8146   6.057   0.531  10.831 -0.6674 -0.5351 -0.2868
   86SAPS   HN1 8147   5.981   0.463  10.810 -2.6286  1.2004  0.8301
   86SAPS   HN2 8148   6.101   0.544  10.738 -0.6518 -3.1335 -0.7073
   86SAPS   HN3 8149   6.122   0.472  10.886 -0.7646 -1.4996 -1.1786
   86SAPS   C12 8150   6.003   0.656  10.894  0.4971 -0.1025 -0.2304
   86SAPS  H12A 8151   5.955   0.623  10.986  2.7561 -0.2397  0.9705
   86SAPS   C13 8152   6.125   0.747  10.934  0.4869 -0.7210  1.0521
   86SAPS  O13A 8153   6.237   0.701  10.929 -0.0291  0.0258 -0.1266
   86SAPS  O13B 8154   6.100   0.864  10.955 -0.1946  0.0531 -0.2313
   86SAPS   C11 8155   5.908   0.715  10.796  0.8365 -0.3777  0.4186
   86SAPS  H11A 8156   5.970   0.728  10.704 -0.7622  0.3013 -0.6222
   86SAPS  H11B 8157   5.868   0.816  10.821 -3.3732 -1.2913 -1.7336
   86SAPS     P 8158   5.658   0.630  10.840 -0.0313 -0.2097 -0.2895
   86SAPS   O13 8159   5.585   0.507  10.808 -0.2660  0.1296  0.1427
   86SAPS   O14 8160   5.674   0.657  10.986 -0.6019 -0.3200  0.5961
   86SAPS   O12 8161   5.803   0.617  10.780  0.1469 -0.0703 -0.0166
   86SAPS   O11 8162   5.591   0.755  10.772  0.8837  0.4372 -0.1755
   86SAPS    C1 8163   5.502   0.736  10.661  0.3085  0.0079 -0.1101
   86SAPS    HA 8164   5.450   0.638  10.660 -0.6725  0.5183 -0.0925
   86SAPS    HB 8165   5.424   0.814  10.677  0.5185 -0.1351  1.8505
   86SAPS    C2 8166   5.569   0.758  10.527  0.1840  0.1223 -0.4650
   86SAPS    HS 8167   5.491   0.768  10.448 -0.9211 -0.0329  0.5867
   86SAPS   O21 8168   5.655   0.643  10.500  0.2506 -0.0909 -0.5449
   86SAPS   C21 8169   5.591   0.524  10.469  0.4759 -0.6389 -0.3549
   86SAPS   O22 8170   5.474   0.521  10.437 -0.4400  0.2110  0.0412
   86SAPS   C22 8171   5.676   0.403  10.494  0.1131  0.6884  0.3377
   86SAPS   H2R 8172   5.666   0.369  10.599  0.1368 -2.2112 -0.4951
   86SAPS   H2S 8173   5.636   0.318  10.434  0.4279  1.4932 -1.0539
   86SAPS    C3 8174   5.664   0.878  10.541  0.6470 -0.3669 -0.3829
   86SAPS    HX 8175   5.730   0.875  10.630  1.1580  2.6516 -0.5410
   86SAPS    HY 8176   5.597   0.965  10.555  1.9364  0.5946  0.0117
   86SAPS   O31 8177   5.751   0.898  10.424 -0.5151  0.2016 -0.2199
   86SAPS   C31 8178   5.817   1.011  10.425  0.4804 -0.4913  0.2511
   86SAPS   O32 8179   5.805   1.103  10.506  0.2927  0.3284 -0.2456
   86SAPS   C32 8180   5.904   1.010  10.297 -0.2691  0.1148 -0.4839
   86SAPS   H2X 8181   5.838   1.036  10.212 -2.0997 -0.0816  0.8048
   86SAPS   H2Y 8182   5.926   0.902  10.283 -1.8042 -0.0948 -1.4921
   86SAPS   C23 8183   5.825   0.420  10.455 -0.3376  0.6454  0.1966
   86SAPS   H3R 8184   5.871   0.329  10.500 -4.0165 -2.9333 -2.5269
   86SAPS   H3S 8185   5.866   0.509  10.507  0.3179 -0.8885  2.5064
   86SAPS   C24 8186   5.848   0.406  10.303 -0.1836 -0.2698 -0.2576
   86SAPS   H4R 8187   5.786   0.319  10.271  0.5772 -1.3733  1.1520
   86SAPS   H4S 8188   5.958   0.391  10.295 -0.0250  1.2427 -1.4712
   86SAPS   C25 8189   5.809   0.541  10.243  0.4781 -0.6861  0.0667
   86SAPS   H5R 8190   5.843   0.623  10.308 -0.4027 -0.7162  0.5957
   86SAPS   C26 8191   5.750   0.565  10.125  0.0920 -0.5326 -0.2467
   86SAPS   H6R 8192   5.739   0.670  10.097 -1.7913 -0.0919  1.8819
   86SAPS   C27 8193   5.702   0.472  10.017 -0.1437  0.7975  0.0040
   86SAPS   H7R 8194   5.606   0.430  10.054  0.9081 -1.4752  0.3194
   86SAPS   H7S 8195   5.768   0.384  10.006  1.0014  1.5497  0.6721
   86SAPS   C28 8196   5.697   0.535   9.878  0.7424 -0.2588 -0.3735
   86SAPS   H8R 8197   5.596   0.568   9.850  1.1814 -1.7238 -4.2217
   86SAPS   C29 8198   5.784   0.547   9.779  0.0258 -0.2781  0.0759
   86SAPS   H9R 8199   5.757   0.602   9.688  1.7785 -0.3542 -0.5237
   86SAPS  C210 8200   5.929   0.512   9.770 -0.0068 -0.0226 -0.3145
   86SAPS  H10R 8201   5.986   0.536   9.863 -0.2562 -0.9786  0.1002
   86SAPS  H10S 8202   5.967   0.564   9.680 -1.1317  2.3816  0.4988
   86SAPS  C211 8203   5.956   0.366   9.738 -0.6387 -0.0948  0.7442
   86SAPS  H11R 8204   5.874   0.302   9.775 -1.6689  1.5727  1.4890
   86SAPS  C212 8205   6.051   0.312   9.665  0.6699  0.2278 -0.3925
   86SAPS  H12R 8206   6.055   0.205   9.641  0.4444 -0.1248  1.0617
   86SAPS  C213 8207   6.169   0.389   9.613  0.1680 -0.2949 -0.5525
   86SAPS  H13R 8208   6.184   0.477   9.680  0.7841 -1.0247  0.2836
   86SAPS  H13S 8209   6.149   0.428   9.511 -1.1964 -0.5425 -0.3890
   86SAPS  C214 8210   6.290   0.295   9.612  0.7276  0.6203  0.4654
   86SAPS  H14R 8211   6.263   0.218   9.539 -4.5260  2.3747  0.1756
   86SAPS  C215 8212   6.400   0.300   9.684  0.4521 -0.9295  0.5769
   86SAPS  H15R 8213   6.478   0.224   9.672 -0.6554 -2.1252  0.6804
   86SAPS  C216 8214   6.431   0.414   9.771 -0.2207 -1.2136  0.2862
   86SAPS  H16R 8215   6.407   0.512   9.725  0.9733 -0.3014  1.4999
   86SAPS  H16S 8216   6.542   0.421   9.777 -0.3159  2.6334 -0.1476
   86SAPS  C217 8217   6.373   0.408   9.911 -0.7135  0.3649  0.5892
   86SAPS  H17R 8218   6.436   0.345   9.978  0.5718 -0.3290 -1.1983
   86SAPS  H17S 8219   6.270   0.368   9.914 -0.3003 -0.6945  1.2979
   86SAPS  C218 8220   6.370   0.552   9.981  0.0895 -0.1304  0.3153
   86SAPS  H18R 8221   6.320   0.625   9.914 -0.8426  0.0487  1.1798
   86SAPS  H18S 8222   6.472   0.587  10.008 -1.0613  1.5547  2.9799
   86SAPS  C219 8223   6.298   0.545  10.113  0.3213 -0.0485 -0.3099
   86SAPS  H19R 8224   6.356   0.485  10.186  0.4353 -0.2530 -0.5680
   86SAPS  H19S 8225   6.201   0.494  10.098 -0.7898  2.2449 -1.4062
   86SAPS  C220 8226   6.282   0.687  10.176  0.2575  0.4226 -0.1885
   86SAPS  H20R 8227   6.242   0.696  10.279 -1.9973  2.3447 -1.1190
   86SAPS  H20S 8228   6.216   0.743  10.107 -0.2012 -1.1687 -1.0700
   86SAPS  H20T 8229   6.379   0.741  10.179  0.8309 -0.6094  0.2289
   86SAPS   C33 8230   6.041   1.084  10.309  0.2750  0.9566  0.2323
   86SAPS   H3X 8231   6.073   1.073  10.415 -1.8797 -0.1923  0.8240
   86SAPS   H3Y 8232   6.028   1.194  10.302 -1.8351  0.7298 -0.0001
   86SAPS   C34 8233   6.151   1.027  10.211  0.6844  0.0060 -0.4148
   86SAPS   H4X 8234   6.158   0.917  10.222  1.3655  0.1092  0.2209
   86SAPS   H4Y 8235   6.247   1.071  10.246  1.1747 -0.1063 -1.5662
   86SAPS   C35 8236   6.130   1.066  10.064 -0.3414 -0.3657 -0.5236
   86SAPS   H5X 8237   6.222   1.086  10.005  1.2015 -2.5181  0.9874
   86SAPS   H5Y 8238   6.065   1.156  10.065 -0.7329 -0.6477  0.1225
   86SAPS   C36 8239   6.061   0.959   9.979  0.2457  0.2894  0.0915
   86SAPS   H6X 8240   5.976   0.915  10.035  0.1641  0.3434  0.0114
   86SAPS   H6Y 8241   6.127   0.874   9.953  2.0883  1.1232  1.7816
   86SAPS   C37 8242   6.004   1.019   9.847 -0.1960 -0.5035  0.3247
   86SAPS   H7X 8243   6.083   1.076   9.793 -2.9396  1.8048 -1.6245
   86SAPS   H7Y 8244   5.928   1.098   9.866  0.4473  0.0664  0.5555
   86SAPS   C38 8245   5.946   0.900   9.762  0.1032 -0.5672  0.3695
   86SAPS   H8X 8246   5.868   0.853   9.825  0.5575 -0.5967  0.9123
   86SAPS   H8Y 8247   6.033   0.832   9.750  2.0989  1.9700 -0.4284
   86SAPS   C39 8248   5.892   0.951   9.624 -0.2980 -0.4947  1.3911
   86SAPS   H9X 8249   5.821   1.033   9.643 -1.7063 -0.9911 -1.3225
   86SAPS   H9Y 8250   5.838   0.869   9.573 -0.5504  0.2309  0.4771
   86SAPS  C310 8251   5.994   1.001   9.519 -0.4593 -0.3446  0.8373
   86SAPS  H10X 8252   6.077   0.927   9.514  0.1335  0.3579  0.0935
   86SAPS  H10Y 8253   6.034   1.095   9.563  0.3762  0.4432 -1.4476
   86SAPS  C311 8254   5.946   1.014   9.372 -0.1762  0.1782  0.5077
   86SAPS  H11X 8255   5.870   1.095   9.369  2.0670  2.4008 -1.1752
   86SAPS  H11Y 8256   5.888   0.922   9.348 -0.5751  0.2113  1.3197
   86SAPS  C312 8257   6.057   1.051   9.265 -0.1782  0.1172  0.3740
   86SAPS  H12X 8258   6.128   0.965   9.266  0.0634  0.2358 -1.9146
   86SAPS  H12Y 8259   6.105   1.151   9.274 -0.6522  0.4364 -0.4921
   86SAPS  C313 8260   6.005   1.055   9.116  0.4128 -0.2205 -0.3983
   86SAPS  H13X 8261   5.953   1.153   9.121  3.9221  1.7386  2.5470
   86SAPS  H13Y 8262   5.934   0.970   9.103  2.5053 -2.3644  1.2680
   86SAPS  C314 8263   6.106   1.055   9.000  1.1596 -0.2485 -0.1362
   86SAPS  H14X 8264   6.147   0.951   9.001  0.0759 -0.6954  1.5606
   86SAPS  H14Y 8265   6.189   1.125   9.023  2.4226 -0.9549 -2.2593
   86SAPS  C315 8266   6.043   1.085   8.864 -0.3589 -0.2923  0.2676
   86SAPS  H15X 8267   6.123   1.097   8.788 -0.0897 -1.2501  0.3878
   86SAPS  H15Y 8268   5.991   1.183   8.864  0.3156  0.0749  0.7182
   86SAPS  C316 8269   5.961   0.963   8.815 -0.6508 -0.8061 -0.8210
   86SAPS  H16X 8270   5.900   0.930   8.902  0.6052  0.8036  0.7381
   86SAPS  H16Y 8271   6.041   0.890   8.795  1.1844  0.9129 -0.0897
   86SAPS  C317 8272   5.889   0.992   8.689  0.1844 -0.1429 -0.2822
   86SAPS  H17X 8273   5.951   0.975   8.598 -1.2749 -2.1356 -0.9908
   86SAPS  H17Y 8274   5.863   1.099   8.678  1.1671 -0.0234 -1.6661
   86SAPS  C318 8275   5.758   0.912   8.672  0.2093  0.3787  0.2360
   86SAPS  H18X 8276   5.708   0.939   8.577 -1.4452  1.3930  1.3408
   86SAPS  H18Y 8277   5.680   0.932   8.749  0.5225  0.7153  0.4698
   86SAPS  H18Z 8278   5.775   0.802   8.669  1.1610  0.5400 -1.2385
   87SAPS     N 8279   0.236   1.084  10.737 -0.5026  0.2287  0.4975
   87SAPS   HN1 8280   0.292   1.010  10.689 -0.0016 -0.3613  1.9373
   87SAPS   HN2 8281   0.288   1.172  10.718  0.6995 -0.8582 -1.6073
   87SAPS   HN3 8282   0.227   1.060  10.838 -6.0787 -0.4962  0.1117
   87SAPS   C12 8283   0.098   1.088  10.680 -0.8742 -0.2549 -0.5730
   87SAPS  H12A 8284   0.091   1.070  10.574  0.8634 -0.4291 -0.6933
   87SAPS   C13 8285   0.016   0.971  10.741  0.8207 -0.0354 -0.0244
   87SAPS  O13A 8286   0.075   0.891  10.815  0.8412 -0.0647 -0.1355
   87SAPS  O13B 8287  -0.101   0.963  10.693  0.0873  0.8636  0.1300
   87SAPS   C11 8288   0.023   1.220  10.716  0.5706  0.6282 -0.0345
   87SAPS  H11A 8289  -0.085   1.209  10.691  0.4042 -0.1867  0.9898
   87SAPS  H11B 8290   0.063   1.291  10.640  2.8056  1.3627  1.7246
   87SAPS     P 8291  -0.057   1.352  10.923 -0.0795 -0.4178 -0.2814
   87SAPS   O13 8292  -0.120   1.265  11.018  0.5984 -0.2400  0.1217
   87SAPS   O14 8293   0.007   1.468  10.984  0.2837  0.0083  0.3000
   87SAPS   O12 8294   0.056   1.274  10.847 -0.6369 -0.1692 -0.6219
   87SAPS   O11 8295  -0.157   1.395  10.816 -0.4983 -0.3226  0.1848
   87SAPS    C1 8296  -0.153   1.528  10.759  0.6339 -0.0320  0.1465
   87SAPS    HA 8297  -0.187   1.597  10.839 -1.3649  1.8280 -2.1443
   87SAPS    HB 8298  -0.052   1.561  10.726  0.6965 -0.0838  0.2898
   87SAPS    C2 8299  -0.248   1.566  10.641  0.7937  0.3655  0.6099
   87SAPS    HS 8300  -0.351   1.553  10.681  0.5544  0.1666 -0.0686
   87SAPS   O21 8301  -0.225   1.481  10.525  0.1619 -0.4041  0.2380
   87SAPS   C21 8302  -0.275   1.357  10.527 -0.1185  0.1519 -0.3788
   87SAPS   O22 8303  -0.354   1.312  10.607 -0.0235 -0.0532  0.0415
   87SAPS   C22 8304  -0.198   1.274  10.424  0.3680 -0.0405  0.3474
   87SAPS   H2R 8305  -0.138   1.341  10.359  0.0946  1.1304  1.2754
   87SAPS   H2S 8306  -0.136   1.204  10.485  0.4859 -0.0728  0.1910
   87SAPS    C3 8307  -0.222   1.715  10.603  0.3741  0.0829 -0.0400
   87SAPS    HX 8308  -0.112   1.726  10.591  0.3465  0.2761 -0.1277
   87SAPS    HY 8309  -0.245   1.760  10.702 -1.7980  1.7576 -1.2140
   87SAPS   O31 8310  -0.306   1.760  10.497  0.3717 -0.2809  0.1428
   87SAPS   C31 8311  -0.297   1.892  10.486 -0.4073 -0.1959 -0.4233
   87SAPS   O32 8312  -0.213   1.962  10.543 -0.0575 -0.5321  0.1305
   87SAPS   C32 8313  -0.406   1.939  10.403 -0.1982  0.9635 -0.3246
   87SAPS   H2X 8314  -0.511   1.933  10.440 -0.5182  1.5387 -1.1242
   87SAPS   H2Y 8315  -0.418   1.882  10.309 -3.2717 -1.3793  1.3057
   87SAPS   C23 8316  -0.297   1.181  10.340 -0.2417 -0.3177 -0.2403
   87SAPS   H3R 8317  -0.380   1.233  10.287 -2.5109 -3.0497  0.3554
   87SAPS   H3S 8318  -0.358   1.134  10.420 -0.7837  1.5421  0.4877
   87SAPS   C24 8319  -0.231   1.091  10.240  0.3631 -0.2323  0.7456
   87SAPS   H4R 8320  -0.313   1.019  10.221  0.6527 -0.6392  1.0287
   87SAPS   H4S 8321  -0.142   1.039  10.282  1.0518  2.0439  2.3128
   87SAPS   C25 8322  -0.192   1.164  10.112  0.0796  0.2100  0.4919
   87SAPS   H5R 8323  -0.121   1.246  10.131  0.1904 -0.0562  1.2520
   87SAPS   C26 8324  -0.220   1.122   9.984 -0.1178 -0.4392 -0.5634
   87SAPS   H6R 8325  -0.188   1.189   9.902 -1.6575  0.3102 -0.5884
   87SAPS   C27 8326  -0.305   1.001   9.947 -0.2579 -0.8465  0.5616
   87SAPS   H7R 8327  -0.382   1.030   9.871  1.0690 -0.7964 -0.8142
   87SAPS   H7S 8328  -0.367   0.968  10.033  0.4827 -0.1330  1.3817
   87SAPS   C28 8329  -0.228   0.883   9.889  0.4195  0.0731 -0.2599
   87SAPS   H8R 8330  -0.152   0.833   9.951  1.0110  0.1363 -0.9223
   87SAPS   C29 8331  -0.244   0.831   9.763 -0.3533  1.6831  0.3354
   87SAPS   H9R 8332  -0.194   0.736   9.738 -1.6133  1.6301 -2.2049
   87SAPS  C210 8333  -0.338   0.871   9.651 -0.0021  0.5902  0.0825
   87SAPS  H10R 8334  -0.348   0.979   9.671  2.1486  0.8323  0.1048
   87SAPS  H10S 8335  -0.439   0.826   9.658 -1.1960  3.0899 -0.2871
   87SAPS  C211 8336  -0.275   0.858   9.509 -0.2717 -0.1178 -0.2906
   87SAPS  H11R 8337  -0.177   0.908   9.507 -0.5953  0.5115 -0.9299
   87SAPS  C212 8338  -0.324   0.796   9.406 -0.1584 -0.0865  0.0737
   87SAPS  H12R 8339  -0.277   0.817   9.309  4.0230 -2.4553  1.3397
   87SAPS  C213 8340  -0.458   0.729   9.406  0.5185 -0.5596 -0.0283
   87SAPS  H13R 8341  -0.540   0.803   9.393  1.3993  0.2160 -1.4755
   87SAPS  H13S 8342  -0.475   0.689   9.508 -0.3161  1.1377  0.5431
   87SAPS  C214 8343  -0.458   0.614   9.313 -0.6120  0.3776  0.1652
   87SAPS  H14R 8344  -0.372   0.545   9.316 -0.0528  1.0464 -0.1863
   87SAPS  C215 8345  -0.550   0.594   9.216 -0.7122 -0.1267  0.0759
   87SAPS  H15R 8346  -0.530   0.507   9.151  1.2665  0.5065 -0.2591
   87SAPS  C216 8347  -0.665   0.682   9.167 -0.1633 -0.0999 -0.4340
   87SAPS  H16R 8348  -0.658   0.678   9.056  1.9462 -0.3808 -0.3425
   87SAPS  H16S 8349  -0.644   0.790   9.177 -0.1247 -0.0623 -0.8781
   87SAPS  C217 8350  -0.801   0.636   9.223 -0.4591 -0.5391  0.6400
   87SAPS  H17R 8351  -0.879   0.706   9.187 -0.2599 -0.3392  0.5901
   87SAPS  H17S 8352  -0.790   0.653   9.332 -1.7652  1.1046  0.5435
   87SAPS  C218 8353  -0.823   0.484   9.205  0.8202 -0.3311  0.2997
   87SAPS  H18R 8354  -0.742   0.424   9.250  1.6059  0.2055 -0.3765
   87SAPS  H18S 8355  -0.821   0.450   9.099 -0.4773 -0.3918  0.2810
   87SAPS  C219 8356  -0.957   0.436   9.259 -0.4329  0.2508 -0.0781
   87SAPS  H19R 8357  -0.960   0.326   9.250  0.3943  0.1482  0.7475
   87SAPS  H19S 8358  -1.035   0.488   9.200  1.6772  3.7456 -0.1069
   87SAPS  C220 8359  -0.988   0.461   9.404  0.5664 -0.0858  0.2222
   87SAPS  H20R 8360  -1.031   0.563   9.403 -3.8274 -1.6083  2.7743
   87SAPS  H20S 8361  -0.893   0.461   9.462 -0.6307 -0.3740  2.2985
   87SAPS  H20T 8362  -1.061   0.395   9.455 -1.3339  1.9478  0.2642
   87SAPS   C33 8363  -0.389   2.090  10.384 -0.2481 -0.0580 -0.8511
   87SAPS   H3X 8364  -0.286   2.102  10.344 -0.8292 -1.5416 -2.9560
   87SAPS   H3Y 8365  -0.400   2.152  10.476 -0.0574  0.3102 -1.0754
   87SAPS   C34 8366  -0.478   2.144  10.271  0.1597  0.1132 -1.2017
   87SAPS   H4X 8367  -0.576   2.093  10.276 -0.3289  1.1033  0.0698
   87SAPS   H4Y 8368  -0.432   2.106  10.177 -0.0785 -3.6252  0.0340
   87SAPS   C35 8369  -0.494   2.297  10.272 -0.1926  0.6873 -0.1226
   87SAPS   H5X 8370  -0.398   2.352  10.267 -0.2421  0.8495  0.5458
   87SAPS   H5Y 8371  -0.547   2.311  10.369 -1.1022 -2.8417  0.0471
   87SAPS   C36 8372  -0.590   2.353  10.168  0.5864  0.2431  0.0746
   87SAPS   H6X 8373  -0.600   2.461  10.190 -1.1637 -0.0830  1.0462
   87SAPS   H6Y 8374  -0.691   2.308  10.177  0.5294  0.6157  1.4313
   87SAPS   C37 8375  -0.538   2.337  10.024  0.4016 -0.7247  0.6067
   87SAPS   H7X 8376  -0.512   2.232   9.998 -0.5659 -0.9006  0.3159
   87SAPS   H7Y 8377  -0.453   2.404  10.001 -1.0970  1.4301  1.0612
   87SAPS   C38 8378  -0.654   2.372   9.932  0.1346  0.2176 -0.5379
   87SAPS   H8X 8379  -0.701   2.462   9.976 -1.7339 -0.4638 -1.0667
   87SAPS   H8Y 8380  -0.739   2.301   9.940 -1.3578  1.9936 -0.1197
   87SAPS   C39 8381  -0.614   2.390   9.786  0.2066  0.1253 -0.6706
   87SAPS   H9X 8382  -0.568   2.298   9.743  2.3883  1.0306 -0.3890
   87SAPS   H9Y 8383  -0.536   2.469   9.785 -0.8327  1.1856 -1.8382
   87SAPS  C310 8384  -0.728   2.433   9.690  0.4280  0.1107  0.2904
   87SAPS  H10X 8385  -0.754   2.534   9.727 -2.4661 -0.6458  0.6302
   87SAPS  H10Y 8386  -0.823   2.376   9.681  0.5032  0.0714 -0.2814
   87SAPS  C311 8387  -0.667   2.445   9.548  0.6796 -0.0513 -0.2764
   87SAPS  H11X 8388  -0.608   2.354   9.523  0.5459  0.0736 -1.0869
   87SAPS  H11Y 8389  -0.607   2.538   9.552  1.2117 -0.3047 -1.6999
   87SAPS  C312 8390  -0.783   2.458   9.442 -0.6106  0.0699 -0.2641
   87SAPS  H12X 8391  -0.858   2.533   9.474 -1.4195  0.9444 -3.8347
   87SAPS  H12Y 8392  -0.835   2.360   9.437 -0.3768 -0.0365 -0.6234
   87SAPS  C313 8393  -0.734   2.479   9.294 -0.4586 -0.1791  0.1244
   87SAPS  H13X 8394  -0.699   2.383   9.250 -0.2928  0.9190 -2.3039
   87SAPS  H13Y 8395  -0.650   2.552   9.289  0.5108 -1.1981  1.1316
   87SAPS  C314 8396  -0.849   2.518   9.191 -0.3287 -0.5061  0.9290
   87SAPS  H14X 8397  -0.917   2.588   9.244  0.3429  0.5580  0.4303
   87SAPS  H14Y 8398  -0.909   2.426   9.178 -2.5175  1.1266 -1.2861
   87SAPS  C315 8399  -0.802   2.571   9.056  0.1308 -0.2966 -0.0448
   87SAPS  H15X 8400  -0.718   2.518   9.005  1.0444  0.4179  0.6676
   87SAPS  H15Y 8401  -0.760   2.674   9.063 -0.5671 -0.0731  0.9491
   87SAPS  C316 8402  -0.927   2.562   8.965  0.1653  0.3228  0.1951
   87SAPS  H16X 8403  -1.017   2.585   9.026  1.2912  3.6020  0.8099
   87SAPS  H16Y 8404  -0.945   2.456   8.937 -0.6435  0.1155  1.4418
   87SAPS  C317 8405  -0.909   2.655   8.838 -0.1037  1.0043  0.0760
   87SAPS  H17X 8406  -0.806   2.645   8.797 -0.0978  3.4825 -0.7190
   87SAPS  H17Y 8407  -0.912   2.760   8.874 -2.6577  0.9304  0.2445
   87SAPS  C318 8408  -1.011   2.631   8.731  0.9988  0.3062  0.0602
   87SAPS  H18X 8409  -0.989   2.709   8.654 -0.6886 -0.6892 -1.5145
   87SAPS  H18Y 8410  -1.116   2.637   8.766  0.1971 -0.0526 -2.1011
   87SAPS  H18Z 8411  -1.015   2.526   8.696  0.1649 -0.8791  3.4025
   88SAPS     N 8412   2.216   0.071  11.173  0.0512  0.5686  0.0511
   88SAPS   HN1 8413   2.226   0.134  11.254 -0.1606  1.4214 -0.5776
   88SAPS   HN2 8414   2.141  -0.001  11.182  0.9310 -0.3705  0.0351
   88SAPS   HN3 8415   2.307   0.024  11.157 -0.4398 -0.6285  0.5872
   88SAPS   C12 8416   2.190   0.140  11.044  0.2300  0.5407 -0.0205
   88SAPS  H12A 8417   2.084   0.153  11.026 -0.0413 -0.3068  0.8694
   88SAPS   C13 8418   2.248   0.281  11.040  0.1514 -0.8723 -0.6585
   88SAPS  O13A 8419   2.319   0.323  11.134  0.0737 -0.2287 -0.4138
   88SAPS  O13B 8420   2.241   0.336  10.926  0.0155 -0.0185 -0.4344
   88SAPS   C11 8421   2.261   0.067  10.925  0.1523 -0.1892 -0.4234
   88SAPS  H11A 8422   2.369   0.095  10.917 -0.4346  1.8500 -2.2489
   88SAPS  H11B 8423   2.218   0.106  10.830  0.4859  0.6396 -0.2439
   88SAPS     P 8424   2.274  -0.163  10.800  0.0697  0.0441 -0.6573
   88SAPS   O13 8425   2.297  -0.297  10.855  0.6138  0.5130  0.1154
   88SAPS   O14 8426   2.161  -0.138  10.702 -0.0896  0.1955  0.2532
   88SAPS   O12 8427   2.236  -0.076  10.931  0.3184  0.0008  0.5941
   88SAPS   O11 8428   2.404  -0.097  10.754 -0.0427 -0.5721 -0.3010
   88SAPS    C1 8429   2.518  -0.182  10.711 -0.5134  0.0536 -0.2241
   88SAPS    HA 8430   2.603  -0.142  10.769 -1.5379  0.7985  0.8012
   88SAPS    HB 8431   2.507  -0.287  10.745  0.8063  0.0563  0.2382
   88SAPS    C2 8432   2.542  -0.206  10.560 -0.8799 -0.6193 -1.1271
   88SAPS    HS 8433   2.592  -0.111  10.531  0.2952 -1.0316 -0.5472
   88SAPS   O21 8434   2.415  -0.232  10.509 -0.5062  0.0455  0.0395
   88SAPS   C21 8435   2.384  -0.160  10.412  0.1581  0.2868  0.1712
   88SAPS   O22 8436   2.455  -0.077  10.356  0.1859 -0.7188  0.1085
   88SAPS   C22 8437   2.245  -0.203  10.366 -0.0934 -0.2268  0.0006
   88SAPS   H2R 8438   2.199  -0.286  10.424 -0.6355 -0.6748 -1.0387
   88SAPS   H2S 8439   2.169  -0.124  10.386 -1.6027 -1.1468 -1.7869
   88SAPS    C3 8440   2.645  -0.323  10.544  0.0554 -0.2623  0.2080
   88SAPS    HX 8441   2.609  -0.410  10.603 -1.9164  0.0323 -0.4788
   88SAPS    HY 8442   2.740  -0.286  10.588  0.1832  1.8006 -1.6389
   88SAPS   O31 8443   2.672  -0.357  10.410 -0.9989  0.4757 -0.5141
   88SAPS   C31 8444   2.739  -0.280  10.334 -0.0168  0.1519 -0.7920
   88SAPS   O32 8445   2.783  -0.166  10.361 -0.0919  0.1039 -0.2352
   88SAPS   C32 8446   2.755  -0.355  10.196 -0.0813  0.4922  0.0213
   88SAPS   H2X 8447   2.664  -0.322  10.143  0.7490  1.7955 -0.6300
   88SAPS   H2Y 8448   2.750  -0.466  10.207 -0.9036  0.4914 -0.3198
   88SAPS   C23 8449   2.237  -0.225  10.211 -1.0720 -0.3441  0.0795
   88SAPS   H3R 8450   2.306  -0.310  10.191  1.3544  1.5840 -0.3458
   88SAPS   H3S 8451   2.269  -0.138  10.150 -2.5014 -1.6049 -2.6744
   88SAPS   C24 8452   2.095  -0.255  10.162  0.4335 -0.2075 -0.8407
   88SAPS   H4R 8453   2.040  -0.159  10.168 -1.5640 -1.1290 -3.0148
   88SAPS   H4S 8454   2.055  -0.324  10.239  0.7898 -0.6620 -1.0520
   88SAPS   C25 8455   2.101  -0.322  10.027 -0.4257  0.3367 -0.3325
   88SAPS   H5R 8456   2.154  -0.419  10.027  0.9764  1.0619  0.7538
   88SAPS   C26 8457   2.048  -0.270   9.908  0.1863  0.5500  0.5244
   88SAPS   H6R 8458   2.050  -0.334   9.819 -0.3288  0.7228  0.3851
   88SAPS   C27 8459   1.963  -0.147   9.899  0.6603 -0.2624  0.1842
   88SAPS   H7R 8460   2.036  -0.063   9.906  1.1647 -0.8407  2.9899
   88SAPS   H7S 8461   1.906  -0.136   9.993 -0.4099  0.2095 -0.5067
   88SAPS   C28 8462   1.878  -0.130   9.779 -0.4029  0.5536  0.1496
   88SAPS   H8R 8463   1.781  -0.086   9.806  0.0345  1.5182  0.2316
   88SAPS   C29 8464   1.911  -0.121   9.649 -0.4787  0.5206  0.0380
   88SAPS   H9R 8465   1.830  -0.109   9.576 -1.4705  0.4492  1.1089
   88SAPS  C210 8466   2.049  -0.143   9.589  0.7104 -0.8394  0.0169
   88SAPS  H10R 8467   2.060  -0.252   9.574  1.2871 -0.9997  1.4467
   88SAPS  H10S 8468   2.135  -0.117   9.654  0.5013 -0.3407  0.1011
   88SAPS  C211 8469   2.057  -0.061   9.461  0.1372  0.1548 -0.0721
   88SAPS  H11R 8470   2.065   0.048   9.478  3.1657  0.2061 -1.2710
   88SAPS  C212 8471   2.043  -0.096   9.326  0.4740  0.5363 -0.4016
   88SAPS  H12R 8472   2.055  -0.014   9.253 -0.7555  0.4907 -0.6704
   88SAPS  C213 8473   2.022  -0.239   9.273  0.0810  0.1782  0.2957
   88SAPS  H13R 8474   1.927  -0.226   9.218 -1.0255  0.8089  2.2508
   88SAPS  H13S 8475   1.987  -0.308   9.353 -0.0665  0.3022  0.3381
   88SAPS  C214 8476   2.129  -0.300   9.189  0.1590 -0.2928  0.7267
   88SAPS  H14R 8477   2.220  -0.320   9.247  0.9682  0.1152 -0.3669
   88SAPS  C215 8478   2.129  -0.326   9.059  0.2382  0.0686  0.1832
   88SAPS  H15R 8479   2.215  -0.361   9.000  1.4974  0.9222  1.4432
   88SAPS  C216 8480   2.009  -0.301   8.975  0.2283  0.2089 -0.3488
   88SAPS  H16R 8481   1.942  -0.225   9.020 -0.7487  0.2401 -1.7721
   88SAPS  H16S 8482   1.954  -0.396   8.957 -0.6968  0.1498  2.3141
   88SAPS  C217 8483   2.049  -0.257   8.833  0.8677 -0.3517  0.6075
   88SAPS  H17R 8484   2.119  -0.330   8.787 -1.1638 -0.9893 -1.6819
   88SAPS  H17S 8485   2.097  -0.157   8.846 -1.5842  0.8145  1.3332
   88SAPS  C218 8486   1.935  -0.249   8.738  0.3019 -0.2730 -0.3286
   88SAPS  H18R 8487   1.968  -0.173   8.664  0.4467 -0.7878 -0.7993
   88SAPS  H18S 8488   1.859  -0.208   8.808  0.5849 -0.0316 -0.1598
   88SAPS  C219 8489   1.899  -0.376   8.676  0.1429  0.5822  0.1504
   88SAPS  H19R 8490   1.867  -0.444   8.757 -0.3555 -0.8203 -1.1802
   88SAPS  H19S 8491   1.999  -0.394   8.630 -0.0235 -0.0083  0.0177
   88SAPS  C220 8492   1.799  -0.374   8.562 -0.3674 -0.1404  0.6589
   88SAPS  H20R 8493   1.796  -0.468   8.503 -0.2568 -0.1712  0.7005
   88SAPS  H20S 8494   1.831  -0.303   8.482  1.5142 -1.8129 -0.1595
   88SAPS  H20T 8495   1.698  -0.345   8.598  0.3317  3.2022  0.2305
   88SAPS   C33 8496   2.886  -0.304  10.132 -0.2415  0.1969  0.4399
   88SAPS   H3X 8497   2.976  -0.348  10.180  1.5500  0.7677 -2.2123
   88SAPS   H3Y 8498   2.907  -0.196  10.147  1.1298 -0.1596  1.3233
   88SAPS   C34 8499   2.897  -0.342   9.978  0.2691 -0.1324  0.4509
   88SAPS   H4X 8500   3.004  -0.365   9.957  0.1638 -0.9122  0.7187
   88SAPS   H4Y 8501   2.867  -0.256   9.915  0.3011  0.6190  1.4397
   88SAPS   C35 8502   2.821  -0.472   9.932 -0.5883 -0.4284  0.3964
   88SAPS   H5X 8503   2.714  -0.454   9.955 -0.3975 -0.2920  1.2481
   88SAPS   H5Y 8504   2.855  -0.544  10.010 -1.5018 -0.0789  1.1358
   88SAPS   C36 8505   2.844  -0.497   9.779 -0.1862  0.3210  0.0478
   88SAPS   H6X 8506   2.952  -0.508   9.755 -0.5905 -0.2959 -1.6349
   88SAPS   H6Y 8507   2.802  -0.419   9.713  0.5664  0.0411 -0.7734
   88SAPS   C37 8508   2.782  -0.627   9.710  0.5021 -0.6350  0.6931
   88SAPS   H7X 8509   2.677  -0.635   9.746  0.4528 -2.5083  0.2319
   88SAPS   H7Y 8510   2.839  -0.717   9.740  0.7522 -0.2164  1.4764
   88SAPS   C38 8511   2.788  -0.599   9.559  0.0447  0.3556 -0.0413
   88SAPS   H8X 8512   2.889  -0.572   9.521 -0.5299  0.4771 -1.5225
   88SAPS   H8Y 8513   2.723  -0.513   9.534 -1.4809 -0.6410  0.3358
   88SAPS   C39 8514   2.741  -0.706   9.469  0.7915 -0.6672  0.0974
   88SAPS   H9X 8515   2.632  -0.717   9.491 -0.0316  2.9528 -1.4649
   88SAPS   H9Y 8516   2.794  -0.801   9.491  1.4473  0.0688  1.8491
   88SAPS  C310 8517   2.754  -0.693   9.319 -0.3650  0.2013  0.0238
   88SAPS  H10X 8518   2.861  -0.668   9.304 -0.0885  0.2157  1.8235
   88SAPS  H10Y 8519   2.692  -0.608   9.285 -0.7223  0.4984  1.3567
   88SAPS  C311 8520   2.713  -0.822   9.248  0.9431  0.7185 -0.2832
   88SAPS  H11X 8521   2.602  -0.814   9.249  0.7658 -1.4177  0.5202
   88SAPS  H11Y 8522   2.748  -0.907   9.310  0.3758  1.0288  0.4780
   88SAPS  C312 8523   2.759  -0.846   9.102  0.0532  0.0153 -0.2401
   88SAPS  H12X 8524   2.715  -0.939   9.059  1.5010 -1.1753  0.7714
   88SAPS  H12Y 8525   2.868  -0.863   9.112 -0.1145 -0.3806  1.1347
   88SAPS  C313 8526   2.718  -0.728   9.012  0.0976  0.0798  0.5747
   88SAPS  H13X 8527   2.629  -0.685   9.063 -0.2593 -1.8139  1.6104
   88SAPS  H13Y 8528   2.694  -0.760   8.908 -2.1450 -0.0774  1.0873
   88SAPS  C314 8529   2.824  -0.615   9.003  0.6362 -0.0109 -0.5467
   88SAPS  H14X 8530   2.915  -0.664   8.964  1.1983 -0.7144  1.5109
   88SAPS  H14Y 8531   2.855  -0.571   9.100 -0.0918 -1.4959  0.3946
   88SAPS  C315 8532   2.776  -0.504   8.915 -0.4616  0.0933  0.6906
   88SAPS  H15X 8533   2.699  -0.454   8.977  1.0813  0.8304  2.0723
   88SAPS  H15Y 8534   2.739  -0.530   8.813  2.8234  0.7212 -0.7621
   88SAPS  C316 8535   2.886  -0.397   8.885  0.3116 -0.2929 -0.1169
   88SAPS  H16X 8536   2.949  -0.387   8.976  0.2781 -1.4887  0.0484
   88SAPS  H16Y 8537   2.835  -0.299   8.870  0.8841  0.0305  0.0243
   88SAPS  C317 8538   2.967  -0.433   8.761 -0.0601 -0.5868  0.0575
   88SAPS  H17X 8539   2.958  -0.542   8.744 -3.4873 -0.5558  0.9116
   88SAPS  H17Y 8540   3.071  -0.419   8.797 -0.9465  4.2088  1.3963
   88SAPS  C318 8541   2.942  -0.346   8.630 -0.6030  0.1146  0.8013
   88SAPS  H18X 8542   2.844  -0.371   8.584  0.5561 -0.6383 -1.4565
   88SAPS  H18Y 8543   3.024  -0.359   8.556 -0.6853 -0.3312  0.7826
   88SAPS  H18Z 8544   2.936  -0.239   8.657  2.1486  0.6744 -0.3779
   89SAPS     N 8545   0.814   2.328  10.650  0.2271  0.1435 -0.0549
   89SAPS   HN1 8546   0.841   2.275  10.565  1.1685 -3.1952  2.0971
   89SAPS   HN2 8547   0.714   2.354  10.651  0.2081  0.1183 -1.1032
   89SAPS   HN3 8548   0.872   2.414  10.652  0.6731 -0.1389 -0.6241
   89SAPS   C12 8549   0.840   2.237  10.763  0.3644 -0.0122  1.0699
   89SAPS  H12A 8550   0.873   2.289  10.851 -0.4314 -0.8674  1.8904
   89SAPS   C13 8551   0.708   2.154  10.810 -0.0569 -0.1242  0.3104
   89SAPS  O13A 8552   0.600   2.170  10.749 -0.2086 -0.7936 -0.1977
   89SAPS  O13B 8553   0.718   2.073  10.904  0.3050 -0.1430  0.9002
   89SAPS   C11 8554   0.943   2.130  10.712 -0.4020 -0.2411 -0.7311
   89SAPS  H11A 8555   0.909   2.074  10.623 -0.3769 -0.1713 -0.7842
   89SAPS  H11B 8556   0.955   2.050  10.788  0.6518  1.5020  1.0523
   89SAPS     P 8557   1.211   2.129  10.698 -0.3048  0.3377  0.4713
   89SAPS   O13 8558   1.280   2.240  10.763 -0.4728 -0.5023  0.5386
   89SAPS   O14 8559   1.204   2.004  10.774 -0.8105  0.4375  0.4476
   89SAPS   O12 8560   1.067   2.187  10.675 -0.0613  0.5445  0.3381
   89SAPS   O11 8561   1.261   2.109  10.552  0.1430  0.0983  0.0212
   89SAPS    C1 8562   1.231   2.211  10.458 -0.1453 -0.6618 -0.4274
   89SAPS    HA 8563   1.169   2.170  10.375  1.2663 -0.9304 -1.3774
   89SAPS    HB 8564   1.198   2.308  10.500  1.7675 -0.6693  1.2281
   89SAPS    C2 8565   1.356   2.265  10.378 -0.0610 -0.2562  0.5115
   89SAPS    HS 8566   1.316   2.345  10.311 -0.1768 -0.1544  0.7004
   89SAPS   O21 8567   1.416   2.151  10.312 -0.0228 -1.0307 -0.4282
   89SAPS   C21 8568   1.395   2.141  10.176  0.2270  0.0987 -0.4404
   89SAPS   O22 8569   1.326   2.216  10.113 -0.1461  0.2082 -0.0748
   89SAPS   C22 8570   1.485   2.025  10.120  0.0607  0.5636  0.1305
   89SAPS   H2R 8571   1.586   2.022  10.167 -0.0030 -1.0949  0.2258
   89SAPS   H2S 8572   1.440   1.931  10.161  1.0621  0.5149  1.1613
   89SAPS    C3 8573   1.452   2.342  10.473  0.4221 -0.4154  0.2237
   89SAPS    HX 8574   1.481   2.267  10.549 -1.9005 -0.6519  0.9551
   89SAPS    HY 8575   1.389   2.423  10.516  0.3698 -0.5619  0.4205
   89SAPS   O31 8576   1.565   2.393  10.407 -1.1689 -0.3938  0.5158
   89SAPS   C31 8577   1.550   2.504  10.333  0.2682 -0.6630 -0.2329
   89SAPS   O32 8578   1.447   2.568  10.329 -0.5565  0.1301 -0.3193
   89SAPS   C32 8579   1.690   2.540  10.286 -0.1635 -0.0231  0.1921
   89SAPS   H2X 8580   1.761   2.569  10.367 -0.3897  1.6717 -0.1599
   89SAPS   H2Y 8581   1.663   2.631  10.227 -1.0556  0.9087  1.9462
   89SAPS   C23 8582   1.492   2.017   9.967  0.6301  0.2233 -0.8854
   89SAPS   H3R 8583   1.572   1.946   9.935  1.6644  0.3800  1.1563
   89SAPS   H3S 8584   1.531   2.111   9.924  0.6429  0.0528 -1.2525
   89SAPS   C24 8585   1.355   1.988   9.897  0.2071  0.1517 -0.5173
   89SAPS   H4R 8586   1.274   2.051   9.940  1.0118 -0.0387  1.4055
   89SAPS   H4S 8587   1.338   1.880   9.915  2.3212 -0.1910 -0.3301
   89SAPS   C25 8588   1.380   2.007   9.752  0.5373 -0.3322 -0.5695
   89SAPS   H5R 8589   1.471   1.961   9.710 -0.4730 -0.6273 -2.5792
   89SAPS   C26 8590   1.298   2.060   9.666  0.3778  0.4811  0.5189
   89SAPS   H6R 8591   1.337   2.079   9.565 -0.8272  0.7731  0.0968
   89SAPS   C27 8592   1.165   2.122   9.696  0.5364  0.0625 -0.3867
   89SAPS   H7R 8593   1.133   2.115   9.802 -2.2334 -1.5295 -1.2365
   89SAPS   H7S 8594   1.081   2.065   9.650 -0.8451 -0.8572  3.0051
   89SAPS   C28 8595   1.169   2.271   9.648 -0.3205  0.2453  0.0152
   89SAPS   H8R 8596   1.216   2.328   9.730  0.5546  0.5443 -0.6804
   89SAPS   C29 8597   1.130   2.327   9.530  0.1660  0.6955 -0.1687
   89SAPS   H9R 8598   1.151   2.434   9.520  0.4813  0.5475 -1.3380
   89SAPS  C210 8599   1.077   2.268   9.398  0.6931  0.5690 -0.6705
   89SAPS  H10R 8600   1.000   2.337   9.357  0.0567  0.4366  0.2842
   89SAPS  H10S 8601   1.029   2.168   9.403  0.7016  0.2351 -4.4316
   89SAPS  C211 8602   1.184   2.257   9.293  0.5803 -0.6109  0.0843
   89SAPS  H11R 8603   1.273   2.209   9.338  0.6167 -0.2527  0.4001
   89SAPS  C212 8604   1.187   2.307   9.170 -0.1888  0.0617  0.2532
   89SAPS  H12R 8605   1.277   2.303   9.107  1.0374  1.5413  1.8237
   89SAPS  C213 8606   1.076   2.389   9.108 -0.4072 -0.2424  0.3725
   89SAPS  H13R 8607   0.974   2.362   9.144 -1.1375  1.6914 -0.1124
   89SAPS  H13S 8608   1.083   2.350   9.005  1.2205 -3.0647  1.4541
   89SAPS  C214 8609   1.079   2.541   9.130  0.0453  1.5755  0.0943
   89SAPS  H14R 8610   1.116   2.567   9.230  1.8898 -0.9432  0.1739
   89SAPS  C215 8611   1.069   2.633   9.039  0.1016  0.3924  1.2278
   89SAPS  H15R 8612   1.080   2.741   9.058 -3.0830  0.7286  1.8139
   89SAPS  C216 8613   1.039   2.608   8.888 -0.6437  0.3252 -0.5137
   89SAPS  H16R 8614   0.975   2.690   8.850 -3.0050 -0.2395  1.9317
   89SAPS  H16S 8615   0.983   2.514   8.876  0.2860 -0.3386  0.1729
   89SAPS  C217 8616   1.169   2.605   8.806  0.0178 -0.5073  0.1688
   89SAPS  H17R 8617   1.233   2.522   8.842  0.2328  0.6765  2.6957
   89SAPS  H17S 8618   1.227   2.697   8.824  0.8319 -1.1297  0.7813
   89SAPS  C218 8619   1.139   2.581   8.662 -0.4118 -0.2355 -0.6205
   89SAPS  H18R 8620   1.086   2.668   8.618  1.2248  0.3534 -1.5229
   89SAPS  H18S 8621   1.066   2.500   8.643  0.9407 -1.8125  0.5901
   89SAPS  C219 8622   1.255   2.543   8.575 -0.3469 -0.1993  0.2444
   89SAPS  H19R 8623   1.307   2.450   8.605  0.1345 -0.6388 -1.8120
   89SAPS  H19S 8624   1.319   2.633   8.561  1.4215 -1.2254  1.3550
   89SAPS  C220 8625   1.210   2.504   8.429  0.5218  0.0190 -0.3235
   89SAPS  H20R 8626   1.126   2.567   8.392 -0.2456 -1.3053 -0.8838
   89SAPS  H20S 8627   1.164   2.403   8.435  1.2930 -0.3559 -0.5688
   89SAPS  H20T 8628   1.299   2.505   8.362  0.6771  1.7796 -0.1595
   89SAPS   C33 8629   1.745   2.421  10.198  0.1098 -0.2678 -0.5769
   89SAPS   H3X 8630   1.746   2.328  10.259 -0.4434  0.6986  0.9653
   89SAPS   H3Y 8631   1.845   2.450  10.159 -0.9208  1.5468 -2.0411
   89SAPS   C34 8632   1.660   2.394  10.071 -0.1277  0.8873  0.0106
   89SAPS   H4X 8633   1.559   2.366  10.108  1.3911 -0.8757  3.2257
   89SAPS   H4Y 8634   1.706   2.306  10.021 -1.2589 -1.0269  2.1204
   89SAPS   C35 8635   1.661   2.515   9.976 -1.0311  0.0277 -0.3493
   89SAPS   H5X 8636   1.762   2.539   9.935 -2.4387  0.1835 -4.1903
   89SAPS   H5Y 8637   1.612   2.601  10.027 -1.1618 -0.9964  1.3182
   89SAPS   C36 8638   1.577   2.476   9.850 -0.2445  0.1876  0.3236
   89SAPS   H6X 8639   1.482   2.427   9.879 -0.6685 -0.0706 -1.3611
   89SAPS   H6Y 8640   1.632   2.398   9.793  0.4244  1.0483 -0.2586
   89SAPS   C37 8641   1.551   2.589   9.755 -0.2631  0.1521  0.8510
   89SAPS   H7X 8642   1.642   2.646   9.725  0.0076 -1.3806 -1.4899
   89SAPS   H7Y 8643   1.482   2.663   9.800 -1.6710 -0.8806  0.4474
   89SAPS   C38 8644   1.498   2.536   9.619  0.1815 -0.3153  0.4116
   89SAPS   H8X 8645   1.394   2.503   9.636 -0.6161  2.7254  2.2427
   89SAPS   H8Y 8646   1.562   2.460   9.568  1.0961  0.7153 -0.0371
   89SAPS   C39 8647   1.485   2.663   9.530  0.0722  0.7106 -0.4622
   89SAPS   H9X 8648   1.581   2.720   9.535  0.1303  0.5530  0.3891
   89SAPS   H9Y 8649   1.406   2.727   9.574 -0.2421  1.6354 -2.2706
   89SAPS  C310 8650   1.444   2.629   9.386 -0.1994 -0.7352 -0.2155
   89SAPS  H10X 8651   1.379   2.714   9.357  0.6738  0.1779  0.4816
   89SAPS  H10Y 8652   1.369   2.547   9.386 -1.8954  0.7421 -1.5841
   89SAPS  C311 8653   1.554   2.586   9.291  0.2165  0.3123  0.0571
   89SAPS  H11X 8654   1.569   2.477   9.307  0.4960 -0.0736 -2.4530
   89SAPS  H11Y 8655   1.649   2.640   9.311 -0.0572  0.5527  0.7528
   89SAPS  C312 8656   1.504   2.605   9.139  0.2188 -0.7815 -0.5687
   89SAPS  H12X 8657   1.478   2.711   9.117 -1.5049 -0.7002  1.5521
   89SAPS  H12Y 8658   1.410   2.546   9.130  0.9851 -2.0716 -0.3042
   89SAPS  C313 8659   1.600   2.545   9.034 -0.0712 -0.3457  0.2143
   89SAPS  H13X 8660   1.618   2.443   9.072 -1.2825 -0.5247  0.3348
   89SAPS  H13Y 8661   1.697   2.599   9.026 -0.2098 -0.0649  0.4212
   89SAPS  C314 8662   1.538   2.525   8.895  1.0692  0.2644  0.7962
   89SAPS  H14X 8663   1.527   2.613   8.828 -0.1198 -0.6407 -0.2427
   89SAPS  H14Y 8664   1.440   2.474   8.902  1.6482 -1.5034 -2.3739
   89SAPS  C315 8665   1.626   2.429   8.821 -0.2666 -0.2201 -0.3533
   89SAPS  H15X 8666   1.642   2.335   8.877 -0.6088  1.0703  2.0585
   89SAPS  H15Y 8667   1.726   2.473   8.802 -0.4429 -0.3875 -1.8430
   89SAPS  C316 8668   1.565   2.389   8.692  0.5568  0.2511  0.2077
   89SAPS  H16X 8669   1.579   2.466   8.614  1.0316  0.3427  0.3781
   89SAPS  H16Y 8670   1.457   2.372   8.709  0.9659  0.4344  3.7205
   89SAPS  C317 8671   1.623   2.261   8.640  0.2667  0.5113  0.3690
   89SAPS  H17X 8672   1.579   2.242   8.539  0.7589 -2.8809  0.6755
   89SAPS  H17Y 8673   1.598   2.179   8.711 -1.4902  1.3811  0.8049
   89SAPS  C318 8674   1.771   2.251   8.630 -0.2309 -0.6288  0.0886
   89SAPS  H18X 8675   1.822   2.231   8.727  1.4514 -0.0580 -0.6386
   89SAPS  H18Y 8676   1.804   2.353   8.601  0.5465 -1.0121 -0.4109
   89SAPS  H18Z 8677   1.803   2.181   8.550 -2.0002 -0.7457 -0.5512
   90SAPS     N 8678   2.507   2.624  10.842  0.1586 -0.0472  0.9442
   90SAPS   HN1 8679   2.468   2.666  10.755  0.7898  0.3058  0.8209
   90SAPS   HN2 8680   2.453   2.664  10.922 -4.5091 -0.1686 -1.8100
   90SAPS   HN3 8681   2.609   2.644  10.846 -0.0155  1.8895 -1.6600
   90SAPS   C12 8682   2.497   2.477  10.848  0.1548 -0.2668  0.5058
   90SAPS  H12A 8683   2.575   2.454  10.776  0.8556  3.7232 -0.2468
   90SAPS   C13 8684   2.530   2.423  10.987 -0.3257  0.2305 -0.9602
   90SAPS  O13A 8685   2.573   2.502  11.081  0.0813  0.4619  0.1910
   90SAPS  O13B 8686   2.527   2.299  11.000 -0.1515 -0.0679 -0.4495
   90SAPS   C11 8687   2.353   2.426  10.807  0.2656  0.0222 -0.1876
   90SAPS  H11A 8688   2.286   2.447  10.894 -0.4614  1.5503 -1.0820
   90SAPS  H11B 8689   2.373   2.317  10.800  0.8583  0.1105  0.0929
   90SAPS     P 8690   2.194   2.594  10.668 -0.0684  0.0694  0.0884
   90SAPS   O13 8691   2.076   2.583  10.758 -0.4124 -0.3433  0.1153
   90SAPS   O14 8692   2.279   2.716  10.681 -0.1668  0.5475  0.2002
   90SAPS   O12 8693   2.299   2.477  10.680 -0.1173 -0.2008  0.1793
   90SAPS   O11 8694   2.136   2.577  10.520 -0.0627  0.3350  0.3030
   90SAPS    C1 8695   2.207   2.505  10.419 -0.0937  0.4959 -0.7246
   90SAPS    HA 8696   2.307   2.468  10.450 -0.9621 -0.9355  0.5517
   90SAPS    HB 8697   2.152   2.413  10.388  0.8414 -0.2413 -0.2730
   90SAPS    C2 8698   2.224   2.593  10.287  0.0932 -0.2270  0.0923
   90SAPS    HS 8699   2.125   2.626  10.248  0.4751 -0.4999 -1.1725
   90SAPS   O21 8700   2.301   2.516  10.199 -0.6299 -0.2486 -0.3701
   90SAPS   C21 8701   2.238   2.423  10.130  0.4919 -0.2156 -0.4249
   90SAPS   O22 8702   2.116   2.404  10.133  0.0713  0.0845 -0.1267
   90SAPS   C22 8703   2.341   2.336  10.063  0.0772  0.4374  0.6022
   90SAPS   H2R 8704   2.415   2.322  10.145  0.7130 -1.6182 -0.2523
   90SAPS   H2S 8705   2.290   2.240  10.039  0.5292  0.1150  0.9170
   90SAPS    C3 8706   2.282   2.737  10.319 -0.4716  0.0362  0.0040
   90SAPS    HX 8707   2.376   2.733  10.379  0.0493 -0.0388 -0.8042
   90SAPS    HY 8708   2.206   2.794  10.376 -0.2305  0.0659  0.2985
   90SAPS   O31 8709   2.306   2.807  10.196 -0.2053 -0.1838 -0.3409
   90SAPS   C31 8710   2.424   2.784  10.133 -0.4602 -0.4226 -1.1363
   90SAPS   O32 8711   2.514   2.711  10.176  0.4865  0.0290 -0.0698
   90SAPS   C32 8712   2.421   2.849  10.000  0.7192 -0.9374  0.2181
   90SAPS   H2X 8713   2.413   2.960  10.009 -0.7302 -1.0290  0.3136
   90SAPS   H2Y 8714   2.329   2.822   9.945  0.1536 -3.1730  2.1254
   90SAPS   C23 8715   2.413   2.410   9.948  0.6507  0.8868  0.3090
   90SAPS   H3R 8716   2.512   2.361   9.943  1.2594  2.0130  0.9478
   90SAPS   H3S 8717   2.443   2.510   9.985  0.2736  0.9469  0.4588
   90SAPS   C24 8718   2.341   2.403   9.811  0.5632  0.4807 -0.4301
   90SAPS   H4R 8719   2.235   2.433   9.822  0.2199 -0.6008 -0.6301
   90SAPS   H4S 8720   2.347   2.299   9.772  1.0521  0.7863 -1.2032
   90SAPS   C25 8721   2.400   2.502   9.724 -0.0880  0.1149  0.5717
   90SAPS   H5R 8722   2.406   2.605   9.762  2.5340  0.6150 -0.9230
   90SAPS   C26 8723   2.444   2.482   9.604 -0.0920  0.1183  0.5743
   90SAPS   H6R 8724   2.494   2.569   9.558 -0.0252  0.9976  2.2452
   90SAPS   C27 8725   2.452   2.360   9.512  0.1461  0.5869 -1.1996
   90SAPS   H7R 8726   2.411   2.268   9.559  1.3939 -0.2329 -1.6648
   90SAPS   H7S 8727   2.558   2.331   9.494  0.0539 -0.1330 -0.6307
   90SAPS   C28 8728   2.386   2.381   9.382  0.0728  0.5788  0.2953
   90SAPS   H8R 8729   2.286   2.336   9.378  0.4163 -0.1126 -0.9068
   90SAPS   C29 8730   2.442   2.415   9.265  0.4528  0.9758 -0.4130
   90SAPS   H9R 8731   2.385   2.430   9.173  1.2662  0.8216 -0.9526
   90SAPS  C210 8732   2.585   2.450   9.244  0.3247  0.3417  0.0000
   90SAPS  H10R 8733   2.644   2.357   9.250 -1.4484 -0.8217  0.1331
   90SAPS  H10S 8734   2.620   2.528   9.315 -2.8308  2.0940 -0.1512
   90SAPS  C211 8735   2.615   2.502   9.101  0.3299 -0.3268  0.4032
   90SAPS  H11R 8736   2.673   2.595   9.103  1.1419 -0.8391  1.2956
   90SAPS  C212 8737   2.595   2.447   8.976  0.1702 -0.2713 -0.4089
   90SAPS  H12R 8738   2.625   2.501   8.885  2.1825  0.3886  0.5837
   90SAPS  C213 8739   2.524   2.314   8.954  0.4221 -0.0478  0.5690
   90SAPS  H13R 8740   2.446   2.317   8.875  0.5077 -3.5837  0.2033
   90SAPS  H13S 8741   2.481   2.279   9.050 -2.2420 -1.1067 -0.9033
   90SAPS  C214 8742   2.630   2.208   8.928  0.3169  0.5010  0.0342
   90SAPS  H14R 8743   2.660   2.159   9.021 -0.2782  0.3554  0.1593
   90SAPS  C215 8744   2.657   2.143   8.808  0.8645  0.1050 -0.1759
   90SAPS  H15R 8745   2.744   2.076   8.803  0.6369 -0.5301  2.7243
   90SAPS  C216 8746   2.597   2.165   8.675 -0.5714  0.1773  0.2876
   90SAPS  H16R 8747   2.650   2.239   8.611  0.6697 -0.1750  0.8615
   90SAPS  H16S 8748   2.490   2.192   8.684 -0.2754  3.5748 -3.4572
   90SAPS  C217 8749   2.608   2.032   8.600 -0.4213  0.9216 -0.4809
   90SAPS  H17R 8750   2.530   2.032   8.521 -0.4437  0.3085 -0.4656
   90SAPS  H17S 8751   2.590   1.944   8.666  0.3328  1.1394  0.0265
   90SAPS  C218 8752   2.743   2.003   8.533  0.0016  0.3257  0.5145
   90SAPS  H18R 8753   2.833   2.039   8.587  0.6139 -0.6491  0.1499
   90SAPS  H18S 8754   2.743   2.052   8.433 -1.2060 -0.1818  0.2518
   90SAPS  C219 8755   2.769   1.855   8.495  0.2856 -0.2573  0.5071
   90SAPS  H19R 8756   2.740   1.788   8.579 -0.3708  0.0807  0.5562
   90SAPS  H19S 8757   2.878   1.835   8.488 -0.0210 -1.7885 -0.1794
   90SAPS  C220 8758   2.705   1.803   8.368 -0.3272  0.3004 -0.2691
   90SAPS  H20R 8759   2.724   1.695   8.354  0.7578  0.6297 -1.6200
   90SAPS  H20S 8760   2.743   1.850   8.275  2.4042 -0.5135  0.3501
   90SAPS  H20T 8761   2.594   1.805   8.374 -0.2592  0.0072  1.3551
   90SAPS   C33 8762   2.551   2.823   9.920  0.2951  0.3303 -0.3298
   90SAPS   H3X 8763   2.564   2.715   9.900  0.4693  0.3655 -0.4017
   90SAPS   H3Y 8764   2.642   2.858   9.973 -0.8660  1.9065  0.7398
   90SAPS   C34 8765   2.539   2.888   9.780  0.6992 -0.0967 -1.0886
   90SAPS   H4X 8766   2.536   2.999   9.792  0.5690 -0.2697  0.7970
   90SAPS   H4Y 8767   2.441   2.861   9.736  0.7373  0.1309 -1.3174
   90SAPS   C35 8768   2.661   2.863   9.689 -0.7882 -0.1316 -0.1776
   90SAPS   H5X 8769   2.660   2.756   9.659  2.8757 -0.4850  0.4951
   90SAPS   H5Y 8770   2.751   2.887   9.748 -1.5176  1.2065  0.4508
   90SAPS   C36 8771   2.675   2.945   9.562  0.4203 -0.0513 -0.7301
   90SAPS   H6X 8772   2.782   2.931   9.534  1.2833  0.3611  2.0358
   90SAPS   H6Y 8773   2.652   3.053   9.578 -2.6827 -0.6665 -0.4426
   90SAPS   C37 8774   2.571   2.900   9.456 -0.2155  0.5583  0.2681
   90SAPS   H7X 8775   2.473   2.900   9.508 -0.7863  1.8016 -0.7474
   90SAPS   H7Y 8776   2.591   2.795   9.425 -0.4086  1.1095 -1.9152
   90SAPS   C38 8777   2.571   2.983   9.331 -0.6227 -0.6947  0.5984
   90SAPS   H8X 8778   2.670   2.970   9.282  0.2959  0.3023  2.1139
   90SAPS   H8Y 8779   2.563   3.092   9.355 -0.9571 -0.7920  0.9334
   90SAPS   C39 8780   2.462   2.950   9.225  1.2633 -0.5063  0.4395
   90SAPS   H9X 8781   2.483   3.016   9.139 -1.4237  0.5456  0.4958
   90SAPS   H9Y 8782   2.360   2.972   9.264  0.4137 -0.7907 -1.5223
   90SAPS  C310 8783   2.456   2.804   9.191 -0.1771  0.4951  0.0337
   90SAPS  H10X 8784   2.426   2.746   9.280 -3.5587 -0.3926 -1.5229
   90SAPS  H10Y 8785   2.562   2.771   9.175 -0.2889 -0.1177  0.5253
   90SAPS  C311 8786   2.356   2.770   9.077 -0.3041  0.5965 -0.1683
   90SAPS  H11X 8787   2.265   2.832   9.093  0.7146  1.7769  1.4627
   90SAPS  H11Y 8788   2.317   2.666   9.083 -2.7431  1.4304 -0.6115
   90SAPS  C312 8789   2.408   2.802   8.934 -0.8148  0.0957  0.3683
   90SAPS  H12X 8790   2.486   2.725   8.918  1.0728  0.6941  5.2039
   90SAPS  H12Y 8791   2.470   2.894   8.939  3.3888 -2.4755  0.3134
   90SAPS  C313 8792   2.297   2.814   8.841  0.4187  0.2999  0.6888
   90SAPS  H13X 8793   2.233   2.897   8.877  0.9562  0.9080  0.2484
   90SAPS  H13Y 8794   2.237   2.722   8.855  0.7969  0.1139  1.1294
   90SAPS  C314 8795   2.327   2.829   8.696 -0.1644 -0.1887  0.4566
   90SAPS  H14X 8796   2.239   2.802   8.633 -0.3302 -1.0371  1.0336
   90SAPS  H14Y 8797   2.413   2.769   8.661 -0.6489  0.2905 -1.6663
   90SAPS  C315 8798   2.357   2.972   8.660  0.4742  0.3657 -0.4342
   90SAPS  H15X 8799   2.414   2.971   8.564 -0.6657 -1.2579 -1.1290
   90SAPS  H15Y 8800   2.436   3.000   8.733  1.0018 -0.2398 -0.7628
   90SAPS  C316 8801   2.237   3.073   8.651  0.2194 -0.1845 -0.8062
   90SAPS  H16X 8802   2.163   3.059   8.733  0.9301 -0.0005 -0.1108
   90SAPS  H16Y 8803   2.197   3.047   8.551  0.7729 -1.1651 -0.7827
   90SAPS  C317 8804   2.282   3.220   8.670  0.4054 -0.0864 -0.4750
   90SAPS  H17X 8805   2.313   3.207   8.777  0.4528 -0.3180 -0.5169
   90SAPS  H17Y 8806   2.205   3.294   8.638  0.6334 -0.3993 -1.7870
   90SAPS  C318 8807   2.406   3.266   8.590 -0.0368  0.5318  0.1694
   90SAPS  H18X 8808   2.435   3.372   8.606  2.3699  0.0949 -0.8069
   90SAPS  H18Y 8809   2.383   3.250   8.482  2.5112  1.8279 -0.6644
   90SAPS  H18Z 8810   2.493   3.201   8.616 -0.2961 -0.1852 -0.7002
   91SAPS     N 8811   2.140   6.170   5.988  0.2924  0.2819  0.0244
   91SAPS   HN1 8812   2.112   6.264   5.953  0.8615  1.0785  1.6416
   91SAPS   HN2 8813   2.064   6.139   6.051 -0.2922 -0.3223 -0.9581
   91SAPS   HN3 8814   2.219   6.185   6.053 -0.7162  2.3154  0.8787
   91SAPS   C12 8815   2.175   6.076   5.884 -0.2955  0.0285 -0.7795
   91SAPS  H12A 8816   2.085   6.022   5.860 -0.6770  0.4351 -0.2854
   91SAPS   C13 8817   2.217   6.145   5.751 -0.3783  0.4142  0.3854
   91SAPS  O13A 8818   2.201   6.272   5.735 -0.7019  0.2215 -0.0178
   91SAPS  O13B 8819   2.254   6.067   5.655 -0.2542  0.0594 -0.0696
   91SAPS   C11 8820   2.281   5.972   5.933 -0.2129  0.0897 -0.1233
   91SAPS  H11A 8821   2.384   6.012   5.944 -0.1417 -0.1025 -0.0887
   91SAPS  H11B 8822   2.292   5.897   5.852  1.0685 -0.3508  0.4307
   91SAPS     P 8823   2.238   5.765   6.087  0.2893  0.4180 -0.1796
   91SAPS   O13 8824   2.121   5.709   6.018  0.1144  0.0609  0.6384
   91SAPS   O14 8825   2.376   5.715   6.050  0.4711  0.0088 -0.3601
   91SAPS   O12 8826   2.233   5.921   6.056  0.2753 -0.4404 -0.7357
   91SAPS   O11 8827   2.213   5.753   6.240 -0.8041  0.3425 -0.3592
   91SAPS    C1 8828   2.152   5.863   6.316  0.6604 -0.0119 -0.0618
   91SAPS    HA 8829   2.212   5.956   6.312  0.3073  0.3333  1.8291
   91SAPS    HB 8830   2.063   5.905   6.265  2.2948  0.8038 -2.4111
   91SAPS    C2 8831   2.102   5.821   6.459  0.8662 -0.7501  0.3126
   91SAPS    HS 8832   2.055   5.913   6.499 -1.2484 -1.0175 -1.3426
   91SAPS   O21 8833   2.207   5.774   6.542  0.3598 -0.1065  0.5891
   91SAPS   C21 8834   2.281   5.866   6.595  0.0469  0.1905 -0.0636
   91SAPS   O22 8835   2.255   5.986   6.602  0.5714  0.2299 -0.1817
   91SAPS   C22 8836   2.413   5.808   6.642 -0.0078 -0.4713  0.3223
   91SAPS   H2R 8837   2.445   5.729   6.571  1.3803  2.1445 -2.2048
   91SAPS   H2S 8838   2.490   5.888   6.630 -0.1905 -0.1951  0.9772
   91SAPS    C3 8839   1.986   5.714   6.452  0.0768  0.6504  0.1430
   91SAPS    HX 8840   2.025   5.633   6.387  1.3179 -0.4668  2.1691
   91SAPS    HY 8841   1.905   5.762   6.394  0.6570  1.9314  0.3541
   91SAPS   O31 8842   1.943   5.662   6.584 -0.4029 -0.5270 -0.2854
   91SAPS   C31 8843   1.990   5.545   6.619  0.4104  0.5043  0.5771
   91SAPS   O32 8844   2.077   5.481   6.561 -0.0804  0.6504  0.1027
   91SAPS   C32 8845   1.940   5.503   6.752 -0.7664  0.1574  0.9726
   91SAPS   H2X 8846   1.846   5.447   6.730  0.2150 -0.3577 -2.4642
   91SAPS   H2Y 8847   1.933   5.590   6.821  1.3891  2.6445 -1.6720
   91SAPS   C23 8848   2.407   5.758   6.786  0.5598  0.0012 -0.1391
   91SAPS   H3R 8849   2.494   5.698   6.818  0.6710  0.7990  1.0963
   91SAPS   H3S 8850   2.322   5.686   6.788  0.2801  0.3515  1.0581
   91SAPS   C24 8851   2.382   5.870   6.889 -0.2157  0.5278  0.4794
   91SAPS   H4R 8852   2.280   5.913   6.876 -0.1361  0.9046  1.0793
   91SAPS   H4S 8853   2.454   5.952   6.866 -0.1343  0.8941  1.9539
   91SAPS   C25 8854   2.404   5.829   7.026 -0.1638 -0.7932 -0.4938
   91SAPS   H5R 8855   2.485   5.755   7.032 -0.3529 -0.9840 -0.2764
   91SAPS   C26 8856   2.339   5.868   7.140  0.1753  0.2849 -0.3401
   91SAPS   H6R 8857   2.373   5.820   7.233 -1.4293 -1.7185 -0.7087
   91SAPS   C27 8858   2.221   5.956   7.154  0.3552 -0.0056 -0.2712
   91SAPS   H7R 8859   2.197   5.992   7.051 -1.2459  1.8859  0.6974
   91SAPS   H7S 8860   2.245   6.047   7.213  3.1820 -2.0222  1.9599
   91SAPS   C28 8861   2.099   5.886   7.213 -0.0532 -0.2492 -0.4774
   91SAPS   H8R 8862   2.043   5.820   7.144 -0.8434 -0.3376  0.2294
   91SAPS   C29 8863   2.039   5.910   7.325 -0.2286  0.0187 -0.3160
   91SAPS   H9R 8864   1.952   5.847   7.349 -0.7891  1.2585  1.0653
   91SAPS  C210 8865   2.086   6.007   7.432  0.4407  0.6154  0.0955
   91SAPS  H10R 8866   2.195   6.021   7.412  0.9396 -2.1753  0.3798
   91SAPS  H10S 8867   2.078   5.952   7.528  3.3233 -1.3042 -0.6281
   91SAPS  C211 8868   2.004   6.133   7.418 -0.5260 -0.5880 -0.0803
   91SAPS  H11R 8869   2.030   6.198   7.333  2.7412  0.2106  1.3598
   91SAPS  C212 8870   1.910   6.178   7.501 -0.1522 -0.0292 -0.5801
   91SAPS  H12R 8871   1.855   6.270   7.475 -0.2300 -0.5645 -2.4757
   91SAPS  C213 8872   1.864   6.109   7.624 -0.3625 -0.8680  0.6225
   91SAPS  H13R 8873   1.937   6.133   7.704  0.2592 -0.8188  0.0428
   91SAPS  H13S 8874   1.881   5.999   7.615  0.7489 -0.6500 -0.1487
   91SAPS  C214 8875   1.727   6.140   7.666  0.4437 -0.0708  0.0388
   91SAPS  H14R 8876   1.644   6.078   7.628  0.2447 -0.0281  0.3925
   91SAPS  C215 8877   1.681   6.244   7.737  0.1977  0.2978 -0.2138
   91SAPS  H15R 8878   1.575   6.239   7.767  0.1548 -0.2927 -0.4414
   91SAPS  C216 8879   1.765   6.354   7.794 -0.4380  0.5775 -0.8482
   91SAPS  H16R 8880   1.692   6.423   7.842 -0.0236  0.6126 -0.2556
   91SAPS  H16S 8881   1.808   6.421   7.717  0.4725  1.9406  0.7899
   91SAPS  C217 8882   1.877   6.329   7.893 -0.2496 -0.2144  0.4812
   91SAPS  H17R 8883   1.968   6.324   7.830 -2.1306 -3.7821 -2.3419
   91SAPS  H17S 8884   1.856   6.231   7.941  0.5913 -0.2389  0.8071
   91SAPS  C218 8885   1.904   6.435   8.007  0.5610  0.0209  0.1323
   91SAPS  H18R 8886   1.812   6.488   8.041  0.7915 -0.6635  1.9751
   91SAPS  H18S 8887   1.975   6.508   7.963  0.3200  0.0597 -0.1864
   91SAPS  C219 8888   1.976   6.379   8.127  0.7565 -0.1725  0.4956
   91SAPS  H19R 8889   2.063   6.317   8.098 -0.0106 -1.5705  1.0922
   91SAPS  H19S 8890   1.900   6.320   8.182 -2.0409  4.0056  1.5835
   91SAPS  C220 8891   2.005   6.486   8.227 -0.7605  0.0456 -0.0833
   91SAPS  H20R 8892   2.048   6.574   8.175 -1.7505  0.7117  0.1837
   91SAPS  H20S 8893   2.070   6.447   8.308  0.4657  0.8396 -0.6552
   91SAPS  H20T 8894   1.907   6.517   8.270 -2.5676 -0.5642 -3.3712
   91SAPS   C33 8895   2.037   5.396   6.804 -0.6987 -0.4286  0.0201
   91SAPS   H3X 8896   2.140   5.430   6.780 -0.7476  1.4323  2.1617
   91SAPS   H3Y 8897   2.016   5.298   6.755 -1.5427 -0.8126  1.1050
   91SAPS   C34 8898   2.010   5.362   6.952  0.1135  0.1006  0.2180
   91SAPS   H4X 8899   2.061   5.267   6.981  0.7111  0.2338 -0.3624
   91SAPS   H4Y 8900   1.905   5.337   6.979  1.0033 -2.8402  1.3744
   91SAPS   C35 8901   2.069   5.461   7.051 -0.8490 -0.3298  0.5701
   91SAPS   H5X 8902   2.042   5.565   7.019  0.3626 -0.3187 -0.5124
   91SAPS   H5Y 8903   2.179   5.467   7.060 -0.8232  2.1951 -0.4404
   91SAPS   C36 8904   2.023   5.437   7.188 -0.2888  1.0476  0.3958
   91SAPS   H6X 8905   2.074   5.345   7.223 -0.1596  0.3454 -1.5193
   91SAPS   H6Y 8906   1.913   5.422   7.188  0.0188 -1.7311  0.1990
   91SAPS   C37 8907   2.041   5.550   7.294 -0.1014 -0.2289 -0.0206
   91SAPS   H7X 8908   1.954   5.618   7.283 -0.0839 -0.4844 -2.0077
   91SAPS   H7Y 8909   2.136   5.607   7.296 -1.0083  1.3476 -0.1949
   91SAPS   C38 8910   2.043   5.500   7.439  0.0594  0.4919  0.2591
   91SAPS   H8X 8911   2.136   5.442   7.458  0.7038  2.0758  2.3762
   91SAPS   H8Y 8912   1.963   5.431   7.471  1.8558 -0.9653  1.8064
   91SAPS   C39 8913   2.060   5.611   7.544  0.7325 -0.8482  0.4123
   91SAPS   H9X 8914   1.968   5.673   7.538 -0.0578 -2.1019 -1.0431
   91SAPS   H9Y 8915   2.149   5.675   7.526  1.5860 -1.8939  0.8010
   91SAPS  C310 8916   2.058   5.569   7.688 -0.4430 -0.0802  0.1293
   91SAPS  H10X 8917   2.136   5.489   7.689  0.2610  0.4911 -2.3675
   91SAPS  H10Y 8918   1.960   5.527   7.718 -0.3536  0.7552  1.7034
   91SAPS  C311 8919   2.096   5.678   7.780  0.5483  0.3727 -0.3197
   91SAPS  H11X 8920   2.028   5.765   7.784  2.1327  1.6488 -0.2670
   91SAPS  H11Y 8921   2.189   5.724   7.740 -0.1058  2.0878  0.0486
   91SAPS  C312 8922   2.125   5.641   7.928  0.4735 -0.7336  0.1992
   91SAPS  H12X 8923   2.200   5.559   7.932 -0.6188 -1.7952 -0.4802
   91SAPS  H12Y 8924   2.027   5.607   7.968  1.0833 -2.4480  0.3217
   91SAPS  C313 8925   2.174   5.769   8.006 -0.2594 -0.4474  0.5914
   91SAPS  H13X 8926   2.087   5.838   8.000 -0.3819 -0.7528 -2.3384
   91SAPS  H13Y 8927   2.262   5.811   7.954 -0.7055  0.2240  0.3617
   91SAPS  C314 8928   2.206   5.741   8.150 -0.0718 -0.0036 -0.3002
   91SAPS  H14X 8929   2.285   5.664   8.167  0.1376  0.8055  3.1619
   91SAPS  H14Y 8930   2.115   5.700   8.197  0.7377 -0.9847  0.4654
   91SAPS  C315 8931   2.241   5.869   8.224 -0.1225 -0.7761 -0.3318
   91SAPS  H15X 8932   2.335   5.896   8.172  0.6945 -1.7043  0.6076
   91SAPS  H15Y 8933   2.267   5.840   8.328  1.8357  0.4299 -0.4447
   91SAPS  C316 8934   2.143   5.980   8.234  0.3385 -0.2336  0.3736
   91SAPS  H16X 8935   2.107   6.014   8.135  0.1103 -0.4837  0.3693
   91SAPS  H16Y 8936   2.190   6.072   8.275 -0.4674  0.0458  0.6851
   91SAPS  C317 8937   2.012   5.950   8.312 -0.5642 -0.2343  0.0866
   91SAPS  H17X 8938   2.055   5.905   8.404  1.7162  0.5571 -0.5155
   91SAPS  H17Y 8939   1.947   5.874   8.263  0.6939 -1.0457 -0.4003
   91SAPS  C318 8940   1.923   6.070   8.344 -0.3048  0.1520  0.7858
   91SAPS  H18X 8941   1.983   6.153   8.387  0.2747  0.9211 -1.3707
   91SAPS  H18Y 8942   1.847   6.036   8.417 -2.2871  1.4050 -0.6118
   91SAPS  H18Z 8943   1.886   6.111   8.248  0.2292 -1.5540 -0.2014
   92SAPS     N 8944   1.580   3.920   6.286 -0.7645  0.5638 -0.2963
   92SAPS   HN1 8945   1.625   3.942   6.377 -0.9977  0.8380 -0.2487
   92SAPS   HN2 8946   1.549   4.013   6.250 -2.0520  0.2451 -0.0248
   92SAPS   HN3 8947   1.503   3.859   6.319 -1.0852  2.2833  2.4432
   92SAPS   C12 8948   1.672   3.847   6.195  0.2745  0.3644  0.4573
   92SAPS  H12A 8949   1.610   3.800   6.120  1.5886 -1.3148  0.3652
   92SAPS   C13 8950   1.769   3.943   6.120 -0.6837 -0.7478  0.5549
   92SAPS  O13A 8951   1.768   4.067   6.116  0.4568  0.1670  0.4998
   92SAPS  O13B 8952   1.839   3.880   6.035 -0.9771 -0.3338 -0.0688
   92SAPS   C11 8953   1.752   3.750   6.283 -0.6177 -0.3604 -0.0153
   92SAPS  H11A 8954   1.822   3.806   6.348  2.1827 -0.0957 -2.9661
   92SAPS  H11B 8955   1.820   3.697   6.212 -0.8426  0.1460 -0.6285
   92SAPS     P 8956   1.710   3.552   6.437  0.0619 -0.1326 -0.1261
   92SAPS   O13 8957   1.601   3.455   6.452 -0.5881  0.4925 -0.6046
   92SAPS   O14 8958   1.832   3.496   6.379  0.3765  0.8118 -0.3658
   92SAPS   O12 8959   1.662   3.665   6.351  0.5667 -0.3691  0.2581
   92SAPS   O11 8960   1.748   3.604   6.583 -0.0541  0.1793 -0.3506
   92SAPS    C1 8961   1.650   3.674   6.664  0.1914 -0.4570 -0.0536
   92SAPS    HA 8962   1.697   3.769   6.696 -0.3311 -0.2965  0.2468
   92SAPS    HB 8963   1.555   3.703   6.616  1.2834  2.2052 -0.7497
   92SAPS    C2 8964   1.620   3.592   6.800  0.7155 -0.5130  1.0842
   92SAPS    HS 8965   1.554   3.508   6.768 -2.9854  2.6986 -0.4605
   92SAPS   O21 8966   1.534   3.684   6.876  0.5958  0.1345 -0.1891
   92SAPS   C21 8967   1.419   3.635   6.906  0.6970  0.0376 -0.3689
   92SAPS   O22 8968   1.363   3.532   6.865  0.4757 -0.1851  0.1917
   92SAPS   C22 8969   1.352   3.740   6.998  0.4658  0.2718 -0.1971
   92SAPS   H2R 8970   1.434   3.784   7.059  1.6714 -2.0387 -0.0531
   92SAPS   H2S 8971   1.318   3.818   6.926  0.4267 -0.5697 -1.1071
   92SAPS    C3 8972   1.747   3.553   6.879 -0.1599  0.5153 -0.8811
   92SAPS    HX 8973   1.819   3.637   6.885  0.7030 -0.3245  1.0592
   92SAPS    HY 8974   1.802   3.478   6.818  0.1327 -0.4828  0.5749
   92SAPS   O31 8975   1.715   3.509   7.011  0.5997  0.2220  0.6099
   92SAPS   C31 8976   1.809   3.451   7.082 -0.0558 -0.5337  0.2666
   92SAPS   O32 8977   1.924   3.424   7.043  0.1601 -0.3270  0.4471
   92SAPS   C32 8978   1.755   3.431   7.224 -0.0641 -0.0654  0.0183
   92SAPS   H2X 8979   1.794   3.331   7.252  0.8187  0.2542 -0.0560
   92SAPS   H2Y 8980   1.644   3.429   7.227 -0.0305 -1.1838  1.7671
   92SAPS   C23 8981   1.237   3.677   7.078 -0.1199 -0.2474 -0.3486
   92SAPS   H3R 8982   1.271   3.580   7.121 -0.0582 -0.7739 -1.5462
   92SAPS   H3S 8983   1.158   3.656   7.003  0.6742  0.3940 -1.3890
   92SAPS   C24 8984   1.182   3.769   7.197 -0.0345 -0.1123 -0.1176
   92SAPS   H4R 8985   1.090   3.724   7.239 -0.5236  1.6127  0.7282
   92SAPS   H4S 8986   1.149   3.862   7.148  3.2188  1.3492  0.1714
   92SAPS   C25 8987   1.288   3.797   7.300  0.0013  0.3774  0.4385
   92SAPS   H5R 8988   1.357   3.876   7.266  0.5516  0.5860  1.9454
   92SAPS   C26 8989   1.282   3.748   7.420 -0.5714  0.4006 -0.1063
   92SAPS   H6R 8990   1.360   3.789   7.486 -1.3788 -1.3489  2.0474
   92SAPS   C27 8991   1.174   3.656   7.478 -0.5142  0.5611  0.2983
   92SAPS   H7R 8992   1.128   3.598   7.395 -1.2231  1.5925 -0.0642
   92SAPS   H7S 8993   1.089   3.720   7.511 -1.0346  0.3238 -0.5333
   92SAPS   C28 8994   1.226   3.562   7.581  0.4746  0.2227 -0.6670
   92SAPS   H8R 8995   1.235   3.463   7.533  2.3878 -0.0431  0.1782
   92SAPS   C29 8996   1.252   3.589   7.708 -0.4349 -0.4956  0.2132
   92SAPS   H9R 8997   1.288   3.508   7.773  0.5811 -0.5168 -0.3510
   92SAPS  C210 8998   1.240   3.725   7.779 -0.2572 -0.2458 -0.0469
   92SAPS  H10R 8999   1.189   3.703   7.875 -1.2318  0.1553 -0.4573
   92SAPS  H10S 9000   1.165   3.788   7.726  0.2105  0.8513  0.5647
   92SAPS  C211 9001   1.371   3.795   7.797  0.3868 -0.2049  0.2787
   92SAPS  H11R 9002   1.434   3.807   7.708  1.7042 -0.0703  1.2123
   92SAPS  C212 9003   1.410   3.858   7.910 -0.5684  0.3457  0.2332
   92SAPS  H12R 9004   1.506   3.910   7.923 -1.0968  1.1895  0.8305
   92SAPS  C213 9005   1.329   3.862   8.036  0.7287 -0.0462  0.5382
   92SAPS  H13R 9006   1.268   3.773   8.062 -0.8882  0.8304 -0.1620
   92SAPS  H13S 9007   1.241   3.927   8.020  0.5907 -0.2312  0.5454
   92SAPS  C214 9008   1.407   3.890   8.160  0.2286 -0.3117  0.1893
   92SAPS  H14R 9009   1.510   3.851   8.151  0.8195  1.0002  1.0042
   92SAPS  C215 9010   1.367   3.954   8.274 -0.5508  0.5002  0.4385
   92SAPS  H15R 9011   1.424   3.946   8.367  0.4946 -2.9560 -0.3322
   92SAPS  C216 9012   1.234   4.016   8.294  0.4194  0.7045 -0.8644
   92SAPS  H16R 9013   1.145   3.951   8.286  1.5160 -0.8673 -0.7097
   92SAPS  H16S 9014   1.213   4.091   8.215 -0.6683 -0.0730 -1.3295
   92SAPS  C217 9015   1.228   4.083   8.430 -0.6187 -0.8258 -0.3280
   92SAPS  H17R 9016   1.308   4.161   8.433  0.7021 -1.9694 -2.8080
   92SAPS  H17S 9017   1.257   4.015   8.513 -0.6469  0.4664  0.7940
   92SAPS  C218 9018   1.105   4.165   8.469 -0.3804 -0.0916  0.0268
   92SAPS  H18R 9019   1.101   4.245   8.392  0.3944 -0.4077 -0.3478
   92SAPS  H18S 9020   1.141   4.204   8.566  4.5645 -1.7711 -0.8486
   92SAPS  C219 9021   0.967   4.092   8.456  0.8402 -0.1104  0.3086
   92SAPS  H19R 9022   0.972   4.012   8.532  0.9733 -0.2954  0.1057
   92SAPS  H19S 9023   0.965   4.052   8.353  0.2154 -0.1851  0.3470
   92SAPS  C220 9024   0.830   4.166   8.481 -0.4504 -0.0957 -0.4698
   92SAPS  H20R 9025   0.830   4.257   8.417  2.4821 -0.7024 -1.4741
   92SAPS  H20S 9026   0.831   4.183   8.591 -1.6028 -2.9000  0.0560
   92SAPS  H20T 9027   0.743   4.111   8.439 -0.0730 -0.7929 -0.3430
   92SAPS   C33 9028   1.793   3.541   7.327 -0.1855  0.0812 -0.1147
   92SAPS   H3X 9029   1.766   3.643   7.293  0.1293 -0.2998 -1.5544
   92SAPS   H3Y 9030   1.903   3.555   7.328 -0.1384 -0.2660  0.9291
   92SAPS   C34 9031   1.759   3.514   7.473 -0.0276  0.3597  0.4270
   92SAPS   H4X 9032   1.823   3.426   7.495  0.2141  0.7497  1.3186
   92SAPS   H4Y 9033   1.656   3.474   7.486 -0.6547  2.2622  1.8343
   92SAPS   C35 9034   1.777   3.629   7.567 -0.2793  0.2587 -0.2496
   92SAPS   H5X 9035   1.687   3.689   7.541 -0.6089  0.6923  1.7100
   92SAPS   H5Y 9036   1.868   3.690   7.548  0.9677 -1.3629  0.2708
   92SAPS   C36 9037   1.775   3.581   7.715  0.2180 -0.8940 -0.6554
   92SAPS   H6X 9038   1.828   3.484   7.725 -0.2305 -1.0703  0.1032
   92SAPS   H6Y 9039   1.668   3.558   7.734  0.2395 -0.8832 -0.5208
   92SAPS   C37 9040   1.818   3.696   7.806  0.0739 -0.0362  0.4134
   92SAPS   H7X 9041   1.757   3.783   7.773  2.2376  0.7518 -1.7764
   92SAPS   H7Y 9042   1.925   3.726   7.796 -0.0023  0.3766  0.7713
   92SAPS   C38 9043   1.803   3.656   7.955  0.3720 -0.0769 -0.2700
   92SAPS   H8X 9044   1.865   3.568   7.981 -0.3573  0.0624  2.1729
   92SAPS   H8Y 9045   1.695   3.632   7.966 -0.0993  1.6942 -0.6781
   92SAPS   C39 9046   1.827   3.770   8.049 -0.3459 -0.0273 -0.6213
   92SAPS   H9X 9047   1.780   3.862   8.008 -1.4930  0.4155  1.5200
   92SAPS   H9Y 9048   1.934   3.788   8.072 -0.0369 -2.1817 -0.1975
   92SAPS  C310 9049   1.767   3.747   8.192 -0.1384 -0.4381 -0.3838
   92SAPS  H10X 9050   1.812   3.653   8.229 -0.7810  0.1408  2.0265
   92SAPS  H10Y 9051   1.659   3.722   8.180 -0.3001 -1.3368  2.3062
   92SAPS  C311 9052   1.788   3.864   8.284  0.6155 -0.1642  0.3754
   92SAPS  H11X 9053   1.749   3.953   8.230 -0.0907  0.1771  1.4182
   92SAPS  H11Y 9054   1.896   3.871   8.307  0.1167  1.5905  2.5491
   92SAPS  C312 9055   1.707   3.866   8.412  0.0177 -0.1543  0.6957
   92SAPS  H12X 9056   1.749   3.779   8.467 -1.8849 -2.3907 -1.1853
   92SAPS  H12Y 9057   1.598   3.860   8.394  0.2946  0.3911 -1.3772
   92SAPS  C313 9058   1.737   3.986   8.500 -0.0117 -0.8798 -0.2689
   92SAPS  H13X 9059   1.717   4.077   8.439 -0.4526 -0.0474  1.0758
   92SAPS  H13Y 9060   1.847   3.989   8.512  0.1150 -0.4722 -1.3808
   92SAPS  C314 9061   1.655   4.004   8.618 -0.0204 -0.8021 -0.6830
   92SAPS  H14X 9062   1.649   3.914   8.682 -0.2083  0.0157  0.4681
   92SAPS  H14Y 9063   1.550   4.032   8.595  0.1641 -0.4187 -1.0838
   92SAPS  C315 9064   1.711   4.123   8.698  0.0128  0.3550  0.1110
   92SAPS  H15X 9065   1.729   4.211   8.634 -1.6391  2.5382  2.4683
   92SAPS  H15Y 9066   1.809   4.106   8.749 -0.3032  1.4424  1.1305
   92SAPS  C316 9067   1.604   4.168   8.803  0.2493  0.2755  0.4393
   92SAPS  H16X 9068   1.515   4.199   8.743  1.2469 -0.4272 -1.4877
   92SAPS  H16Y 9069   1.654   4.260   8.839  1.3671 -1.0046  2.3440
   92SAPS  C317 9070   1.566   4.068   8.911 -0.1826 -0.1512 -0.5270
   92SAPS  H17X 9071   1.509   3.981   8.872 -3.3078  2.2834 -1.7631
   92SAPS  H17Y 9072   1.506   4.109   8.995  0.4105 -0.4781  0.0672
   92SAPS  C318 9073   1.686   4.001   8.974  0.9132  0.3825 -0.3980
   92SAPS  H18X 9074   1.652   3.938   9.059  0.7450 -0.7024 -1.2431
   92SAPS  H18Y 9075   1.756   4.077   9.014 -0.2829  0.7833  0.9846
   92SAPS  H18Z 9076   1.734   3.921   8.913  2.5407  0.4551  0.7339
   93SAPS     N 9077   1.703   4.321   6.171 -0.7843  0.3111  0.1253
   93SAPS   HN1 9078   1.633   4.354   6.102 -0.3316 -0.4029 -0.6928
   93SAPS   HN2 9079   1.788   4.380   6.164 -0.7630  0.2008 -0.6849
   93SAPS   HN3 9080   1.718   4.219   6.155 -0.1227  0.3731  0.3299
   93SAPS   C12 9081   1.651   4.336   6.310  0.2790  0.3702 -0.3159
   93SAPS  H12A 9082   1.615   4.438   6.309 -2.0256 -0.3856 -1.4232
   93SAPS   C13 9083   1.527   4.248   6.338 -0.4263  0.0156  0.2802
   93SAPS  O13A 9084   1.489   4.166   6.247  0.0324  0.1970 -0.9472
   93SAPS  O13B 9085   1.446   4.296   6.422  0.4939  0.6263 -0.1293
   93SAPS   C11 9086   1.757   4.322   6.428 -0.1394 -0.2776  0.7471
   93SAPS  H11A 9087   1.703   4.315   6.524  1.1256  0.2204  1.5136
   93SAPS  H11B 9088   1.822   4.412   6.416 -1.2068  0.4437  0.2065
   93SAPS     P 9089   1.836   4.085   6.505  0.4415  0.2561  0.1050
   93SAPS   O13 9090   1.703   4.025   6.493  0.3381 -0.3199 -0.2472
   93SAPS   O14 9091   1.941   3.995   6.468 -0.7260  0.3518 -0.4094
   93SAPS   O12 9092   1.839   4.202   6.403  0.0426  0.1476  0.0107
   93SAPS   O11 9093   1.862   4.140   6.651 -0.4310 -0.6001 -0.6011
   93SAPS    C1 9094   1.975   4.216   6.677  0.8237  0.1922  0.0256
   93SAPS    HA 9095   2.038   4.252   6.593  2.7412  1.4596  1.9112
   93SAPS    HB 9096   1.937   4.307   6.726 -1.7105 -0.6834 -0.1795
   93SAPS    C2 9097   2.075   4.141   6.771  0.2884  0.1355  0.5316
   93SAPS    HS 9098   2.127   4.063   6.712 -1.8976 -0.1493 -1.1508
   93SAPS   O21 9099   2.020   4.100   6.896 -0.3586 -0.0660 -0.3945
   93SAPS   C21 9100   1.984   3.976   6.913 -0.5710  0.3510 -0.1070
   93SAPS   O22 9101   1.979   3.894   6.820 -0.0607 -0.5666  0.2512
   93SAPS   C22 9102   1.941   3.954   7.060  0.0063 -0.4296  0.1326
   93SAPS   H2R 9103   2.029   3.914   7.114  0.6196  1.1838  0.3551
   93SAPS   H2S 9104   1.922   4.059   7.090  3.2206  0.1851  0.3142
   93SAPS    C3 9105   2.195   4.227   6.812  0.1093 -0.2414 -0.3138
   93SAPS    HX 9106   2.159   4.328   6.840 -0.6886 -0.3458 -0.9204
   93SAPS    HY 9107   2.241   4.247   6.713  0.0039  1.9819  0.0258
   93SAPS   O31 9108   2.281   4.157   6.905  0.1350 -0.0995 -0.8146
   93SAPS   C31 9109   2.332   4.235   7.002  0.5152 -0.8006 -0.4778
   93SAPS   O32 9110   2.326   4.355   7.002  0.2138 -0.6578  0.3118
   93SAPS   C32 9111   2.393   4.142   7.113  0.7556 -0.3456 -0.2582
   93SAPS   H2X 9112   2.450   4.058   7.068  0.0050  0.0550 -2.0192
   93SAPS   H2Y 9113   2.302   4.099   7.160  0.9721  0.6093  1.1244
   93SAPS   C23 9114   1.812   3.876   7.063 -1.0828  0.0119 -0.0724
   93SAPS   H3R 9115   1.836   3.769   7.085 -2.1685 -0.0587  0.8518
   93SAPS   H3S 9116   1.769   3.881   6.961 -2.1423  1.8482  0.4177
   93SAPS   C24 9117   1.721   3.918   7.180  0.0845 -0.8377 -0.1774
   93SAPS   H4R 9118   1.772   3.932   7.278  2.1370  2.8758 -1.5665
   93SAPS   H4S 9119   1.642   3.841   7.197 -1.3656  0.5068 -0.5914
   93SAPS   C25 9120   1.647   4.046   7.162 -0.1737 -0.0643 -1.0097
   93SAPS   H5R 9121   1.610   4.058   7.059  1.1298 -2.3540 -1.7954
   93SAPS   C26 9122   1.622   4.138   7.257  0.4821  0.8913  0.3465
   93SAPS   H6R 9123   1.561   4.226   7.233 -1.6210 -0.4507  0.5269
   93SAPS   C27 9124   1.656   4.132   7.403 -0.0862  0.2278  0.1134
   93SAPS   H7R 9125   1.687   4.237   7.420 -2.6751  0.9771  0.7204
   93SAPS   H7S 9126   1.738   4.064   7.433 -1.2614 -0.5953  1.5837
   93SAPS   C28 9127   1.536   4.100   7.485  0.5343  0.5439 -0.1177
   93SAPS   H8R 9128   1.447   4.072   7.426  1.0898 -3.0582  0.5506
   93SAPS   C29 9129   1.540   4.083   7.619  0.1456  0.7146 -0.4697
   93SAPS   H9R 9130   1.455   4.044   7.677  0.7297 -0.8526 -0.6016
   93SAPS  C210 9131   1.663   4.105   7.704  0.4748 -0.0651  0.2832
   93SAPS  H10R 9132   1.762   4.104   7.653  0.5774  2.1165  0.3518
   93SAPS  H10S 9133   1.672   4.025   7.781  1.4774  0.8534  1.1378
   93SAPS  C211 9134   1.652   4.243   7.760  0.4855  0.2043 -1.3887
   93SAPS  H11R 9135   1.632   4.315   7.680 -3.8852  1.9535  0.9150
   93SAPS  C212 9136   1.674   4.287   7.887  0.8095  0.2498 -0.5285
   93SAPS  H12R 9137   1.654   4.393   7.905 -1.1146 -0.0918 -0.4360
   93SAPS  C213 9138   1.721   4.208   8.012  0.2640  0.5878  0.3871
   93SAPS  H13R 9139   1.830   4.229   8.012  0.3381  0.2884 -0.7959
   93SAPS  H13S 9140   1.721   4.098   7.997  1.1615  0.2354  2.6380
   93SAPS  C214 9141   1.647   4.235   8.141 -0.0841 -0.1996  0.0962
   93SAPS  H14R 9142   1.556   4.174   8.152  0.1756 -0.4550  0.8641
   93SAPS  C215 9143   1.666   4.334   8.224 -0.5421  0.0688 -0.0323
   93SAPS  H15R 9144   1.597   4.358   8.306 -0.8956 -1.6977  0.2398
   93SAPS  C216 9145   1.778   4.439   8.221 -1.1001 -0.2509  0.5513
   93SAPS  H16R 9146   1.733   4.533   8.184 -2.2130 -1.1510 -0.4791
   93SAPS  H16S 9147   1.862   4.414   8.153 -0.6984 -0.5466  1.1467
   93SAPS  C217 9148   1.839   4.462   8.362  0.0325  0.1356 -0.5057
   93SAPS  H17R 9149   1.938   4.508   8.339 -0.3358  1.5532  0.5963
   93SAPS  H17S 9150   1.854   4.365   8.413 -4.1455 -0.7471 -0.6498
   93SAPS  C218 9151   1.752   4.552   8.444  0.7416  0.2881 -0.1813
   93SAPS  H18R 9152   1.645   4.520   8.444  1.3864 -2.0341 -0.2728
   93SAPS  H18S 9153   1.758   4.654   8.400  2.6699  0.0602 -0.5366
   93SAPS  C219 9154   1.796   4.568   8.587  0.1855 -0.8907 -1.0595
   93SAPS  H19R 9155   1.809   4.471   8.638 -2.1692 -0.2264  0.9895
   93SAPS  H19S 9156   1.730   4.632   8.650  0.7277  0.0749 -1.4555
   93SAPS  C220 9157   1.934   4.647   8.597 -0.0433  0.1177  0.2499
   93SAPS  H20R 9158   1.954   4.672   8.703  0.5569  3.2181 -0.4955
   93SAPS  H20S 9159   1.923   4.740   8.537  0.3508 -0.4925 -0.8093
   93SAPS  H20T 9160   2.016   4.581   8.562  0.1384  0.1563  0.6067
   93SAPS   C33 9161   2.455   4.224   7.228 -0.4853 -0.0479  0.4886
   93SAPS   H3X 9162   2.392   4.314   7.241 -0.7635 -0.2356  0.4284
   93SAPS   H3Y 9163   2.558   4.260   7.207 -0.6228 -1.2387 -2.7659
   93SAPS   C34 9164   2.425   4.158   7.364  0.1817  0.3033 -0.2335
   93SAPS   H4X 9165   2.439   4.048   7.359 -0.8804  0.1411  0.1639
   93SAPS   H4Y 9166   2.320   4.177   7.395 -0.4284 -3.3545  0.4065
   93SAPS   C35 9167   2.512   4.213   7.481  0.1543  0.2005  0.1818
   93SAPS   H5X 9168   2.481   4.317   7.505 -0.3597  0.1264 -0.1691
   93SAPS   H5Y 9169   2.620   4.206   7.455 -0.6429  0.4849 -3.8037
   93SAPS   C36 9170   2.500   4.126   7.609  0.3283  0.1326  0.3027
   93SAPS   H6X 9171   2.522   4.023   7.574 -1.4059  0.4657 -1.9836
   93SAPS   H6Y 9172   2.391   4.124   7.633  0.1736  2.5402  0.0280
   93SAPS   C37 9173   2.584   4.175   7.735 -0.1711  0.8852  0.5806
   93SAPS   H7X 9174   2.690   4.187   7.703  0.3099  0.7846  2.0633
   93SAPS   H7Y 9175   2.574   4.096   7.812 -2.6278  1.9262  1.4286
   93SAPS   C38 9176   2.535   4.297   7.799  0.6115 -0.5623 -0.3386
   93SAPS   H8X 9177   2.430   4.268   7.821  0.6502  0.4954  1.3804
   93SAPS   H8Y 9178   2.526   4.383   7.729  0.9900 -0.0087  0.2755
   93SAPS   C39 9179   2.613   4.348   7.919 -0.2584 -0.8334 -0.2527
   93SAPS   H9X 9180   2.555   4.435   7.958  3.7722  1.5543  1.0965
   93SAPS   H9Y 9181   2.713   4.380   7.883 -1.0283 -0.0228 -1.8053
   93SAPS  C310 9182   2.628   4.254   8.040  0.3218  0.4377  0.3790
   93SAPS  H10X 9183   2.710   4.183   8.016 -2.5189 -2.3518 -2.0694
   93SAPS  H10Y 9184   2.545   4.181   8.054  0.6886 -0.2067 -0.7135
   93SAPS  C311 9185   2.664   4.331   8.162  0.0286  0.0065 -0.0975
   93SAPS  H11X 9186   2.585   4.389   8.215  0.3657 -1.1391  1.7542
   93SAPS  H11Y 9187   2.739   4.407   8.132 -0.1607  0.4369  0.4985
   93SAPS  C312 9188   2.739   4.254   8.278  0.6867  0.0590 -0.3958
   93SAPS  H12X 9189   2.839   4.227   8.239  1.3249 -0.4128  1.4471
   93SAPS  H12Y 9190   2.685   4.163   8.311 -0.5307  1.3024  1.1897
   93SAPS  C313 9191   2.775   4.342   8.401  0.0167  0.2314 -0.5209
   93SAPS  H13X 9192   2.677   4.372   8.443 -0.6474 -1.4592 -0.7894
   93SAPS  H13Y 9193   2.829   4.423   8.347 -1.1179 -0.2112 -2.3886
   93SAPS  C314 9194   2.876   4.274   8.497  0.2676  0.3017 -0.3967
   93SAPS  H14X 9195   2.963   4.239   8.437 -1.1501 -2.7578 -0.8231
   93SAPS  H14Y 9196   2.827   4.181   8.532  0.2896  0.7280  0.8072
   93SAPS  C315 9197   2.915   4.351   8.620 -0.2568  0.3238 -0.9619
   93SAPS  H15X 9198   2.823   4.389   8.670 -0.6954 -1.1476 -0.5917
   93SAPS  H15Y 9199   2.974   4.442   8.600  0.2705  0.6442  1.6663
   93SAPS  C316 9200   3.007   4.266   8.714 -0.3391 -0.2710 -0.2587
   93SAPS  H16X 9201   3.111   4.254   8.677  0.1003 -1.3103  1.1918
   93SAPS  H16Y 9202   2.960   4.166   8.727  0.5943 -0.4394  2.3898
   93SAPS  C317 9203   3.025   4.336   8.860  1.0802  0.1982 -0.3674
   93SAPS  H17X 9204   3.059   4.441   8.846  0.3125  0.3233 -1.4533
   93SAPS  H17Y 9205   3.103   4.274   8.909  2.5888  1.3381 -1.2378
   93SAPS  C318 9206   2.893   4.330   8.940 -0.6337 -0.3459 -0.0950
   93SAPS  H18X 9207   2.900   4.387   9.035  0.4354 -0.5162 -0.0571
   93SAPS  H18Y 9208   2.861   4.227   8.968  1.1860 -0.3390  2.3290
   93SAPS  H18Z 9209   2.821   4.387   8.878 -2.4628  0.6211  2.7524
   94SAPS     N 9210   2.360   6.502   5.697  0.3078  0.0763 -0.2857
   94SAPS   HN1 9211   2.303   6.416   5.709  1.5202 -0.8847 -1.1391
   94SAPS   HN2 9212   2.302   6.580   5.660 -0.0385  0.4388  0.9650
   94SAPS   HN3 9213   2.427   6.474   5.623  3.0241  2.5623  1.0268
   94SAPS   C12 9214   2.448   6.547   5.809 -0.6182 -0.4070 -0.2077
   94SAPS  H12A 9215   2.514   6.620   5.765 -0.0538 -0.6101  0.2926
   94SAPS   C13 9216   2.367   6.615   5.924 -0.2820  0.2668  0.1810
   94SAPS  O13A 9217   2.240   6.628   5.913  1.2072  0.1511  0.0779
   94SAPS  O13B 9218   2.423   6.655   6.031 -0.1879  0.0237 -0.3433
   94SAPS   C11 9219   2.525   6.431   5.866  0.4620  0.3933 -0.8543
   94SAPS  H11A 9220   2.465   6.365   5.932  2.4408 -0.9071 -0.2823
   94SAPS  H11B 9221   2.606   6.463   5.935  2.5571 -2.2404 -1.9116
   94SAPS     P 9222   2.721   6.302   5.747  0.0133  0.1640  0.4653
   94SAPS   O13 9223   2.705   6.181   5.665 -0.2997  0.4371 -0.0884
   94SAPS   O14 9224   2.809   6.407   5.697 -0.1594 -0.5637  0.3600
   94SAPS   O12 9225   2.575   6.351   5.758  0.1385  0.4112 -0.4594
   94SAPS   O11 9226   2.761   6.270   5.899  0.2928 -0.1504 -0.6238
   94SAPS    C1 9227   2.700   6.170   5.978 -0.0573  1.0443  0.2599
   94SAPS    HA 9228   2.592   6.154   5.957  0.1444  0.2778 -0.2535
   94SAPS    HB 9229   2.762   6.078   5.963  0.8232  1.3275  1.9276
   94SAPS    C2 9230   2.720   6.195   6.129  0.0426  0.2872 -0.0580
   94SAPS    HS 9231   2.657   6.284   6.149 -0.4810 -0.2166  0.5815
   94SAPS   O21 9232   2.861   6.204   6.153 -0.0990  0.3300 -0.2082
   94SAPS   C21 9233   2.902   6.299   6.239 -0.3291  0.2438 -0.0290
   94SAPS   O22 9234   2.835   6.367   6.316  0.7138  0.9245 -0.1985
   94SAPS   C22 9235   3.050   6.325   6.213  0.0813 -0.1192 -0.5470
   94SAPS   H2R 9236   3.081   6.291   6.112  1.4840 -0.9613  0.1309
   94SAPS   H2S 9237   3.061   6.435   6.206  0.1815 -0.2019 -1.9038
   94SAPS    C3 9238   2.652   6.080   6.210  0.1278 -0.4777  0.2884
   94SAPS    HX 9239   2.714   5.988   6.216  0.6031 -0.1516  0.4657
   94SAPS    HY 9240   2.561   6.050   6.154  0.2255 -1.8458  0.8280
   94SAPS   O31 9241   2.614   6.119   6.343 -0.5426  0.0409 -0.1481
   94SAPS   C31 9242   2.694   6.107   6.448 -0.3549  1.1202  0.5340
   94SAPS   O32 9243   2.809   6.063   6.447 -0.1325 -0.5062 -0.6994
   94SAPS   C32 9244   2.623   6.161   6.570  0.0456 -0.4135  0.3871
   94SAPS   H2X 9245   2.514   6.153   6.549  0.1090  3.2099 -2.3636
   94SAPS   H2Y 9246   2.646   6.270   6.568 -0.9876 -0.1967 -0.6262
   94SAPS   C23 9247   3.143   6.264   6.317 -0.5848 -0.4367  0.4148
   94SAPS   H3R 9248   3.247   6.276   6.277  0.1873 -1.7357  1.9229
   94SAPS   H3S 9249   3.120   6.156   6.321 -0.4347 -0.5160 -0.5749
   94SAPS   C24 9250   3.146   6.335   6.453 -0.0188 -0.6617 -0.8945
   94SAPS   H4R 9251   3.209   6.265   6.511  1.3753  1.1539 -0.1146
   94SAPS   H4S 9252   3.044   6.340   6.497  0.8534 -0.1154  1.2150
   94SAPS   C25 9253   3.218   6.469   6.438 -0.1210 -0.1894 -0.1905
   94SAPS   H5R 9254   3.196   6.540   6.357  1.8414  1.1036  0.3401
   94SAPS   C26 9255   3.319   6.509   6.518 -0.2492  0.4965 -0.5244
   94SAPS   H6R 9256   3.368   6.605   6.496  1.0088 -0.0922 -0.3970
   94SAPS   C27 9257   3.392   6.445   6.635  0.1674 -0.0033 -0.7941
   94SAPS   H7R 9258   3.442   6.354   6.594  0.6110 -0.3883  0.5595
   94SAPS   H7S 9259   3.312   6.415   6.705  0.6819  1.3836  0.4298
   94SAPS   C28 9260   3.489   6.535   6.712 -0.1490 -0.5059 -0.1107
   94SAPS   H8R 9261   3.560   6.597   6.656 -1.7039  1.1030 -0.3824
   94SAPS   C29 9262   3.512   6.545   6.843  0.6415  0.1534 -0.5871
   94SAPS   H9R 9263   3.594   6.605   6.887 -0.3810 -0.2065  1.9793
   94SAPS  C210 9264   3.440   6.470   6.954 -0.7014 -0.0157 -0.3323
   94SAPS  H10R 9265   3.487   6.370   6.972 -0.2831  0.5686  2.1975
   94SAPS  H10S 9266   3.336   6.447   6.924 -0.2978 -3.5117  0.4394
   94SAPS  C211 9267   3.429   6.541   7.084 -0.8107 -0.7022 -0.9971
   94SAPS  H11R 9268   3.332   6.581   7.118  0.3194 -0.0394  1.7512
   94SAPS  C212 9269   3.539   6.562   7.164  0.3616 -0.5558  0.6959
   94SAPS  H12R 9270   3.522   6.607   7.263 -1.1385  0.2187  0.1116
   94SAPS  C213 9271   3.680   6.531   7.141  0.3666 -0.0684 -0.1611
   94SAPS  H13R 9272   3.727   6.620   7.092 -1.9880  1.5659  0.3815
   94SAPS  H13S 9273   3.685   6.453   7.062  0.6069 -1.7998  1.4927
   94SAPS  C214 9274   3.761   6.476   7.254 -0.3575  0.0641 -0.8205
   94SAPS  H14R 9275   3.791   6.371   7.242  0.4141 -0.0340  1.4305
   94SAPS  C215 9276   3.789   6.538   7.372  0.2643  0.2993 -0.3148
   94SAPS  H15R 9277   3.838   6.484   7.455 -1.1570  0.8243  0.9071
   94SAPS  C216 9278   3.748   6.667   7.427 -0.2418  0.0955  0.6993
   94SAPS  H16R 9279   3.730   6.738   7.343  0.2008 -0.3856  0.1854
   94SAPS  H16S 9280   3.831   6.720   7.479 -0.9383 -0.3737  2.3403
   94SAPS  C217 9281   3.621   6.656   7.511  0.9507  0.0681  0.6056
   94SAPS  H17R 9282   3.539   6.600   7.462 -0.7801  3.0653 -0.1890
   94SAPS  H17S 9283   3.578   6.758   7.522 -0.8389 -0.6953  1.0148
   94SAPS  C218 9284   3.641   6.577   7.650  0.3070 -0.0861  0.7112
   94SAPS  H18R 9285   3.707   6.489   7.639 -0.0871 -0.4727  1.4034
   94SAPS  H18S 9286   3.542   6.541   7.686  0.9638 -0.1796  2.5005
   94SAPS  C219 9287   3.694   6.663   7.770  0.6641 -0.3656  0.2813
   94SAPS  H19R 9288   3.646   6.763   7.760  2.6271  0.7902  1.6728
   94SAPS  H19S 9289   3.803   6.673   7.751  0.4855 -0.2425 -0.7935
   94SAPS  C220 9290   3.679   6.612   7.908 -0.1554 -0.3622 -0.6401
   94SAPS  H20R 9291   3.754   6.536   7.938 -2.9929 -2.4604  1.8055
   94SAPS  H20S 9292   3.580   6.566   7.928  0.9560 -2.1591  1.0924
   94SAPS  H20T 9293   3.681   6.705   7.968 -2.3939 -1.0215  0.5930
   94SAPS   C33 9294   2.659   6.106   6.707 -0.5380 -0.3471 -0.0635
   94SAPS   H3X 9295   2.768   6.130   6.714 -1.0346  1.6292  1.9176
   94SAPS   H3Y 9296   2.657   5.995   6.713  1.8227 -0.6520 -2.7308
   94SAPS   C34 9297   2.591   6.173   6.829  0.7050  0.0759  0.2727
   94SAPS   H4X 9298   2.485   6.148   6.805  1.0835 -0.0472 -1.3559
   94SAPS   H4Y 9299   2.603   6.282   6.816  1.2406 -0.0815 -0.5694
   94SAPS   C35 9300   2.655   6.133   6.963  0.7802 -0.6293  0.5973
   94SAPS   H5X 9301   2.759   6.170   6.972  0.6084 -0.6205  5.3463
   94SAPS   H5Y 9302   2.644   6.023   6.966 -2.7725 -0.4174  0.1481
   94SAPS   C36 9303   2.579   6.184   7.095  0.0511 -0.5418  0.2992
   94SAPS   H6X 9304   2.483   6.130   7.081 -1.8173  1.9727  2.4744
   94SAPS   H6Y 9305   2.566   6.294   7.093 -1.3842 -0.7055 -0.7736
   94SAPS   C37 9306   2.656   6.150   7.224  0.3802 -0.6604 -0.1708
   94SAPS   H7X 9307   2.739   6.217   7.256  0.8451 -1.8226  1.2133
   94SAPS   H7Y 9308   2.714   6.057   7.203  5.6254  1.7680  1.8156
   94SAPS   C38 9309   2.550   6.128   7.338 -0.2257  0.5845  0.1686
   94SAPS   H8X 9310   2.487   6.041   7.310  2.0301 -1.5123  1.1660
   94SAPS   H8Y 9311   2.485   6.217   7.346  0.7359  1.3409 -0.2047
   94SAPS   C39 9312   2.626   6.124   7.471  0.9709 -0.3221  1.0300
   94SAPS   H9X 9313   2.653   6.230   7.491  2.2115 -0.1987 -1.0776
   94SAPS   H9Y 9314   2.714   6.057   7.469  0.7114 -0.6503  0.7118
   94SAPS  C310 9315   2.537   6.065   7.583  0.0597 -0.8401  0.4679
   94SAPS  H10X 9316   2.601   6.068   7.674  2.3309  2.1259 -1.0460
   94SAPS  H10Y 9317   2.502   5.961   7.565 -1.1027 -0.3146 -0.4043
   94SAPS  C311 9318   2.413   6.145   7.615 -0.2053 -0.0450  0.0107
   94SAPS  H11X 9319   2.338   6.148   7.533  1.6280  1.1964 -1.7383
   94SAPS  H11Y 9320   2.447   6.249   7.633  2.1132 -0.6143 -0.6492
   94SAPS  C312 9321   2.349   6.085   7.743  0.5411  0.5056  0.7294
   94SAPS  H12X 9322   2.352   5.977   7.718 -1.0450  1.1897 -3.1808
   94SAPS  H12Y 9323   2.239   6.102   7.744  0.5432  0.5393  0.3777
   94SAPS  C313 9324   2.412   6.109   7.882 -0.1076  0.7289 -0.0636
   94SAPS  H13X 9325   2.518   6.078   7.869 -1.0695 -4.0167  1.1675
   94SAPS  H13Y 9326   2.382   6.035   7.960 -0.3080  1.1658  0.2730
   94SAPS  C314 9327   2.401   6.254   7.930  0.1596  0.6642  0.8368
   94SAPS  H14X 9328   2.291   6.270   7.939  0.4596  3.1313  0.7424
   94SAPS  H14Y 9329   2.448   6.313   7.848  0.8414 -2.5208 -1.2831
   94SAPS  C315 9330   2.468   6.289   8.063 -0.5117  0.0566  0.7054
   94SAPS  H15X 9331   2.428   6.389   8.087  0.4784  0.0007  2.7976
   94SAPS  H15Y 9332   2.578   6.306   8.055 -0.2704  0.0166  3.1690
   94SAPS  C316 9333   2.425   6.189   8.169 -0.2213  0.1563 -0.4471
   94SAPS  H16X 9334   2.484   6.098   8.144  1.0230  1.0930 -1.0084
   94SAPS  H16Y 9335   2.314   6.179   8.163 -0.5159 -0.9692  3.7749
   94SAPS  C317 9336   2.450   6.228   8.318  1.2974  0.0292 -0.7842
   94SAPS  H17X 9337   2.440   6.128   8.367 -1.2586  0.0679 -1.0775
   94SAPS  H17Y 9338   2.365   6.282   8.364  0.1194 -2.2661 -0.0919
   94SAPS  C318 9339   2.590   6.282   8.345  0.7557 -0.4590  0.3705
   94SAPS  H18X 9340   2.596   6.379   8.293 -0.0460 -1.4876 -1.7416
   94SAPS  H18Y 9341   2.671   6.218   8.303  1.4110  1.1275 -0.8672
   94SAPS  H18Z 9342   2.616   6.272   8.453  0.2046 -0.9889  0.4561
   95SAPS     N 9343   0.202   4.897   6.318  0.5119 -0.1842  0.1699
   95SAPS   HN1 9344   0.260   4.850   6.391  0.1321  0.7232  1.0876
   95SAPS   HN2 9345   0.138   4.830   6.272  0.3748  0.9105 -1.2998
   95SAPS   HN3 9346   0.267   4.932   6.245 -0.8004 -0.3311 -1.1238
   95SAPS   C12 9347   0.128   4.999   6.393 -0.5242 -0.5541 -0.3756
   95SAPS  H12A 9348   0.199   5.043   6.461 -1.3573 -0.2794  0.3420
   95SAPS   C13 9349   0.073   5.122   6.309  0.4421 -0.0755  0.7080
   95SAPS  O13A 9350   0.112   5.128   6.190 -0.1275  0.0444 -0.0017
   95SAPS  O13B 9351   0.029   5.218   6.369  0.5918 -0.1742 -0.6251
   95SAPS   C11 9352   0.009   4.938   6.465 -0.1977 -0.4592  0.2576
   95SAPS  H11A 9353  -0.055   5.015   6.514 -2.6633 -1.3411 -1.3988
   95SAPS  H11B 9354   0.039   4.869   6.547  2.8843 -0.9232 -1.1386
   95SAPS     P 9355  -0.224   4.864   6.388  0.2638  0.1014  0.2247
   95SAPS   O13 9356  -0.280   5.001   6.399  0.6095 -0.4118 -0.1752
   95SAPS   O14 9357  -0.270   4.785   6.276 -0.6565  0.7060 -0.3440
   95SAPS   O12 9358  -0.070   4.865   6.372 -0.6189  0.5075  0.1266
   95SAPS   O11 9359  -0.239   4.786   6.520  0.4631  0.2177 -0.0245
   95SAPS    C1 9360  -0.354   4.786   6.601 -0.1654 -0.1352  0.3077
   95SAPS    HA 9361  -0.440   4.825   6.543  1.7242  1.6499 -1.4227
   95SAPS    HB 9362  -0.375   4.686   6.644  0.2318  0.4875  2.0473
   95SAPS    C2 9363  -0.344   4.878   6.729 -0.5736  0.5929  0.2752
   95SAPS    HS 9364  -0.294   4.970   6.693  0.5426 -0.1419 -0.0935
   95SAPS   O21 9365  -0.273   4.799   6.824  0.1566 -0.5319  0.0546
   95SAPS   C21 9366  -0.139   4.825   6.823  0.1371  0.2072 -0.7901
   95SAPS   O22 9367  -0.085   4.919   6.767  1.1557 -0.2780 -0.0056
   95SAPS   C22 9368  -0.076   4.719   6.908 -0.5975  0.9816 -0.7347
   95SAPS   H2R 9369  -0.147   4.644   6.950  1.9696 -1.5788 -0.6876
   95SAPS   H2S 9370  -0.005   4.660   6.847  0.4428  3.1060 -1.6844
   95SAPS    C3 9371  -0.487   4.913   6.792 -0.1631  0.3673 -0.5077
   95SAPS    HX 9372  -0.548   4.821   6.798 -0.4959  0.6927  2.3858
   95SAPS    HY 9373  -0.537   4.986   6.724 -1.7013  0.7221  0.9280
   95SAPS   O31 9374  -0.470   4.970   6.927  0.1211 -0.5625 -0.0445
   95SAPS   C31 9375  -0.575   4.956   7.001  1.0880 -0.0705 -0.0568
   95SAPS   O32 9376  -0.685   4.913   6.962 -0.1415 -0.0299  0.1673
   95SAPS   C32 9377  -0.557   5.010   7.143 -0.4505  0.3596  0.7876
   95SAPS   H2X 9378  -0.598   5.113   7.144  1.5772  1.2326 -0.5769
   95SAPS   H2Y 9379  -0.447   5.018   7.156 -0.2686  0.7124 -0.8019
   95SAPS   C23 9380  -0.001   4.789   7.034  0.0250  0.5535  0.5551
   95SAPS   H3R 9381   0.066   4.869   6.996 -1.9935  0.7391 -3.0854
   95SAPS   H3S 9382   0.063   4.710   7.078  0.8808  0.5614 -0.6136
   95SAPS   C24 9383  -0.103   4.850   7.137 -0.4467  0.4724  0.4542
   95SAPS   H4R 9384  -0.170   4.921   7.084 -1.7405 -0.4462  0.8044
   95SAPS   H4S 9385  -0.043   4.923   7.195  0.7563  1.4303 -1.8406
   95SAPS   C25 9386  -0.178   4.749   7.218 -0.1849 -0.4196 -0.3624
   95SAPS   H5R 9387  -0.213   4.653   7.177 -1.4459  0.0398 -0.4218
   95SAPS   C26 9388  -0.209   4.760   7.348  0.4351  0.7156 -0.4259
   95SAPS   H6R 9389  -0.245   4.669   7.398  1.3979  1.2173  1.2507
   95SAPS   C27 9390  -0.177   4.870   7.444  0.7042 -0.0192  0.2217
   95SAPS   H7R 9391  -0.157   4.968   7.396  1.0065 -1.0362 -1.8471
   95SAPS   H7S 9392  -0.071   4.856   7.472  1.6071 -0.2457 -2.9503
   95SAPS   C28 9393  -0.281   4.889   7.558 -0.7119 -0.0517 -0.4826
   95SAPS   H8R 9394  -0.358   4.965   7.536  0.0058  0.3329 -1.8284
   95SAPS   C29 9395  -0.291   4.816   7.669 -0.3543 -0.4414 -0.2084
   95SAPS   H9R 9396  -0.355   4.850   7.752  0.5915 -1.6099  1.0389
   95SAPS  C210 9397  -0.193   4.703   7.697  0.4584  0.2335 -0.7244
   95SAPS  H10R 9398  -0.093   4.731   7.660  1.5939 -1.0848  1.1516
   95SAPS  H10S 9399  -0.223   4.616   7.634  2.3067 -0.7640 -0.2783
   95SAPS  C211 9400  -0.166   4.669   7.843 -0.0762  0.4883  0.2942
   95SAPS  H11R 9401  -0.075   4.718   7.881 -0.7219  4.0878 -2.3755
   95SAPS  C212 9402  -0.242   4.597   7.929  0.2804  0.6023 -0.3562
   95SAPS  H12R 9403  -0.202   4.577   8.029 -2.9771  0.0416  0.9572
   95SAPS  C213 9404  -0.372   4.527   7.889  0.3285 -0.5558 -0.7989
   95SAPS  H13R 9405  -0.393   4.512   7.781 -2.6802  0.5812 -0.4511
   95SAPS  H13S 9406  -0.461   4.581   7.927 -0.2577 -2.0833  0.0821
   95SAPS  C214 9407  -0.401   4.397   7.954 -0.4433  0.5541  0.2170
   95SAPS  H14R 9408  -0.388   4.312   7.885 -0.2075  1.3582 -0.7631
   95SAPS  C215 9409  -0.438   4.373   8.079  0.3650 -0.2941 -0.3296
   95SAPS  H15R 9410  -0.449   4.268   8.108  0.7511 -0.0963  0.5442
   95SAPS  C216 9411  -0.448   4.463   8.199 -0.1842 -0.5534 -0.4605
   95SAPS  H16R 9412  -0.535   4.416   8.251  0.0878  1.4824  2.0394
   95SAPS  H16S 9413  -0.476   4.570   8.192  0.5166 -0.4060 -1.1429
   95SAPS  C217 9414  -0.337   4.425   8.304 -0.3462  0.4520 -0.0666
   95SAPS  H17R 9415  -0.239   4.437   8.252 -0.4882  1.1668 -0.1829
   95SAPS  H17S 9416  -0.348   4.321   8.339  0.4233 -0.4232 -2.2574
   95SAPS  C218 9417  -0.325   4.537   8.415 -0.1245 -0.0262  0.6358
   95SAPS  H18R 9418  -0.402   4.513   8.491 -0.7695  1.5642  0.5172
   95SAPS  H18S 9419  -0.355   4.634   8.371  1.0822  0.2764  0.4402
   95SAPS  C219 9420  -0.184   4.557   8.477 -0.0804 -0.3152  0.4788
   95SAPS  H19R 9421  -0.118   4.593   8.395  0.7580  2.5742  2.2614
   95SAPS  H19S 9422  -0.148   4.458   8.509  0.5080 -0.3502 -0.2769
   95SAPS  C220 9423  -0.189   4.647   8.597  0.7927  0.6805 -0.0570
   95SAPS  H20R 9424  -0.095   4.630   8.655  0.0969 -1.1163  0.6138
   95SAPS  H20S 9425  -0.273   4.617   8.663 -1.1945  2.4719 -1.6245
   95SAPS  H20T 9426  -0.212   4.753   8.574 -0.6828 -0.1369 -2.7626
   95SAPS   C33 9427  -0.640   4.937   7.259 -0.7017  0.2709 -0.1169
   95SAPS   H3X 9428  -0.640   4.828   7.277 -1.4798  0.6854  3.1220
   95SAPS   H3Y 9429  -0.746   4.966   7.242 -0.4004  1.9826  0.6443
   95SAPS   C34 9430  -0.621   4.996   7.405 -0.7041 -0.4456  0.3435
   95SAPS   H4X 9431  -0.655   5.101   7.414  2.4039  0.4501  3.4168
   95SAPS   H4Y 9432  -0.512   5.000   7.427 -0.7044 -1.7145  0.6726
   95SAPS   C35 9433  -0.690   4.904   7.508  0.4375  0.0875 -0.7820
   95SAPS   H5X 9434  -0.646   4.803   7.492  0.2086 -0.1503  0.0429
   95SAPS   H5Y 9435  -0.797   4.893   7.482  0.8523 -1.4750 -1.9538
   95SAPS   C36 9436  -0.663   4.944   7.652 -0.0333 -1.0810 -0.1154
   95SAPS   H6X 9437  -0.693   5.050   7.669 -1.2361 -0.8576 -3.0803
   95SAPS   H6Y 9438  -0.553   4.933   7.659 -0.0878 -1.2041  0.5924
   95SAPS   C37 9439  -0.732   4.866   7.759  0.1157  0.7104 -0.4158
   95SAPS   H7X 9440  -0.749   4.757   7.745 -0.5457  0.7567 -0.0369
   95SAPS   H7Y 9441  -0.836   4.901   7.777  0.1632  0.4938  0.3303
   95SAPS   C38 9442  -0.654   4.870   7.893  0.5237  0.3673  0.3754
   95SAPS   H8X 9443  -0.650   4.975   7.930 -0.0787 -0.7899  4.2857
   95SAPS   H8Y 9444  -0.552   4.830   7.877  0.4184 -0.5939  1.8641
   95SAPS   C39 9445  -0.722   4.787   8.004  0.1497  0.3154  0.3412
   95SAPS   H9X 9446  -0.717   4.685   7.962 -0.0151  0.2167  0.5580
   95SAPS   H9Y 9447  -0.821   4.837   8.010 -0.7243 -1.4025  1.1613
   95SAPS  C310 9448  -0.654   4.809   8.142  0.6287  0.6090 -0.7591
   95SAPS  H10X 9449  -0.665   4.915   8.172 -1.0129  0.5726 -1.1276
   95SAPS  H10Y 9450  -0.546   4.790   8.124  0.6534  0.1549 -0.1782
   95SAPS  C311 9451  -0.708   4.723   8.256  0.5811 -0.3386 -0.8701
   95SAPS  H11X 9452  -0.693   4.616   8.233  2.3011 -0.8265  2.0527
   95SAPS  H11Y 9453  -0.818   4.744   8.256  0.9161  1.6560 -0.8132
   95SAPS  C312 9454  -0.644   4.752   8.390 -0.9753  0.2856 -0.0768
   95SAPS  H12X 9455  -0.632   4.862   8.394 -1.0841  0.3707 -1.5600
   95SAPS  H12Y 9456  -0.545   4.701   8.396 -1.4203 -0.5813 -0.0294
   95SAPS  C313 9457  -0.723   4.724   8.516 -0.6499  0.2526 -0.4471
   95SAPS  H13X 9458  -0.814   4.785   8.504 -1.7313 -1.4874 -1.5368
   95SAPS  H13Y 9459  -0.680   4.756   8.613  1.7365 -0.7356 -1.0919
   95SAPS  C314 9460  -0.760   4.571   8.535  0.3243  0.2474 -0.5454
   95SAPS  H14X 9461  -0.664   4.527   8.568 -0.1538  0.9011  1.9549
   95SAPS  H14Y 9462  -0.788   4.536   8.434  2.2757 -0.6353 -0.8100
   95SAPS  C315 9463  -0.874   4.547   8.630  0.7281  0.7244 -0.0885
   95SAPS  H15X 9464  -0.964   4.604   8.597 -0.3829 -0.4581  0.8012
   95SAPS  H15Y 9465  -0.847   4.596   8.725  2.1532  0.7955 -0.5120
   95SAPS  C316 9466  -0.905   4.393   8.649  0.4401 -0.4329 -0.3683
   95SAPS  H16X 9467  -0.816   4.350   8.699 -0.5024 -1.5965  0.3525
   95SAPS  H16Y 9468  -0.915   4.344   8.550  1.6854 -0.8944 -0.2840
   95SAPS  C317 9469  -1.030   4.378   8.735  0.2381  0.2370  0.0080
   95SAPS  H17X 9470  -1.117   4.431   8.691 -1.2312 -1.4119  0.7831
   95SAPS  H17Y 9471  -1.005   4.423   8.834 -0.1875 -0.1641  0.3007
   95SAPS  C318 9472  -1.075   4.231   8.747 -1.0308 -0.0553 -0.4232
   95SAPS  H18X 9473  -1.100   4.193   8.645 -0.4333 -1.8606  0.0667
   95SAPS  H18Y 9474  -1.166   4.224   8.811 -1.8647  1.6777 -1.3623
   95SAPS  H18Z 9475  -0.992   4.169   8.788 -0.1683  1.7343  0.6325
   96SAPS     N 9476   6.557   5.276   6.376  0.3090 -0.6723 -0.1022
   96SAPS   HN1 9477   6.491   5.197   6.363 -1.7208  0.3565  2.9318
   96SAPS   HN2 9478   6.655   5.243   6.366  0.5715  0.5176 -2.1022
   96SAPS   HN3 9479   6.552   5.308   6.474 -0.8092  2.2940 -1.0092
   96SAPS   C12 9480   6.527   5.381   6.276 -0.3126 -0.0296  0.3974
   96SAPS  H12A 9481   6.622   5.423   6.244  0.2739 -1.1726  0.6021
   96SAPS   C13 9482   6.473   5.306   6.148 -0.4020 -0.0183 -0.2415
   96SAPS  O13A 9483   6.470   5.182   6.140 -0.0496  0.3067  0.0759
   96SAPS  O13B 9484   6.429   5.379   6.053  0.2305 -0.3582  0.5095
   96SAPS   C11 9485   6.425   5.483   6.333 -0.7960 -0.0685 -0.1858
   96SAPS  H11A 9486   6.417   5.565   6.259  1.9526 -0.5752 -1.1560
   96SAPS  H11B 9487   6.451   5.521   6.434 -2.3096  0.4567  0.0300
   96SAPS     P 9488   6.180   5.458   6.457 -0.2358  0.3411  0.3426
   96SAPS   O13 9489   6.117   5.586   6.417  1.2482  0.0991 -0.5844
   96SAPS   O14 9490   6.099   5.341   6.461  0.6092 -0.2858 -0.7900
   96SAPS   O12 9491   6.301   5.426   6.355  0.2313  0.3922  0.7204
   96SAPS   O11 9492   6.244   5.474   6.589 -0.3091 -0.3676  0.1260
   96SAPS    C1 9493   6.335   5.374   6.642 -0.1867 -0.1454 -0.9575
   96SAPS    HA 9494   6.278   5.289   6.685  0.5315 -1.8158 -3.1027
   96SAPS    HB 9495   6.390   5.318   6.564 -0.2497 -0.8710 -0.4860
   96SAPS    C2 9496   6.424   5.450   6.751 -0.1358 -0.3153  0.2161
   96SAPS    HS 9497   6.473   5.534   6.698 -1.4905  0.5016  0.2219
   96SAPS   O21 9498   6.524   5.366   6.812  0.8941 -0.7129 -0.3089
   96SAPS   C21 9499   6.617   5.321   6.741 -0.3875  0.1873 -0.9078
   96SAPS   O22 9500   6.624   5.334   6.617 -0.0727 -0.0476  0.3934
   96SAPS   C22 9501   6.727   5.257   6.826 -0.2547  0.4237  0.0750
   96SAPS   H2R 9502   6.778   5.186   6.758  0.2733 -1.2200  2.0723
   96SAPS   H2S 9503   6.808   5.329   6.851  1.1319 -0.1200 -2.5087
   96SAPS    C3 9504   6.333   5.518   6.860  0.4931 -0.0142  0.5381
   96SAPS    HX 9505   6.276   5.435   6.908 -2.5020  0.7131 -1.4460
   96SAPS    HY 9506   6.247   5.578   6.822  0.7542  0.7592  1.1670
   96SAPS   O31 9507   6.397   5.594   6.955  0.3958  0.3176 -0.9235
   96SAPS   C31 9508   6.458   5.707   6.924 -0.0224  0.0578  0.7385
   96SAPS   O32 9509   6.446   5.761   6.817 -0.1554  0.8759 -0.4949
   96SAPS   C32 9510   6.553   5.747   7.036 -0.8930 -0.3454  0.2910
   96SAPS   H2X 9511   6.647   5.688   7.046  1.1295  2.6573  0.1692
   96SAPS   H2Y 9512   6.496   5.718   7.126 -2.1758 -0.2091 -0.4519
   96SAPS   C23 9513   6.673   5.184   6.953  0.1472 -0.3354  0.4770
   96SAPS   H3R 9514   6.719   5.083   6.964 -0.6214 -0.6690  0.6931
   96SAPS   H3S 9515   6.564   5.161   6.949  0.4374 -1.6680 -0.2207
   96SAPS   C24 9516   6.698   5.248   7.085 -0.4874  0.0670  0.4179
   96SAPS   H4R 9517   6.806   5.271   7.100 -0.1363 -0.4576 -1.1773
   96SAPS   H4S 9518   6.669   5.182   7.170 -2.0030  0.1470 -0.0092
   96SAPS   C25 9519   6.631   5.377   7.111  0.0251 -0.5031 -0.0211
   96SAPS   H5R 9520   6.684   5.455   7.054 -1.8990  0.8566 -0.0457
   96SAPS   C26 9521   6.537   5.409   7.198  0.4343  0.1234 -0.1121
   96SAPS   H6R 9522   6.503   5.514   7.207 -1.1585 -0.4799  1.5332
   96SAPS   C27 9523   6.475   5.309   7.300 -0.7347 -0.0884  0.3679
   96SAPS   H7R 9524   6.556   5.264   7.361  0.1964  0.2661 -0.5713
   96SAPS   H7S 9525   6.418   5.234   7.241  0.3103 -2.3756  2.1140
   96SAPS   C28 9526   6.381   5.373   7.396  0.4208  0.0787 -0.4295
   96SAPS   H8R 9527   6.297   5.430   7.353 -1.2508 -0.5954  1.7361
   96SAPS   C29 9528   6.375   5.348   7.529 -0.3951 -0.1192 -0.7057
   96SAPS   H9R 9529   6.303   5.406   7.589 -0.4109  0.5256 -1.3372
   96SAPS  C210 9530   6.463   5.247   7.602 -0.6162 -0.5056  0.0496
   96SAPS  H10R 9531   6.499   5.168   7.533  1.1513 -0.3888  0.7820
   96SAPS  H10S 9532   6.395   5.190   7.669 -1.8834 -0.2027 -0.9389
   96SAPS  C211 9533   6.579   5.299   7.682 -1.1113  0.0357  0.2094
   96SAPS  H11R 9534   6.636   5.383   7.640 -1.2674 -0.6914 -1.5499
   96SAPS  C212 9535   6.620   5.255   7.800  0.3460 -0.4337 -0.0748
   96SAPS  H12R 9536   6.713   5.304   7.834 -1.0718  2.1261  0.3665
   96SAPS  C213 9537   6.577   5.140   7.888  0.4539 -0.1267 -0.0349
   96SAPS  H13R 9538   6.649   5.143   7.972 -0.8351 -2.9640  1.3035
   96SAPS  H13S 9539   6.588   5.043   7.836  0.1099  0.1335 -0.6079
   96SAPS  C214 9540   6.442   5.133   7.958  0.1389 -0.5282 -0.2016
   96SAPS  H14R 9541   6.369   5.205   7.919  1.5652  0.5131 -1.0197
   96SAPS  C215 9542   6.410   5.044   8.056  0.0767  0.7331  0.3448
   96SAPS  H15R 9543   6.303   5.041   8.079  0.1012 -2.7836  0.5905
   96SAPS  C216 9544   6.495   4.935   8.118  0.5645 -0.3490 -0.6082
   96SAPS  H16R 9545   6.602   4.950   8.096  0.6879 -0.9557 -0.4412
   96SAPS  H16S 9546   6.462   4.836   8.081 -0.1651 -0.9907  1.5926
   96SAPS  C217 9547   6.482   4.924   8.279  0.0300 -0.5447 -0.0791
   96SAPS  H17R 9548   6.549   4.842   8.312 -0.3688 -0.4531  0.9761
   96SAPS  H17S 9549   6.375   4.896   8.293 -0.9487  2.1026 -1.4956
   96SAPS  C218 9550   6.521   5.063   8.345  0.0322  0.1186  0.2932
   96SAPS  H18R 9551   6.453   5.148   8.323 -0.0386 -0.1127 -0.3895
   96SAPS  H18S 9552   6.619   5.096   8.306  1.0307 -0.1730  2.4024
   96SAPS  C219 9553   6.534   5.048   8.495  0.1657  0.7611  0.0054
   96SAPS  H19R 9554   6.607   4.967   8.514  0.7486  0.2098 -3.9243
   96SAPS  H19S 9555   6.434   5.016   8.533  0.3162 -0.8740 -0.9028
   96SAPS  C220 9556   6.563   5.174   8.577 -0.0286  0.4372 -0.0320
   96SAPS  H20R 9557   6.547   5.160   8.686 -1.8433  1.9101 -0.0559
   96SAPS  H20S 9558   6.474   5.239   8.573 -0.7859 -0.4330  1.7912
   96SAPS  H20T 9559   6.658   5.228   8.552 -0.8888  1.3687 -1.4358
   96SAPS   C33 9560   6.598   5.892   7.036  0.4526 -0.8786  0.3117
   96SAPS   H3X 9561   6.616   5.931   6.933  3.1230 -1.6604  0.4107
   96SAPS   H3Y 9562   6.692   5.902   7.094  0.5003 -2.5773  0.5646
   96SAPS   C34 9563   6.493   5.996   7.093 -0.6958  0.1474  0.0503
   96SAPS   H4X 9564   6.482   5.968   7.200  0.5416  0.4261  0.2654
   96SAPS   H4Y 9565   6.392   5.979   7.051 -0.9868  1.2440  0.2815
   96SAPS   C35 9566   6.523   6.143   7.072  0.2525 -0.5987  0.2356
   96SAPS   H5X 9567   6.520   6.161   6.962  1.8774  0.4665  0.3305
   96SAPS   H5Y 9568   6.628   6.174   7.090  0.7816 -2.1516 -0.0602
   96SAPS   C36 9569   6.417   6.216   7.148 -0.0182 -0.1462 -0.0986
   96SAPS   H6X 9570   6.361   6.138   7.205  0.7469 -1.3384 -0.9370
   96SAPS   H6Y 9571   6.355   6.281   7.082  1.0639  0.2092 -0.7894
   96SAPS   C37 9572   6.478   6.311   7.256  1.2523  0.1877  0.2416
   96SAPS   H7X 9573   6.402   6.392   7.266  0.5944 -0.3383 -0.3986
   96SAPS   H7Y 9574   6.563   6.362   7.205  1.1859  0.5367  0.4768
   96SAPS   C38 9575   6.502   6.231   7.382 -0.1054 -0.0124  0.6612
   96SAPS   H8X 9576   6.588   6.165   7.360  0.6562  0.2775  2.5462
   96SAPS   H8Y 9577   6.422   6.158   7.408  0.9490 -0.8154  1.7828
   96SAPS   C39 9578   6.535   6.316   7.505  0.2947  0.5126 -0.1785
   96SAPS   H9X 9579   6.460   6.397   7.512 -1.1055 -0.5706 -1.9518
   96SAPS   H9Y 9580   6.638   6.357   7.490  0.5039 -0.5580 -1.9057
   96SAPS  C310 9581   6.549   6.231   7.631  0.0765  0.4229 -0.0903
   96SAPS  H10X 9582   6.631   6.156   7.620 -1.4829 -1.1498 -1.6811
   96SAPS  H10Y 9583   6.462   6.162   7.633  1.0118 -0.8717 -1.6814
   96SAPS  C311 9584   6.558   6.313   7.757  0.0381  0.4370  0.6194
   96SAPS  H11X 9585   6.471   6.382   7.764  0.1250  0.5447  0.6356
   96SAPS  H11Y 9586   6.647   6.378   7.740 -0.7452  1.1975 -0.7513
   96SAPS  C312 9587   6.576   6.241   7.892 -0.1022  0.5631 -0.1993
   96SAPS  H12X 9588   6.676   6.192   7.892 -0.7626 -0.8609  0.5701
   96SAPS  H12Y 9589   6.494   6.167   7.905  0.2370  0.4937  1.9135
   96SAPS  C313 9590   6.587   6.352   7.994 -0.2143 -0.0746 -0.7713
   96SAPS  H13X 9591   6.489   6.404   8.008  1.0675  3.1638 -2.6898
   96SAPS  H13Y 9592   6.668   6.422   7.966 -2.3277  2.0871 -1.8886
   96SAPS  C314 9593   6.618   6.285   8.129 -0.0948 -0.0859 -0.5813
   96SAPS  H14X 9594   6.696   6.207   8.112  0.4010  0.0170  0.9633
   96SAPS  H14Y 9595   6.534   6.227   8.172 -1.7468  1.3154 -1.7797
   96SAPS  C315 9596   6.686   6.385   8.227 -0.2240 -0.1320 -0.0490
   96SAPS  H15X 9597   6.777   6.423   8.175 -0.8026 -0.3009 -1.2040
   96SAPS  H15Y 9598   6.728   6.338   8.319  0.3504 -0.8014 -0.6428
   96SAPS  C316 9599   6.599   6.504   8.261  0.0627  0.3425 -0.7317
   96SAPS  H16X 9600   6.595   6.578   8.178  0.1491  1.7543  0.4800
   96SAPS  H16Y 9601   6.646   6.561   8.344  0.2363 -2.6547  1.3946
   96SAPS  C317 9602   6.462   6.476   8.324 -0.2788 -0.1083  0.2174
   96SAPS  H17X 9603   6.384   6.444   8.251  1.0770 -0.0466 -1.3279
   96SAPS  H17Y 9604   6.425   6.569   8.373 -0.4599 -0.6342  1.0936
   96SAPS  C318 9605   6.455   6.370   8.439  0.3717 -0.3316 -0.7080
   96SAPS  H18X 9606   6.537   6.393   8.509 -1.0362  1.7911  0.3747
   96SAPS  H18Y 9607   6.467   6.268   8.396  0.9638 -0.5165 -0.1088
   96SAPS  H18Z 9608   6.353   6.374   8.484  1.3032  0.7227  1.3974
   97SAPS     N 9609   0.827   3.770   6.279  0.1283 -0.1408  0.3255
   97SAPS   HN1 9610   0.835   3.718   6.189  1.5167 -1.1705  1.0110
   97SAPS   HN2 9611   0.784   3.864   6.270  0.9240  0.1832 -0.2905
   97SAPS   HN3 9612   0.922   3.797   6.312 -0.2823 -1.7379  3.1682
   97SAPS   C12 9613   0.775   3.682   6.397 -0.2739 -0.5876  0.0170
   97SAPS  H12A 9614   0.673   3.651   6.381 -0.9087  1.0794  0.5672
   97SAPS   C13 9615   0.855   3.547   6.423  1.2615 -1.0417 -1.1560
   97SAPS  O13A 9616   0.963   3.528   6.367 -0.3949  1.0023 -0.2310
   97SAPS  O13B 9617   0.810   3.475   6.514  0.7810 -0.1296 -0.1020
   97SAPS   C11 9618   0.778   3.759   6.537 -0.2857 -0.5148  0.2375
   97SAPS  H11A 9619   0.880   3.783   6.573 -0.7730  1.3667  0.4610
   97SAPS  H11B 9620   0.735   3.696   6.618  1.0618 -2.0937 -0.2193
   97SAPS     P 9621   0.557   3.890   6.549 -0.1064 -0.1588 -0.2828
   97SAPS   O13 9622   0.513   4.031   6.518 -0.5302 -0.4781 -0.0456
   97SAPS   O14 9623   0.489   3.782   6.471  0.2153  0.1710 -0.2524
   97SAPS   O12 9624   0.711   3.883   6.521 -0.2237  0.0387 -0.3998
   97SAPS   O11 9625   0.548   3.862   6.708 -0.0889 -0.2821  0.4573
   97SAPS    C1 9626   0.638   3.929   6.806  0.3183  0.3540 -0.3603
   97SAPS    HA 9627   0.740   3.924   6.761  0.6608 -2.4658  0.5055
   97SAPS    HB 9628   0.608   4.034   6.823  1.9855  0.7958 -0.0004
   97SAPS    C2 9629   0.634   3.853   6.945 -0.4695 -0.5594  0.6378
   97SAPS    HS 9630   0.701   3.912   7.012 -1.0070  0.8261  0.0048
   97SAPS   O21 9631   0.672   3.724   6.929  0.4123  0.0472  0.1954
   97SAPS   C21 9632   0.792   3.699   6.891  0.6273  0.0616 -0.4019
   97SAPS   O22 9633   0.886   3.777   6.882 -0.3075 -0.3205 -0.6652
   97SAPS   C22 9634   0.807   3.551   6.868 -0.3449  0.0425  0.2847
   97SAPS   H2R 9635   0.750   3.528   6.775  0.4662  3.6409 -1.2567
   97SAPS   H2S 9636   0.917   3.539   6.864 -0.3957 -0.4739  0.3951
   97SAPS    C3 9637   0.487   3.858   7.000 -0.8081 -0.8324  0.3419
   97SAPS    HX 9638   0.417   3.804   6.932  1.5219 -0.0157 -2.9078
   97SAPS    HY 9639   0.466   3.967   7.005 -0.0663 -0.7457  2.8738
   97SAPS   O31 9640   0.478   3.803   7.134 -0.1960 -0.1508 -0.7086
   97SAPS   C31 9641   0.539   3.864   7.233  0.4555  0.2570 -0.1187
   97SAPS   O32 9642   0.587   3.975   7.227 -0.1610 -0.6154 -0.4076
   97SAPS   C32 9643   0.556   3.770   7.348  0.3005 -1.0794 -0.7329
   97SAPS   H2X 9644   0.616   3.685   7.308  1.5119 -1.1030  1.0244
   97SAPS   H2Y 9645   0.459   3.720   7.370 -1.4715  1.2854 -2.5822
   97SAPS   C23 9646   0.743   3.457   6.979  1.0365  0.0875  0.3815
   97SAPS   H3R 9647   0.637   3.485   6.993  1.2528  0.5028  1.2758
   97SAPS   H3S 9648   0.791   3.477   7.077  2.0853  0.8256 -0.2640
   97SAPS   C24 9649   0.745   3.308   6.956  0.4392  0.3257 -0.0815
   97SAPS   H4R 9650   0.694   3.285   6.860  2.6010  1.7496 -1.6558
   97SAPS   H4S 9651   0.683   3.261   7.036 -0.5103  1.0931 -0.3513
   97SAPS   C25 9652   0.882   3.250   6.960  0.4577 -0.3094 -1.1027
   97SAPS   H5R 9653   0.954   3.287   6.885  2.1980 -0.0267  0.6314
   97SAPS   C26 9654   0.926   3.156   7.050  0.1688 -0.1035  0.3694
   97SAPS   H6R 9655   1.024   3.112   7.025  0.5585 -0.5445  2.4772
   97SAPS   C27 9656   0.857   3.095   7.161 -0.3575 -0.1793 -0.6288
   97SAPS   H7R 9657   0.751   3.079   7.131 -0.5822  1.4731 -0.7933
   97SAPS   H7S 9658   0.848   3.162   7.250  1.1671  0.5920 -1.0399
   97SAPS   C28 9659   0.907   2.966   7.218 -0.1725  0.0218 -0.4757
   97SAPS   H8R 9660   0.948   2.899   7.142 -3.5930 -2.4432 -0.3968
   97SAPS   C29 9661   0.908   2.925   7.351 -0.4624  0.5088 -0.6438
   97SAPS   H9R 9662   0.955   2.829   7.376 -3.0363 -0.8245 -0.6465
   97SAPS  C210 9663   0.857   2.998   7.476 -0.8168  0.1423 -0.1760
   97SAPS  H10R 9664   0.844   2.932   7.564 -1.8627 -0.3817 -0.7134
   97SAPS  H10S 9665   0.763   3.052   7.453 -0.3246  1.5413  0.9499
   97SAPS  C211 9666   0.968   3.097   7.502 -0.4810 -0.1868 -0.7525
   97SAPS  H11R 9667   1.005   3.149   7.413 -0.3308 -1.5531 -1.5261
   97SAPS  C212 9668   1.036   3.121   7.618 -0.0859 -0.0489 -0.7207
   97SAPS  H12R 9669   1.124   3.187   7.610  1.7541 -1.8902  2.3513
   97SAPS  C213 9670   1.004   3.066   7.757  0.0833  0.0014 -0.1538
   97SAPS  H13R 9671   0.938   2.977   7.753 -0.5557  0.4021  1.1710
   97SAPS  H13S 9672   0.944   3.142   7.811 -1.9117 -1.8538  0.3871
   97SAPS  C214 9673   1.115   3.017   7.835  0.0695  0.3947  0.1283
   97SAPS  H14R 9674   1.144   2.915   7.807  2.6366  0.8091  1.0429
   97SAPS  C215 9675   1.164   3.069   7.949 -0.1299  0.0256 -0.4709
   97SAPS  H15R 9676   1.250   3.013   7.989  0.4588 -0.1057 -1.8720
   97SAPS  C216 9677   1.137   3.202   8.018 -0.2058 -0.6371 -0.8293
   97SAPS  H16R 9678   1.095   3.182   8.118  0.7167 -1.0188 -0.5041
   97SAPS  H16S 9679   1.061   3.264   7.966  1.0847  0.0008 -2.0571
   97SAPS  C217 9680   1.274   3.277   8.025 -0.0196  0.0033 -0.3325
   97SAPS  H17R 9681   1.301   3.301   7.919  0.6166  1.3610  0.1110
   97SAPS  H17S 9682   1.354   3.205   8.051  0.1378 -0.5420 -2.1389
   97SAPS  C218 9683   1.295   3.395   8.126  0.3969 -0.6007  0.4622
   97SAPS  H18R 9684   1.299   3.353   8.229 -1.1502  0.6732  1.0895
   97SAPS  H18S 9685   1.209   3.465   8.121  0.0749 -0.9778  0.6247
   97SAPS  C219 9686   1.435   3.462   8.094 -0.0648  0.3998  0.2724
   97SAPS  H19R 9687   1.453   3.552   8.157  0.9752  1.0737 -0.9514
   97SAPS  H19S 9688   1.420   3.488   7.987 -1.2171  1.4484  0.6690
   97SAPS  C220 9689   1.560   3.376   8.126 -0.2763 -0.0182  0.1736
   97SAPS  H20R 9690   1.649   3.425   8.082 -1.0569  1.3175  0.0233
   97SAPS  H20S 9691   1.560   3.268   8.101 -0.0798 -0.3447  1.5087
   97SAPS  H20T 9692   1.586   3.392   8.232 -1.0599  0.9586  0.2392
   97SAPS   C33 9693   0.651   3.837   7.454  0.7734  0.0968 -0.1878
   97SAPS   H3X 9694   0.587   3.912   7.504 -0.0069 -1.5130  1.3175
   97SAPS   H3Y 9695   0.742   3.876   7.405  0.8657 -0.5711 -0.5595
   97SAPS   C34 9696   0.690   3.746   7.567  0.8727  0.9443 -0.5155
   97SAPS   H4X 9697   0.744   3.660   7.523 -3.0029 -1.5659 -0.8425
   97SAPS   H4Y 9698   0.594   3.703   7.603  1.4737 -0.0502 -0.0422
   97SAPS   C35 9699   0.760   3.802   7.695  0.3929  0.0715  0.0814
   97SAPS   H5X 9700   0.704   3.889   7.736 -1.3175 -1.5432  1.3166
   97SAPS   H5Y 9701   0.859   3.845   7.667  1.6765 -2.3206  0.6727
   97SAPS   C36 9702   0.793   3.683   7.795  0.1778  0.3982  0.6328
   97SAPS   H6X 9703   0.856   3.613   7.735 -0.7028 -0.5755  0.8219
   97SAPS   H6Y 9704   0.693   3.639   7.813  0.0552  1.1435  1.9312
   97SAPS   C37 9705   0.843   3.733   7.931 -0.8070  1.1273 -0.1345
   97SAPS   H7X 9706   0.755   3.781   7.979 -0.0580 -0.2905  2.8585
   97SAPS   H7Y 9707   0.929   3.803   7.927  0.5382 -0.3645  1.2472
   97SAPS   C38 9708   0.879   3.612   8.021  0.0612  0.0111 -0.5537
   97SAPS   H8X 9709   0.925   3.532   7.960  0.9938  0.3885 -0.3520
   97SAPS   H8Y 9710   0.784   3.571   8.063  0.8053 -1.6183 -0.4041
   97SAPS   C39 9711   0.965   3.643   8.141  0.4542  0.7631 -0.0844
   97SAPS   H9X 9712   0.941   3.746   8.176 -0.7786  0.7502 -0.8506
   97SAPS   H9Y 9713   1.073   3.651   8.115  0.3943 -0.4543 -0.7783
   97SAPS  C310 9714   0.951   3.542   8.260 -0.7054  0.5287  0.6104
   97SAPS  H10X 9715   1.006   3.447   8.241 -0.6526  0.4915  0.9356
   97SAPS  H10Y 9716   0.845   3.517   8.284 -0.5656  0.6931  1.4534
   97SAPS  C311 9717   1.000   3.600   8.397  0.9589 -0.4519  0.2554
   97SAPS  H11X 9718   0.959   3.534   8.477  1.3352 -1.0898 -0.0634
   97SAPS  H11Y 9719   0.936   3.690   8.400 -1.8933 -1.9683 -4.3014
   97SAPS  C312 9720   1.151   3.623   8.417  0.2823  0.0427  0.2559
   97SAPS  H12X 9721   1.168   3.710   8.485 -0.5533 -0.2981  0.9261
   97SAPS  H12Y 9722   1.209   3.647   8.326  3.0872 -1.1754  1.6035
   97SAPS  C313 9723   1.226   3.503   8.485  0.2910  0.7596  0.2671
   97SAPS  H13X 9724   1.219   3.418   8.414  1.9400 -0.6913  1.7386
   97SAPS  H13Y 9725   1.168   3.471   8.574  0.6264  0.5469  0.4136
   97SAPS  C314 9726   1.377   3.530   8.513  0.2233 -0.6452  0.0872
   97SAPS  H14X 9727   1.377   3.595   8.602 -2.3554 -0.0774 -0.2570
   97SAPS  H14Y 9728   1.423   3.596   8.436  0.5301  1.2778  1.8530
   97SAPS  C315 9729   1.460   3.398   8.518 -0.7127  0.4566 -0.2104
   97SAPS  H15X 9730   1.433   3.341   8.427 -1.4502  0.3483  0.0698
   97SAPS  H15Y 9731   1.425   3.334   8.602 -4.3383  0.9518 -1.1668
   97SAPS  C316 9732   1.616   3.410   8.518  0.0935  0.3598 -0.0323
   97SAPS  H16X 9733   1.634   3.484   8.598  0.2145  0.1270  0.1560
   97SAPS  H16Y 9734   1.649   3.456   8.423 -1.2256  2.1888  0.3481
   97SAPS  C317 9735   1.691   3.283   8.547  0.2216 -0.0622 -0.1227
   97SAPS  H17X 9736   1.667   3.192   8.488 -1.7403 -0.1384  0.7079
   97SAPS  H17Y 9737   1.675   3.249   8.652 -0.3271 -0.2380 -0.2626
   97SAPS  C318 9738   1.842   3.312   8.546 -0.2868  0.2458  0.9715
   97SAPS  H18X 9739   1.863   3.399   8.612  0.8862  0.4846  0.3107
   97SAPS  H18Y 9740   1.873   3.332   8.441 -1.9707  0.5355  0.5039
   97SAPS  H18Z 9741   1.911   3.230   8.573  1.4858  0.3024 -2.7878
   98SAPS     N 9742   6.244   3.488   6.441  0.7320 -0.2964 -0.0821
   98SAPS   HN1 9743   6.276   3.582   6.473 -0.3486  0.7554 -1.9612
   98SAPS   HN2 9744   6.187   3.440   6.513  0.8759 -2.8867 -1.5822
   98SAPS   HN3 9745   6.324   3.422   6.436  0.6493 -0.6344  2.0648
   98SAPS   C12 9746   6.166   3.526   6.313  0.8029  0.2041 -0.3252
   98SAPS  H12A 9747   6.244   3.537   6.240 -0.2820  3.6048 -1.1681
   98SAPS   C13 9748   6.067   3.423   6.263  0.3086 -0.3481  0.2090
   98SAPS  O13A 9749   6.036   3.323   6.336 -0.2680  0.0308  0.3891
   98SAPS  O13B 9750   6.020   3.436   6.150 -0.3160 -0.3596  0.3708
   98SAPS   C11 9751   6.093   3.653   6.330  0.3850 -0.0482 -0.2494
   98SAPS  H11A 9752   6.024   3.636   6.416  0.1143 -0.4777 -0.5450
   98SAPS  H11B 9753   6.016   3.675   6.253  0.2932 -1.0460 -0.4484
   98SAPS     P 9754   6.148   3.907   6.326 -0.3919 -0.1230 -0.3725
   98SAPS   O13 9755   6.233   4.008   6.399  0.2365  0.4598 -0.5762
   98SAPS   O14 9756   6.143   3.923   6.184  0.4083  0.5315  0.2986
   98SAPS   O12 9757   6.186   3.762   6.359 -0.2240  1.0113  0.6277
   98SAPS   O11 9758   6.006   3.916   6.399 -0.4296  0.1688 -0.8527
   98SAPS    C1 9759   5.950   4.045   6.419 -0.4379  0.1300  0.7238
   98SAPS    HA 9760   5.983   4.118   6.342  4.6409 -0.5648  1.9003
   98SAPS    HB 9761   5.840   4.029   6.416 -0.7373  1.6961 -3.4070
   98SAPS    C2 9762   5.979   4.134   6.554 -0.5242 -0.0578 -0.8025
   98SAPS    HS 9763   6.090   4.137   6.553 -0.3774 -2.6811 -3.0136
   98SAPS   O21 9764   5.918   4.066   6.656 -0.4556  0.5557  0.3151
   98SAPS   C21 9765   5.972   4.093   6.777  0.2651  0.8006  0.5238
   98SAPS   O22 9766   6.084   4.145   6.798 -0.2582  0.1236  0.0884
   98SAPS   C22 9767   5.890   4.008   6.879  0.2019 -0.2147 -0.5883
   98SAPS   H2R 9768   5.805   3.955   6.830 -1.6509  0.7355  1.4088
   98SAPS   H2S 9769   5.952   3.933   6.932 -1.0473 -2.0767 -1.6381
   98SAPS    C3 9770   5.910   4.272   6.533 -0.2211  0.7428 -0.2455
   98SAPS    HX 9771   5.802   4.245   6.532 -0.1833  0.6187 -1.2373
   98SAPS    HY 9772   5.938   4.314   6.434  0.6088  0.1516 -0.2654
   98SAPS   O31 9773   5.945   4.363   6.640 -0.0777 -0.3029  0.3082
   98SAPS   C31 9774   6.072   4.409   6.637  0.3693  0.9104 -0.1615
   98SAPS   O32 9775   6.162   4.384   6.556  0.2556  1.1125 -0.2386
   98SAPS   C32 9776   6.096   4.504   6.749  0.4909 -0.4087  0.5373
   98SAPS   H2X 9777   6.018   4.486   6.826 -2.0414  3.4911 -0.7975
   98SAPS   H2Y 9778   6.060   4.604   6.715 -1.7776 -1.3642 -0.0390
   98SAPS   C23 9779   5.820   4.094   6.985  0.4456  0.4453 -0.5171
   98SAPS   H3R 9780   5.769   4.012   7.039  2.4081 -0.9040 -0.5972
   98SAPS   H3S 9781   5.739   4.160   6.947 -0.4804  0.6929  1.7062
   98SAPS   C24 9782   5.906   4.171   7.089 -0.0113  0.5651 -1.0719
   98SAPS   H4R 9783   5.958   4.249   7.030  2.5862  0.7958  1.2845
   98SAPS   H4S 9784   5.990   4.102   7.114  0.6715  1.3090 -1.2769
   98SAPS   C25 9785   5.840   4.213   7.227 -0.3702  0.0857  0.5497
   98SAPS   H5R 9786   5.809   4.318   7.236 -2.8702 -0.5235 -0.2964
   98SAPS   C26 9787   5.793   4.124   7.314 -0.1809 -0.0682  0.2489
   98SAPS   H6R 9788   5.743   4.170   7.401  1.6039  0.0050  1.2891
   98SAPS   C27 9789   5.805   3.973   7.312 -0.2592  0.2111 -0.3333
   98SAPS   H7R 9790   5.877   3.930   7.239  2.2787 -0.2364  2.2520
   98SAPS   H7S 9791   5.709   3.923   7.288  0.9821 -2.3547 -0.2774
   98SAPS   C28 9792   5.843   3.926   7.452 -0.1441 -0.3981  0.1541
   98SAPS   H8R 9793   5.930   3.983   7.487 -0.4687  0.2454 -0.0613
   98SAPS   C29 9794   5.762   3.839   7.533 -0.3128 -0.0322 -0.9315
   98SAPS   H9R 9795   5.795   3.804   7.631  1.2700  0.6755 -1.1711
   98SAPS  C210 9796   5.635   3.771   7.497 -0.0427 -0.1242 -0.0477
   98SAPS  H10R 9797   5.613   3.816   7.397  2.1467  1.6089  0.1725
   98SAPS  H10S 9798   5.552   3.804   7.562 -1.5744 -0.1880 -1.8608
   98SAPS  C211 9799   5.651   3.623   7.491 -0.2632 -0.5304 -0.2051
   98SAPS  H11R 9800   5.688   3.578   7.397 -1.4141 -3.3794  0.6060
   98SAPS  C212 9801   5.622   3.540   7.592  0.1216 -0.6649 -0.1601
   98SAPS  H12R 9802   5.640   3.432   7.578 -0.1309 -0.5397 -1.6153
   98SAPS  C213 9803   5.572   3.570   7.726 -0.2779  0.6193 -0.0991
   98SAPS  H13R 9804   5.468   3.532   7.720 -0.0225 -0.2143  0.5341
   98SAPS  H13S 9805   5.563   3.678   7.753 -1.8724  0.7735 -1.1283
   98SAPS  C214 9806   5.646   3.485   7.832  0.2236  0.4386 -0.1069
   98SAPS  H14R 9807   5.690   3.390   7.799  0.3899  0.7368 -0.7447
   98SAPS  C215 9808   5.666   3.524   7.962 -0.2542 -0.4073  0.3697
   98SAPS  H15R 9809   5.719   3.453   8.028  0.9281 -2.2859 -2.4102
   98SAPS  C216 9810   5.628   3.656   8.024 -0.4284 -0.6058 -0.5337
   98SAPS  H16R 9811   5.545   3.634   8.094 -1.1424 -0.0989 -1.2086
   98SAPS  H16S 9812   5.575   3.721   7.951  0.4932  2.1848  1.1400
   98SAPS  C217 9813   5.739   3.743   8.078 -0.1864  0.5435  0.0025
   98SAPS  H17R 9814   5.699   3.846   8.095 -1.7778  0.7285 -3.9614
   98SAPS  H17S 9815   5.819   3.751   8.002  0.6578 -3.4489  0.2707
   98SAPS  C218 9816   5.799   3.686   8.205 -0.3401 -0.2984 -0.0162
   98SAPS  H18R 9817   5.825   3.579   8.196 -0.1613 -0.1570 -1.3503
   98SAPS  H18S 9818   5.724   3.690   8.286 -0.4796  0.3703 -0.1693
   98SAPS  C219 9819   5.927   3.757   8.267 -0.5825  0.4901  0.1635
   98SAPS  H19R 9820   6.000   3.756   8.183 -0.7413 -0.6928  0.0219
   98SAPS  H19S 9821   5.973   3.707   8.354  2.2654 -0.3471 -1.6874
   98SAPS  C220 9822   5.907   3.901   8.302  0.1594  0.0380 -0.4784
   98SAPS  H20R 9823   5.875   3.962   8.215  1.0409  0.7103 -0.3513
   98SAPS  H20S 9824   5.999   3.943   8.350 -0.5390 -0.8785  1.7946
   98SAPS  H20T 9825   5.830   3.933   8.375 -1.0427  3.0315 -2.8578
   98SAPS   C33 9826   6.234   4.501   6.817 -0.4683  0.8827 -0.1649
   98SAPS   H3X 9827   6.278   4.599   6.846  0.1764  0.2159  1.1729
   98SAPS   H3Y 9828   6.307   4.452   6.749  0.6602 -0.1206  1.6834
   98SAPS   C34 9829   6.244   4.410   6.947 -0.0415 -0.0407 -0.0265
   98SAPS   H4X 9830   6.351   4.390   6.971 -0.7073 -2.1173  1.5332
   98SAPS   H4Y 9831   6.205   4.307   6.930 -0.8606  0.1007  0.9039
   98SAPS   C35 9832   6.164   4.460   7.071  0.2491 -0.5290 -0.0364
   98SAPS   H5X 9833   6.056   4.457   7.044  0.3217 -3.4774 -0.3280
   98SAPS   H5Y 9834   6.205   4.563   7.080  0.2504 -0.3432 -1.8944
   98SAPS   C36 9835   6.199   4.372   7.195 -0.0909 -0.6675  0.9541
   98SAPS   H6X 9836   6.309   4.374   7.210 -0.0350 -1.4081  0.6737
   98SAPS   H6Y 9837   6.161   4.269   7.181 -0.5540 -0.1959 -1.9219
   98SAPS   C37 9838   6.118   4.431   7.316 -0.1498 -0.2345  0.2133
   98SAPS   H7X 9839   6.014   4.456   7.286 -1.1854 -1.2667  2.6455
   98SAPS   H7Y 9840   6.176   4.517   7.355 -0.3580 -0.2940  0.6597
   98SAPS   C38 9841   6.108   4.343   7.444 -1.1064 -0.1872  0.3097
   98SAPS   H8X 9842   6.209   4.308   7.476 -0.2167  1.5445 -0.4609
   98SAPS   H8Y 9843   6.046   4.251   7.436  2.4422 -2.8867  1.1083
   98SAPS   C39 9844   6.052   4.426   7.560  0.2422  0.5183 -0.2433
   98SAPS   H9X 9845   5.949   4.464   7.545 -0.4192 -0.2086  2.0463
   98SAPS   H9Y 9846   6.113   4.516   7.583 -2.2243  1.8823  1.5717
   98SAPS  C310 9847   6.052   4.352   7.690  0.3338 -0.0493 -0.4113
   98SAPS  H10X 9848   6.158   4.353   7.722  0.1369  0.1360  0.2704
   98SAPS  H10Y 9849   6.022   4.246   7.674 -0.0410 -0.0280  0.1087
   98SAPS  C311 9850   5.954   4.415   7.794 -0.0519  0.2038  0.0449
   98SAPS  H11X 9851   5.856   4.391   7.748  0.8828 -0.5989 -1.6671
   98SAPS  H11Y 9852   5.978   4.523   7.795 -0.0780  0.2130 -0.2739
   98SAPS  C312 9853   5.959   4.345   7.930 -0.3989  0.0063 -0.4032
   98SAPS  H12X 9854   6.065   4.347   7.964  0.5616  3.2414 -2.9663
   98SAPS  H12Y 9855   5.918   4.242   7.934 -1.6091  0.4948  0.4863
   98SAPS  C313 9856   5.876   4.411   8.044  0.2438 -0.5303  0.3299
   98SAPS  H13X 9857   5.775   4.426   8.002 -1.3351 -2.3986  3.0963
   98SAPS  H13Y 9858   5.927   4.504   8.075  0.6864 -1.3790  2.3107
   98SAPS  C314 9859   5.862   4.317   8.170  0.0526  0.0782 -0.0681
   98SAPS  H14X 9860   5.963   4.288   8.206 -0.6911 -0.5514  1.6030
   98SAPS  H14Y 9861   5.804   4.229   8.132  1.5891 -0.9161 -0.1773
   98SAPS  C315 9862   5.793   4.390   8.289  0.2090 -0.1842  0.1696
   98SAPS  H15X 9863   5.864   4.467   8.326  1.1593 -0.6892 -0.5263
   98SAPS  H15Y 9864   5.780   4.318   8.372 -2.4720  0.4413  0.3610
   98SAPS  C316 9865   5.647   4.439   8.260 -0.1660  0.7376 -0.1926
   98SAPS  H16X 9866   5.583   4.348   8.265  3.1527 -1.7572  2.0446
   98SAPS  H16Y 9867   5.629   4.489   8.162 -1.9451 -0.7868 -0.6936
   98SAPS  C317 9868   5.598   4.529   8.369  0.5896 -0.1145  0.1176
   98SAPS  H17X 9869   5.607   4.470   8.463  0.2172  1.2835  1.0586
   98SAPS  H17Y 9870   5.491   4.555   8.353  0.9050  0.7777 -0.5880
   98SAPS  C318 9871   5.670   4.662   8.374  0.1264  0.5999 -0.2151
   98SAPS  H18X 9872   5.779   4.647   8.390 -0.1875 -3.4403 -0.6280
   98SAPS  H18Y 9873   5.625   4.725   8.453  1.3736 -0.0642  1.0615
   98SAPS  H18Z 9874   5.650   4.707   8.274 -2.1103 -0.2913 -0.2343
   99SAPS     N 9875   5.017   1.675   6.015  0.3004 -0.1585  0.3903
   99SAPS   HN1 9876   5.045   1.634   5.924 -1.4136  1.3813 -0.9139
   99SAPS   HN2 9877   5.095   1.656   6.080 -0.3612  1.2635  1.6525
   99SAPS   HN3 9878   4.924   1.637   6.043 -1.3866  2.1067 -1.5839
   99SAPS   C12 9879   5.007   1.821   6.010 -0.0988  0.3294  0.5152
   99SAPS  H12A 9880   5.005   1.855   6.112 -1.6898  0.5136  0.4489
   99SAPS   C13 9881   5.120   1.898   5.935 -0.2122 -0.7480 -0.8828
   99SAPS  O13A 9882   5.213   1.822   5.899 -0.1461 -0.8822 -0.2870
   99SAPS  O13B 9883   5.129   2.019   5.944  0.0580 -0.1728 -0.0944
   99SAPS   C11 9884   4.870   1.865   5.959  0.2752 -0.8523  0.0464
   99SAPS  H11A 9885   4.850   1.808   5.866 -1.7833  0.4866 -0.3824
   99SAPS  H11B 9886   4.871   1.975   5.944  1.0306 -0.8967 -0.2560
   99SAPS     P 9887   4.678   1.729   6.079  0.5728 -0.8030  0.0687
   99SAPS   O13 9888   4.564   1.752   5.985  0.4326  0.1555  0.0693
   99SAPS   O14 9889   4.765   1.609   6.070 -0.3749  0.1207  0.4119
   99SAPS   O12 9890   4.778   1.849   6.067 -0.2278  0.0797 -0.3799
   99SAPS   O11 9891   4.624   1.744   6.222 -0.1943 -0.1193 -0.0676
   99SAPS    C1 9892   4.720   1.737   6.332 -0.3489 -0.2853 -0.7383
   99SAPS    HA 9893   4.825   1.724   6.299  0.5612 -1.9692  2.3856
   99SAPS    HB 9894   4.724   1.833   6.389 -0.8697 -1.7705  2.0222
   99SAPS    C2 9895   4.672   1.626   6.432  0.6676 -0.1879 -0.2539
   99SAPS    HS 9896   4.667   1.536   6.368 -1.0942 -0.8161  0.6764
   99SAPS   O21 9897   4.538   1.659   6.481 -0.3762 -0.6025  0.0011
   99SAPS   C21 9898   4.470   1.549   6.529 -0.2040 -0.0206  0.4325
   99SAPS   O22 9899   4.512   1.436   6.509  0.2057  0.2859 -0.6200
   99SAPS   C22 9900   4.369   1.601   6.629 -0.2119 -0.6979  0.5170
   99SAPS   H2R 9901   4.416   1.691   6.674 -0.2071  0.1107 -1.0589
   99SAPS   H2S 9902   4.277   1.637   6.579 -0.4869  1.4743  2.4318
   99SAPS    C3 9903   4.773   1.598   6.546  0.5667  0.2457  0.3893
   99SAPS    HX 9904   4.856   1.564   6.480 -1.0090 -0.6157 -1.2551
   99SAPS    HY 9905   4.744   1.509   6.606 -0.4347  0.6691  0.5611
   99SAPS   O31 9906   4.790   1.715   6.628 -0.1582  0.0960 -0.0616
   99SAPS   C31 9907   4.730   1.719   6.742  0.4732  1.0469 -0.5807
   99SAPS   O32 9908   4.674   1.621   6.793 -0.5396  0.0577  0.1274
   99SAPS   C32 9909   4.714   1.859   6.803 -0.6702  0.5803 -0.6173
   99SAPS   H2X 9910   4.606   1.872   6.823 -0.5153 -0.2628  0.8579
   99SAPS   H2Y 9911   4.765   1.933   6.736 -1.2063 -0.8160 -2.6528
   99SAPS   C23 9912   4.316   1.501   6.744 -0.0567  0.5249  0.9744
   99SAPS   H3R 9913   4.395   1.434   6.785  0.2831  0.2598 -0.0833
   99SAPS   H3S 9914   4.245   1.436   6.690  1.4343 -0.7737  0.4760
   99SAPS   C24 9915   4.254   1.576   6.865 -0.2281  0.2887 -0.2461
   99SAPS   H4R 9916   4.186   1.506   6.917  1.2139 -1.8145 -1.0585
   99SAPS   H4S 9917   4.187   1.653   6.821 -1.9104 -0.3569  1.1121
   99SAPS   C25 9918   4.371   1.638   6.947  0.2376  0.0262 -0.5267
   99SAPS   H5R 9919   4.442   1.564   6.986 -2.1316 -1.7757  0.6559
   99SAPS   C26 9920   4.391   1.767   6.978  0.1166  0.0048 -0.2802
   99SAPS   H6R 9921   4.471   1.803   7.044 -1.0200 -0.0506  1.1701
   99SAPS   C27 9922   4.291   1.875   6.946  0.3574 -0.3306 -0.4728
   99SAPS   H7R 9923   4.196   1.835   6.903  0.3924 -0.3460 -0.5355
   99SAPS   H7S 9924   4.341   1.941   6.873  0.8792 -1.7980 -1.4896
   99SAPS   C28 9925   4.253   1.962   7.063 -0.0713  0.4947  0.0703
   99SAPS   H8R 9926   4.304   2.059   7.073 -0.8150  0.9198 -0.2076
   99SAPS   C29 9927   4.172   1.926   7.163  0.1680  0.4626  0.4853
   99SAPS   H9R 9928   4.153   2.005   7.238 -0.9532  0.1784  0.5148
   99SAPS  C210 9929   4.101   1.789   7.179  0.5926  0.4361  0.2533
   99SAPS  H10R 9930   4.046   1.780   7.083 -1.6873  1.0993  1.4293
   99SAPS  H10S 9931   4.023   1.810   7.256 -3.0947  0.8796 -3.2545
   99SAPS  C211 9932   4.163   1.657   7.217 -0.7067  0.6693 -0.0387
   99SAPS  H11R 9933   4.181   1.586   7.135  0.4573 -1.5838  2.0356
   99SAPS  C212 9934   4.203   1.616   7.336 -0.5435  0.0493 -0.5047
   99SAPS  H12R 9935   4.257   1.521   7.346  0.2967  0.5933  0.1646
   99SAPS  C213 9936   4.178   1.688   7.468 -0.3038  0.9016  0.6167
   99SAPS  H13R 9937   4.146   1.794   7.458  0.1928  0.8897 -1.9615
   99SAPS  H13S 9938   4.278   1.697   7.517  0.4311 -1.5404 -0.2907
   99SAPS  C214 9939   4.098   1.609   7.561  0.1297  0.0407 -0.0283
   99SAPS  H14R 9940   4.024   1.541   7.516 -1.0641  0.4499  1.2581
   99SAPS  C215 9941   4.099   1.615   7.691  0.2386 -0.3023 -0.8156
   99SAPS  H15R 9942   4.041   1.547   7.757  2.3638  0.1583  1.6994
   99SAPS  C216 9943   4.185   1.707   7.766 -0.0198 -0.0889 -0.1857
   99SAPS  H16R 9944   4.200   1.805   7.716 -1.9822  0.1826 -0.3195
   99SAPS  H16S 9945   4.280   1.649   7.770 -1.0877 -1.8418  0.9819
   99SAPS  C217 9946   4.154   1.746   7.910  0.0842 -0.4944  0.2675
   99SAPS  H17R 9947   4.055   1.795   7.914  0.5267  0.6430 -1.2708
   99SAPS  H17S 9948   4.225   1.824   7.944 -1.0088  1.3561 -1.4441
   99SAPS  C218 9949   4.168   1.629   8.009  0.2137 -0.5550 -0.5593
   99SAPS  H18R 9950   4.273   1.604   8.034  0.6290  2.0223  0.5240
   99SAPS  H18S 9951   4.101   1.553   7.963 -2.2163  0.6080  0.8445
   99SAPS  C219 9952   4.105   1.659   8.150  0.2119 -0.2302  0.7961
   99SAPS  H19R 9953   4.111   1.770   8.154 -1.6386  0.0604 -1.7896
   99SAPS  H19S 9954   4.161   1.612   8.234  3.7330 -2.3345 -2.4232
   99SAPS  C220 9955   3.955   1.621   8.149 -0.1816  0.6759 -0.0322
   99SAPS  H20R 9956   3.895   1.687   8.082  0.5556 -1.3837 -2.9284
   99SAPS  H20S 9957   3.928   1.649   8.253  0.3325 -0.6755  0.4761
   99SAPS  H20T 9958   3.940   1.513   8.129 -2.4419  1.0904 -0.8868
   99SAPS   C33 9959   4.765   1.860   6.948 -0.1132  0.1066 -0.0528
   99SAPS   H3X 9960   4.874   1.844   6.936 -0.7746 -3.0785 -3.8107
   99SAPS   H3Y 9961   4.724   1.777   7.010 -0.1729  1.0261  1.1973
   99SAPS   C34 9962   4.727   1.991   7.013 -0.7217 -0.0429 -0.4124
   99SAPS   H4X 9963   4.624   2.020   6.983 -1.1651  0.4817  1.4877
   99SAPS   H4Y 9964   4.798   2.068   6.976 -2.2723  1.5422 -0.2290
   99SAPS   C35 9965   4.743   1.984   7.164  0.2088  0.5056 -0.0540
   99SAPS   H5X 9966   4.752   2.089   7.197  0.7841  0.4259  0.0616
   99SAPS   H5Y 9967   4.838   1.936   7.196 -0.6098 -0.4236  1.0587
   99SAPS   C36 9968   4.630   1.915   7.241 -0.9013 -0.7887  0.9158
   99SAPS   H6X 9969   4.621   1.807   7.218  4.4524 -1.1343 -1.2495
   99SAPS   H6Y 9970   4.535   1.958   7.203 -0.1761  1.1662  1.1962
   99SAPS   C37 9971   4.637   1.927   7.393  0.2482  0.1723  0.0569
   99SAPS   H7X 9972   4.657   2.030   7.428  0.6699 -0.7590  2.8167
   99SAPS   H7Y 9973   4.724   1.865   7.425 -0.1619 -0.3905  0.1002
   99SAPS   C38 9974   4.503   1.877   7.461  0.4563  0.3575  0.2934
   99SAPS   H8X 9975   4.487   1.772   7.429 -3.0406  1.1432 -1.0121
   99SAPS   H8Y 9976   4.416   1.942   7.437  0.0806  0.4899  1.8548
   99SAPS   C39 9977   4.528   1.888   7.617  0.2785 -0.0537  0.0719
   99SAPS   H9X 9978   4.432   1.869   7.670 -0.9092 -1.0524 -2.2999
   99SAPS   H9Y 9979   4.566   1.990   7.637 -0.6750  0.3132  0.0675
   99SAPS  C310 9980   4.626   1.787   7.670 -0.0393 -0.1748  0.5899
   99SAPS  H10X 9981   4.727   1.830   7.654 -1.3959  2.2999 -2.3854
   99SAPS  H10Y 9982   4.625   1.694   7.610 -0.2244  0.4796 -0.4339
   99SAPS  C311 9983   4.607   1.746   7.819  0.1138  0.1499  0.5961
   99SAPS  H11X 9984   4.707   1.710   7.851 -0.2036  0.6064  2.1775
   99SAPS  H11Y 9985   4.535   1.663   7.815  0.8523 -0.5028  0.5522
   99SAPS  C312 9986   4.565   1.861   7.911  0.0547 -0.8545 -0.2797
   99SAPS  H12X 9987   4.476   1.914   7.872 -1.3334 -0.9524  2.5618
   99SAPS  H12Y 9988   4.646   1.936   7.910 -0.1685 -0.5642 -2.3542
   99SAPS  C313 9989   4.537   1.810   8.054  0.3971  0.1817 -0.3564
   99SAPS  H13X 9990   4.611   1.731   8.083 -0.5332 -0.4520  0.3661
   99SAPS  H13Y 9991   4.434   1.769   8.065  0.7627 -1.0577 -1.2126
   99SAPS  C314 9992   4.546   1.930   8.149  0.0231 -0.8168  0.7521
   99SAPS  H14X 9993   4.480   2.010   8.109  0.2367 -0.9364  0.1586
   99SAPS  H14Y 9994   4.653   1.957   8.146 -0.3456  0.5981 -0.3921
   99SAPS  C315 9995   4.497   1.881   8.287 -0.5024 -0.4028 -1.0408
   99SAPS  H15X 9996   4.532   1.778   8.306 -1.7153 -1.0240 -1.9963
   99SAPS  H15Y 9997   4.388   1.863   8.272 -1.4852  2.4674  1.5494
   99SAPS  C316 9998   4.517   1.984   8.396 -0.2350 -0.3159  0.0889
   99SAPS  H16X 9999   4.469   2.081   8.371 -1.3542 -0.7812  0.3931
   99SAPS  H16Y10000   4.623   2.007   8.420 -0.4347  0.4987  0.2108
   99SAPS  C31710001   4.435   1.942   8.522 -0.2310  0.8721 -0.3297
   99SAPS  H17X10002   4.474   1.842   8.553  1.6572  2.3082  2.3885
   99SAPS  H17Y10003   4.327   1.936   8.499 -1.0006  0.7688  2.8241
   99SAPS  C31810004   4.441   2.037   8.637  0.1158 -0.3428 -0.0582
   99SAPS  H18X10005   4.536   2.092   8.654 -0.0573 -0.4602  1.4529
   99SAPS  H18Y10006   4.421   1.992   8.737  1.6263 -0.5424  0.1743
   99SAPS  H18Z10007   4.367   2.120   8.627  1.9155  1.0243 -3.2441
  100SAPS     N10008   1.108   2.764   5.953  0.4676  0.6203 -0.0171
  100SAPS   HN110009   1.171   2.702   6.008  1.1539  1.5643  0.2894
  100SAPS   HN210010   1.036   2.798   6.021  0.3847 -1.0182  0.7728
  100SAPS   HN310011   1.066   2.697   5.886 -0.8330  0.3424  1.0181
  100SAPS   C1210012   1.151   2.895   5.881 -0.8399  0.2032  0.1639
  100SAPS  H12A10013   1.231   2.858   5.820  0.6752  3.0550  0.2623
  100SAPS   C1310014   1.048   2.967   5.797 -0.7699 -0.3587 -0.4902
  100SAPS  O13A10015   0.929   2.923   5.795  0.2164 -0.3555 -0.1782
  100SAPS  O13B10016   1.074   3.072   5.733 -0.1901  0.4025  0.7118
  100SAPS   C1110017   1.216   2.992   5.990 -0.1428  0.5051  0.2271
  100SAPS  H11A10018   1.256   3.077   5.930  0.9930  0.7619  1.3084
  100SAPS  H11B10019   1.307   2.945   6.033 -0.4042 -0.5313 -0.3389
  100SAPS     P10020   1.170   3.087   6.219  0.0018 -0.3239  0.1653
  100SAPS   O1310021   1.290   3.161   6.196 -0.3437 -0.1091  0.8452
  100SAPS   O1410022   1.061   3.150   6.294  0.2071  0.6501 -0.3256
  100SAPS   O1210023   1.119   3.035   6.078  0.0654 -0.1107  0.1571
  100SAPS   O1110024   1.206   2.939   6.283  0.1672 -0.1040  0.8363
  100SAPS    C110025   1.098   2.857   6.336  0.2477 -1.1934  0.6354
  100SAPS    HA10026   1.000   2.867   6.284  1.1048 -1.1327 -1.0337
  100SAPS    HB10027   1.127   2.751   6.325 -1.3042 -2.0214  3.4997
  100SAPS    C210028   1.078   2.867   6.494  0.2132  0.4824  0.2730
  100SAPS    HS10029   1.045   2.970   6.516 -1.9106 -0.6489  2.9920
  100SAPS   O2110030   1.197   2.820   6.555  0.2813  0.5230 -0.0602
  100SAPS   C2110031   1.279   2.916   6.587  0.5803  0.5018  0.4451
  100SAPS   O2210032   1.271   3.035   6.560  0.7582 -0.0456 -0.1671
  100SAPS   C2210033   1.393   2.852   6.667 -0.2809 -0.2889 -0.5240
  100SAPS   H2R10034   1.419   2.749   6.636 -0.3276  0.7768 -4.6989
  100SAPS   H2S10035   1.479   2.910   6.627 -1.9145  0.3072 -3.4141
  100SAPS    C310036   0.968   2.770   6.546 -0.1988 -0.8179  0.0450
  100SAPS    HX10037   0.996   2.668   6.511 -1.8034 -1.3803  0.3039
  100SAPS    HY10038   0.877   2.795   6.489 -1.2704 -2.7281  0.8135
  100SAPS   O3110039   0.933   2.767   6.688  0.0919 -0.4269 -0.3672
  100SAPS   C3110040   0.827   2.844   6.727 -0.2353 -0.1108  0.1384
  100SAPS   O3210041   0.770   2.923   6.653 -0.1874  0.2954  0.0457
  100SAPS   C3210042   0.784   2.806   6.873 -0.7008 -0.3687  0.6630
  100SAPS   H2X10043   0.868   2.845   6.934  0.3598 -0.6393 -0.5939
  100SAPS   H2Y10044   0.774   2.696   6.883  0.3372 -0.2433  4.7594
  100SAPS   C2310045   1.382   2.868   6.821 -0.4582  0.1316 -0.6648
  100SAPS   H3R10046   1.281   2.834   6.854 -0.4826  0.0304 -0.8425
  100SAPS   H3S10047   1.402   2.971   6.856  0.6328 -0.0763 -0.6507
  100SAPS   C2410048   1.490   2.786   6.894 -0.1622  0.4483  0.5967
  100SAPS   H4R10049   1.473   2.680   6.866  4.6436  0.5092 -4.0998
  100SAPS   H4S10050   1.486   2.794   7.005  3.5161 -0.1161  0.8900
  100SAPS   C2510051   1.628   2.809   6.841 -0.0131  0.1210  0.4423
  100SAPS   H5R10052   1.655   2.751   6.752  0.3050 -0.4916  0.9352
  100SAPS   C2610053   1.717   2.886   6.899 -0.8298  0.1346 -0.4798
  100SAPS   H6R10054   1.817   2.881   6.853  0.6839  2.7254  2.1602
  100SAPS   C2710055   1.695   2.967   7.028  0.4431 -0.2000 -0.3218
  100SAPS   H7R10056   1.692   2.896   7.113  1.2685 -1.1585 -1.0645
  100SAPS   H7S10057   1.595   3.016   7.028 -0.0911 -1.2551 -0.8586
  100SAPS   C2810058   1.800   3.071   7.037  0.0148  0.3103  0.5327
  100SAPS   H8R10059   1.811   3.139   6.951 -1.6108 -1.7313 -1.4204
  100SAPS   C2910060   1.872   3.099   7.146  0.6344 -0.3002  0.3264
  100SAPS   H9R10061   1.948   3.179   7.145 -0.2746  0.7026  2.7818
  100SAPS  C21010062   1.862   3.022   7.275  0.0618  0.2092 -0.0503
  100SAPS  H10R10063   1.892   2.916   7.261  0.3619  0.5971 -2.8268
  100SAPS  H10S10064   1.753   3.023   7.296 -0.3217 -0.1322 -1.8858
  100SAPS  C21110065   1.938   3.086   7.388 -0.1791  0.0848 -0.4413
  100SAPS  H11R10066   2.044   3.103   7.362  0.0915 -0.2175  0.4199
  100SAPS  C21210067   1.903   3.113   7.513 -0.6373 -0.0606  0.4550
  100SAPS  H12R10068   1.973   3.156   7.586 -2.0654  1.6386  0.8819
  100SAPS  C21310069   1.770   3.082   7.568  0.5922 -0.7219 -0.0965
  100SAPS  H13R10070   1.783   3.008   7.650 -1.3979 -1.0144 -0.0010
  100SAPS  H13S10071   1.711   3.022   7.496 -0.5759 -1.6889  1.5978
  100SAPS  C21410072   1.681   3.198   7.616  0.0805  0.5229  0.1201
  100SAPS  H14R10073   1.730   3.279   7.671 -1.8533  1.7259  0.1851
  100SAPS  C21510074   1.545   3.214   7.610  0.1108  0.2400 -0.5775
  100SAPS  H15R10075   1.492   3.301   7.653 -0.5376 -1.0919  1.4560
  100SAPS  C21610076   1.450   3.112   7.549 -0.4967  0.1115  0.1737
  100SAPS  H16R10077   1.369   3.106   7.626 -1.0275  4.5808  0.2481
  100SAPS  H16S10078   1.506   3.019   7.526  1.7196  1.4968 -0.3072
  100SAPS  C21710079   1.385   3.170   7.414 -0.2627 -0.6808  0.7114
  100SAPS  H17R10080   1.348   3.271   7.439  0.4001 -0.1589 -0.3496
  100SAPS  H17S10081   1.290   3.114   7.401  0.0724 -1.5257  1.7820
  100SAPS  C21810082   1.480   3.174   7.287  1.4289  0.3421 -0.2570
  100SAPS  H18R10083   1.521   3.071   7.276 -2.8650 -1.3508 -3.9954
  100SAPS  H18S10084   1.541   3.262   7.313  0.9990  0.9257 -1.1694
  100SAPS  C21910085   1.404   3.216   7.161  0.3355  0.6453 -0.7205
  100SAPS  H19R10086   1.479   3.228   7.080  1.3267 -0.1117  0.0604
  100SAPS  H19S10087   1.358   3.317   7.171  1.9927  1.2945  0.8977
  100SAPS  C22010088   1.288   3.122   7.107  0.0706 -0.3939  0.4784
  100SAPS  H20R10089   1.207   3.104   7.181 -0.3116 -0.5571  0.0305
  100SAPS  H20S10090   1.326   3.022   7.076  1.2371  0.3292 -0.5341
  100SAPS  H20T10091   1.243   3.177   7.021 -0.3972 -0.1198  0.8915
  100SAPS   C3310092   0.651   2.874   6.910 -0.4717  0.2725  0.6173
  100SAPS   H3X10093   0.571   2.837   6.842 -0.7826  1.3971  0.3489
  100SAPS   H3Y10094   0.655   2.985   6.913 -1.6920  0.3299  0.7546
  100SAPS   C3410095   0.597   2.850   7.053 -0.5074 -0.1859  0.9121
  100SAPS   H4X10096   0.689   2.869   7.113  1.2191 -0.8153 -1.4067
  100SAPS   H4Y10097   0.572   2.742   7.054 -1.8407  0.0439  3.8285
  100SAPS   C3510098   0.488   2.952   7.094 -0.2359  0.8392  0.2513
  100SAPS   H5X10099   0.395   2.921   7.041 -1.1208  0.4398  1.9757
  100SAPS   H5Y10100   0.513   3.049   7.046  1.0789 -0.8003 -2.6100
  100SAPS   C3610101   0.476   2.968   7.245 -0.1597 -0.0969  0.9535
  100SAPS   H6X10102   0.394   3.037   7.273 -0.0199  0.5491 -0.1894
  100SAPS   H6Y10103   0.570   3.014   7.283 -1.0843  0.9517  2.0450
  100SAPS   C3710104   0.455   2.841   7.323  0.0512 -0.3999 -0.4609
  100SAPS   H7X10105   0.549   2.783   7.322 -1.8899 -3.8540 -2.1191
  100SAPS   H7Y10106   0.369   2.789   7.275 -1.4041  0.0689  1.5092
  100SAPS   C3810107   0.420   2.871   7.470 -0.0071 -0.4743 -0.3554
  100SAPS   H8X10108   0.328   2.933   7.470  0.0698 -0.3378 -1.2483
  100SAPS   H8Y10109   0.504   2.934   7.505  0.9591 -1.3153 -1.1132
  100SAPS   C3910110   0.408   2.752   7.565  0.2262 -0.1198 -0.4061
  100SAPS   H9X10111   0.490   2.677   7.571  1.0433  0.8707  2.8793
  100SAPS   H9Y10112   0.314   2.697   7.545 -0.0807  0.2517 -0.0266
  100SAPS  C31010113   0.395   2.789   7.714  0.2344 -0.8351 -0.0217
  100SAPS  H10X10114   0.383   2.693   7.770 -0.1108  0.3359  2.0085
  100SAPS  H10Y10115   0.318   2.865   7.740 -0.6871 -2.4293  2.2840
  100SAPS  C31110116   0.528   2.859   7.762  0.5258 -0.1237  0.2152
  100SAPS  H11X10117   0.533   2.962   7.719  1.2164 -0.6410 -0.9935
  100SAPS  H11Y10118   0.614   2.797   7.730 -0.9067 -2.6387  0.9816
  100SAPS  C31210119   0.532   2.870   7.916 -0.1712 -0.0650 -0.1978
  100SAPS  H12X10120   0.635   2.902   7.942 -0.5730  1.5244 -0.4475
  100SAPS  H12Y10121   0.515   2.769   7.961 -0.1695  0.3812  0.8226
  100SAPS  C31310122   0.431   2.967   7.992  0.4963 -0.5097  0.6870
  100SAPS  H13X10123   0.457   2.957   8.099  3.5358 -0.6794  0.0097
  100SAPS  H13Y10124   0.324   2.949   7.967  0.1524 -2.6179  3.2583
  100SAPS  C31410125   0.463   3.116   7.958 -0.9838 -0.2796 -0.0194
  100SAPS  H14X10126   0.403   3.185   8.021 -0.0346  0.6725 -0.1187
  100SAPS  H14Y10127   0.424   3.124   7.854 -1.8854  0.9089  0.3862
  100SAPS  C31510128   0.611   3.150   7.979 -0.5160 -0.9493 -0.0152
  100SAPS  H15X10129   0.627   3.256   7.949  0.7948 -1.6348 -1.9199
  100SAPS  H15Y10130   0.661   3.087   7.903 -2.2250 -0.8742 -1.2726
  100SAPS  C31610131   0.659   3.135   8.127 -0.0878  0.0838  0.1764
  100SAPS  H16X10132   0.660   3.028   8.156  0.7644 -0.3452 -1.3146
  100SAPS  H16Y10133   0.585   3.184   8.193 -1.1361  0.1893 -1.0473
  100SAPS  C31710134   0.798   3.201   8.148 -0.3452  0.2359 -0.0601
  100SAPS  H17X10135   0.796   3.309   8.123  0.3177  0.2198 -0.2010
  100SAPS  H17Y10136   0.863   3.136   8.086  1.1641  1.1794  0.4823
  100SAPS  C31810137   0.844   3.193   8.295  0.0727 -0.1964  0.3319
  100SAPS  H18X10138   0.943   3.243   8.304 -0.4343  0.5848  1.9048
  100SAPS  H18Y10139   0.841   3.085   8.322  1.6484 -0.3068  0.2116
  100SAPS  H18Z10140   0.772   3.257   8.349  3.8889  3.4917  1.6446
  101OSM      N10141   6.186   2.905  10.791  0.0381 -0.2430  0.1803
  101OSM    C1510142   6.185   2.824  10.671  0.8182  0.1181  0.3355
  101OSM   H15A10143   6.181   2.722  10.704 -0.4778  0.0594  0.0557
  101OSM   H15B10144   6.272   2.849  10.613 -0.4078  0.4344 -1.4358
  101OSM   H15C10145   6.089   2.833  10.623  0.1029 -1.1760  1.4707
  101OSM    C1410146   6.067   2.875  10.885 -0.2044 -0.4128  0.9630
  101OSM   H14A10147   5.973   2.890  10.835  1.9491  3.1171 -2.5130
  101OSM   H14B10148   6.078   2.927  10.980 -1.7135  0.7705  0.5217
  101OSM   H14C10149   6.076   2.771  10.912 -0.8676 -1.2503 -1.7404
  101OSM    C1310150   6.311   2.891  10.881  0.1914  0.7802 -0.1978
  101OSM   H13A10151   6.402   2.890  10.821  1.4901  1.7807  1.6661
  101OSM   H13B10152   6.315   2.799  10.938 -1.5668  2.9349  3.7436
  101OSM   H13C10153   6.324   2.974  10.949  3.9303  0.6016 -0.4751
  101OSM    C1210154   6.171   3.049  10.756  0.3377  0.1965  0.5907
  101OSM   H12A10155   6.254   3.081  10.696  0.6702 -0.4040  0.7271
  101OSM   H12B10156   6.177   3.110  10.845 -0.7625 -0.4725  1.1541
  101OSM    C1110157   6.038   3.084  10.691 -0.4766  0.5056 -0.3907
  101OSM   H11A10158   5.957   3.095  10.766 -1.0098  0.8486 -1.0036
  101OSM   H11B10159   6.010   2.998  10.627  0.4766 -0.0519 -0.0729
  101OSM      P10160   6.010   3.344  10.688  0.2159 -0.4445  0.1584
  101OSM    O1310161   5.980   3.326  10.830  0.4047  0.2284  0.2346
  101OSM    O1410162   6.106   3.452  10.663  0.2551  0.4129 -0.7792
  101OSM    O1110163   5.877   3.376  10.602 -0.0898 -0.8743 -0.3617
  101OSM    O1210164   6.052   3.208  10.622  0.2461  0.0438 -0.0569
  101OSM    C1S10165   5.883   3.475  10.498 -0.2692 -0.5635 -0.7464
  101OSM    H1S10166   5.950   3.558  10.529  1.9730 -2.4331 -0.3196
  101OSM    H1T10167   5.779   3.508  10.475 -0.0865  1.2436  0.7823
  101OSM     NF10168   5.925   3.527  10.259  0.3834 -0.1127  0.1345
  101OSM    HNF10169   5.857   3.511  10.188 -0.0846 -0.0917  0.5750
  101OSM    C2S10170   5.933   3.429  10.363 -0.4657  0.8541  0.2113
  101OSM    H2S10171   6.041   3.402  10.365 -0.7019 -0.1787 -0.3410
  101OSM    C3S10172   5.863   3.295  10.325  0.3403  1.2130  0.2410
  101OSM    H3S10173   5.752   3.309  10.326  0.0963 -0.3565 -0.6889
  101OSM     O310174   5.879   3.176  10.409 -0.9059  0.4631  0.0725
  101OSM    HO310175   5.938   3.207  10.478  0.8055  0.4911 -1.3109
  101OSM    C4S10176   5.900   3.255  10.177 -0.1389 -0.5244 -0.7923
  101OSM    H4S10177   6.008   3.271  10.158  0.0382  2.0222  1.6767
  101OSM    C5S10178   5.820   3.228  10.076 -0.4023  0.6095  0.2535
  101OSM    H5S10179   5.718   3.192  10.099 -0.0969 -1.1434 -0.9014
  101OSM    C6S10180   5.862   3.201   9.937 -0.2498 -0.3446  0.1325
  101OSM    H6S10181   5.771   3.212   9.873 -0.6877  2.4481  1.0949
  101OSM    H6T10182   5.893   3.097   9.912 -1.6559 -0.1990 -2.6754
  101OSM    C7S10183   5.969   3.305   9.885  0.3945 -0.3254  0.5969
  101OSM    H7S10184   6.057   3.299   9.953  0.5732 -1.1311  0.3023
  101OSM    H7T10185   5.925   3.406   9.875 -1.0991 -1.1521 -2.4284
  101OSM    C8S10186   6.041   3.284   9.749  0.2762  0.2141  0.3562
  101OSM    H8S10187   5.964   3.277   9.669  1.2010  0.6278 -0.6031
  101OSM    H8T10188   6.095   3.187   9.741 -2.3926 -1.5245  1.7817
  101OSM    C9S10189   6.149   3.386   9.722 -0.0158 -0.2925  0.6374
  101OSM    H9S10190   6.237   3.361   9.785 -0.7111  0.8082  2.0901
  101OSM    H9T10191   6.108   3.486   9.745 -2.3835 -1.3888  1.4444
  101OSM   C10S10192   6.197   3.403   9.581 -0.0476  0.0452  0.8440
  101OSM   H10S10193   6.243   3.309   9.544 -1.1119 -0.0095 -0.4610
  101OSM   H10T10194   6.271   3.486   9.575  0.6469 -0.6545 -1.3081
  101OSM   C11S10195   6.071   3.432   9.483 -0.6667  0.5153 -0.2565
  101OSM   H11S10196   5.993   3.498   9.527 -0.0995  0.2630  1.1701
  101OSM   H11T10197   6.025   3.332   9.469  0.1363  0.1607 -0.3933
  101OSM   C12S10198   6.112   3.491   9.345  0.3417  0.3531 -0.1768
  101OSM   H12S10199   6.179   3.418   9.294 -0.0445 -0.6949  0.7598
  101OSM   H12T10200   6.174   3.581   9.363  0.4562 -0.0578  1.7096
  101OSM   C13S10201   5.994   3.542   9.256 -0.0798  0.1553 -0.7481
  101OSM   H13S10202   5.946   3.619   9.320  1.3876  0.3503  0.1750
  101OSM   H13T10203   5.930   3.454   9.239  0.5771 -0.1634 -1.6266
  101OSM   C14S10204   6.029   3.615   9.119 -0.1838 -0.5298 -0.1070
  101OSM   H14S10205   6.083   3.541   9.057  0.1910 -0.8378  0.5860
  101OSM   H14T10206   6.101   3.699   9.132 -0.4864 -0.0289 -1.4379
  101OSM   C15S10207   5.908   3.665   9.036  0.5025 -0.3115  0.0592
  101OSM   H15S10208   5.841   3.724   9.102  0.1425 -1.9417  1.2086
  101OSM   H15T10209   5.846   3.581   8.999 -0.4092  0.3828 -0.0483
  101OSM   C16S10210   5.937   3.760   8.919  0.3939 -0.2751 -0.1603
  101OSM   H16S10211   5.958   3.860   8.964  1.3771 -0.1243 -0.9276
  101OSM   H16T10212   5.848   3.771   8.854 -0.0465 -0.0269  0.4699
  101OSM   C17S10213   6.062   3.731   8.830  0.0441  0.3028  0.4248
  101OSM   H17S10214   6.035   3.638   8.776  2.3332 -1.0918  1.5589
  101OSM   H17T10215   6.153   3.723   8.893  0.8207 -0.3365 -0.7612
  101OSM   C18S10216   6.075   3.839   8.726  0.4046  0.2017  0.2349
  101OSM   H18S10217   6.136   3.820   8.635 -0.9436  1.4668 -0.9852
  101OSM   H18T10218   6.121   3.933   8.764  1.1120  0.3237 -0.8751
  101OSM   H18U10219   5.974   3.871   8.693 -0.2285 -0.4357  1.4771
  101OSM    C1F10220   6.006   3.637  10.258 -0.0424 -0.4414  0.4842
  101OSM     OF10221   6.092   3.656  10.345  0.7181  0.8294  0.3433
  101OSM    C2F10222   5.986   3.726  10.138  0.4123 -0.0288 -0.2657
  101OSM    H2F10223   5.909   3.804  10.156  1.6705  0.8847  1.5333
  101OSM    H2G10224   5.938   3.667  10.058  1.9590  1.8120 -2.6869
  101OSM    C3F10225   6.129   3.782  10.088  0.1824 -0.1519 -0.0130
  101OSM    H3F10226   6.206   3.704  10.075 -0.5865 -0.6419 -1.9889
  101OSM    H3G10227   6.159   3.857  10.164 -0.3539  0.9787 -0.8785
  101OSM    C4F10228   6.113   3.850   9.956  0.2223  0.4036  0.2394
  101OSM    H4F10229   6.195   3.922   9.934 -0.6033  1.8431  1.6647
  101OSM    H4G10230   6.033   3.926   9.965  2.1620  2.4697  1.0010
  101OSM    C5F10231   6.095   3.755   9.834  0.0242 -0.4624  0.6048
  101OSM    H5F10232   6.015   3.681   9.858  1.6797 -2.0619  1.4403
  101OSM    H5G10233   6.190   3.699   9.826  0.7305  0.8269 -0.5060
  101OSM    C6F10234   6.058   3.831   9.709  0.0040 -0.1951  0.5077
  101OSM    H6F10235   5.979   3.907   9.733  0.3582 -0.3940  2.4549
  101OSM    H6G10236   6.019   3.754   9.640  0.5234  0.1680 -0.2068
  101OSM    C7F10237   6.170   3.911   9.650  0.3193 -0.4042 -0.3139
  101OSM    H7F10238   6.258   3.848   9.626  0.6431  0.1769 -0.6793
  101OSM    H7G10239   6.211   3.986   9.722  0.1181 -0.8134  0.2352
  101OSM    C8F10240   6.131   4.005   9.528  0.2308  1.0598 -1.3866
  101OSM    H8F10241   6.212   4.076   9.497  2.3970 -0.8027 -0.3083
  101OSM    H8G10242   6.041   4.062   9.558 -0.1610 -0.0757 -0.3449
  101OSM    C9F10243   6.102   3.913   9.420 -0.3664 -0.2905  0.6858
  101OSM    H9F10244   6.152   3.815   9.424  2.1276  0.9186  1.6561
  101OSM   C10F10245   6.006   3.927   9.321 -0.1193  0.5202 -0.6428
  101OSM   H10F10246   5.985   3.836   9.264  0.0966 -0.4935  0.8357
  101OSM   C11F10247   5.906   4.045   9.304  0.5770 -0.1025  1.0258
  101OSM   H11F10248   5.955   4.140   9.336  1.0478  0.1305 -0.3398
  101OSM   H11G10249   5.812   4.022   9.359  0.6486  0.9573  1.6293
  101OSM   C12F10250   5.874   4.056   9.151  0.3210 -0.1155  0.2379
  101OSM   H12F10251   5.779   4.112   9.138 -1.6750 -3.4342 -0.6450
  101OSM   H12G10252   5.846   3.955   9.114  3.5750 -1.1205  0.2182
  101OSM   C13F10253   5.985   4.117   9.068 -0.2497  0.6993 -0.0322
  101OSM   H13F10254   5.991   4.075   8.966 -3.6249 -0.5981  0.1607
  101OSM   H13G10255   6.080   4.100   9.123  0.1633  0.7378 -0.7234
  101OSM   C14F10256   5.980   4.266   9.057 -0.4964 -0.5346  0.4082
  101OSM   H14F10257   5.956   4.312   9.155 -1.1045 -0.9701  0.4681
  101OSM   H14G10258   5.892   4.287   8.993 -0.9647 -1.2024  0.8206
  101OSM   C15F10259   6.107   4.330   9.001  0.4871  0.4446  0.4115
  101OSM   H15F10260   6.138   4.282   8.906 -0.1981  1.5234 -0.3933
  101OSM   H15G10261   6.180   4.299   9.078 -0.7954 -0.1192  1.4383
  101OSM   C16F10262   6.089   4.479   8.985  0.0605  0.1479  1.2573
  101OSM   H16F10263   6.103   4.531   9.082  1.9123  0.0296  1.0921
  101OSM   H16G10264   5.990   4.502   8.939  0.0554 -0.3589  1.0080
  101OSM   C17F10265   6.189   4.531   8.885  0.5328 -0.7609 -0.0830
  101OSM   H17F10266   6.186   4.642   8.887  1.0410 -0.7562  1.7500
  101OSM   H17G10267   6.152   4.509   8.783 -2.6430  0.8628  0.5794
  101OSM   C18F10268   6.326   4.484   8.908  0.0722 -1.2360  0.1255
  101OSM   H18F10269   6.356   4.489   9.014 -3.5336 -0.1860  1.2236
  101OSM   H18G10270   6.398   4.546   8.851 -0.1425 -1.1048 -0.0045
  101OSM   H18H10271   6.344   4.380   8.874  2.6121 -0.7441 -0.2203
  102OSM      N10272   6.105   4.647  10.828  0.6111 -0.0139 -0.2128
  102OSM    C1510273   6.229   4.716  10.858  0.1907 -0.3120  0.0522
  102OSM   H15A10274   6.301   4.697  10.780  2.1637 -1.6924  2.0832
  102OSM   H15B10275   6.265   4.696  10.957 -1.4702 -1.2942  0.5080
  102OSM   H15C10276   6.214   4.823  10.858  1.0416 -0.1753 -0.8612
  102OSM    C1410277   5.992   4.697  10.913 -0.1990  0.2325  0.4093
  102OSM   H14A10278   5.905   4.632  10.909 -0.6184  0.7881  0.4188
  102OSM   H14B10279   5.949   4.789  10.875  0.5769 -0.1636 -1.5681
  102OSM   H14C10280   6.025   4.698  11.015  1.2414  0.2562 -0.0334
  102OSM    C1310281   6.069   4.647  10.687  0.4044  0.3110 -0.5596
  102OSM   H13A10282   6.032   4.745  10.662 -0.3025  0.6106  1.4136
  102OSM   H13B10283   5.994   4.573  10.663  1.3302 -1.0432  0.5409
  102OSM   H13C10284   6.146   4.629  10.614  1.1370  0.3328  0.1926
  102OSM    C1210285   6.133   4.503  10.870  0.1921 -0.0044 -0.2083
  102OSM   H12A10286   6.180   4.510  10.967  0.4583 -0.5831 -0.2934
  102OSM   H12B10287   6.205   4.467  10.798 -1.1307  0.7205 -1.9929
  102OSM    C1110288   6.010   4.404  10.879 -0.5594 -0.5086  0.4061
  102OSM   H11A10289   5.966   4.435  10.976 -1.7785 -0.1986 -0.2262
  102OSM   H11B10290   6.053   4.302  10.877  0.1133 -0.2284 -0.2213
  102OSM      P10291   5.766   4.403  10.798  0.1801  0.1231 -0.0512
  102OSM    O1310292   5.740   4.262  10.838  0.3072 -0.4659 -0.1969
  102OSM    O1410293   5.731   4.510  10.892 -0.0581  0.4495 -0.2742
  102OSM    O1110294   5.689   4.430  10.664  0.7537  0.1407  0.3683
  102OSM    O1210295   5.924   4.417  10.770  0.3807 -0.3317  0.3701
  102OSM    C1S10296   5.727   4.533  10.570  0.5246 -0.3801  0.7050
  102OSM    H1S10297   5.817   4.592  10.597  1.0736 -0.7681 -0.2219
  102OSM    H1T10298   5.649   4.612  10.562 -0.2425 -1.2486 -0.9142
  102OSM     NF10299   5.804   4.581  10.338  0.7477  0.0800 -0.3540
  102OSM    HNF10300   5.736   4.615  10.274  0.2047 -1.4556 -0.6314
  102OSM    C2S10301   5.750   4.480  10.417 -0.1938 -0.6867  0.3767
  102OSM    H2S10302   5.828   4.402  10.432  0.3394 -0.0081  1.2227
  102OSM    C3S10303   5.627   4.417  10.354 -0.0941 -0.6492 -0.4231
  102OSM    H3S10304   5.557   4.499  10.327  1.0010  0.6829  0.5895
  102OSM     O310305   5.554   4.347  10.452 -0.5920  0.0866  0.4505
  102OSM    HO310306   5.602   4.366  10.533 -1.3642 -1.1134  1.2218
  102OSM    C4S10307   5.652   4.333  10.237 -0.6206 -0.0213  0.5009
  102OSM    H4S10308   5.630   4.381  10.140  0.3335  0.0185  0.2985
  102OSM    C5S10309   5.701   4.209  10.240  0.5282 -0.0162 -0.0494
  102OSM    H5S10310   5.730   4.170  10.338 -0.0465 -2.6796 -0.8411
  102OSM    C6S10311   5.729   4.134  10.112 -0.4729 -0.0648 -0.1876
  102OSM    H6S10312   5.669   4.040  10.103  0.5385 -1.1684  3.1509
  102OSM    H6T10313   5.835   4.103  10.114 -1.0781 -2.6808 -2.7379
  102OSM    C7S10314   5.734   4.205   9.969 -0.0290 -0.2338 -0.0444
  102OSM    H7S10315   5.795   4.297   9.959 -0.5717  0.1065 -0.2929
  102OSM    H7T10316   5.628   4.230   9.948  0.4710  2.2601  0.1252
  102OSM    C8S10317   5.787   4.110   9.864 -0.0171  0.1930  0.1334
  102OSM    H8S10318   5.744   4.008   9.874 -0.5269  0.5802  2.5112
  102OSM    H8T10319   5.894   4.093   9.891 -0.4470 -0.2289  1.6586
  102OSM    C9S10320   5.764   4.157   9.722 -0.0287 -0.2335 -0.3712
  102OSM    H9S10321   5.659   4.188   9.703 -0.1460 -1.7451 -2.4771
  102OSM    H9T10322   5.788   4.074   9.653  0.8592 -0.0007 -0.3485
  102OSM   C10S10323   5.866   4.274   9.705 -0.4411  0.1667  0.0696
  102OSM   H10S10324   5.968   4.241   9.733 -0.4496  1.1022  1.3110
  102OSM   H10T10325   5.835   4.364   9.762  0.9233  0.4764  0.3483
  102OSM   C11S10326   5.878   4.314   9.560 -0.4179  0.0622  0.4685
  102OSM   H11S10327   5.860   4.215   9.512  0.1185  0.0250  0.3394
  102OSM   H11T10328   5.973   4.357   9.523 -0.4083 -1.1019 -0.9629
  102OSM   C12S10329   5.774   4.422   9.512 -0.2781 -0.2035 -0.3895
  102OSM   H12S10330   5.812   4.523   9.537 -1.0083 -0.1485  0.5514
  102OSM   H12T10331   5.675   4.399   9.558 -0.9119 -0.7006 -1.9358
  102OSM   C13S10332   5.756   4.405   9.362  0.1637  0.0048  1.0140
  102OSM   H13S10333   5.718   4.307   9.325 -0.2898 -0.1854  1.9702
  102OSM   H13T10334   5.860   4.415   9.325 -0.1911 -1.0133 -0.3946
  102OSM   C14S10335   5.675   4.517   9.292 -0.3985  0.3811  0.3655
  102OSM   H14S10336   5.718   4.619   9.296 -1.5655  0.8686  0.9539
  102OSM   H14T10337   5.572   4.520   9.333  0.0326  2.1889  1.4235
  102OSM   C15S10338   5.654   4.487   9.144 -0.2776 -0.5411  0.0292
  102OSM   H15S10339   5.622   4.382   9.130  0.4567 -0.8676  0.7104
  102OSM   H15T10340   5.752   4.492   9.091 -0.3079  0.3835  0.0504
  102OSM   C16S10341   5.555   4.586   9.091  0.6831 -0.1805  0.1597
  102OSM   H16S10342   5.575   4.685   9.138  0.3283 -0.7721  1.6280
  102OSM   H16T10343   5.457   4.546   9.125  0.6400  0.2714  0.5862
  102OSM   C17S10344   5.558   4.599   8.939 -0.5392 -0.6044 -0.7371
  102OSM   H17S10345   5.539   4.496   8.901 -1.8172 -1.2338  1.4261
  102OSM   H17T10346   5.650   4.646   8.898 -1.2950 -0.4503 -2.3353
  102OSM   C18S10347   5.436   4.684   8.892 -0.1884  0.3703  1.0553
  102OSM   H18S10348   5.409   4.670   8.786 -1.7813 -0.3433  1.5145
  102OSM   H18T10349   5.459   4.792   8.906  0.1304  0.3688  0.5366
  102OSM   H18U10350   5.347   4.659   8.953  0.2818  2.1879  2.5887
  102OSM    C1F10351   5.932   4.622  10.338 -0.5482 -0.0272  0.3298
  102OSM     OF10352   6.012   4.556  10.403 -0.3614 -0.5341  0.3126
  102OSM    C2F10353   5.967   4.761  10.283 -0.7570 -0.6001  0.0562
  102OSM    H2F10354   6.011   4.830  10.358  1.2756 -0.5889 -1.0673
  102OSM    H2G10355   5.874   4.805  10.241  0.2081  0.0581 -1.5007
  102OSM    C3F10356   6.061   4.763  10.162  0.3088  0.5635  0.2522
  102OSM    H3F10357   6.161   4.723  10.189 -0.0291 -0.3968  0.0977
  102OSM    H3G10358   6.073   4.864  10.116 -2.4752  0.4657 -0.8869
  102OSM    C4F10359   6.026   4.657  10.053 -0.2165 -0.6842 -0.2510
  102OSM    H4F10360   6.013   4.559  10.103  0.3800 -0.5000  0.2772
  102OSM    H4G10361   6.099   4.653   9.970  1.5848  0.8082  1.1758
  102OSM    C5F10362   5.887   4.689   9.986 -0.7024  1.1481  0.5641
  102OSM    H5F10363   5.811   4.676  10.066 -1.6292 -2.1920 -0.6630
  102OSM    H5G10364   5.868   4.613   9.907 -1.3408 -0.5583  2.2627
  102OSM    C6F10365   5.893   4.830   9.921 -0.4114 -0.7948 -0.1538
  102OSM    H6F10366   5.903   4.909   9.999  0.9436 -1.3346  0.2500
  102OSM    H6G10367   5.791   4.838   9.878  0.0615  1.2223 -1.0195
  102OSM    C7F10368   5.997   4.849   9.808  0.5985  0.5346 -0.3462
  102OSM    H7F10369   5.990   4.778   9.723 -0.7676  0.3508 -0.1164
  102OSM    H7G10370   6.093   4.828   9.859 -1.5906 -2.5079  3.0149
  102OSM    C8F10371   6.019   4.995   9.755  0.3393  0.4387  0.1975
  102OSM    H8F10372   6.125   4.998   9.722 -0.4085  0.2681 -2.4321
  102OSM    H8G10373   6.001   5.063   9.841  1.1066  0.0067  0.7172
  102OSM    C9F10374   5.920   5.009   9.633 -0.1226  0.3610  0.4038
  102OSM    H9F10375   5.819   5.048   9.656 -0.5299  0.1192 -0.9078
  102OSM   C10F10376   5.946   5.002   9.503  0.5348  0.1300  0.0770
  102OSM   H10F10377   5.867   5.010   9.427  0.7755 -0.9424 -0.3075
  102OSM   C11F10378   6.078   4.962   9.440 -0.2958 -0.3460 -0.2430
  102OSM   H11F10379   6.168   4.989   9.501  0.5369  1.1957 -2.0513
  102OSM   H11G10380   6.087   5.013   9.342 -2.8103  0.0130 -0.3272
  102OSM   C12F10381   6.074   4.807   9.410  0.0975  0.1401 -0.9050
  102OSM   H12F10382   5.968   4.785   9.386  0.4678 -1.5069 -1.1495
  102OSM   H12G10383   6.100   4.746   9.499 -2.2408 -2.2206 -1.7195
  102OSM   C13F10384   6.160   4.772   9.285  0.4512 -0.9196  0.2027
  102OSM   H13F10385   6.145   4.857   9.214  2.3676 -0.8865 -0.2306
  102OSM   H13G10386   6.110   4.688   9.233 -1.3593  1.3192 -1.9338
  102OSM   C14F10387   6.306   4.763   9.325  0.1066  0.3068  0.1732
  102OSM   H14F10388   6.310   4.688   9.406  0.5230 -0.8591 -0.8936
  102OSM   H14G10389   6.340   4.865   9.354 -0.2213  0.6226 -0.5324
  102OSM   C15F10390   6.402   4.727   9.210 -0.5847 -0.3178 -0.5409
  102OSM   H15F10391   6.370   4.627   9.173  1.8052 -1.3964  0.1228
  102OSM   H15G10392   6.504   4.695   9.239 -0.6039 -2.0747 -2.1643
  102OSM   C16F10393   6.417   4.839   9.104  0.0481  0.4052  0.7460
  102OSM   H16F10394   6.444   4.933   9.156 -0.6278  1.1022 -0.1353
  102OSM   H16G10395   6.316   4.851   9.060  0.3284 -2.1861 -0.7962
  102OSM   C17F10396   6.524   4.829   8.989  0.3797  0.0468 -0.0050
  102OSM   H17F10397   6.528   4.719   8.976  1.3390 -0.0021  0.5852
  102OSM   H17G10398   6.619   4.873   9.026 -1.2985  1.7277  2.6736
  102OSM   C18F10399   6.467   4.907   8.867 -0.4492  0.6817 -0.5859
  102OSM   H18F10400   6.453   5.015   8.886 -1.6302  0.2338  1.5229
  102OSM   H18G10401   6.366   4.870   8.842 -0.4829 -0.2192  0.7563
  102OSM   H18H10402   6.535   4.897   8.780 -0.5508 -0.1546 -0.5765
  103OSM      N10403   6.776   5.639  11.049 -0.0429  0.5039 -0.4441
  103OSM    C1510404   6.744   5.615  10.912  0.6326  0.1242  0.6613
  103OSM   H15A10405   6.784   5.695  10.852  0.8125  0.1236  0.7796
  103OSM   H15B10406   6.637   5.623  10.906  0.6934  0.0905 -0.5990
  103OSM   H15C10407   6.778   5.520  10.875 -0.3022  0.7441 -1.9666
  103OSM    C1410408   6.722   5.770  11.099 -0.1089  0.8920  0.5177
  103OSM   H14A10409   6.614   5.774  11.098 -0.2280 -1.2935  0.1091
  103OSM   H14B10410   6.745   5.851  11.030  0.4838 -0.5972 -1.1058
  103OSM   H14C10411   6.748   5.792  11.201 -2.5260  2.3979  0.9018
  103OSM    C1310412   6.715   5.528  11.131  0.6105 -0.2365  0.2187
  103OSM   H13A10413   6.608   5.519  11.128  0.6863 -1.0837 -0.0110
  103OSM   H13B10414   6.739   5.536  11.236 -2.1251 -1.2509  0.9943
  103OSM   H13C10415   6.757   5.431  11.108  1.5555  0.4251 -0.9731
  103OSM    C1210416   6.933   5.644  11.069 -0.3139 -0.0776  0.2049
  103OSM   H12A10417   6.966   5.562  11.008  0.6785 -0.1687  0.8327
  103OSM   H12B10418   6.956   5.629  11.174  2.6476  3.2255  0.2349
  103OSM    C1110419   7.014   5.763  11.034  0.4470  0.0338  0.8925
  103OSM   H11A10420   7.124   5.754  11.026  0.3599  0.0502 -0.7493
  103OSM   H11B10421   6.987   5.841  11.109 -1.9825  0.5749 -0.4293
  103OSM      P10422   7.049   5.944  10.839  0.2961  0.1299 -0.2249
  103OSM    O1310423   6.954   6.045  10.780 -0.2998 -0.1664  0.1420
  103OSM    O1410424   7.155   5.995  10.934  0.2429 -0.4948 -0.2171
  103OSM    O1110425   7.115   5.854  10.725 -0.2078 -0.1237 -0.1061
  103OSM    O1210426   6.968   5.822  10.909 -0.2883  0.2772 -0.0941
  103OSM    C1S10427   7.021   5.772  10.645 -0.7037 -0.3440  0.0633
  103OSM    H1S10428   6.934   5.839  10.624 -1.3325 -0.5285  1.8750
  103OSM    H1T10429   6.978   5.691  10.707 -1.2155 -1.5252 -1.7431
  103OSM     NF10430   6.992   5.656  10.424 -0.0550  0.0402 -0.0735
  103OSM    HNF10431   7.008   5.558  10.419 -0.8640 -0.0347 -1.5954
  103OSM    C2S10432   7.087   5.728  10.514  0.0692  0.6450 -0.8723
  103OSM    H2S10433   7.127   5.814  10.456  0.5013  2.0958  1.4498
  103OSM    C3S10434   7.215   5.643  10.558 -0.8182 -0.5814  0.3863
  103OSM    H3S10435   7.175   5.562  10.622  0.3943  1.1937  3.5967
  103OSM     O310436   7.304   5.714  10.642  0.3651 -0.4731  0.0751
  103OSM    HO310437   7.241   5.768  10.690  1.6279 -0.9787  2.4702
  103OSM    C4S10438   7.281   5.593  10.431  0.7432  0.2244  0.3703
  103OSM    H4S10439   7.291   5.677  10.360  1.1638 -0.5849 -0.5379
  103OSM    C5S10440   7.320   5.472  10.393  0.4588  0.6787 -0.1130
  103OSM    H5S10441   7.301   5.387  10.461 -1.7871  1.2776  0.1045
  103OSM    C6S10442   7.382   5.443  10.260 -0.4925  0.0995  0.8852
  103OSM    H6S10443   7.451   5.362  10.290  0.4437  0.2756 -0.7212
  103OSM    H6T10444   7.446   5.529  10.231 -0.3582 -0.0439  0.7565
  103OSM    C7S10445   7.269   5.415  10.160  0.0362  0.0588 -0.1023
  103OSM    H7S10446   7.212   5.505  10.127  1.9342  2.3469  2.3896
  103OSM    H7T10447   7.213   5.324  10.192  1.0975 -1.2864 -1.8660
  103OSM    C8S10448   7.332   5.380  10.025 -0.2567 -0.1215 -0.0345
  103OSM    H8S10449   7.408   5.305  10.052  0.7872  1.1635  0.7119
  103OSM    H8T10450   7.397   5.461   9.984  2.0175 -1.3935  0.9098
  103OSM    C9S10451   7.221   5.323   9.924 -0.2128  0.2982  0.0616
  103OSM    H9S10452   7.137   5.395   9.916 -0.0904  0.4440  0.0749
  103OSM    H9T10453   7.173   5.237   9.975  0.0835 -0.3055 -0.6647
  103OSM   C10S10454   7.284   5.271   9.791  0.1251  0.2127  0.0862
  103OSM   H10S10455   7.202   5.204   9.757  0.2203  1.3043 -2.4762
  103OSM   H10T10456   7.380   5.224   9.821  0.1922  1.1379  1.4316
  103OSM   C11S10457   7.303   5.385   9.689  0.2429 -0.0760  0.1715
  103OSM   H11S10458   7.384   5.459   9.706  1.1667 -0.8504 -0.7400
  103OSM   H11T10459   7.216   5.454   9.696  0.3591  0.6245 -3.3085
  103OSM   C12S10460   7.310   5.334   9.541 -0.1733  0.1788 -0.5366
  103OSM   H12S10461   7.217   5.285   9.508  0.2443  0.1328 -1.6814
  103OSM   H12T10462   7.389   5.257   9.528 -0.0072  0.2954 -0.2242
  103OSM   C13S10463   7.364   5.440   9.448  0.4724  0.5684  0.0693
  103OSM   H13S10464   7.456   5.484   9.493  1.2786 -1.8342  0.9119
  103OSM   H13T10465   7.290   5.523   9.443  1.9849  2.0170  0.5412
  103OSM   C14S10466   7.401   5.399   9.312 -0.2416 -0.0190  0.1156
  103OSM   H14S10467   7.312   5.376   9.251 -0.0577  0.1407 -0.2171
  103OSM   H14T10468   7.465   5.309   9.319  0.8241  0.7626  0.7812
  103OSM   C15S10469   7.491   5.504   9.234 -0.3914  0.3763 -0.6008
  103OSM   H15S10470   7.536   5.458   9.143 -1.3408 -0.3688 -0.7082
  103OSM   H15T10471   7.582   5.527   9.292 -0.8529  2.3699 -0.6008
  103OSM   C16S10472   7.430   5.638   9.198  0.4057  0.2258  0.0534
  103OSM   H16S10473   7.509   5.715   9.180 -0.9791  1.2810 -1.8572
  103OSM   H16T10474   7.367   5.678   9.280 -0.5190 -1.2388  0.0841
  103OSM   C17S10475   7.347   5.624   9.073 -0.4130  0.4040  0.8596
  103OSM   H17S10476   7.258   5.563   9.100  0.2995 -2.0101 -1.7969
  103OSM   H17T10477   7.399   5.570   8.991 -1.6050  0.6649 -0.1097
  103OSM   C18S10478   7.292   5.756   9.021 -0.0837 -0.4655 -0.4141
  103OSM   H18S10479   7.277   5.837   9.096 -1.7657 -0.4124 -0.7799
  103OSM   H18T10480   7.200   5.731   8.965 -1.1575 -1.4298  1.6731
  103OSM   H18U10481   7.367   5.801   8.952  0.2880  1.2051  1.0078
  103OSM    C1F10482   6.908   5.718  10.350  0.1021  0.1820  0.2708
  103OSM     OF10483   6.903   5.836  10.350  0.0555 -0.4528 -0.1253
  103OSM    C2F10484   6.834   5.642  10.247 -0.0076  0.9461 -0.6591
  103OSM    H2F10485   6.738   5.604  10.289 -0.3847  0.9652 -1.4877
  103OSM    H2G10486   6.911   5.570  10.212  1.4278  1.5283  1.1290
  103OSM    C3F10487   6.777   5.735  10.140  0.0253  0.6229  0.0154
  103OSM    H3F10488   6.856   5.784  10.079 -2.1782  0.9991 -2.7740
  103OSM    H3G10489   6.718   5.812  10.193  0.9442 -0.0570  2.1299
  103OSM    C4F10490   6.689   5.661  10.028 -0.6141  0.1984  0.5764
  103OSM    H4F10491   6.601   5.616  10.077  0.0355 -1.2139  0.4809
  103OSM    H4G10492   6.757   5.598   9.967  0.5743  1.7811  0.1799
  103OSM    C5F10493   6.625   5.767   9.942 -0.7640 -0.2385 -0.0845
  103OSM    H5F10494   6.703   5.838   9.910 -0.6275 -0.5729 -0.4989
  103OSM    H5G10495   6.551   5.826  10.001 -0.6430  1.3038 -1.4073
  103OSM    C6F10496   6.546   5.706   9.826 -0.7954 -0.1415  0.6272
  103OSM    H6F10497   6.473   5.783   9.794 -1.4598 -0.6776  0.8358
  103OSM    H6G10498   6.484   5.622   9.866 -3.5298  1.3826 -0.1464
  103OSM    C7F10499   6.627   5.655   9.704  0.1547 -0.5075  0.0164
  103OSM    H7F10500   6.717   5.601   9.741  0.3488 -0.0126  0.2736
  103OSM    H7G10501   6.649   5.751   9.652  0.0250 -0.2911  0.3539
  103OSM    C8F10502   6.542   5.552   9.616  0.2549 -0.1593  0.3593
  103OSM    H8F10503   6.441   5.596   9.606 -0.4205 -1.8713 -0.7966
  103OSM    H8G10504   6.531   5.462   9.680 -0.9018 -1.9048 -2.1345
  103OSM    C9F10505   6.607   5.523   9.481  0.2042 -0.3340  0.3023
  103OSM    H9F10506   6.663   5.429   9.476  1.2192  0.2528  0.4983
  103OSM   C10F10507   6.611   5.600   9.370 -0.3790  0.3924 -0.1423
  103OSM   H10F10508   6.644   5.559   9.274 -1.5582  1.6331 -1.1085
  103OSM   C11F10509   6.551   5.736   9.352  0.5791 -0.8245 -0.3591
  103OSM   H11F10510   6.627   5.817   9.348 -0.8741  0.5608 -1.3306
  103OSM   H11G10511   6.486   5.762   9.439 -1.9327 -0.2181 -2.2867
  103OSM   C12F10512   6.457   5.751   9.229 -0.6398 -0.1806 -0.5895
  103OSM   H12F10513   6.404   5.848   9.235 -1.5079 -0.5536 -1.6875
  103OSM   H12G10514   6.373   5.678   9.219 -0.8553  0.3831 -4.5822
  103OSM   C13F10515   6.531   5.767   9.089 -0.4254 -0.6310 -0.0009
  103OSM   H13F10516   6.602   5.852   9.099  0.3275 -1.2872  0.3683
  103OSM   H13G10517   6.605   5.684   9.084 -0.3119 -0.6167  1.1374
  103OSM   C14F10518   6.444   5.767   8.968  0.1305  0.2285  0.4361
  103OSM   H14F10519   6.339   5.798   8.986  0.7277  2.3053  0.5176
  103OSM   H14G10520   6.431   5.661   8.937 -0.2599 -0.8698  3.9045
  103OSM   C15F10521   6.503   5.841   8.847  0.6380 -0.0703 -0.2492
  103OSM   H15F10522   6.595   5.794   8.806  0.1500  0.2214 -1.7506
  103OSM   H15G10523   6.515   5.945   8.883 -1.8860 -0.6726  2.7335
  103OSM   C16F10524   6.413   5.842   8.719 -0.4331 -0.1785 -0.2752
  103OSM   H16F10525   6.311   5.854   8.760 -0.3970  0.9427 -0.4991
  103OSM   H16G10526   6.404   5.741   8.672  1.1116  0.8778 -3.0645
  103OSM   C17F10527   6.456   5.931   8.601 -0.3584  0.4926  0.1620
  103OSM   H17F10528   6.444   6.035   8.640 -0.0511 -0.6125  3.5655
  103OSM   H17G10529   6.374   5.916   8.527 -0.2083 -0.9262  0.2536
  103OSM   C18F10530   6.593   5.911   8.532  0.6888 -0.0541 -0.6210
  103OSM   H18F10531   6.634   6.010   8.500  2.0879 -0.9082 -1.6226
  103OSM   H18G10532   6.584   5.847   8.442  4.1817  0.5255 -1.5385
  103OSM   H18H10533   6.662   5.855   8.598  0.2196  1.4017  1.2141
  104OSM      N10534   4.398   0.163  10.795 -0.0668  0.1710 -0.1421
  104OSM    C1510535   4.364   0.027  10.740  0.5207  0.6752 -0.4796
  104OSM   H15A10536   4.439  -0.012  10.673 -2.2152 -0.8750 -2.9012
  104OSM   H15B10537   4.273   0.035  10.682  1.2068  2.0070 -1.4156
  104OSM   H15C10538   4.339  -0.036  10.824  1.2411 -0.1020 -0.8449
  104OSM    C1410539   4.311   0.189  10.915 -0.0499 -0.5611 -0.0711
  104OSM   H14A10540   4.329   0.108  10.985 -0.4688 -1.1625 -0.6414
  104OSM   H14B10541   4.208   0.183  10.884  0.0106  0.0097 -0.3801
  104OSM   H14C10542   4.334   0.280  10.968  0.9240  1.2611 -3.3737
  104OSM    C1310543   4.543   0.166  10.845 -0.0328  0.4014 -0.4093
  104OSM   H13A10544   4.566   0.267  10.875 -2.3372  1.1204 -0.8803
  104OSM   H13B10545   4.614   0.123  10.776  0.3285 -3.6519  2.1859
  104OSM   H13C10546   4.557   0.100  10.929 -0.6943 -0.5527 -1.0249
  104OSM    C1210547   4.387   0.264  10.681 -0.8693  0.3804  0.8367
  104OSM   H12A10548   4.476   0.253  10.620 -0.7472  0.9043  0.9128
  104OSM   H12B10549   4.384   0.359  10.733 -0.6654  0.2164  1.1560
  104OSM    C1110550   4.260   0.258  10.593  1.0260  0.0750  0.2842
  104OSM   H11A10551   4.272   0.173  10.523 -0.9169  0.5630 -0.7265
  104OSM   H11B10552   4.277   0.348  10.530  0.6323  1.1939  1.7140
  104OSM      P10553   4.019   0.157  10.646  0.2545 -0.1464 -0.4287
  104OSM    O1310554   4.076   0.030  10.693 -0.0415 -0.4147  0.1774
  104OSM    O1410555   3.892   0.206  10.715 -0.3556  0.0396  0.3402
  104OSM    O1110556   3.996   0.148  10.486 -0.2190  0.6879 -0.4253
  104OSM    O1210557   4.133   0.270  10.656  0.1681  0.3349 -0.6229
  104OSM    C1S10558   3.925   0.254  10.429  0.0320  0.1779  0.3403
  104OSM    H1S10559   3.952   0.357  10.460  1.2639 -0.1122  0.2768
  104OSM    H1T10560   3.816   0.254  10.453 -0.0776  3.5901  0.4506
  104OSM     NF10561   3.868   0.356  10.223  0.1999 -0.4841 -0.1326
  104OSM    HNF10562   3.780   0.339  10.181  0.9523 -1.3235 -1.4499
  104OSM    C2S10563   3.933   0.240  10.279  0.3269 -0.2120  0.4452
  104OSM    H2S10564   4.037   0.259  10.243  0.4657 -0.2904  0.8097
  104OSM    C3S10565   3.870   0.105  10.216 -0.0835  0.7388 -0.7043
  104OSM    H3S10566   3.766   0.107  10.254  0.4701  0.4064  0.9354
  104OSM     O310567   3.933  -0.009  10.271 -0.2684 -0.2749  0.8318
  104OSM    HO310568   3.994   0.027  10.336  1.0174 -0.0257 -0.4752
  104OSM    C4S10569   3.875   0.101  10.067  0.7981 -0.2843 -0.2110
  104OSM    H4S10570   3.779   0.127  10.021  0.2045 -1.4654  0.3435
  104OSM    C5S10571   3.975   0.070   9.989 -0.4372  0.4347  0.8331
  104OSM    H5S10572   4.070   0.043  10.038  0.9292  3.2850 -0.0315
  104OSM    C6S10573   3.973   0.058   9.838 -0.5955  0.6718  0.6429
  104OSM    H6S10574   3.999  -0.046   9.811 -0.9273  0.3597  1.5013
  104OSM    H6T10575   4.039   0.131   9.787  2.5855 -3.2556 -1.3476
  104OSM    C7S10576   3.838   0.085   9.771 -0.2586  0.4559  0.2454
  104OSM    H7S10577   3.781   0.173   9.806 -2.0813 -1.4642  2.4705
  104OSM    H7T10578   3.776  -0.006   9.790  0.9738 -0.3701  0.4445
  104OSM    C8S10579   3.864   0.110   9.617  0.9878  0.3165 -0.8076
  104OSM    H8S10580   3.944   0.186   9.602  0.0581  0.9389 -2.9497
  104OSM    H8T10581   3.767   0.145   9.576  1.1753  1.7941 -0.0374
  104OSM    C9S10582   3.908  -0.019   9.542  0.1144 -0.1472 -0.0751
  104OSM    H9S10583   3.830  -0.093   9.569 -0.3311  0.4692  0.3782
  104OSM    H9T10584   4.007  -0.054   9.577 -0.3683 -2.7074 -1.0449
  104OSM   C10S10585   3.922   0.012   9.388 -0.3857 -0.0188  0.2335
  104OSM   H10S10586   3.834   0.072   9.358  0.8786  2.5219  1.3242
  104OSM   H10T10587   3.930  -0.086   9.336 -0.3936 -0.6233  1.3323
  104OSM   C11S10588   4.041   0.111   9.361  0.5259  0.7357  0.0448
  104OSM   H11S10589   4.122   0.086   9.434  0.7893  1.4903  0.0136
  104OSM   H11T10590   4.011   0.213   9.391 -0.6730  0.1555  0.9298
  104OSM   C12S10591   4.099   0.098   9.222  0.3777  0.6751  0.0788
  104OSM   H12S10592   4.117  -0.006   9.188  0.3909  1.2990 -2.0005
  104OSM   H12T10593   4.197   0.148   9.238  0.7947 -0.4136  1.0725
  104OSM   C13S10594   4.024   0.177   9.124 -0.0459 -0.6689  0.1932
  104OSM   H13S10595   4.014   0.283   9.156  0.8803 -0.1962 -1.0403
  104OSM   H13T10596   3.923   0.133   9.112 -0.1125 -0.3176 -0.6098
  104OSM   C14S10597   4.099   0.170   8.991  0.1275 -0.2321  0.0978
  104OSM   H14S10598   4.092   0.062   8.967 -0.8807  0.1184 -1.2670
  104OSM   H14T10599   4.207   0.189   9.010  0.2923 -0.6686 -0.4026
  104OSM   C15S10600   4.030   0.258   8.883 -0.1955  0.4793 -0.5865
  104OSM   H15S10601   4.053   0.365   8.905  1.3239  0.7558 -3.1402
  104OSM   H15T10602   3.921   0.242   8.895 -0.4754  2.4439 -0.1909
  104OSM   C16S10603   4.089   0.241   8.739 -0.7588  0.2551 -0.3435
  104OSM   H16S10604   4.067   0.138   8.704 -0.3504  0.7161 -2.0592
  104OSM   H16T10605   4.200   0.244   8.748 -0.8401  0.8859  0.5966
  104OSM   C17S10606   4.049   0.359   8.646 -0.5293  0.2135  0.0781
  104OSM   H17S10607   4.106   0.450   8.676 -0.5496  1.0549 -2.2409
  104OSM   H17T10608   3.945   0.380   8.677  0.2200 -0.0763  3.0717
  104OSM   C18S10609   4.065   0.323   8.500 -0.9650  0.1695  0.1580
  104OSM   H18S10610   4.040   0.216   8.485  0.9695 -0.2574 -0.2166
  104OSM   H18T10611   4.170   0.333   8.467 -0.7798  2.1315  1.1635
  104OSM   H18U10612   4.003   0.378   8.427 -0.2535 -3.0314 -3.1278
  104OSM    C1F10613   3.914   0.480  10.221  0.0871 -0.3930  0.2528
  104OSM     OF10614   4.026   0.502  10.272  0.3443  0.5578 -0.7183
  104OSM    C2F10615   3.828   0.588  10.163  0.4591  0.3080  0.1733
  104OSM    H2F10616   3.855   0.681  10.218 -0.4820  0.7958 -0.1658
  104OSM    H2G10617   3.721   0.569  10.187  0.0493  1.2603 -0.8015
  104OSM    C3F10618   3.857   0.620  10.016  0.5025 -0.4198  0.4175
  104OSM    H3F10619   3.964   0.649  10.008 -0.1634  2.0685 -0.3004
  104OSM    H3G10620   3.788   0.701   9.984  1.9835  0.3514 -1.0163
  104OSM    C4F10621   3.824   0.509   9.921  0.1711 -0.1250  0.4546
  104OSM    H4F10622   3.719   0.474   9.936 -0.7583  1.1467 -2.3922
  104OSM    H4G10623   3.893   0.423   9.932 -0.6503 -0.6104  2.1996
  104OSM    C5F10624   3.818   0.557   9.780  0.2255  0.5584  0.6772
  104OSM    H5F10625   3.914   0.603   9.748  0.7311 -0.5340  0.5969
  104OSM    H5G10626   3.741   0.635   9.760 -0.1536 -0.3403 -1.5722
  104OSM    C6F10627   3.780   0.444   9.685  0.6456  0.4201  0.4845
  104OSM    H6F10628   3.693   0.395   9.732  0.9666 -0.2043  0.4369
  104OSM    H6G10629   3.855   0.363   9.674 -1.9400 -2.1215  0.4752
  104OSM    C7F10630   3.743   0.513   9.552  0.2002 -0.1840  0.3906
  104OSM    H7F10631   3.808   0.602   9.541 -0.3284 -0.0798 -2.5364
  104OSM    H7G10632   3.639   0.551   9.561  1.3367  3.8820 -1.3153
  104OSM    C8F10633   3.754   0.434   9.418 -0.1725  0.9115  0.4343
  104OSM    H8F10634   3.689   0.345   9.426 -1.4182  1.6569 -0.9921
  104OSM    H8G10635   3.854   0.384   9.420 -1.0626 -0.9927 -0.3583
  104OSM    C9F10636   3.720   0.525   9.302  0.5136 -0.0232  0.1280
  104OSM    H9F10637   3.613   0.546   9.289  0.0644 -0.8258  2.1603
  104OSM   C10F10638   3.791   0.573   9.205 -0.4406  0.2228  0.1951
  104OSM   H10F10639   3.745   0.631   9.124  0.2849  1.2487  0.4970
  104OSM   C11F10640   3.944   0.557   9.202  0.6006  0.2468 -0.4081
  104OSM   H11F10641   3.953   0.481   9.121 -2.4760 -0.2637 -0.4020
  104OSM   H11G10642   3.986   0.510   9.294 -1.2310 -0.5696  0.0631
  104OSM   C12F10643   4.011   0.693   9.164  0.8294 -0.1726  0.5354
  104OSM   H12F10644   4.122   0.678   9.166  1.1302  1.5685  3.7789
  104OSM   H12G10645   3.987   0.764   9.246  0.5416 -1.5386  1.6812
  104OSM   C13F10646   3.966   0.751   9.031 -0.0028 -0.2195  0.1629
  104OSM   H13F10647   4.033   0.838   9.017  0.8232 -0.7500  0.6778
  104OSM   H13G10648   3.869   0.799   9.053  0.7358  2.0947 -1.3279
  104OSM   C14F10649   3.963   0.667   8.912  0.7652  0.3127  0.1166
  104OSM   H14F10650   3.863   0.621   8.894 -0.0682  2.3516 -0.7237
  104OSM   H14G10651   4.035   0.584   8.930  0.7890  0.9391  3.3679
  104OSM   C15F10652   3.989   0.734   8.779  0.9313  0.6739 -0.0779
  104OSM   H15F10653   4.020   0.667   8.696  0.9150  0.1515  0.3354
  104OSM   H15G10654   4.070   0.807   8.802  0.1110  1.9305 -1.0599
  104OSM   C16F10655   3.866   0.823   8.739 -0.0956  0.1244  0.2644
  104OSM   H16F10656   3.852   0.898   8.820  0.8940 -0.9183  1.4367
  104OSM   H16G10657   3.782   0.750   8.737  0.5566 -0.6616  0.9442
  104OSM   C17F10658   3.882   0.859   8.591  0.3852 -0.3842 -0.2311
  104OSM   H17F10659   3.868   0.775   8.519 -2.4985 -1.6660  1.6535
  104OSM   H17G10660   3.982   0.907   8.591  0.5524 -0.7294 -0.0806
  104OSM   C18F10661   3.774   0.963   8.560 -0.0899 -0.3270  0.5843
  104OSM   H18F10662   3.766   0.976   8.450 -0.5931  3.2179  0.9409
  104OSM   H18G10663   3.787   1.061   8.610 -1.0985  0.3865 -0.4888
  104OSM   H18H10664   3.669   0.932   8.582 -0.7879  2.2966  1.2733
  105OSM      N10665   3.812   6.415  10.908 -0.7959 -0.2629 -0.2433
  105OSM    C1510666   3.965   6.424  10.944  0.1581  0.4927  0.9344
  105OSM   H15A10667   3.973   6.501  11.020 -0.3159 -0.4471  1.9597
  105OSM   H15B10668   4.019   6.455  10.856  0.4556  0.9786  1.2788
  105OSM   H15C10669   4.003   6.332  10.986 -1.1190 -0.6392 -0.3097
  105OSM    C1410670   3.742   6.360  11.032  0.2145 -0.0021 -0.0044
  105OSM   H14A10671   3.776   6.261  11.060  0.7351 -0.6410 -2.5817
  105OSM   H14B10672   3.635   6.366  11.021  0.0682 -0.5052  0.9933
  105OSM   H14C10673   3.769   6.417  11.119 -2.6070 -0.9293  1.6166
  105OSM    C1310674   3.766   6.553  10.888 -0.1191 -0.0003 -0.0103
  105OSM   H13A10675   3.780   6.615  10.975 -1.6917  2.6728 -1.5308
  105OSM   H13B10676   3.664   6.564  10.855 -0.9821  1.8775  2.9214
  105OSM   H13C10677   3.837   6.602  10.823 -0.0225  1.0090  0.8421
  105OSM    C1210678   3.788   6.330  10.785  0.2336  0.1149  0.2998
  105OSM   H12A10679   3.844   6.238  10.788  0.2508  0.1309  0.5306
  105OSM   H12B10680   3.833   6.388  10.706  1.5603 -2.8272 -1.2578
  105OSM    C1110681   3.639   6.295  10.762 -0.1000  0.3357  0.6811
  105OSM   H11A10682   3.603   6.224  10.839  2.2720 -2.2254 -0.4002
  105OSM   H11B10683   3.629   6.232  10.671  2.0261  3.4557 -1.9408
  105OSM      P10684   3.490   6.465  10.636 -0.5005 -0.1446  0.1254
  105OSM    O1310685   3.368   6.397  10.600 -0.1864  0.1931 -0.3421
  105OSM    O1410686   3.477   6.610  10.653  0.3513 -0.6776  0.8205
  105OSM    O1110687   3.607   6.423  10.532  0.4041 -0.1639  0.0752
  105OSM    O1210688   3.552   6.404  10.760  0.5905 -0.6354  0.1787
  105OSM    C1S10689   3.716   6.507  10.502  0.3585 -0.0260 -0.8042
  105OSM    H1S10690   3.781   6.523  10.591 -1.1762 -0.8483  0.5016
  105OSM    H1T10691   3.672   6.605  10.473  2.3013  0.7088 -1.4575
  105OSM     NF10692   3.944   6.525  10.402 -0.1159  0.0139 -0.1006
  105OSM    HNF10693   3.950   6.594  10.330 -0.9837 -1.1295 -1.3058
  105OSM    C2S10694   3.822   6.453  10.398  0.3882 -0.6455 -0.2689
  105OSM    H2S10695   3.846   6.347  10.419  0.0635 -0.4490  1.1953
  105OSM    C3S10696   3.762   6.465  10.262  0.0265  0.7009  0.0022
  105OSM    H3S10697   3.743   6.573  10.242  0.0560  0.6625 -0.2355
  105OSM     O310698   3.630   6.402  10.262  0.5791  0.0837 -0.0692
  105OSM    HO310699   3.624   6.403  10.358  2.0484 -2.5744  0.1353
  105OSM    C4S10700   3.843   6.401  10.151 -0.1785  0.0435 -0.4048
  105OSM    H4S10701   3.845   6.291  10.158  0.6967 -0.0882 -2.1178
  105OSM    C5S10702   3.910   6.458  10.048  0.6519 -0.3869 -0.0922
  105OSM    H5S10703   3.924   6.567  10.050 -2.7761  0.1867  0.1016
  105OSM    C6S10704   3.989   6.391   9.943 -0.0717  0.3934  0.5204
  105OSM    H6S10705   4.007   6.284   9.965  1.9565  0.4552 -0.6118
  105OSM    H6T10706   4.089   6.434   9.920  0.0366 -0.5871 -0.9625
  105OSM    C7S10707   3.903   6.414   9.817  0.2369  0.1436 -0.1546
  105OSM    H7S10708   3.905   6.522   9.793 -0.1281  0.0755 -0.5116
  105OSM    H7T10709   3.799   6.375   9.825  0.6402 -1.1793 -0.9162
  105OSM    C8S10710   3.966   6.347   9.691  0.3890  0.6033  0.1672
  105OSM    H8S10711   3.966   6.236   9.699 -1.9828  0.3638 -1.8296
  105OSM    H8T10712   4.070   6.385   9.680  0.7237  0.0881  1.4346
  105OSM    C9S10713   3.875   6.380   9.570  0.0671  0.7625 -0.1004
  105OSM    H9S10714   3.843   6.486   9.576 -1.9106  0.1555  0.9560
  105OSM    H9T10715   3.782   6.320   9.577  0.2468  0.2334 -1.8674
  105OSM   C10S10716   3.958   6.360   9.441  0.1646  0.2103  0.5039
  105OSM   H10S10717   4.004   6.259   9.454  0.2742  0.4998  2.7435
  105OSM   H10T10718   4.048   6.424   9.442 -0.2572  0.8143  0.2872
  105OSM   C11S10719   3.883   6.380   9.313 -0.8297  0.2376  0.1539
  105OSM   H11S10720   3.868   6.490   9.315  0.3618  0.4138  0.3041
  105OSM   H11T10721   3.785   6.329   9.308 -1.0970  0.8498 -1.5508
  105OSM   C12S10722   3.983   6.346   9.197 -0.3103 -0.6888 -0.0435
  105OSM   H12S10723   4.000   6.236   9.202  0.2931 -0.5591  3.1688
  105OSM   H12T10724   4.082   6.394   9.213 -0.8218  0.0487  1.0722
  105OSM   C13S10725   3.927   6.398   9.068 -0.0328  0.7291 -0.0703
  105OSM   H13S10726   3.916   6.509   9.066  0.2333  0.7515 -0.3767
  105OSM   H13T10727   3.827   6.352   9.057  1.1963 -1.7661 -1.9973
  105OSM   C14S10728   4.013   6.357   8.947  0.0203  0.8179 -1.0355
  105OSM   H14S10729   4.037   6.249   8.944 -2.7219  0.1717 -2.0773
  105OSM   H14T10730   4.110   6.412   8.950  0.2303  0.4541  1.4692
  105OSM   C15S10731   3.931   6.381   8.814 -0.1342 -0.0330  0.0926
  105OSM   H15S10732   3.882   6.479   8.831 -0.6012  0.2703 -2.4840
  105OSM   H15T10733   3.849   6.309   8.793  0.7336 -0.9591 -0.2147
  105OSM   C16S10734   4.027   6.397   8.692  0.0263 -0.1324 -0.7356
  105OSM   H16S10735   4.115   6.456   8.725  1.5561 -2.8507  0.3257
  105OSM   H16T10736   3.974   6.467   8.623  0.6412  0.3734 -0.7068
  105OSM   C17S10737   4.063   6.268   8.614  0.1877 -0.8612  0.0463
  105OSM   H17S10738   3.982   6.237   8.545  0.5480  0.9944 -1.2874
  105OSM   H17T10739   4.085   6.185   8.684 -0.3346 -0.4900  0.6639
  105OSM   C18S10740   4.183   6.277   8.517  0.0130 -0.2780 -0.0945
  105OSM   H18S10741   4.167   6.356   8.441 -0.1554 -0.4011 -0.1895
  105OSM   H18T10742   4.209   6.176   8.478 -1.0660 -1.2379  1.5550
  105OSM   H18U10743   4.261   6.306   8.591  0.6896  0.6296 -1.1412
  105OSM    C1F10744   4.034   6.519  10.505  0.5415 -0.3822  0.5207
  105OSM     OF10745   4.014   6.451  10.606 -0.3431 -0.1399 -0.4065
  105OSM    C2F10746   4.161   6.599  10.496 -0.2305  0.2014  0.0232
  105OSM    H2F10747   4.212   6.598  10.595 -1.6760  1.8701  0.8578
  105OSM    H2G10748   4.132   6.705  10.477  0.3649  0.5471  0.9642
  105OSM    C3F10749   4.251   6.546  10.386 -0.6084  0.1963  0.0246
  105OSM    H3F10750   4.277   6.438  10.378  2.2628  0.8390 -0.5438
  105OSM    H3G10751   4.356   6.580  10.404 -0.8127  0.5868  0.4689
  105OSM    C4F10752   4.214   6.606  10.246 -0.7203  0.3298 -0.1426
  105OSM    H4F10753   4.225   6.716  10.258  2.5734  0.0021  0.9719
  105OSM    H4G10754   4.109   6.581  10.220 -0.3389 -2.0363  0.4059
  105OSM    C5F10755   4.312   6.569  10.134 -0.2879 -0.2384  0.6888
  105OSM    H5F10756   4.296   6.460  10.118  0.9248 -0.3038 -0.1625
  105OSM    H5G10757   4.413   6.590  10.174  0.3937 -1.2474 -0.4256
  105OSM    C6F10758   4.294   6.649  10.007  0.9013 -0.1052 -0.0529
  105OSM    H6F10759   4.299   6.759  10.021  0.6280 -0.1779  0.6365
  105OSM    H6G10760   4.197   6.627   9.957 -0.8267  3.3473  1.4355
  105OSM    C7F10761   4.404   6.626   9.905 -0.5451  0.0334  0.1382
  105OSM    H7F10762   4.416   6.521   9.871 -1.4151 -0.3906  1.0845
  105OSM    H7G10763   4.493   6.666   9.959 -0.8655  1.6623 -0.4933
  105OSM    C8F10764   4.403   6.711   9.775  0.1433  0.2400  0.1431
  105OSM    H8F10765   4.496   6.684   9.721  0.5258  1.1877  0.2937
  105OSM    H8G10766   4.406   6.821   9.796 -0.9131  0.6824 -1.7968
  105OSM    C9F10767   4.286   6.693   9.682  0.7215 -0.0052  0.2696
  105OSM    H9F10768   4.186   6.705   9.726 -0.1421 -0.5398 -1.4445
  105OSM   C10F10769   4.295   6.662   9.549  0.4335  0.2914  0.6206
  105OSM   H10F10770   4.199   6.659   9.495  1.6605  0.8296 -1.7233
  105OSM   C11F10771   4.417   6.637   9.463  0.5897 -0.1406 -0.4039
  105OSM   H11F10772   4.430   6.529   9.441 -1.1791  0.0344 -2.5398
  105OSM   H11G10773   4.513   6.651   9.517  1.5319 -4.1348 -0.7405
  105OSM   C12F10774   4.399   6.709   9.325 -0.3019  0.5898 -0.4095
  105OSM   H12F10775   4.412   6.819   9.334  0.2798  0.5975 -1.2369
  105OSM   H12G10776   4.293   6.694   9.296 -1.0625  0.7273  2.0165
  105OSM   C13F10777   4.493   6.655   9.220 -0.6077  0.1036 -0.0618
  105OSM   H13F10778   4.463   6.548   9.210  0.5808 -0.1173 -1.8440
  105OSM   H13G10779   4.599   6.672   9.251 -0.8921 -1.3178  1.8535
  105OSM   C14F10780   4.460   6.716   9.077 -0.9074 -0.2746  0.4362
  105OSM   H14F10781   4.471   6.826   9.081 -0.9931 -0.2871  1.1168
  105OSM   H14G10782   4.356   6.686   9.054 -1.7449  2.9070 -0.3757
  105OSM   C15F10783   4.553   6.660   8.969 -0.9411 -0.1429  0.5822
  105OSM   H15F10784   4.575   6.552   8.982  2.5164  0.5051  0.9584
  105OSM   H15G10785   4.652   6.711   8.967 -1.5052  0.9673 -0.4332
  105OSM   C16F10786   4.497   6.683   8.824 -0.2030  0.2317  0.1773
  105OSM   H16F10787   4.480   6.793   8.815  2.0751  0.7520  1.3798
  105OSM   H16G10788   4.401   6.633   8.799  0.4722 -0.7691 -0.4924
  105OSM   C17F10789   4.609   6.640   8.726 -0.1660  0.0482 -0.4915
  105OSM   H17F10790   4.713   6.659   8.759  0.2143 -0.7821 -1.1576
  105OSM   H17G10791   4.592   6.701   8.635 -0.3606  1.8914  0.7227
  105OSM   C18F10792   4.609   6.498   8.689  0.9960  0.3673  0.5912
  105OSM   H18F10793   4.691   6.474   8.618  0.6173 -0.7599  0.5056
  105OSM   H18G10794   4.512   6.461   8.650  0.7877  1.8549 -0.3839
  105OSM   H18H10795   4.636   6.447   8.784 -0.1515 -1.5081 -0.0235
  106OSM      N10796   5.355   4.526  10.866 -0.1568 -0.4546  0.0865
  106OSM    C1510797   5.397   4.416  10.955  0.1030  0.0963 -0.8470
  106OSM   H15A10798   5.505   4.410  10.962 -0.0727 -1.1424  3.9470
  106OSM   H15B10799   5.356   4.323  10.920  0.2755 -0.6488  0.8401
  106OSM   H15C10800   5.369   4.437  11.057 -0.6083  0.4094 -1.0978
  106OSM    C1410801   5.448   4.640  10.892 -0.0875 -0.2372  0.1189
  106OSM   H14A10802   5.445   4.675  10.994 -0.4657  0.3979 -0.1011
  106OSM   H14B10803   5.422   4.720  10.824 -0.5040 -0.6193 -0.1761
  106OSM   H14C10804   5.546   4.602  10.869 -0.3043 -0.5728 -0.2720
  106OSM    C1310805   5.376   4.486  10.727 -0.5398  0.1394  0.3936
  106OSM   H13A10806   5.291   4.432  10.690  0.1246  0.3167 -1.5128
  106OSM   H13B10807   5.463   4.424  10.710  1.7028  2.7879  1.3089
  106OSM   H13C10808   5.381   4.575  10.665  1.1895 -1.3936 -1.8370
  106OSM    C1210809   5.206   4.563  10.889  0.1004 -0.7907 -0.3902
  106OSM   H12A10810   5.194   4.638  10.812  1.3669  0.2943  0.4325
  106OSM   H12B10811   5.197   4.609  10.987 -0.6192  0.2070 -0.9119
  106OSM    C1110812   5.093   4.457  10.875 -0.0826  0.2533 -0.0350
  106OSM   H11A10813   4.991   4.499  10.879 -0.3634 -0.3680 -0.4987
  106OSM   H11B10814   5.098   4.392  10.965  2.2361  0.4426  0.0435
  106OSM      P10815   5.093   4.227  10.758 -0.4551 -0.2844 -0.2450
  106OSM    O1310816   5.195   4.168  10.855 -0.1961 -0.3898 -0.3172
  106OSM    O1410817   4.954   4.183  10.783  0.0833 -0.0643 -0.2879
  106OSM    O1110818   5.124   4.194  10.611 -0.5503 -0.3510 -0.0986
  106OSM    O1210819   5.106   4.390  10.752  0.0601 -0.0170 -0.4459
  106OSM    C1S10820   5.060   4.245  10.492  0.0005 -0.2353 -0.5603
  106OSM    H1S10821   5.019   4.348  10.498 -0.1340 -0.3884  2.4629
  106OSM    H1T10822   4.972   4.186  10.460 -0.1712  0.3168 -1.1365
  106OSM     NF10823   5.085   4.304  10.259 -0.0590 -0.0123 -0.4707
  106OSM    HNF10824   5.016   4.251  10.210  0.6648 -0.4328 -1.0606
  106OSM    C2S10825   5.154   4.233  10.371 -0.5974  0.4448  0.6919
  106OSM    H2S10826   5.241   4.293  10.404  1.8318 -2.2488 -0.3794
  106OSM    C3S10827   5.197   4.089  10.333  0.4884  0.3790 -0.8277
  106OSM    H3S10828   5.110   4.021  10.323  0.6320 -0.1546  1.1361
  106OSM     O310829   5.269   4.035  10.440 -0.2546 -0.3965  0.4781
  106OSM    HO310830   5.253   4.101  10.508  0.1564 -0.2014  0.3890
  106OSM    C4S10831   5.287   4.097  10.217 -0.4313  0.5885  0.6478
  106OSM    H4S10832   5.349   4.188  10.212 -0.8916  0.8251 -1.3678
  106OSM    C5S10833   5.290   4.012  10.108 -0.0038 -0.3492  1.1890
  106OSM    H5S10834   5.222   3.925  10.103 -0.0284 -0.2609 -0.1481
  106OSM    C6S10835   5.372   4.032   9.990  0.2901 -0.1708 -0.0953
  106OSM    H6S10836   5.424   3.939   9.961  1.5647  0.7698 -0.9384
  106OSM    H6T10837   5.447   4.111  10.011 -0.5726  0.6850 -0.1573
  106OSM    C7S10838   5.310   4.077   9.852 -0.2246  0.3891  0.3705
  106OSM    H7S10839   5.246   4.165   9.874  0.2525  0.3431  2.0710
  106OSM    H7T10840   5.247   3.990   9.826  1.6027 -0.8723 -0.0736
  106OSM    C8S10841   5.408   4.109   9.739 -0.3704  0.4473  0.5915
  106OSM    H8S10842   5.492   4.035   9.740 -0.3204  0.3975 -1.7671
  106OSM    H8T10843   5.456   4.209   9.745  0.6726 -0.0955  2.1303
  106OSM    C9S10844   5.338   4.084   9.604 -0.1718 -0.5384  0.4167
  106OSM    H9S10845   5.238   4.127   9.623 -0.7551 -1.7049  0.0819
  106OSM    H9T10846   5.331   3.974   9.584 -0.4146 -0.7362  1.5365
  106OSM   C10S10847   5.407   4.158   9.486 -0.7175 -0.2251 -0.5762
  106OSM   H10S10848   5.503   4.104   9.470 -0.6888  0.0037 -1.1968
  106OSM   H10T10849   5.437   4.264   9.504 -1.6073  0.0438 -0.6084
  106OSM   C11S10850   5.325   4.152   9.360  0.3023 -0.0821  0.0786
  106OSM   H11S10851   5.230   4.203   9.385 -0.6191 -2.0555  0.8020
  106OSM   H11T10852   5.304   4.043   9.351  0.7736 -0.0131 -2.8065
  106OSM   C12S10853   5.399   4.195   9.238  0.4645 -0.0313  0.1694
  106OSM   H12S10854   5.487   4.129   9.221  0.0249 -1.4186  2.6908
  106OSM   H12T10855   5.446   4.295   9.248  1.1723 -0.0979 -1.9278
  106OSM   C13S10856   5.298   4.216   9.119 -0.8416  0.5825 -0.1402
  106OSM   H13S10857   5.209   4.275   9.147 -2.6144 -1.1508 -1.7814
  106OSM   H13T10858   5.267   4.111   9.098  2.1284 -0.0570 -1.9036
  106OSM   C14S10859   5.359   4.267   8.992  0.0226 -0.2141 -0.1563
  106OSM   H14S10860   5.459   4.219   8.985  0.2207  0.1257  0.2281
  106OSM   H14T10861   5.372   4.377   9.002  0.4391 -0.3339  0.7957
  106OSM   C15S10862   5.292   4.235   8.858  0.2083  0.4162 -0.2346
  106OSM   H15S10863   5.183   4.257   8.859  0.1182  0.2421 -2.2079
  106OSM   H15T10864   5.305   4.126   8.845  2.2784  0.6246 -0.1629
  106OSM   C16S10865   5.355   4.324   8.740 -0.0448  0.1851  0.5086
  106OSM   H16S10866   5.463   4.306   8.723 -0.3722  1.3443 -4.2945
  106OSM   H16T10867   5.327   4.429   8.764 -2.0508 -0.1319 -0.1765
  106OSM   C17S10868   5.270   4.281   8.610  0.3114  0.5629 -1.1782
  106OSM   H17S10869   5.167   4.322   8.614  0.0713 -0.0761 -0.5608
  106OSM   H17T10870   5.256   4.171   8.600  1.3321  0.2529  0.4322
  106OSM   C18S10871   5.333   4.331   8.489  0.1588  0.1129  0.1221
  106OSM   H18S10872   5.292   4.268   8.407  0.2330  1.1453 -0.7257
  106OSM   H18T10873   5.442   4.320   8.472 -0.4568 -0.8832 -4.6704
  106OSM   H18U10874   5.298   4.433   8.464  1.0012  0.4217  0.1855
  106OSM    C1F10875   5.076   4.436  10.245  0.3868 -0.4953 -0.0754
  106OSM     OF10876   5.116   4.509  10.334 -0.5269  0.0014  0.3983
  106OSM    C2F10877   5.017   4.488  10.119 -0.5088  0.4347 -0.6531
  106OSM    H2F10878   4.958   4.403  10.079 -0.8393 -0.5955  1.8810
  106OSM    H2G10879   5.089   4.519  10.040  0.5850  0.2553  0.2534
  106OSM    C3F10880   4.932   4.616  10.144  0.3399  0.1575 -0.0284
  106OSM    H3F10881   5.002   4.696  10.177 -0.2495  0.5493  0.2845
  106OSM    H3G10882   4.859   4.608  10.227  0.2843 -3.9734 -0.2819
  106OSM    C4F10883   4.865   4.658  10.010  0.2199 -0.1898 -0.3554
  106OSM    H4F10884   4.944   4.672   9.934  0.7432 -2.7212 -0.3533
  106OSM    H4G10885   4.817   4.758  10.022  0.6390  0.1835 -1.6705
  106OSM    C5F10886   4.758   4.560   9.971  0.1759  0.2385  0.6897
  106OSM    H5F10887   4.665   4.577  10.029  0.7135 -2.1786  2.4150
  106OSM    H5G10888   4.786   4.455   9.995  0.3251  0.0781 -0.1553
  106OSM    C6F10889   4.719   4.568   9.822  0.4190 -0.1839 -0.0937
  106OSM    H6F10890   4.624   4.515   9.803  1.2642 -1.2458 -1.5785
  106OSM    H6G10891   4.799   4.511   9.771 -0.2676 -2.0503  0.8553
  106OSM    C7F10892   4.718   4.708   9.755  0.1474 -0.6337  0.3439
  106OSM    H7F10893   4.821   4.747   9.768  0.7430 -2.2808  0.7263
  106OSM    H7G10894   4.653   4.773   9.819 -0.3407 -1.8088  1.0716
  106OSM    C8F10895   4.669   4.718   9.614  0.2283 -0.0005  0.5865
  106OSM    H8F10896   4.560   4.698   9.612 -0.0813  1.6379 -0.7515
  106OSM    H8G10897   4.719   4.639   9.553 -1.5232  0.0894 -1.0537
  106OSM    C9F10898   4.697   4.858   9.561  0.7010  0.4815 -0.6158
  106OSM    H9F10899   4.701   4.940   9.634  0.0643  2.3862 -2.6231
  106OSM   C10F10900   4.722   4.890   9.435  0.0027  0.3240 -0.4041
  106OSM   H10F10901   4.738   4.996   9.413 -1.1755  0.3698 -1.1144
  106OSM   C11F10902   4.718   4.797   9.325  0.1667 -0.2096  0.3082
  106OSM   H11F10903   4.690   4.692   9.348 -1.8466  0.8182  3.0202
  106OSM   H11G10904   4.819   4.790   9.279  0.0697 -0.5076  0.1335
  106OSM   C12F10905   4.617   4.855   9.231 -0.0574  0.0357 -0.4508
  106OSM   H12F10906   4.647   4.950   9.182 -0.2820 -0.0743 -0.8099
  106OSM   H12G10907   4.518   4.860   9.282  0.7029 -1.8368  1.3412
  106OSM   C13F10908   4.602   4.764   9.115 -0.3140 -1.0524  0.4248
  106OSM   H13F10909   4.591   4.661   9.154  2.6413 -1.5141  0.3379
  106OSM   H13G10910   4.694   4.765   9.052  0.3310  1.1381  1.3033
  106OSM   C14F10911   4.487   4.797   9.019 -0.0364 -0.0898 -0.6530
  106OSM   H14F10912   4.505   4.791   8.909 -1.7303 -0.0137 -0.9757
  106OSM   H14G10913   4.472   4.906   9.028  2.1072  0.1032  1.4719
  106OSM   C15F10914   4.366   4.718   9.050 -0.2039 -0.5367 -0.2220
  106OSM   H15F10915   4.353   4.737   9.159  1.6272 -1.7540  0.2558
  106OSM   H15G10916   4.369   4.608   9.040  0.0441 -0.5764  0.2432
  106OSM   C16F10917   4.240   4.772   8.981  0.6834  0.8678  0.6907
  106OSM   H16F10918   4.236   4.726   8.880  0.8404 -1.5512  1.7256
  106OSM   H16G10919   4.253   4.881   8.964  1.1874  0.4656 -2.0499
  106OSM   C17F10920   4.104   4.747   9.045  1.3564  0.2168  0.6746
  106OSM   H17F10921   4.026   4.785   8.975  2.3260 -2.6118 -2.1822
  106OSM   H17G10922   4.098   4.813   9.134 -0.4566  0.1848  0.6267
  106OSM   C18F10923   4.071   4.597   9.071 -0.8407  0.2663 -0.5855
  106OSM   H18F10924   4.095   4.536   8.981  0.1197  0.8962 -0.7755
  106OSM   H18G10925   3.966   4.590   9.106  0.5440  0.1806  4.2894
  106OSM   H18H10926   4.131   4.561   9.157  0.3322  1.3483 -0.9135
  107OSM      N10927   5.856   1.102  11.488  0.3157  0.0218 -0.5865
  107OSM    C1510928   5.738   1.135  11.573 -0.0314 -0.0245  0.9136
  107OSM   H15A10929   5.756   1.223  11.632 -0.3548  0.5329  0.1944
  107OSM   H15B10930   5.708   1.054  11.638 -1.6623 -0.4359 -0.2833
  107OSM   H15C10931   5.651   1.158  11.513  0.2325 -0.7599  0.2361
  107OSM    C1410932   5.976   1.088  11.580  0.3547 -0.3819  0.6677
  107OSM   H14A10933   6.069   1.073  11.527  0.0157  1.9840 -0.7381
  107OSM   H14B10934   5.974   0.997  11.639  0.6546  0.6364  2.3279
  107OSM   H14C10935   5.983   1.172  11.648  0.8088  0.5028 -0.4401
  107OSM    C1310936   5.842   0.967  11.422 -0.1145  0.6448 -0.1154
  107OSM   H13A10937   5.851   0.883  11.489 -0.7929 -1.2922 -2.3145
  107OSM   H13B10938   5.927   0.956  11.357  0.1975  0.9479  0.2352
  107OSM   H13C10939   5.748   0.950  11.370 -0.3606 -1.2764  0.8378
  107OSM    C1210940   5.891   1.219  11.395  0.0550 -0.0571  0.3083
  107OSM   H12A10941   5.995   1.199  11.373  0.0685  0.3141  0.0343
  107OSM   H12B10942   5.893   1.319  11.435 -1.0692  0.7522 -1.5809
  107OSM    C1110943   5.811   1.225  11.270 -0.4195  0.0140 -0.4420
  107OSM   H11A10944   5.817   1.130  11.212 -2.0426 -1.6901  2.0147
  107OSM   H11B10945   5.856   1.302  11.204  1.1423 -0.4487  0.0266
  107OSM      P10946   5.614   1.385  11.283  0.3871  0.3346 -0.1051
  107OSM    O1310947   5.471   1.371  11.246  0.1081  0.1795  0.2314
  107OSM    O1410948   5.632   1.462  11.407  0.0670  0.1002  0.5710
  107OSM    O1110949   5.684   1.452  11.157  0.2610  0.3570  0.4994
  107OSM    O1210950   5.675   1.232  11.295 -0.0360 -0.2401  0.0759
  107OSM    C1S10951   5.667   1.380  11.035  0.2749  0.0816 -0.4908
  107OSM    H1S10952   5.562   1.371  10.999 -1.3736 -0.1153  3.7666
  107OSM    H1T10953   5.710   1.277  11.035 -1.0635 -0.5332 -2.1530
  107OSM     NF10954   5.736   1.391  10.788  0.6626  0.9616 -0.0900
  107OSM    HNF10955   5.799   1.314  10.777  1.4309  1.3108  1.6133
  107OSM    C2S10956   5.759   1.451  10.924 -0.2096 -0.1031 -0.0519
  107OSM    H2S10957   5.723   1.556  10.912 -3.4931 -1.2518 -1.5803
  107OSM    C3S10958   5.906   1.452  10.973 -0.3008 -0.0692 -1.3067
  107OSM    H3S10959   5.935   1.350  11.006 -0.7064  0.6423  1.5244
  107OSM     O310960   5.935   1.532  11.094 -0.1513  0.6835 -0.2110
  107OSM    HO310961   5.845   1.547  11.122  0.1873  0.0430  1.3478
  107OSM    C4S10962   5.996   1.486  10.860  0.4599 -0.2408  0.2781
  107OSM    H4S10963   6.078   1.414  10.844  0.6576  0.1906 -0.7562
  107OSM    C5S10964   6.003   1.607  10.803  0.1036 -0.5914 -0.0801
  107OSM    H5S10965   5.954   1.694  10.849  0.2803 -0.3796 -0.2951
  107OSM    C6S10966   6.109   1.642  10.706 -0.5250  0.0768  0.3184
  107OSM    H6S10967   6.205   1.676  10.750 -0.9699  0.8636  0.6985
  107OSM    H6T10968   6.088   1.737  10.652  0.4086  0.5011  0.6879
  107OSM    C7S10969   6.133   1.537  10.593  0.3244 -0.4946 -0.1427
  107OSM    H7S10970   6.041   1.488  10.553 -1.0197  0.1095  2.0262
  107OSM    H7T10971   6.207   1.464  10.631 -0.1074  1.0267  4.1152
  107OSM    C8S10972   6.191   1.610  10.464  0.1816 -0.3933 -0.1315
  107OSM    H8S10973   6.292   1.648  10.491  0.0861 -1.0749  1.2734
  107OSM    H8T10974   6.125   1.692  10.428  0.1997 -1.0148 -1.6607
  107OSM    C9S10975   6.222   1.506  10.350  0.6337 -0.1959 -0.5892
  107OSM    H9S10976   6.133   1.446  10.322  1.7049 -1.0961 -2.2697
  107OSM    H9T10977   6.301   1.439  10.390  1.2274  0.8581  0.0415
  107OSM   C10S10978   6.261   1.571  10.217  0.1767 -0.2416  0.7417
  107OSM   H10S10979   6.353   1.631  10.237  0.4961 -0.7373  0.7928
  107OSM   H10T10980   6.174   1.638  10.205  0.4601  0.2073  1.1527
  107OSM   C11S10981   6.268   1.465  10.112 -0.2432 -0.1283  0.2965
  107OSM   H11S10982   6.180   1.396  10.118 -0.9039  0.6717 -0.0112
  107OSM   H11T10983   6.352   1.399  10.143 -1.2221 -2.1683 -1.1343
  107OSM   C12S10984   6.275   1.518   9.971  0.6401  0.2105  0.4349
  107OSM   H12S10985   6.346   1.602   9.959  0.4209  0.1148 -2.0788
  107OSM   H12T10986   6.174   1.558   9.949  0.6819  0.0536 -0.0511
  107OSM   C13S10987   6.311   1.401   9.876 -0.0804 -0.1130  0.6292
  107OSM   H13S10988   6.248   1.312   9.898  1.2630 -1.5490 -0.9430
  107OSM   H13T10989   6.421   1.392   9.887  0.3757 -0.2886 -2.8119
  107OSM   C14S10990   6.284   1.438   9.724  0.0798 -0.6539  0.1021
  107OSM   H14S10991   6.347   1.525   9.697 -0.4000 -0.0444  0.8932
  107OSM   H14T10992   6.177   1.453   9.698  0.7934  3.0658 -1.2988
  107OSM   C15S10993   6.334   1.323   9.631  0.2879  0.1231  0.2054
  107OSM   H15S10994   6.287   1.226   9.657 -1.0235  0.4660 -0.8147
  107OSM   H15T10995   6.442   1.311   9.656  1.1590  1.6035 -2.4206
  107OSM   C16S10996   6.332   1.367   9.481  0.0907  0.8663 -0.4170
  107OSM   H16S10997   6.397   1.457   9.486  2.3868 -0.7056 -0.0364
  107OSM   H16T10998   6.231   1.388   9.441 -0.2033 -1.0398 -0.7665
  107OSM   C17S10999   6.391   1.256   9.400  0.0255 -0.1460 -0.6626
  107OSM   H17S11000   6.312   1.179   9.383 -0.1799  0.0343 -0.5309
  107OSM   H17T11001   6.476   1.203   9.447 -1.2646 -3.9107 -2.1745
  107OSM   C18S11002   6.444   1.311   9.268 -0.0696  0.6276  0.3124
  107OSM   H18S11003   6.355   1.344   9.210  0.0535  0.4004 -0.0078
  107OSM   H18T11004   6.494   1.232   9.207  1.1336  1.5655  0.0484
  107OSM   H18U11005   6.510   1.399   9.282 -0.3810  0.9457 -0.1878
  107OSM    C1F11006   5.622   1.396  10.728  0.8274 -0.8668 -0.0162
  107OSM     OF11007   5.545   1.492  10.762 -0.6447  0.2371  0.5518
  107OSM    C2F11008   5.575   1.290  10.639 -0.3341  0.8296  0.1938
  107OSM    H2F11009   5.566   1.200  10.704 -1.8850  2.0520  1.7866
  107OSM    H2G11010   5.650   1.264  10.561  1.2798  1.2002  1.5635
  107OSM    C3F11011   5.439   1.323  10.566 -0.2203  0.0558  0.0359
  107OSM    H3F11012   5.473   1.402  10.496  0.8262 -0.9342 -0.6265
  107OSM    H3G11013   5.359   1.364  10.631  1.1602  1.0163  1.1652
  107OSM    C4F11014   5.387   1.200  10.493  0.2746  0.2865 -0.6379
  107OSM    H4F11015   5.278   1.212  10.476  0.2886 -0.2714 -1.1553
  107OSM    H4G11016   5.389   1.115  10.565  1.8778  0.9785  0.1977
  107OSM    C5F11017   5.463   1.174  10.365  0.1419  0.4605  0.9910
  107OSM    H5F11018   5.571   1.175  10.393  0.6423 -0.2058 -0.7426
  107OSM    H5G11019   5.428   1.254  10.297 -1.0597  0.6891  1.8629
  107OSM    C6F11020   5.420   1.040  10.299 -0.0456  0.8987  0.1022
  107OSM    H6F11021   5.314   1.060  10.270 -0.1022  0.5622  0.0704
  107OSM    H6G11022   5.416   0.956  10.371 -1.4577 -1.2762 -2.3334
  107OSM    C7F11023   5.499   0.993  10.178  0.2312 -0.0712 -0.3794
  107OSM    H7F11024   5.451   0.901  10.139 -0.6223  0.2696 -0.1686
  107OSM    H7G11025   5.600   0.965  10.216  1.0599  0.4609 -2.1095
  107OSM    C8F11026   5.524   1.099  10.066  0.1204  0.2627 -0.5661
  107OSM    H8F11027   5.594   1.046   9.998 -1.4895 -1.1200 -1.2297
  107OSM    H8G11028   5.586   1.176  10.115 -0.2414 -0.4093  1.0073
  107OSM    C9F11029   5.400   1.151  10.009  0.4307  0.5732 -1.5985
  107OSM    H9F11030   5.315   1.163  10.078  1.7449  1.4171 -0.0134
  107OSM   C10F11031   5.381   1.197   9.886 -0.1608 -0.0070  0.7947
  107OSM   H10F11032   5.283   1.239   9.858  0.1494  0.9743  1.1355
  107OSM   C11F11033   5.490   1.201   9.779  0.1030  0.3105 -0.5686
  107OSM   H11F11034   5.563   1.120   9.801 -0.5031 -0.3125 -0.8425
  107OSM   H11G11035   5.544   1.299   9.773  1.3427 -0.2436  0.9114
  107OSM   C12F11036   5.431   1.162   9.640 -0.8638  0.0047 -0.0453
  107OSM   H12F11037   5.348   1.225   9.602 -0.5692  1.6754  1.9222
  107OSM   H12G11038   5.392   1.058   9.649  0.1156 -0.2267  2.2106
  107OSM   C13F11039   5.533   1.162   9.520 -0.2560  0.1384 -0.1595
  107OSM   H13F11040   5.576   1.061   9.509 -0.0285  0.0305  1.5024
  107OSM   H13G11041   5.609   1.242   9.537  0.5486 -0.6361 -0.0497
  107OSM   C14F11042   5.461   1.196   9.386 -0.2064  0.1053 -0.6664
  107OSM   H14F11043   5.399   1.287   9.391 -1.1384 -0.4331 -1.8253
  107OSM   H14G11044   5.400   1.105   9.366 -0.0003 -0.5743  1.5640
  107OSM   C15F11045   5.560   1.236   9.282  0.8133  0.5197  0.1368
  107OSM   H15F11046   5.625   1.307   9.337 -1.3600  1.1352  2.0679
  107OSM   H15G11047   5.502   1.305   9.216 -0.2569 -0.0906  0.4267
  107OSM   C16F11048   5.626   1.116   9.217  0.6066 -0.4711 -0.6117
  107OSM   H16F11049   5.657   1.039   9.291  0.6499  0.2570  0.1433
  107OSM   H16G11050   5.714   1.159   9.164 -0.7109  2.2923 -0.7424
  107OSM   C17F11051   5.539   1.051   9.104  0.2855  0.0523 -0.7735
  107OSM   H17F11052   5.508   1.129   9.030 -0.5680 -0.3329 -0.8377
  107OSM   H17G11053   5.446   1.015   9.153 -1.0259  2.0550 -1.6094
  107OSM   C18F11054   5.617   0.938   9.041 -0.2274 -0.0056 -0.0308
  107OSM   H18F11055   5.566   0.915   8.945  0.3056  0.3099 -0.4001
  107OSM   H18G11056   5.620   0.851   9.110  0.9208  0.2584  0.2854
  107OSM   H18H11057   5.723   0.966   9.018  0.1855 -1.2317  0.3117
  108OSM      N11058   2.900   5.946  10.882 -0.1619 -0.5572 -0.2450
  108OSM    C1511059   2.950   6.078  10.936 -0.1158  0.3023 -0.1557
  108OSM   H15A11060   3.051   6.100  10.908  0.0204  1.7101  1.2584
  108OSM   H15B11061   2.950   6.077  11.044 -0.8205  0.2241 -0.1483
  108OSM   H15C11062   2.891   6.164  10.907 -1.9057 -0.3730  1.2822
  108OSM    C1411063   2.767   5.918  10.938 -0.1225 -0.7111  0.5899
  108OSM   H14A11064   2.735   5.819  10.909 -0.6815  0.1328 -1.8893
  108OSM   H14B11065   2.696   5.988  10.898  1.5268 -0.9924 -3.3301
  108OSM   H14C11066   2.774   5.922  11.046  0.9405  2.2125  0.4986
  108OSM    C1311067   2.891   5.959  10.730 -0.8781 -0.6294 -0.5913
  108OSM   H13A11068   2.855   5.865  10.689 -0.5251 -1.5001  1.0083
  108OSM   H13B11069   2.989   5.976  10.689 -0.7655  0.5039  0.1225
  108OSM   H13C11070   2.824   6.039  10.703 -3.0998 -1.3620  2.2413
  108OSM    C1211071   2.985   5.823  10.925 -0.1242 -0.8600  0.3786
  108OSM   H12A11072   2.960   5.738  10.863  1.0545  1.5203 -3.7006
  108OSM   H12B11073   2.967   5.802  11.030  0.3985 -0.6943  0.5012
  108OSM    C1111074   3.141   5.833  10.896  0.1417 -0.0951  0.2243
  108OSM   H11A11075   3.153   5.858  10.789  2.2474  0.7411  0.6248
  108OSM   H11B11076   3.195   5.737  10.909 -1.1441 -0.7453  1.0586
  108OSM      P11077   3.326   6.009  10.925 -0.1906  0.1089 -0.6779
  108OSM    O1311078   3.279   6.136  10.872 -0.2711  0.0413  0.1060
  108OSM    O1411079   3.427   6.020  11.034 -0.1351 -0.1449 -0.0296
  108OSM    O1111080   3.375   5.924  10.798  0.2930 -0.5834 -0.2911
  108OSM    O1211081   3.196   5.935  10.986  0.1424  0.6073  0.4750
  108OSM    C1S11082   3.482   5.968  10.722 -0.8947  0.1530  0.6807
  108OSM    H1S11083   3.578   5.957  10.777  0.0774  1.9948 -0.5138
  108OSM    H1T11084   3.464   6.073  10.690 -2.8519 -0.0375  1.0706
  108OSM     NF11085   3.622   5.956  10.515  0.3480  0.1039  0.4155
  108OSM    HNF11086   3.578   6.003  10.438 -2.9607  0.4412  2.2939
  108OSM    C2S11087   3.520   5.887  10.589  0.4285 -0.6711  0.1013
  108OSM    H2S11088   3.558   5.789  10.625 -1.1916 -1.2524  0.2966
  108OSM    C3S11089   3.393   5.856  10.502 -0.3716  0.6159  0.0364
  108OSM    H3S11090   3.364   5.946  10.443  2.0613 -0.7963 -3.7211
  108OSM     O311091   3.269   5.828  10.570 -0.4673 -0.8888  0.1877
  108OSM    HO311092   3.290   5.842  10.663 -0.1618 -0.6329  0.0814
  108OSM    C4S11093   3.431   5.742  10.404  0.7337 -0.1707  0.0067
  108OSM    H4S11094   3.489   5.770  10.315 -1.6317 -0.8749 -1.8636
  108OSM    C5S11095   3.415   5.607  10.422  0.0746  0.0964  0.1736
  108OSM    H5S11096   3.389   5.565  10.521  0.3240 -1.4083 -0.3716
  108OSM    C6S11097   3.457   5.499  10.315  0.6314  0.2261  0.3435
  108OSM    H6S11098   3.398   5.406  10.325  0.5937 -0.0389 -1.8997
  108OSM    H6T11099   3.557   5.462  10.349  0.3897 -1.7352 -0.9453
  108OSM    C7S11100   3.452   5.543  10.169 -0.6502  0.1468 -0.0172
  108OSM    H7S11101   3.523   5.627  10.157  0.7638 -1.1905 -1.6725
  108OSM    H7T11102   3.345   5.572  10.161 -0.3915  1.1756  0.1135
  108OSM    C8S11103   3.491   5.434  10.066  0.3535 -0.2960 -0.0816
  108OSM    H8S11104   3.439   5.339  10.092 -0.1518  0.0438  0.1686
  108OSM    H8T11105   3.600   5.411  10.062 -0.1389 -2.8268 -0.8221
  108OSM    C9S11106   3.450   5.480   9.928  0.6344 -0.1107  0.1099
  108OSM    H9S11107   3.510   5.566   9.893  0.1852 -0.3598 -1.3457
  108OSM    H9T11108   3.348   5.522   9.935  1.7996  2.6460  2.8686
  108OSM   C10S11109   3.459   5.363   9.832  0.0538 -0.6768 -0.0702
  108OSM   H10S11110   3.409   5.276   9.881 -2.6524  0.8503  0.0911
  108OSM   H10T11111   3.558   5.325   9.799  0.6809 -2.3820  3.2395
  108OSM   C11S11112   3.376   5.392   9.702  0.0479  0.5091  0.3691
  108OSM   H11S11113   3.419   5.482   9.653 -0.8158 -0.7131 -2.9294
  108OSM   H11T11114   3.268   5.406   9.725 -0.3842  1.0734 -1.7896
  108OSM   C12S11115   3.387   5.285   9.592  0.4080  0.5868  0.0697
  108OSM   H12S11116   3.330   5.199   9.632 -0.8902  1.4163  0.0315
  108OSM   H12T11117   3.491   5.252   9.571 -1.1505 -3.1730 -2.8851
  108OSM   C13S11118   3.326   5.330   9.458 -0.0965  0.8034 -0.2377
  108OSM   H13S11119   3.403   5.406   9.434  2.4996 -1.2421  1.1582
  108OSM   H13T11120   3.222   5.368   9.476 -0.8512  0.0513 -2.7088
  108OSM   C14S11121   3.341   5.206   9.363  0.1919  0.2193 -0.0630
  108OSM   H14S11122   3.284   5.117   9.397 -0.6958  0.6788 -0.3198
  108OSM   H14T11123   3.447   5.173   9.362  0.4623  1.0388  0.2507
  108OSM   C15S11124   3.296   5.232   9.216  0.4874  0.6338 -0.0400
  108OSM   H15S11125   3.351   5.318   9.172 -1.2746  1.5477 -0.5430
  108OSM   H15T11126   3.190   5.266   9.216 -0.6315 -2.4866 -0.2855
  108OSM   C16S11127   3.311   5.102   9.137  0.6535  0.7097  0.4179
  108OSM   H16S11128   3.279   5.018   9.202 -2.5644  1.4573 -0.0488
  108OSM   H16T11129   3.416   5.088   9.105 -0.4976  1.1663 -4.2238
  108OSM   C17S11130   3.212   5.082   9.022 -0.2804 -0.4600  0.1099
  108OSM   H17S11131   3.219   5.163   8.946  0.8125 -0.5748  0.0738
  108OSM   H17T11132   3.108   5.076   9.059 -0.3036  0.9874  0.3485
  108OSM   C18S11133   3.218   4.941   8.953 -0.3969  0.0894 -0.0339
  108OSM   H18S11134   3.116   4.925   8.911 -0.1358  1.6059 -1.3269
  108OSM   H18T11135   3.239   4.865   9.032  1.6455 -0.5932 -1.1780
  108OSM   H18U11136   3.298   4.935   8.877  0.1741  1.8850  0.3688
  108OSM    C1F11137   3.746   5.973  10.558  0.4412 -0.6423  0.1476
  108OSM     OF11138   3.791   5.907  10.649  0.1658 -0.1381 -0.5768
  108OSM    C2F11139   3.826   6.077  10.481 -0.8422 -0.1498 -0.4656
  108OSM    H2F11140   3.882   6.122  10.566 -0.0322  1.3286 -1.7347
  108OSM    H2G11141   3.762   6.157  10.440  0.9325  1.4462 -0.2623
  108OSM    C3F11142   3.927   6.019  10.379  0.8553 -0.8050  0.4782
  108OSM    H3F11143   3.859   5.994  10.294 -1.2646  5.0482  0.0269
  108OSM    H3G11144   3.975   5.924  10.413  0.0730 -1.5765 -0.5089
  108OSM    C4F11145   4.033   6.122  10.335 -0.5210  0.1807 -0.3564
  108OSM    H4F11146   4.098   6.138  10.424 -0.1451  0.8373 -0.7398
  108OSM    H4G11147   3.980   6.219  10.320 -0.0146  0.3334 -1.2011
  108OSM    C5F11148   4.101   6.073  10.211 -0.2156  0.4076  0.0084
  108OSM    H5F11149   4.044   6.077  10.116  1.1212 -0.6357 -0.8638
  108OSM    H5G11150   4.132   5.969  10.236  2.2537  1.6382  2.6487
  108OSM    C6F11151   4.243   6.136  10.188  0.1107 -0.4029 -0.4800
  108OSM    H6F11152   4.301   6.132  10.283 -0.5228 -0.2228 -0.0776
  108OSM    H6G11153   4.235   6.244  10.162 -0.0397 -0.2447  0.1851
  108OSM    C7F11154   4.328   6.055  10.094 -0.3047  0.0172  0.3541
  108OSM    H7F11155   4.268   6.036  10.002 -0.6423  0.7356  0.4197
  108OSM    H7G11156   4.351   5.950  10.123 -0.7247 -0.1266  0.1732
  108OSM    C8F11157   4.450   6.142  10.037  0.5678  0.4579  0.1885
  108OSM    H8F11158   4.517   6.149  10.125 -0.5279  1.3979  0.9764
  108OSM    H8G11159   4.424   6.248  10.021  0.1242  0.4314  0.6984
  108OSM    C9F11160   4.527   6.082   9.924 -0.7153  0.2178 -0.0454
  108OSM    H9F11161   4.603   6.004   9.942 -0.7759  0.7342  2.9033
  108OSM   C10F11162   4.527   6.127   9.798  0.3981 -0.8634 -1.1181
  108OSM   H10F11163   4.601   6.078   9.733  2.1888 -0.2912  0.4008
  108OSM   C11F11164   4.454   6.240   9.734 -0.6062 -0.3602 -0.5469
  108OSM   H11F11165   4.522   6.328   9.730  1.4391 -1.6807  1.9833
  108OSM   H11G11166   4.388   6.280   9.813 -2.0810 -1.9569 -0.9214
  108OSM   C12F11167   4.370   6.204   9.609  0.5897  0.3220 -0.3744
  108OSM   H12F11168   4.307   6.294   9.598  0.3569  0.0635 -1.1819
  108OSM   H12G11169   4.313   6.110   9.629  1.6912 -0.2855  0.0080
  108OSM   C13F11170   4.467   6.180   9.495 -0.2920 -0.4768  0.0224
  108OSM   H13F11171   4.509   6.077   9.498 -1.3592 -1.0209 -1.8646
  108OSM   H13G11172   4.551   6.252   9.486  0.4221 -1.1235  1.2605
  108OSM   C14F11173   4.388   6.168   9.364  0.0621  0.2613 -0.4048
  108OSM   H14F11174   4.313   6.250   9.376 -2.4279 -2.1727  2.0649
  108OSM   H14G11175   4.322   6.079   9.364  0.5898 -0.1509  0.5897
  108OSM   C15F11176   4.476   6.179   9.241  0.1117 -0.8643 -0.0927
  108OSM   H15F11177   4.519   6.076   9.234  1.9781 -0.0852 -0.7179
  108OSM   H15G11178   4.566   6.242   9.258  0.0444 -0.2904 -1.7290
  108OSM   C16F11179   4.400   6.214   9.114 -0.5437 -0.9574  0.1279
  108OSM   H16F11180   4.385   6.324   9.119  1.8233 -0.6009  0.5976
  108OSM   H16G11181   4.295   6.177   9.119 -0.7016 -0.4351  1.2046
  108OSM   C17F11182   4.466   6.187   8.976 -0.2223 -0.5756  0.5408
  108OSM   H17F11183   4.485   6.079   8.958 -0.1094 -0.2371 -1.6237
  108OSM   H17G11184   4.566   6.235   8.973 -1.0462  1.1501 -0.5066
  108OSM   C18F11185   4.394   6.252   8.863  0.0805 -0.1238 -0.2104
  108OSM   H18F11186   4.450   6.241   8.768 -0.5577 -1.5216 -0.4474
  108OSM   H18G11187   4.393   6.363   8.867  0.3718 -0.0762 -1.1325
  108OSM   H18H11188   4.284   6.233   8.863 -0.0541  0.5145 -1.6285
  109OSM      N11189   3.375   0.570  11.036 -0.1735 -0.8001 -0.0474
  109OSM    C1511190   3.415   0.536  11.177 -0.0302  0.0641 -0.2256
  109OSM   H15A11191   3.404   0.430  11.196 -1.9401  0.3204  0.2953
  109OSM   H15B11192   3.355   0.591  11.248  1.9582  0.4297  1.2871
  109OSM   H15C11193   3.515   0.572  11.196 -1.0260  4.0212 -1.5264
  109OSM    C1411194   3.233   0.530  11.028 -0.2023 -0.3425 -0.4169
  109OSM   H14A11195   3.186   0.559  10.936 -0.2568  2.3435  0.3870
  109OSM   H14B11196   3.180   0.558  11.118  1.8620 -2.7303  1.7506
  109OSM   H14C11197   3.223   0.422  11.026 -1.8081 -0.2064 -0.6279
  109OSM    C1311198   3.384   0.722  11.026  0.1571 -0.2002 -0.8781
  109OSM   H13A11199   3.483   0.762  11.046  0.9070 -1.4566 -1.8972
  109OSM   H13B11200   3.320   0.767  11.100  1.2729  0.3990 -0.2562
  109OSM   H13C11201   3.344   0.766  10.935 -0.1281  0.4449 -0.4474
  109OSM    C1211202   3.465   0.502  10.929  0.0636 -0.1138 -0.1297
  109OSM   H12A11203   3.470   0.396  10.951 -1.0819 -0.5280 -1.6908
  109OSM   H12B11204   3.561   0.547  10.949  0.0112  0.7948 -1.7068
  109OSM    C1111205   3.412   0.515  10.784 -0.5520 -0.6064 -0.0585
  109OSM   H11A11206   3.491   0.475  10.717 -0.5531  1.7273 -1.5485
  109OSM   H11B11207   3.410   0.624  10.767  1.1382 -0.6101 -0.4844
  109OSM      P11208   3.256   0.308  10.742  0.0222  0.0924  0.1440
  109OSM    O1311209   3.369   0.231  10.808  0.9437  0.5622 -0.0691
  109OSM    O1411210   3.116   0.260  10.771  0.6912  0.3486  0.0124
  109OSM    O1111211   3.276   0.293  10.582  0.1322  0.1334 -0.0011
  109OSM    O1211212   3.281   0.457  10.765 -0.4040 -0.2025 -0.5963
  109OSM    C1S11213   3.231   0.398  10.484 -0.3075  0.2001  0.2983
  109OSM    H1S11214   3.313   0.474  10.489  0.2226 -0.4384  2.0971
  109OSM    H1T11215   3.143   0.451  10.527 -0.0063 -0.2510  1.5165
  109OSM     NF11216   3.191   0.472  10.251 -0.8712  0.1807 -0.0233
  109OSM    HNF11217   3.102   0.512  10.232 -0.4583  0.7188 -0.8814
  109OSM    C2S11218   3.196   0.360  10.340  0.1975 -0.3314  0.3689
  109OSM    H2S11219   3.279   0.294  10.306  1.6177  2.3199 -1.6592
  109OSM    C3S11220   3.066   0.278  10.342  0.5762 -0.3212  0.0170
  109OSM    H3S11221   2.989   0.344  10.386  0.2742  0.5847 -1.7708
  109OSM     O311222   3.072   0.161  10.426 -0.5211 -0.3613  0.2324
  109OSM    HO311223   3.148   0.181  10.482  1.4625  1.7332 -2.8798
  109OSM    C4S11224   3.021   0.227  10.207 -0.1547  0.2526  0.5204
  109OSM    H4S11225   2.930   0.281  10.177  0.6538  1.0391 -0.5708
  109OSM    C5S11226   3.071   0.121  10.138 -0.5278 -0.4565  0.3155
  109OSM    H5S11227   3.158   0.069  10.181  0.1346  0.2595 -0.1379
  109OSM    C6S11228   3.027   0.074  10.004 -0.3226 -0.7627 -0.3144
  109OSM    H6S11229   2.916   0.081  10.000 -0.2954  1.6094  1.1972
  109OSM    H6T11230   3.070  -0.026   9.981 -1.3742 -0.9417 -1.5730
  109OSM    C7S11231   3.076   0.178   9.904  0.5410  0.3329 -0.3162
  109OSM    H7S11232   3.178   0.157   9.867  0.1289  1.3353 -2.1749
  109OSM    H7T11233   3.073   0.283   9.941  0.4229  0.8781 -1.8104
  109OSM    C8S11234   2.995   0.181   9.774 -0.1252 -0.2550  0.0064
  109OSM    H8S11235   2.890   0.208   9.800 -0.4696  0.4380 -1.9613
  109OSM    H8T11236   2.992   0.075   9.741 -2.4450 -0.4984  0.8441
  109OSM    C9S11237   3.065   0.263   9.663 -0.3679 -0.5056 -0.3094
  109OSM    H9S11238   3.169   0.227   9.673  0.6410  2.0314 -1.1149
  109OSM    H9T11239   3.058   0.372   9.680  2.7096 -0.2917  0.1458
  109OSM   C10S11240   3.013   0.233   9.521  0.0351 -0.1824  1.1926
  109OSM   H10S11241   2.904   0.254   9.527 -0.0734 -0.8841  1.7417
  109OSM   H10T11242   3.027   0.127   9.492  2.1353  0.4729 -0.4436
  109OSM   C11S11243   3.070   0.327   9.407  0.3060  0.1632 -0.4136
  109OSM   H11S11244   3.178   0.299   9.401  0.6715  0.0479  3.7380
  109OSM   H11T11245   3.067   0.435   9.434  0.6183 -0.3426  1.8214
  109OSM   C12S11246   3.000   0.317   9.272  0.0931  0.5836  0.0948
  109OSM   H12S11247   3.040   0.395   9.203  0.2424  1.0344  0.6838
  109OSM   H12T11248   2.889   0.313   9.278  0.0194 -1.4836 -1.6349
  109OSM   C13S11249   3.037   0.179   9.204 -0.0882 -0.4208 -0.0098
  109OSM   H13S11250   2.956   0.106   9.227  1.1232 -1.1348  2.2976
  109OSM   H13T11251   3.128   0.141   9.255 -0.0329 -3.5433 -2.1706
  109OSM   C14S11252   3.067   0.197   9.054 -0.2243 -0.0431  1.0464
  109OSM   H14S11253   3.161   0.258   9.055  1.2715 -2.1470 -1.0755
  109OSM   H14T11254   2.982   0.254   9.011  0.4931  1.8655  2.0319
  109OSM   C15S11255   3.084   0.060   8.994  0.4576 -0.2874  0.4588
  109OSM   H15S11256   2.994  -0.003   8.989  2.2240 -2.8735 -2.2329
  109OSM   H15T11257   3.148   0.001   9.063  0.0711 -1.8037 -0.4422
  109OSM   C16S11258   3.150   0.053   8.858 -0.7032  0.3997 -0.2499
  109OSM   H16S11259   3.243   0.113   8.849  0.7600 -1.7186 -0.1452
  109OSM   H16T11260   3.077   0.095   8.786 -1.3362  0.8865  0.6497
  109OSM   C17S11261   3.181  -0.091   8.816  0.2027 -0.1717 -0.1748
  109OSM   H17S11262   3.082  -0.143   8.816 -0.5246  1.1012 -2.2004
  109OSM   H17T11263   3.251  -0.136   8.889  2.0907  1.9735 -0.5798
  109OSM   C18S11264   3.242  -0.107   8.677  0.1054 -0.6315 -1.0135
  109OSM   H18S11265   3.193  -0.039   8.605  0.8928 -0.2539 -1.2031
  109OSM   H18T11266   3.234  -0.216   8.658 -1.5948 -1.1878  2.2101
  109OSM   H18U11267   3.352  -0.093   8.665 -0.3146  2.4288 -2.0609
  109OSM    C1F11268   3.299   0.541  10.214  0.9609 -0.2449  0.0827
  109OSM     OF11269   3.406   0.520  10.258 -0.5360  0.2734 -0.6269
  109OSM    C2F11270   3.285   0.647  10.111  0.1651 -0.4555  0.2419
  109OSM    H2F11271   3.351   0.733  10.136  0.3973 -0.2735 -0.9435
  109OSM    H2G11272   3.177   0.670  10.102  0.5354  1.0546 -0.7382
  109OSM    C3F11273   3.329   0.595   9.969 -0.3448 -0.1776 -0.0105
  109OSM    H3F11274   3.270   0.507   9.937  3.3124 -2.2761 -1.5917
  109OSM    H3G11275   3.429   0.553   9.990 -0.6007 -1.3376 -1.0238
  109OSM    C4F11276   3.312   0.683   9.852  0.4821 -0.4964 -0.2602
  109OSM    H4F11277   3.392   0.761   9.846  2.0126 -1.9968 -0.0530
  109OSM    H4G11278   3.214   0.735   9.862  1.1971  0.7443  0.5351
  109OSM    C5F11279   3.308   0.594   9.726  0.2862  0.7961  0.5997
  109OSM    H5F11280   3.216   0.533   9.714  0.2565  1.0369 -0.4680
  109OSM    H5G11281   3.393   0.522   9.730 -0.6948 -0.3682  1.2624
  109OSM    C6F11282   3.310   0.673   9.589  0.6503  0.0066  0.2904
  109OSM    H6F11283   3.401   0.736   9.599  1.3469 -1.2389  2.4358
  109OSM    H6G11284   3.217   0.732   9.586  0.3092 -0.5170  0.3638
  109OSM    C7F11285   3.322   0.580   9.463  1.0174  0.2699 -0.4144
  109OSM    H7F11286   3.255   0.493   9.482  0.4454  0.7547 -0.1656
  109OSM    H7G11287   3.425   0.539   9.456  1.3124  0.9477 -0.1573
  109OSM    C8F11288   3.286   0.662   9.337 -0.1714  0.0509  0.5321
  109OSM    H8F11289   3.193   0.719   9.356 -1.0761 -1.1047 -0.3121
  109OSM    H8G11290   3.267   0.587   9.257  1.5542  1.2209 -1.0715
  109OSM    C9F11291   3.404   0.751   9.288  0.4817 -0.0767 -0.2868
  109OSM    H9F11292   3.455   0.804   9.371  0.3753  1.3200 -1.0809
  109OSM   C10F11293   3.455   0.738   9.164  0.0272 -0.4198 -0.1884
  109OSM   H10F11294   3.547   0.796   9.146 -0.6683  0.7356 -0.1460
  109OSM   C11F11295   3.430   0.650   9.046  0.4018 -0.0835  0.6161
  109OSM   H11F11296   3.333   0.598   9.057  1.4237 -2.2898 -0.3150
  109OSM   H11G11297   3.502   0.566   9.037 -1.7023 -1.7289 -2.6460
  109OSM   C12F11298   3.417   0.722   8.907  0.3320 -0.2916 -0.3341
  109OSM   H12F11299   3.516   0.764   8.882  0.1680  2.4579  2.9527
  109OSM   H12G11300   3.342   0.804   8.908  1.2850  0.6224 -1.4867
  109OSM   C13F11301   3.403   0.620   8.792 -0.0774 -0.4494  0.0630
  109OSM   H13F11302   3.321   0.549   8.817  1.0695 -1.8486  0.0012
  109OSM   H13G11303   3.495   0.559   8.785  0.7382  0.7763 -0.1500
  109OSM   C14F11304   3.372   0.676   8.653  0.2708 -0.0755 -0.1377
  109OSM   H14F11305   3.432   0.770   8.653  0.2922 -0.0832 -1.3785
  109OSM   H14G11306   3.264   0.701   8.656  0.5906  1.3946  1.3283
  109OSM   C15F11307   3.409   0.599   8.529  0.0189 -0.1268 -0.0166
  109OSM   H15F11308   3.361   0.623   8.432 -2.0065 -0.0914  0.9345
  109OSM   H15G11309   3.391   0.491   8.551 -1.9401  0.2026  0.2169
  109OSM   C16F11310   3.556   0.612   8.482  0.0789 -0.2126  0.2256
  109OSM   H16F11311   3.616   0.623   8.575 -2.3811  0.1915  1.8466
  109OSM   H16G11312   3.574   0.702   8.420  1.2577  0.6184  1.7119
  109OSM   C17F11313   3.606   0.491   8.406 -0.1770 -0.4704 -0.0603
  109OSM   H17F11314   3.609   0.405   8.476 -1.3669 -0.3890  0.1099
  109OSM   H17G11315   3.707   0.516   8.368  0.5701  0.2481  2.2416
  109OSM   C18F11316   3.530   0.448   8.273  0.6719 -0.2711  0.0633
  109OSM   H18F11317   3.425   0.420   8.299 -0.0742 -0.1095 -2.5069
  109OSM   H18G11318   3.579   0.355   8.238  0.6251 -0.5797  0.7863
  109OSM   H18H11319   3.532   0.515   8.185 -0.1496 -0.0812  0.1771
  110OSM      N11320   6.029   5.447  10.760  0.1513 -0.8503 -0.2279
  110OSM    C1511321   5.920   5.349  10.778  0.2822  0.0668 -0.0064
  110OSM   H15A11322   5.841   5.390  10.839 -0.8347  0.1916 -1.4767
  110OSM   H15B11323   5.943   5.261  10.836  0.3750  1.5852  2.3857
  110OSM   H15C11324   5.878   5.324  10.682  1.0934  1.1094 -0.6650
  110OSM    C1411325   6.085   5.482  10.896  0.4001 -0.3053 -0.8830
  110OSM   H14A11326   6.131   5.397  10.945  1.2436  1.7092  2.0810
  110OSM   H14B11327   6.010   5.517  10.964  1.1954 -2.6604  1.3565
  110OSM   H14C11328   6.173   5.545  10.895  1.1649 -1.3316 -0.9261
  110OSM    C1311329   6.137   5.392  10.677 -0.1099  0.4934 -0.6412
  110OSM   H13A11330   6.227   5.450  10.686  0.6426 -0.8052  0.8755
  110OSM   H13B11331   6.110   5.385  10.573 -0.6968  1.5750 -0.5735
  110OSM   H13C11332   6.165   5.294  10.715 -0.2051  0.4621 -0.6491
  110OSM    C1211333   5.979   5.568  10.684  0.3396 -0.5256  0.5319
  110OSM   H12A11334   5.941   5.519  10.595  0.7676 -0.0963  0.1080
  110OSM   H12B11335   6.059   5.627  10.642 -1.2403 -0.3236 -2.4870
  110OSM    C1111336   5.883   5.658  10.747  0.5330  0.4787  0.6411
  110OSM   H11A11337   5.858   5.747  10.684  1.4062  0.9694  0.9662
  110OSM   H11B11338   5.931   5.703  10.836 -1.2957  2.1757  0.8438
  110OSM      P11339   5.640   5.578  10.669  0.3962 -0.3574  0.2595
  110OSM    O1311340   5.581   5.444  10.692 -0.2659  0.5037 -0.3352
  110OSM    O1411341   5.567   5.705  10.671  0.4631 -0.0705 -0.7852
  110OSM    O1111342   5.723   5.581  10.534 -0.1643  0.2665  0.0933
  110OSM    O1211343   5.755   5.602  10.777  0.3596  0.3217  0.2362
  110OSM    C1S11344   5.673   5.520  10.418 -0.0060 -0.4964  0.0284
  110OSM    H1S11345   5.608   5.436  10.452  1.6596 -1.0885  1.9261
  110OSM    H1T11346   5.750   5.477  10.350  0.8751  0.9565  0.0880
  110OSM     NF11347   5.515   5.540  10.230  0.1448 -0.0589 -0.9807
  110OSM    HNF11348   5.548   5.506  10.142 -0.0575  0.2930 -1.1923
  110OSM    C2S11349   5.607   5.616  10.319 -1.0469 -0.0382  0.6747
  110OSM    H2S11350   5.551   5.698  10.369 -2.0977  0.1946 -0.8272
  110OSM    C3S11351   5.723   5.691  10.241  0.1745 -0.3262  0.8518
  110OSM    H3S11352   5.779   5.617  10.181  0.0127 -0.6095  1.0496
  110OSM     O311353   5.819   5.746  10.336  0.4063 -0.0456  0.7223
  110OSM    HO311354   5.797   5.700  10.418 -1.2667 -0.8258 -0.1061
  110OSM    C4S11355   5.672   5.799  10.157 -0.4036 -0.2384 -0.1530
  110OSM    H4S11356   5.619   5.878  10.213  1.7902  1.6999 -0.6624
  110OSM    C5S11357   5.675   5.806  10.023  0.5294  0.6643 -0.3721
  110OSM    H5S11358   5.725   5.728   9.964 -1.8552 -1.3045  0.0608
  110OSM    C6S11359   5.616   5.923   9.957 -0.3773  0.7528 -0.2781
  110OSM    H6S11360   5.647   5.922   9.850  0.0757 -0.4747 -0.1442
  110OSM    H6T11361   5.655   6.023   9.986  2.0517  0.5476 -2.4602
  110OSM    C7S11362   5.455   5.914   9.944  0.7131  0.2418  0.1770
  110OSM    H7S11363   5.411   5.897  10.045 -1.0526  2.2526 -0.1708
  110OSM    H7T11364   5.419   5.825   9.889  0.2598  0.4708  0.0925
  110OSM    C8S11365   5.388   6.030   9.882 -0.7803 -0.4086  0.9068
  110OSM    H8S11366   5.440   6.123   9.913  0.8629 -1.1326  0.3786
  110OSM    H8T11367   5.286   6.038   9.927 -1.0735 -0.9843  0.3579
  110OSM    C9S11368   5.390   6.028   9.736 -0.6615  1.0224 -0.6283
  110OSM    H9S11369   5.356   5.929   9.699  0.8260  1.5242 -3.5547
  110OSM    H9T11370   5.490   6.040   9.690 -0.8443 -0.5058 -1.4714
  110OSM   C10S11371   5.283   6.103   9.667  0.3151 -0.2320 -0.2982
  110OSM   H10S11372   5.304   6.212   9.675 -0.6316 -0.1037  0.6334
  110OSM   H10T11373   5.182   6.097   9.713 -0.8130 -0.3736 -2.6685
  110OSM   C11S11374   5.264   6.065   9.520 -0.2974 -0.8945 -0.0490
  110OSM   H11S11375   5.218   5.964   9.526  1.3120 -1.5714  2.3117
  110OSM   H11T11376   5.367   6.059   9.479 -0.5157  2.5773 -1.4640
  110OSM   C12S11377   5.190   6.174   9.436 -0.4804 -0.1986  0.2686
  110OSM   H12S11378   5.257   6.261   9.426 -0.4211 -0.0756  1.5516
  110OSM   H12T11379   5.113   6.211   9.507 -0.9771 -1.6868  0.5569
  110OSM   C13S11380   5.114   6.121   9.314  0.4952  0.5009  0.3121
  110OSM   H13S11381   5.044   6.198   9.276  0.0625  2.1383  3.9731
  110OSM   H13T11382   5.049   6.034   9.332  2.7811 -1.4313 -0.2462
  110OSM   C14S11383   5.209   6.085   9.207 -0.1948 -0.2481 -0.3016
  110OSM   H14S11384   5.289   6.018   9.246  0.5931  0.2577 -1.0245
  110OSM   H14T11385   5.253   6.183   9.177 -1.4524 -0.1789 -2.0593
  110OSM   C15S11386   5.147   6.009   9.088 -0.2239 -0.3797  0.6878
  110OSM   H15S11387   5.072   6.075   9.040 -1.2474 -1.6587  0.4584
  110OSM   H15T11388   5.098   5.925   9.142 -0.3165 -0.0425  1.1302
  110OSM   C16S11389   5.269   5.954   8.999 -0.2381  1.1930  0.9930
  110OSM   H16S11390   5.329   5.881   9.057 -1.8321 -1.2113 -0.2086
  110OSM   H16T11391   5.336   6.040   8.977 -0.3238  1.3897  1.4834
  110OSM   C17S11392   5.218   5.902   8.860  0.3050  0.2002  0.6366
  110OSM   H17S11393   5.301   5.882   8.788 -1.1636 -0.1355 -1.0378
  110OSM   H17T11394   5.154   5.975   8.807  0.9886 -1.2995 -2.5192
  110OSM   C18S11395   5.137   5.777   8.866  0.1200 -0.1224 -0.8451
  110OSM   H18S11396   5.197   5.685   8.850  2.3802  1.4824 -2.2305
  110OSM   H18T11397   5.057   5.770   8.790 -0.0638  0.3663 -0.6973
  110OSM   H18U11398   5.084   5.766   8.963  0.4275  0.3695 -0.6145
  110OSM    C1F11399   5.391   5.505  10.258 -0.7819  0.1046  0.7135
  110OSM     OF11400   5.331   5.540  10.362 -0.4484  0.3346  0.4311
  110OSM    C2F11401   5.332   5.427  10.146 -0.0878 -0.2343 -0.1420
  110OSM    H2F11402   5.226   5.411  10.176 -0.3913  0.1751 -0.9586
  110OSM    H2G11403   5.382   5.328  10.141 -0.8486 -0.6287 -0.1301
  110OSM    C3F11404   5.331   5.500  10.012 -0.2477  0.5996  0.3165
  110OSM    H3F11405   5.439   5.502   9.987  0.0808  3.1494  1.6427
  110OSM    H3G11406   5.288   5.602  10.019 -0.9596  0.3421 -0.1522
  110OSM    C4F11407   5.264   5.424   9.895 -0.6281 -0.1036  0.1502
  110OSM    H4F11408   5.153   5.428   9.906 -0.7055  1.7893 -0.9046
  110OSM    H4G11409   5.297   5.318   9.895 -0.4280 -0.0433 -0.1033
  110OSM    C5F11410   5.298   5.471   9.753 -0.8472  0.3254  0.5565
  110OSM    H5F11411   5.259   5.392   9.685 -0.0528  1.0529 -0.7745
  110OSM    H5G11412   5.407   5.468   9.734 -1.0799  0.6484 -0.9574
  110OSM    C6F11413   5.244   5.608   9.712  0.2794  0.3480  0.1438
  110OSM    H6F11414   5.285   5.675   9.790 -1.2394  2.5984 -0.9040
  110OSM    H6G11415   5.134   5.616   9.725 -0.0271 -2.3520 -0.1350
  110OSM    C7F11416   5.282   5.659   9.577  0.5341  0.0284  0.9167
  110OSM    H7F11417   5.377   5.610   9.548  0.9452 -0.2898  2.7072
  110OSM    H7G11418   5.299   5.769   9.571 -0.1299  0.0670 -1.6196
  110OSM    C8F11419   5.180   5.615   9.464 -0.0031 -0.0185 -0.1364
  110OSM    H8F11420   5.088   5.668   9.498 -1.1832 -2.2022  0.2242
  110OSM    H8G11421   5.161   5.506   9.468 -1.3282  0.1928 -0.1179
  110OSM    C9F11422   5.203   5.671   9.330 -0.4398 -0.0120  0.2713
  110OSM    H9F11423   5.190   5.780   9.332  0.7807  0.1384  1.2144
  110OSM   C10F11424   5.213   5.610   9.208 -0.4153  0.6017 -0.5952
  110OSM   H10F11425   5.227   5.675   9.120 -0.4563  2.0620  0.4432
  110OSM   C11F11426   5.211   5.459   9.183 -0.2540  0.4871  0.0210
  110OSM   H11F11427   5.119   5.420   9.137 -0.8575  1.6735  0.1769
  110OSM   H11G11428   5.212   5.405   9.280 -1.8755  1.5541  0.6828
  110OSM   C12F11429   5.337   5.408   9.115 -0.1586 -0.7717  0.4398
  110OSM   H12F11430   5.324   5.300   9.095  0.4489 -1.2267  2.2585
  110OSM   H12G11431   5.429   5.418   9.177  0.1013  1.3572 -0.1824
  110OSM   C13F11432   5.375   5.470   8.986 -0.3815  1.4969 -0.1008
  110OSM   H13F11433   5.422   5.570   9.000 -1.1109  1.7121  0.8588
  110OSM   H13G11434   5.288   5.494   8.922  1.7041  1.2127 -3.3146
  110OSM   C14F11435   5.467   5.386   8.886  0.0053  0.2007 -0.4279
  110OSM   H14F11436   5.408   5.304   8.841 -0.3818  0.4274 -0.3400
  110OSM   H14G11437   5.550   5.348   8.949 -1.1476  0.9932  1.6451
  110OSM   C15F11438   5.515   5.475   8.781  0.3528 -0.4113  0.2874
  110OSM   H15F11439   5.593   5.426   8.720 -0.6081 -2.5169  0.6425
  110OSM   H15G11440   5.559   5.571   8.815  1.4214 -0.2960 -1.3235
  110OSM   C16F11441   5.406   5.499   8.672  0.0166  0.0188  0.2103
  110OSM   H16F11442   5.325   5.567   8.705  1.3014  1.4505  0.5261
  110OSM   H16G11443   5.359   5.402   8.646  1.4060 -0.1977 -1.7306
  110OSM   C17F11444   5.461   5.552   8.539  0.0107  0.5973 -0.2237
  110OSM   H17F11445   5.368   5.552   8.479  0.9082 -1.7218 -1.7435
  110OSM   H17G11446   5.532   5.480   8.494 -0.3218 -1.7127  2.6653
  110OSM   C18F11447   5.519   5.692   8.550 -0.0782  0.4991 -0.4064
  110OSM   H18F11448   5.528   5.745   8.452 -0.3564  1.9156  0.2986
  110OSM   H18G11449   5.620   5.691   8.596  0.3200  1.0700 -1.2527
  110OSM   H18H11450   5.452   5.740   8.624 -0.3123 -1.9824  1.1051
  111OSM      N11451   3.781   2.384  11.059 -0.9084  0.2357 -0.7208
  111OSM    C1511452   3.830   2.291  10.952  0.0292  0.2046  0.1228
  111OSM   H15A11453   3.825   2.336  10.854 -0.6171 -0.4487 -0.1541
  111OSM   H15B11454   3.765   2.205  10.957 -1.5141  1.4019  1.9154
  111OSM   H15C11455   3.935   2.266  10.962 -0.0333  0.3619  1.3230
  111OSM    C1411456   3.639   2.428  11.032 -0.3375 -0.0201  0.7324
  111OSM   H14A11457   3.569   2.346  11.020 -1.1291  0.2498  2.9114
  111OSM   H14B11458   3.623   2.490  10.946  0.1636  2.2791  2.2022
  111OSM   H14C11459   3.606   2.488  11.116  0.9930 -2.2486  2.9781
  111OSM    C1311460   3.790   2.304  11.187  0.1524  0.1187 -0.0254
  111OSM   H13A11461   3.724   2.219  11.187  1.7357 -1.1746  0.5558
  111OSM   H13B11462   3.757   2.362  11.272  0.9949  0.5968 -0.0132
  111OSM   H13C11463   3.889   2.263  11.203 -0.0430 -0.4541 -0.2694
  111OSM    C1211464   3.879   2.491  11.074  0.0440 -0.4687 -0.1760
  111OSM   H12A11465   3.967   2.458  11.128  1.1570  0.7349 -1.1701
  111OSM   H12B11466   3.836   2.556  11.149 -1.5318 -0.2131 -1.2690
  111OSM    C1111467   3.926   2.574  10.952 -0.3789  0.4015 -0.0197
  111OSM   H11A11468   3.965   2.498  10.882  1.7284 -1.1372  2.6149
  111OSM   H11B11469   4.004   2.646  10.986  0.8553 -1.5968  1.6159
  111OSM      P11470   3.800   2.742  10.792  0.2263 -0.0327  0.0105
  111OSM    O1311471   3.672   2.808  10.805  0.3456 -0.2387  0.2844
  111OSM    O1411472   3.923   2.832  10.808  0.4027 -0.0444 -0.1263
  111OSM    O1111473   3.788   2.676  10.651 -0.4654  0.5850  0.3033
  111OSM    O1211474   3.811   2.629  10.894  0.5392 -0.3876 -0.2789
  111OSM    C1S11475   3.817   2.540  10.618  0.1029 -0.0971 -0.4475
  111OSM    H1S11476   3.754   2.470  10.677 -1.7325  0.2292 -1.9094
  111OSM    H1T11477   3.918   2.510  10.654  0.0647 -1.2860 -1.2478
  111OSM     NF11478   3.862   2.358  10.468  0.7873  0.2468  0.0168
  111OSM    HNF11479   3.956   2.347  10.438  0.0103 -0.0709 -2.4788
  111OSM    C2S11480   3.806   2.493  10.472 -0.1749  0.4145  0.2384
  111OSM    H2S11481   3.699   2.484  10.445 -0.0926  1.4943 -0.5197
  111OSM    C3S11482   3.877   2.586  10.372  0.0444 -0.1557  0.4979
  111OSM    H3S11483   3.982   2.595  10.408  0.3140 -0.0032 -0.3121
  111OSM     O311484   3.831   2.718  10.371  0.3942 -0.0317 -0.7882
  111OSM    HO311485   3.794   2.714  10.459  2.1057  1.4534  0.0748
  111OSM    C4S11486   3.874   2.529  10.228 -0.1805 -0.4810 -0.8372
  111OSM    H4S11487   3.954   2.459  10.201  0.5672  0.1426 -0.2800
  111OSM    C5S11488   3.776   2.545  10.136 -0.3459  0.1401 -0.5476
  111OSM    H5S11489   3.689   2.610  10.153  0.4276  1.5621 -1.8011
  111OSM    C6S11490   3.781   2.469   9.999  0.7022  0.2234 -0.3042
  111OSM    H6S11491   3.683   2.427   9.967  0.1427 -0.0939  1.7156
  111OSM    H6T11492   3.851   2.384  10.017  1.0689  0.4261 -0.7461
  111OSM    C7S11493   3.845   2.547   9.883 -0.3225 -0.2770 -0.2855
  111OSM    H7S11494   3.946   2.584   9.911 -0.1955 -0.4354 -0.5249
  111OSM    H7T11495   3.778   2.635   9.873 -0.9139 -0.4605  1.7062
  111OSM    C8S11496   3.855   2.474   9.755  0.8782 -1.4364 -0.2815
  111OSM    H8S11497   3.759   2.419   9.744  0.1406 -0.3885  0.7621
  111OSM    H8T11498   3.924   2.388   9.767  1.0123 -1.4517 -1.0895
  111OSM    C9S11499   3.878   2.573   9.642 -0.2227  0.6097 -0.3853
  111OSM    H9S11500   3.975   2.622   9.667  2.7473 -3.3666 -2.9067
  111OSM    H9T11501   3.797   2.649   9.636 -0.0504  0.7375 -1.1296
  111OSM   C10S11502   3.873   2.504   9.504 -0.3080 -0.4525 -0.1410
  111OSM   H10S11503   3.773   2.459   9.488 -0.2832 -1.3352  1.8741
  111OSM   H10T11504   3.946   2.422   9.485  0.1716 -0.2463  0.7509
  111OSM   C11S11505   3.874   2.608   9.388  0.0405 -0.1385 -0.1161
  111OSM   H11S11506   3.963   2.674   9.391  0.3475 -0.5376 -0.3243
  111OSM   H11T11507   3.792   2.680   9.408 -3.2684 -2.7898 -2.8374
  111OSM   C12S11508   3.850   2.552   9.246  0.6169  0.3890 -0.3857
  111OSM   H12S11509   3.746   2.513   9.260  0.8238  0.6277  2.1629
  111OSM   H12T11510   3.915   2.462   9.232  0.3068  0.1430 -0.2678
  111OSM   C13S11511   3.870   2.644   9.133  0.0489  0.5627  0.5467
  111OSM   H13S11512   3.978   2.669   9.134  0.7101 -2.0308  1.5076
  111OSM   H13T11513   3.817   2.740   9.153 -1.7585 -0.7089  2.1634
  111OSM   C14S11514   3.839   2.582   8.993  0.7610 -0.3279  0.0443
  111OSM   H14S11515   3.739   2.532   8.993  0.0337  1.0534 -0.6962
  111OSM   H14T11516   3.909   2.500   8.966 -0.0047 -0.1481 -2.9183
  111OSM   C15S11517   3.843   2.686   8.876  0.4118  0.6032  0.0159
  111OSM   H15S11518   3.948   2.722   8.876  0.6826 -0.1751 -0.4213
  111OSM   H15T11519   3.773   2.769   8.900  0.5177  0.2444  1.6701
  111OSM   C16S11520   3.806   2.614   8.746 -0.0892  0.3212  0.3356
  111OSM   H16S11521   3.827   2.683   8.661 -0.3430 -0.3211 -0.2512
  111OSM   H16T11522   3.698   2.594   8.735  0.2984 -1.0937 -1.3093
  111OSM   C17S11523   3.869   2.478   8.721  0.5817  0.2708  0.3319
  111OSM   H17S11524   3.829   2.435   8.626  1.9081 -0.8213  0.2547
  111OSM   H17T11525   3.847   2.404   8.801 -0.4353 -0.5480 -0.6583
  111OSM   C18S11526   4.021   2.476   8.687  0.3712  0.0822  0.3820
  111OSM   H18S11527   4.047   2.524   8.589 -1.0863 -0.7654 -0.4480
  111OSM   H18T11528   4.050   2.370   8.699 -3.1834 -0.6945  4.8460
  111OSM   H18U11529   4.070   2.536   8.767 -0.6117  3.0615 -1.0740
  111OSM    C1F11530   3.815   2.251  10.536  1.0530 -0.1653 -0.2700
  111OSM     OF11531   3.705   2.244  10.585 -0.0285  0.4441 -0.1781
  111OSM    C2F11532   3.909   2.132  10.550 -0.5389 -0.4269 -0.0541
  111OSM    H2F11533   3.900   2.085  10.650 -0.2636 -2.6583 -1.0107
  111OSM    H2G11534   4.013   2.171  10.536 -1.4863  2.7775  0.9592
  111OSM    C3F11535   3.866   2.028  10.443 -0.2797 -0.6277 -0.0258
  111OSM    H3F11536   3.757   2.010  10.442 -0.4969  0.4024 -2.6633
  111OSM    H3G11537   3.916   1.932  10.468 -1.9811 -1.0384  2.1190
  111OSM    C4F11538   3.890   2.058  10.297 -0.2996 -0.3238 -0.2342
  111OSM    H4F11539   3.996   2.083  10.277 -0.1658  1.4570  2.1795
  111OSM    H4G11540   3.827   2.148  10.277  1.5562  1.0206 -0.3030
  111OSM    C5F11541   3.845   1.946  10.209  0.6992  0.0470  0.1525
  111OSM    H5F11542   3.736   1.932  10.196  0.4246 -1.5909  3.3621
  111OSM    H5G11543   3.883   1.853  10.256  1.9511 -0.5258 -1.8360
  111OSM    C6F11544   3.912   1.946  10.071 -0.1899  0.3094 -0.5310
  111OSM    H6F11545   3.880   1.850  10.025 -1.4839 -0.4117  1.7237
  111OSM    H6G11546   4.021   1.941  10.092  0.0071  1.8562 -1.0206
  111OSM    C7F11547   3.880   2.074   9.987 -0.1679  0.0991 -0.4296
  111OSM    H7F11548   3.887   2.161  10.055 -0.2714  1.5521 -2.1925
  111OSM    H7G11549   3.774   2.063   9.956 -0.7882  0.4940  1.4354
  111OSM    C8F11550   3.984   2.089   9.879  0.3198  0.5540  0.9979
  111OSM    H8F11551   4.083   2.115   9.923  0.7967  0.5275 -0.0238
  111OSM    H8G11552   3.968   2.178   9.815 -0.0340 -2.0333 -2.8656
  111OSM    C9F11553   3.968   1.963   9.788  0.3718 -0.2033 -0.4279
  111OSM    H9F11554   3.993   1.872   9.843 -1.3214 -0.6521 -0.3335
  111OSM   C10F11555   3.900   1.946   9.670 -0.4358 -0.8111  0.3386
  111OSM   H10F11556   3.899   1.845   9.626 -1.8035 -1.3346  1.5028
  111OSM   C11F11557   3.831   2.054   9.593  0.3511 -0.8037 -0.1138
  111OSM   H11F11558   3.825   2.148   9.652 -0.8578 -0.7382 -0.3181
  111OSM   H11G11559   3.726   2.026   9.573  1.0115 -2.0015 -2.1486
  111OSM   C12F11560   3.899   2.118   9.472 -0.1393  0.1327 -0.2567
  111OSM   H12F11561   4.001   2.152   9.500  0.3897 -1.2999 -0.3582
  111OSM   H12G11562   3.837   2.208   9.451 -2.4422 -1.3265 -0.0696
  111OSM   C13F11563   3.905   2.037   9.343 -0.1595 -0.2360 -0.6167
  111OSM   H13F11564   3.806   1.992   9.321 -0.9947  1.8015 -1.2167
  111OSM   H13G11565   3.976   1.951   9.354  1.1415  0.7904 -0.7239
  111OSM   C14F11566   3.961   2.122   9.231  0.0273 -0.0650  0.1846
  111OSM   H14F11567   4.056   2.159   9.275 -0.1653  1.5948 -0.7250
  111OSM   H14G11568   3.901   2.214   9.219  1.3989  1.0072  1.1954
  111OSM   C15F11569   3.962   2.053   9.095 -0.0590 -0.0342  0.3518
  111OSM   H15F11570   3.863   2.006   9.078  0.7180 -1.0583 -1.6064
  111OSM   H15G11571   4.038   1.974   9.078 -0.6014  0.0454 -3.1396
  111OSM   C16F11572   3.976   2.158   8.984 -0.1804  0.4920 -0.1917
  111OSM   H16F11573   3.892   2.230   8.975  0.7432  1.4110 -1.9381
  111OSM   H16G11574   3.982   2.099   8.890 -0.1685  0.4289 -0.1510
  111OSM   C17F11575   4.112   2.233   8.994 -0.2481  0.4013  0.5138
  111OSM   H17F11576   4.145   2.242   9.100 -0.5390 -0.3784  0.6779
  111OSM   H17G11577   4.099   2.340   8.968 -1.0029 -0.1585 -1.6102
  111OSM   C18F11578   4.208   2.180   8.888  1.1385 -0.0866  1.0673
  111OSM   H18F11579   4.301   2.236   8.862  0.4811 -0.3820 -2.3131
  111OSM   H18G11580   4.151   2.190   8.793  2.3090  0.1673  0.3638
  111OSM   H18H11581   4.221   2.071   8.903 -0.2334 -0.1964  1.6607
  112OSM      N11582   6.117   6.128  11.180  0.1222 -0.3394 -0.2126
  112OSM    C1511583   6.248   6.070  11.226 -0.2269  0.3152  0.6682
  112OSM   H15A11584   6.228   5.975  11.273 -2.0313  1.0762  1.5251
  112OSM   H15B11585   6.293   6.147  11.288 -1.2958  0.9742  0.6448
  112OSM   H15C11586   6.314   6.048  11.144 -0.1370 -0.2249  0.8770
  112OSM    C1411587   6.028   6.127  11.301 -0.3363  0.0814 -0.8149
  112OSM   H14A11588   6.072   6.187  11.379 -1.4198 -0.1302 -0.0157
  112OSM   H14B11589   6.006   6.027  11.335 -1.0720  0.5573  0.1550
  112OSM   H14C11590   5.931   6.168  11.279 -0.2982  1.9377  1.9559
  112OSM    C1311591   6.131   6.266  11.129  0.2250 -0.2913  0.0619
  112OSM   H13A11592   6.179   6.335  11.197 -0.5571 -0.0582  0.3880
  112OSM   H13B11593   6.036   6.313  11.109  1.1866  1.5415 -0.5031
  112OSM   H13C11594   6.170   6.269  11.028 -1.7256  0.8330 -0.7122
  112OSM    C1211595   6.062   6.034  11.073  0.9313 -0.2637  0.9548
  112OSM   H12A11596   6.115   6.056  10.982  0.3936  2.1309  1.1622
  112OSM   H12B11597   5.957   6.059  11.061  0.4370 -2.4418  0.3056
  112OSM    C1111598   6.065   5.874  11.088  1.0057 -0.5640  0.0052
  112OSM   H11A11599   5.996   5.831  11.012  1.9514 -1.9357 -0.1140
  112OSM   H11B11600   6.012   5.853  11.183  0.8744 -1.5718 -0.2714
  112OSM      P11601   6.292   5.800  11.002 -0.2792  0.6198 -0.0565
  112OSM    O1311602   6.400   5.891  11.038  0.3890 -0.6153 -0.0150
  112OSM    O1411603   6.332   5.662  10.989  0.1386  0.5956  0.3298
  112OSM    O1111604   6.220   5.846  10.870  0.9277  0.0458 -0.1012
  112OSM    O1211605   6.179   5.805  11.115 -0.1488 -0.2339  0.0767
  112OSM    C1S11606   6.288   5.846  10.743  0.3051  0.8725  0.1311
  112OSM    H1S11607   6.312   5.742  10.712 -0.8148  0.0842  1.7906
  112OSM    H1T11608   6.377   5.914  10.743  1.1696 -0.2068  1.4082
  112OSM     NF11609   6.262   5.863  10.497  0.4425 -0.2448  0.2188
  112OSM    HNF11610   6.316   5.934  10.453 -0.4645  0.8581  0.8148
  112OSM    C2S11611   6.200   5.901  10.624  0.8506  0.8025  0.2175
  112OSM    H2S11612   6.103   5.846  10.630  1.2274  0.2646  1.9895
  112OSM    C3S11613   6.172   6.056  10.643 -0.5988 -0.2366  0.0179
  112OSM    H3S11614   6.261   6.121  10.630 -1.7263  2.2380  3.3118
  112OSM     O311615   6.133   6.088  10.774 -0.2675  0.0317  0.4259
  112OSM    HO311616   6.161   6.009  10.821  1.1587 -0.2133 -0.7635
  112OSM    C4S11617   6.077   6.095  10.532  0.4149  0.1258 -0.6504
  112OSM    H4S11618   5.984   6.036  10.528 -0.7197  1.6847  0.9912
  112OSM    C5S11619   6.100   6.195  10.447 -0.4684 -0.9023 -0.6825
  112OSM    H5S11620   6.189   6.259  10.458 -1.6924  1.3616 -2.8886
  112OSM    C6S11621   6.018   6.237  10.328  0.2257 -0.2966 -0.8554
  112OSM    H6S11622   6.065   6.193  10.238  2.4935  0.2643 -0.0168
  112OSM    H6T11623   6.036   6.345  10.308  3.0957 -0.5597 -0.1021
  112OSM    C7S11624   5.873   6.192  10.325 -0.0907 -0.0512 -0.1404
  112OSM    H7S11625   5.819   6.239  10.410  0.6621 -0.3337  0.5135
  112OSM    H7T11626   5.881   6.082  10.340 -3.1064 -0.4270 -0.7406
  112OSM    C8S11627   5.796   6.203  10.193 -0.4689 -0.7420 -0.6379
  112OSM    H8S11628   5.698   6.158  10.221 -1.7677  2.9168  1.3412
  112OSM    H8T11629   5.842   6.143  10.112  1.2694  1.9749 -1.7664
  112OSM    C9S11630   5.783   6.349  10.129 -0.4593 -0.1288 -0.3990
  112OSM    H9S11631   5.881   6.390  10.097 -0.1608 -0.5802 -0.0861
  112OSM    H9T11632   5.739   6.407  10.212 -1.0205 -0.7028 -0.2859
  112OSM   C10S11633   5.677   6.370  10.025 -0.3263 -0.0633 -0.0110
  112OSM   H10S11634   5.633   6.472  10.019 -1.9758 -0.7727 -0.4847
  112OSM   H10T11635   5.584   6.312  10.046 -0.2084 -0.3003 -0.1421
  112OSM   C11S11636   5.714   6.345   9.879  0.1013 -0.3310 -0.5769
  112OSM   H11S11637   5.758   6.243   9.880  0.1853 -0.3040 -1.2021
  112OSM   H11T11638   5.803   6.408   9.858 -1.7658  2.1951 -1.3498
  112OSM   C12S11639   5.602   6.381   9.780  0.1441  0.8219 -0.3072
  112OSM   H12S11640   5.585   6.489   9.796  0.7015  0.6735  1.5479
  112OSM   H12T11641   5.511   6.334   9.822  0.5529  0.9484  0.7569
  112OSM   C13S11642   5.624   6.352   9.636 -0.7411  0.1921  0.1311
  112OSM   H13S11643   5.533   6.396   9.589 -0.9411 -2.0649 -1.7594
  112OSM   H13T11644   5.630   6.245   9.610  1.5766  0.0869  0.8960
  112OSM   C14S11645   5.749   6.421   9.572 -0.8395  0.3038  0.0484
  112OSM   H14S11646   5.840   6.361   9.595 -0.1503  0.6036 -1.7236
  112OSM   H14T11647   5.750   6.520   9.620 -4.4013  0.5269 -0.0488
  112OSM   C15S11648   5.736   6.420   9.419 -0.3270  0.2916 -0.2836
  112OSM   H15S11649   5.838   6.438   9.378  0.2997 -1.9220  0.1834
  112OSM   H15T11650   5.678   6.509   9.385 -0.1121  0.5341 -0.0136
  112OSM   C16S11651   5.665   6.294   9.355  0.0745  0.2043 -0.0809
  112OSM   H16S11652   5.559   6.301   9.389 -0.1821 -0.9131 -0.6090
  112OSM   H16T11653   5.719   6.205   9.394 -0.3787  0.4487  1.1671
  112OSM   C17S11654   5.677   6.294   9.202 -0.0985  0.3062 -0.0270
  112OSM   H17S11655   5.784   6.284   9.173 -0.2293  1.3783 -0.9431
  112OSM   H17T11656   5.640   6.395   9.174  0.9887  0.5656 -0.5679
  112OSM   C18S11657   5.589   6.181   9.144  0.4288  0.0150 -0.4897
  112OSM   H18S11658   5.603   6.081   9.190  1.6951  0.9112  1.1732
  112OSM   H18T11659   5.610   6.169   9.035 -0.9124  1.6791 -0.9882
  112OSM   H18U11660   5.484   6.216   9.153  0.4549  0.3454 -1.3268
  112OSM    C1F11661   6.270   5.742  10.448 -0.2184  0.1710  0.6301
  112OSM     OF11662   6.212   5.649  10.502 -0.4689 -0.7141 -0.0587
  112OSM    C2F11663   6.367   5.713  10.336 -0.1346  0.3289 -0.3936
  112OSM    H2F11664   6.445   5.642  10.370  0.1478  0.8921  0.1522
  112OSM    H2G11665   6.414   5.808  10.305  1.0803  0.2221  1.0322
  112OSM    C3F11666   6.297   5.642  10.217  0.8218 -1.0207  0.6845
  112OSM    H3F11667   6.252   5.546  10.249  0.2101 -0.1148  2.7678
  112OSM    H3G11668   6.369   5.635  10.133  1.1618  1.9211  0.6115
  112OSM    C4F11669   6.176   5.726  10.167 -0.1385  0.2942 -0.0699
  112OSM    H4F11670   6.094   5.724  10.243 -0.5701  1.9741 -0.4484
  112OSM    H4G11671   6.150   5.678  10.070  0.1000  1.5593 -0.7810
  112OSM    C5F11672   6.214   5.866  10.120  0.3358 -0.6485 -0.4691
  112OSM    H5F11673   6.323   5.885  10.120  0.0244  1.2532 -0.9244
  112OSM    H5G11674   6.173   5.947  10.184 -0.2164 -1.6312  0.4711
  112OSM    C6F11675   6.170   5.877   9.977 -0.8311 -0.1195  1.0263
  112OSM    H6F11676   6.236   5.809   9.920 -1.3329 -0.9258  1.3992
  112OSM    H6G11677   6.192   5.982   9.947 -0.0508 -0.7933 -0.8609
  112OSM    C7F11678   6.021   5.864   9.952  0.6771 -0.1326  0.3072
  112OSM    H7F11679   5.969   5.933  10.022  2.1618  1.4358 -0.0597
  112OSM    H7G11680   5.975   5.765   9.966  0.3698 -0.3046 -1.6539
  112OSM    C8F11681   5.969   5.914   9.814  0.1763 -0.7200  0.1182
  112OSM    H8F11682   6.015   6.011   9.787  1.5341 -0.6268  2.4877
  112OSM    H8G11683   5.858   5.926   9.822  0.0822 -2.2256  1.8054
  112OSM    C9F11684   5.997   5.811   9.698 -0.2738  0.2049  0.3001
  112OSM    H9F11685   5.939   5.719   9.714  0.5041  0.0849  2.9255
  112OSM   C10F11686   6.090   5.815   9.596 -0.1264  0.1666 -0.5007
  112OSM   H10F11687   6.085   5.740   9.515  1.3477 -0.8930  0.3323
  112OSM   C11F11688   6.188   5.923   9.557 -0.1913  0.8578  0.5051
  112OSM   H11F11689   6.294   5.889   9.558 -0.5682 -0.4605  2.3502
  112OSM   H11G11690   6.189   5.997   9.639  1.2122  0.4212  0.9146
  112OSM   C12F11691   6.170   5.981   9.415  0.2150  0.3183  0.0133
  112OSM   H12F11692   6.062   5.980   9.390 -0.1263  1.7322  1.2953
  112OSM   H12G11693   6.223   5.926   9.334 -0.6776 -0.6038  0.0422
  112OSM   C13F11694   6.216   6.125   9.419 -0.5755  0.6443 -0.2186
  112OSM   H13F11695   6.323   6.136   9.446 -0.4417 -1.2008  0.1723
  112OSM   H13G11696   6.155   6.179   9.495  0.5532 -0.2038  1.3486
  112OSM   C14F11697   6.178   6.205   9.298 -0.0397 -0.2222  0.0704
  112OSM   H14F11698   6.238   6.298   9.298  0.9777 -0.8515  0.7401
  112OSM   H14G11699   6.069   6.223   9.298  0.0701  0.6863 -1.8955
  112OSM   C15F11700   6.215   6.138   9.158 -0.1233 -0.0580 -1.2455
  112OSM   H15F11701   6.165   6.039   9.155 -0.3881 -0.1330  2.0186
  112OSM   H15G11702   6.326   6.133   9.167 -0.3125 -0.7194  2.3876
  112OSM   C16F11703   6.169   6.221   9.042  0.6277 -0.2309  0.0751
  112OSM   H16F11704   6.206   6.325   9.050  0.5283 -0.1245 -0.7739
  112OSM   H16G11705   6.060   6.239   9.054  0.3736 -1.5811 -0.0664
  112OSM   C17F11706   6.207   6.161   8.908  0.4464  0.0844  0.8992
  112OSM   H17F11707   6.171   6.058   8.886  0.6753  0.4874 -1.5883
  112OSM   H17G11708   6.317   6.148   8.904  0.5624  1.1253  0.4221
  112OSM   C18F11709   6.160   6.246   8.785  0.2727  0.3429 -0.3931
  112OSM   H18F11710   6.208   6.346   8.782  0.7849  0.1848  1.5266
  112OSM   H18G11711   6.052   6.265   8.804  0.8913  2.1513  1.6918
  112OSM   H18H11712   6.176   6.192   8.689 -1.6891 -1.1939  0.0651
  113OSM      N11713   3.138   4.179  11.286 -0.2774  0.5750  0.3474
  113OSM    C1511714   3.244   4.087  11.352 -0.4414 -0.5420 -0.2931
  113OSM   H15A11715   3.228   4.074  11.458 -0.2322 -1.7123 -0.3842
  113OSM   H15B11716   3.344   4.126  11.339 -1.2471  1.6912 -0.0631
  113OSM   H15C11717   3.243   3.986  11.311 -0.1202 -1.2365  1.3389
  113OSM    C1411718   3.193   4.217  11.149  1.0043  0.1957 -0.3087
  113OSM   H14A11719   3.129   4.286  11.097 -0.0119  0.4791  1.2639
  113OSM   H14B11720   3.205   4.129  11.087 -1.3190 -1.9874  2.0443
  113OSM   H14C11721   3.283   4.276  11.157  0.5434  0.8082  0.4804
  113OSM    C1311722   3.009   4.108  11.270 -0.1424  0.4274 -0.4895
  113OSM   H13A11723   2.976   4.061  11.362  0.8208  0.5292 -0.0713
  113OSM   H13B11724   3.022   4.037  11.190 -0.5720  0.1395 -0.3060
  113OSM   H13C11725   2.924   4.170  11.248 -2.2302 -2.3640 -0.7665
  113OSM    C1211726   3.121   4.290  11.377 -0.0836 -0.0877  0.4537
  113OSM   H12A11727   3.217   4.328  11.407 -1.2138  3.3712  0.0765
  113OSM   H12B11728   3.072   4.255  11.467 -0.3559 -1.5908 -0.2479
  113OSM    C1111729   3.040   4.407  11.325 -0.3347  0.0302  0.4538
  113OSM   H11A11730   3.091   4.455  11.238  0.0572 -0.6371  0.3098
  113OSM   H11B11731   3.026   4.487  11.400 -4.0798 -0.0676  0.0220
  113OSM      P11732   2.832   4.426  11.154 -0.1580  0.4734  0.0014
  113OSM    O1311733   2.682   4.432  11.163  0.5066 -0.4907  0.1250
  113OSM    O1411734   2.901   4.543  11.107 -0.4200 -0.7201  0.2554
  113OSM    O1111735   2.859   4.304  11.050  0.5860 -0.2622 -0.3481
  113OSM    O1211736   2.905   4.380  11.292  0.6847 -0.2688 -0.4130
  113OSM    C1S11737   2.799   4.298  10.923 -0.0879 -0.2977  0.2640
  113OSM    H1S11738   2.785   4.396  10.872 -2.8648 -1.4981 -1.5236
  113OSM    H1T11739   2.698   4.251  10.926  1.3827 -3.7331  1.3841
  113OSM     NF11740   2.837   4.275  10.679 -0.1243  0.0511 -0.2287
  113OSM    HNF11741   2.775   4.213  10.633  0.6365 -1.3780  0.6077
  113OSM    C2S11742   2.887   4.233  10.812  0.6655 -0.6655 -0.2290
  113OSM    H2S11743   2.989   4.273  10.826 -0.3388  2.8370 -1.8092
  113OSM    C3S11744   2.890   4.077  10.839 -0.4771  0.2026 -0.1896
  113OSM    H3S11745   2.788   4.042  10.815  0.6389 -2.5995 -1.1569
  113OSM     O311746   2.903   4.047  10.977  0.1523 -0.4270  0.4746
  113OSM    HO311747   2.880   4.130  11.019  0.3538  0.7109 -1.5265
  113OSM    C4S11748   2.998   4.011  10.756 -0.2532  0.1226 -0.4157
  113OSM    H4S11749   3.089   3.982  10.811  1.7094  3.8330 -1.3250
  113OSM    C5S11750   3.009   4.011  10.620 -0.0487  0.4332 -0.9918
  113OSM    H5S11751   2.931   4.058  10.559 -0.0207  1.5278 -0.2163
  113OSM    C6S11752   3.116   3.941  10.545  0.0444 -0.4141 -0.1776
  113OSM    H6S11753   3.078   3.841  10.514  1.4784 -0.8062 -0.7706
  113OSM    H6T11754   3.204   3.925  10.610 -1.4256  1.8636  2.5676
  113OSM    C7S11755   3.173   4.023  10.432  0.4340  0.1224  0.5489
  113OSM    H7S11756   3.255   3.967  10.382  0.9941 -1.4779  3.0381
  113OSM    H7T11757   3.222   4.119  10.456  0.0059  1.3162 -2.8876
  113OSM    C8S11758   3.059   4.057  10.331 -0.6859  0.6169 -0.0251
  113OSM    H8S11759   2.980   4.120  10.377 -1.1552  0.3729 -0.4669
  113OSM    H8T11760   3.007   3.962  10.306 -0.4499  0.8066 -1.3368
  113OSM    C9S11761   3.123   4.130  10.217 -1.0204  0.1177  1.0776
  113OSM    H9S11762   3.206   4.070  10.173  0.2716  2.5000  0.0669
  113OSM    H9T11763   3.159   4.234  10.230 -2.4022  1.3239 -2.9762
  113OSM   C10S11764   3.022   4.133  10.106  0.3378 -0.2681 -0.3227
  113OSM   H10S11765   2.943   4.206  10.134  1.3041  0.3165  1.0291
  113OSM   H10T11766   2.978   4.032  10.092  0.6462 -0.5243  0.4926
  113OSM   C11S11767   3.089   4.181   9.974 -0.0229 -0.2059  0.1120
  113OSM   H11S11768   3.181   4.122   9.956  1.7347  2.2172  0.7386
  113OSM   H11T11769   3.128   4.285   9.976  0.5345 -0.4024  2.6191
  113OSM   C12S11770   3.000   4.162   9.844 -0.1598 -0.3226 -0.1886
  113OSM   H12S11771   2.912   4.226   9.868  0.9083  0.6431  1.3767
  113OSM   H12T11772   2.971   4.055   9.834  0.3753 -0.6381  1.4532
  113OSM   C13S11773   3.077   4.203   9.714  0.2513  0.0386 -0.2233
  113OSM   H13S11774   3.183   4.166   9.715  0.1222 -0.4095 -1.4213
  113OSM   H13T11775   3.079   4.313   9.699  2.4666  0.5963  3.0766
  113OSM   C14S11776   3.022   4.138   9.585  0.2977  0.1931 -0.2213
  113OSM   H14S11777   3.089   4.177   9.505  2.0925 -1.9160  0.1721
  113OSM   H14T11778   2.917   4.171   9.568  0.1089 -0.2083  0.1466
  113OSM   C15S11779   3.019   3.989   9.594  0.1244  0.6006  0.4149
  113OSM   H15S11780   2.958   3.948   9.677  2.0601 -2.7300  0.3768
  113OSM   H15T11781   3.120   3.946   9.616  0.6038  1.3371 -0.3121
  113OSM   C16S11782   2.956   3.924   9.466  0.0048 -0.5813 -0.3069
  113OSM   H16S11783   3.017   3.945   9.376  0.3465 -2.8387 -0.6630
  113OSM   H16T11784   2.850   3.952   9.452 -0.0734  0.0470  1.2910
  113OSM   C17S11785   2.960   3.773   9.457  0.0041  0.5154  0.3695
  113OSM   H17S11786   2.931   3.755   9.352 -0.2315 -1.5258  0.7382
  113OSM   H17T11787   2.888   3.742   9.536  0.7048 -0.7726  0.5299
  113OSM   C18S11788   3.089   3.701   9.493 -0.1680 -0.2717  1.0268
  113OSM   H18S11789   3.084   3.598   9.451  0.4539 -0.2535  0.8877
  113OSM   H18T11790   3.108   3.710   9.602  1.7412  1.7776  0.6041
  113OSM   H18U11791   3.172   3.750   9.438  0.8181  0.1704  2.8234
  113OSM    C1F11792   2.873   4.385  10.619  0.5070  0.1816  0.8795
  113OSM     OF11793   2.964   4.456  10.659 -0.4845  0.4051 -0.0704
  113OSM    C2F11794   2.798   4.424  10.490  0.2005  0.0323 -0.6677
  113OSM    H2F11795   2.700   4.462  10.526  0.5671 -0.1178  0.5450
  113OSM    H2G11796   2.769   4.338  10.426 -1.4445  1.7811 -2.3936
  113OSM    C3F11797   2.867   4.529  10.408  0.0152  1.1759 -0.2637
  113OSM    H3F11798   2.970   4.497  10.385 -0.5935 -0.4956 -0.7901
  113OSM    H3G11799   2.882   4.620  10.470  1.1976 -0.9105  2.7023
  113OSM    C4F11800   2.801   4.565  10.271 -0.9897  0.2275  0.1222
  113OSM    H4F11801   2.856   4.652  10.229 -2.5046  2.4787  2.4538
  113OSM    H4G11802   2.695   4.591  10.292 -0.9556  0.1660  0.3680
  113OSM    C5F11803   2.803   4.450  10.166  0.1280  0.2843 -0.0808
  113OSM    H5F11804   2.733   4.374  10.207 -1.0357  1.5348  0.3174
  113OSM    H5G11805   2.910   4.420  10.173 -0.1471 -0.4411  2.1351
  113OSM    C6F11806   2.767   4.473  10.022 -0.1813  0.0083 -0.2026
  113OSM    H6F11807   2.774   4.385   9.956 -0.6688 -1.2630  1.3799
  113OSM    H6G11808   2.827   4.557   9.979 -0.3167  0.3538  0.2694
  113OSM    C7F11809   2.620   4.523  10.004 -0.6129  0.1117 -0.1119
  113OSM    H7F11810   2.600   4.607  10.075  0.6320  0.1190  0.2563
  113OSM    H7G11811   2.557   4.438  10.038  0.1849 -0.5364 -0.2253
  113OSM    C8F11812   2.578   4.566   9.861  0.3112  0.1315 -0.7601
  113OSM    H8F11813   2.623   4.666   9.846  1.2140  0.3936  2.7566
  113OSM    H8G11814   2.468   4.579   9.859  0.1642 -0.5108  0.9746
  113OSM    C9F11815   2.625   4.485   9.743  0.1646 -0.1499 -0.5159
  113OSM    H9F11816   2.605   4.377   9.754 -1.3677  0.2635  1.1180
  113OSM   C10F11817   2.710   4.524   9.643  0.6931 -1.1727 -0.1533
  113OSM   H10F11818   2.720   4.452   9.560 -0.6346 -0.9041 -0.5711
  113OSM   C11F11819   2.769   4.658   9.609 -0.2144 -0.8423  0.2314
  113OSM   H11F11820   2.842   4.688   9.687 -2.5036 -0.1444  2.2263
  113OSM   H11G11821   2.688   4.734   9.616  1.8569  1.6043 -0.7019
  113OSM   C12F11822   2.821   4.663   9.469  0.0239 -0.3741 -0.1799
  113OSM   H12F11823   2.738   4.643   9.397  1.0689 -1.3387 -1.1507
  113OSM   H12G11824   2.903   4.590   9.456 -1.5274 -2.6111  1.6762
  113OSM   C13F11825   2.869   4.805   9.428  0.0689 -0.0738  0.1670
  113OSM   H13F11826   2.949   4.832   9.499  0.6061  0.4595 -0.6143
  113OSM   H13G11827   2.781   4.871   9.443  1.9710  2.3924  1.2465
  113OSM   C14F11828   2.924   4.807   9.282  0.0729  0.4162  0.0038
  113OSM   H14F11829   2.978   4.712   9.262  0.9575  1.0243 -0.5250
  113OSM   H14G11830   2.991   4.895   9.272 -0.5265  0.8276 -0.4759
  113OSM   C15F11831   2.813   4.818   9.179  0.3665  0.6864 -0.2289
  113OSM   H15F11832   2.755   4.912   9.191 -0.1836  0.5525 -1.6873
  113OSM   H15G11833   2.739   4.737   9.197  0.5721  0.7030  0.7229
  113OSM   C16F11834   2.868   4.819   9.036  0.0176  0.5741 -0.2188
  113OSM   H16F11835   2.914   4.720   9.012 -1.8264 -0.5393  0.5860
  113OSM   H16G11836   2.947   4.895   9.029  0.0753  0.3908 -1.7391
  113OSM   C17F11837   2.772   4.842   8.929 -0.0705  0.1046  0.2803
  113OSM   H17F11838   2.728   4.943   8.942  0.3483  0.0827  1.9879
  113OSM   H17G11839   2.688   4.769   8.933  0.0821 -0.2816 -2.0853
  113OSM   C18F11840   2.838   4.831   8.790  0.5864  0.0979  0.6016
  113OSM   H18F11841   2.765   4.849   8.709  1.1228  0.8641  0.2803
  113OSM   H18G11842   2.894   4.735   8.784  2.3127  1.0591  0.6826
  113OSM   H18H11843   2.923   4.902   8.784 -0.4304  1.5528  2.4076
  114OSM      N11844   5.362   0.589  11.187 -0.3146  0.4175 -0.0722
  114OSM    C1511845   5.432   0.720  11.161  0.1295 -0.2661  0.2456
  114OSM   H15A11846   5.373   0.781  11.095  1.0101 -1.5719 -1.8633
  114OSM   H15B11847   5.526   0.691  11.116  0.4506  3.1581 -1.6070
  114OSM   H15C11848   5.440   0.770  11.257 -0.1826 -0.2328  0.2562
  114OSM    C1411849   5.445   0.503  11.275 -0.2662  0.2673  0.0542
  114OSM   H14A11850   5.533   0.469  11.221 -0.5432 -0.9499  0.3492
  114OSM   H14B11851   5.393   0.413  11.301 -1.7685  1.6112  1.9977
  114OSM   H14C11852   5.474   0.558  11.363 -0.2685 -1.5379  1.2252
  114OSM    C1311853   5.232   0.619  11.250  0.6665 -0.0949 -0.0696
  114OSM   H13A11854   5.185   0.543  11.311 -2.3773  0.9090 -1.0002
  114OSM   H13B11855   5.152   0.661  11.191 -1.5954  1.1720  3.5096
  114OSM   H13C11856   5.243   0.702  11.319 -2.9758 -1.1806  2.1005
  114OSM    C1211857   5.343   0.512  11.052  0.3949 -0.0374 -0.3478
  114OSM   H12A11858   5.315   0.411  11.076  0.6471 -0.3955 -1.4703
  114OSM   H12B11859   5.435   0.506  10.996 -0.3596 -1.2673 -1.5212
  114OSM    C1111860   5.248   0.562  10.949  0.6051 -0.5724  0.0584
  114OSM   H11A11861   5.272   0.514  10.852 -2.7383 -1.7491 -0.3193
  114OSM   H11B11862   5.265   0.672  10.943  0.4967 -0.6111 -1.2376
  114OSM      P11863   4.997   0.641  10.955  0.1775 -0.4267 -0.2469
  114OSM    O1311864   4.872   0.565  10.935  0.0084  0.1791  0.0822
  114OSM    O1411865   4.993   0.741  11.066  0.0978 -0.0181 -0.4362
  114OSM    O1111866   5.033   0.708  10.813 -0.3017 -0.4082  0.0717
  114OSM    O1211867   5.109   0.533  10.983 -0.2729  0.4652 -0.7289
  114OSM    C1S11868   5.034   0.617  10.699  0.0915  0.1360  0.2305
  114OSM    H1S11869   4.954   0.539  10.697  0.9436 -0.7533 -0.5805
  114OSM    H1T11870   5.124   0.553  10.706 -0.7959 -1.0628  1.1607
  114OSM     NF11871   5.010   0.609  10.452 -0.1280  0.2712 -0.3531
  114OSM    HNF11872   5.095   0.585  10.406 -1.0569 -0.6631 -1.6603
  114OSM    C2S11873   5.020   0.700  10.568 -0.5791  0.3922  0.3021
  114OSM    H2S11874   4.927   0.759  10.586 -0.7297 -0.8784  4.9487
  114OSM    C3S11875   5.134   0.798  10.546  0.0285  0.5686 -0.1567
  114OSM    H3S11876   5.225   0.738  10.524 -0.0009 -0.3088  1.9242
  114OSM     O311877   5.156   0.880  10.660  0.4079  0.1092 -0.0161
  114OSM    HO311878   5.119   0.826  10.730  0.5259  1.4415  1.1102
  114OSM    C4S11879   5.093   0.874  10.418 -0.5318  0.1911 -0.2788
  114OSM    H4S11880   5.119   0.823  10.324  0.3094 -0.8365  0.4816
  114OSM    C5S11881   5.029   0.989  10.412  0.2721 -0.1222  0.1780
  114OSM    H5S11882   4.996   1.034  10.507  1.4644  2.9321 -0.7434
  114OSM    C6S11883   4.992   1.068  10.287 -0.6587  0.7569 -0.8142
  114OSM    H6S11884   5.045   1.166  10.285 -1.3230  1.1137 -1.1379
  114OSM    H6T11885   4.886   1.100  10.278 -0.3268  3.1030  2.1130
  114OSM    C7S11886   5.026   1.002  10.145 -0.4580 -0.5855 -0.3085
  114OSM    H7S11887   4.965   0.909  10.141 -0.7175 -0.3890 -1.2556
  114OSM    H7T11888   5.132   0.969  10.152  0.6377  2.2599 -1.7093
  114OSM    C8S11889   5.009   1.097  10.022  0.0054 -0.2887  0.0721
  114OSM    H8S11890   5.052   1.199  10.024  0.9902 -0.6985  0.1300
  114OSM    H8T11891   4.899   1.113  10.021  0.1112  0.9403  2.2211
  114OSM    C9S11892   5.036   1.039   9.885 -0.1671 -0.1155  0.3370
  114OSM    H9S11893   4.970   0.953   9.861 -2.5385  1.0748  2.0995
  114OSM    H9T11894   5.138   1.004   9.858 -0.8627 -3.0042  1.1716
  114OSM   C10S11895   5.000   1.132   9.770  0.0123 -0.7207  0.8544
  114OSM   H10S11896   5.039   1.235   9.782 -2.1379  0.3292 -0.5621
  114OSM   H10T11897   4.889   1.141   9.761 -0.0372 -1.5807  0.4810
  114OSM   C11S11898   5.054   1.063   9.641 -0.4660 -0.3086  0.0225
  114OSM   H11S11899   5.030   0.955   9.648  0.8694 -0.5338  2.1633
  114OSM   H11T11900   5.164   1.077   9.638 -0.4218 -0.5083  0.6096
  114OSM   C12S11901   5.012   1.123   9.512 -0.4665 -0.3359  0.0456
  114OSM   H12S11902   5.046   1.229   9.510  0.4202 -0.5908  0.7719
  114OSM   H12T11903   4.902   1.116   9.511 -0.4638 -0.3528 -0.7024
  114OSM   C13S11904   5.076   1.058   9.382 -0.4519  0.0592 -0.9392
  114OSM   H13S11905   5.043   0.952   9.373 -0.5209  0.0794 -0.9215
  114OSM   H13T11906   5.184   1.039   9.398 -0.5794  0.7728  1.0269
  114OSM   C14S11907   5.055   1.142   9.254  0.3049  0.0516  0.2833
  114OSM   H14S11908   5.116   1.234   9.266  1.6375 -0.7064 -0.4837
  114OSM   H14T11909   4.950   1.173   9.236  0.5540  0.2482 -0.9222
  114OSM   C15S11910   5.118   1.067   9.133  0.7445  0.3525 -0.0958
  114OSM   H15S11911   5.039   0.997   9.097  0.0550  0.8330  0.4379
  114OSM   H15T11912   5.207   1.012   9.168  0.5440  0.1476  0.0976
  114OSM   C16S11913   5.166   1.154   9.010 -0.1815  0.2533  0.3455
  114OSM   H16S11914   5.249   1.219   9.047  1.0561 -0.7928 -0.4844
  114OSM   H16T11915   5.089   1.233   9.001 -0.2968  0.1952  0.8010
  114OSM   C17S11916   5.203   1.080   8.875  0.0242 -0.2520 -0.5139
  114OSM   H17S11917   5.106   1.040   8.838 -0.8398  1.2383  0.0336
  114OSM   H17T11918   5.273   0.996   8.892 -0.7269 -1.2563 -2.1497
  114OSM   C18S11919   5.276   1.172   8.776  0.2255  0.3148  0.0923
  114OSM   H18S11920   5.356   1.232   8.825  1.3651 -2.5273  1.9718
  114OSM   H18T11921   5.199   1.244   8.740  1.6292  0.9148 -1.9095
  114OSM   H18U11922   5.296   1.118   8.681 -1.6736 -0.6682  0.2103
  114OSM    C1F11923   4.908   0.525  10.431  0.0799 -0.6909 -0.3135
  114OSM     OF11924   4.802   0.539  10.485  0.0620 -0.2104 -0.5551
  114OSM    C2F11925   4.932   0.413  10.327  0.4634 -0.6755 -0.1833
  114OSM    H2F11926   4.909   0.317  10.378  0.2626 -1.3278 -1.4703
  114OSM    H2G11927   5.037   0.420  10.291  0.3323 -1.1527 -0.6711
  114OSM    C3F11928   4.830   0.425  10.204  0.1700 -0.2164 -0.1404
  114OSM    H3F11929   4.860   0.515  10.146  2.0823 -1.0127 -0.4927
  114OSM    H3G11930   4.724   0.437  10.234  0.7335  2.8325  0.9771
  114OSM    C4F11931   4.849   0.297  10.119  0.1205  0.7550 -0.3507
  114OSM    H4F11932   4.822   0.211  10.184 -0.2555  0.1106 -1.3357
  114OSM    H4G11933   4.958   0.287  10.098  0.8017  3.6207  1.1926
  114OSM    C5F11934   4.770   0.301   9.992 -0.4864 -0.0704 -0.1943
  114OSM    H5F11935   4.792   0.385   9.923  1.1443 -0.4405 -0.1628
  114OSM    H5G11936   4.664   0.313  10.022 -0.4607  1.6499 -0.7186
  114OSM    C6F11937   4.803   0.174   9.916  0.4730  0.4840  0.0968
  114OSM    H6F11938   4.792   0.079   9.973  1.5980  1.1710  1.5225
  114OSM    H6G11939   4.912   0.178   9.897  0.8670 -1.5059  1.6352
  114OSM    C7F11940   4.713   0.173   9.790  0.5845  0.4117  0.7242
  114OSM    H7F11941   4.719   0.272   9.739 -0.8414  0.6991  1.0652
  114OSM    H7G11942   4.606   0.170   9.820 -0.0240  0.0431 -1.2982
  114OSM    C8F11943   4.736   0.058   9.693  0.7081 -0.1463 -0.3446
  114OSM    H8F11944   4.705  -0.036   9.744  0.1675  0.2747  0.1212
  114OSM    H8G11945   4.847   0.053   9.689  0.8756  0.6026  1.9652
  114OSM    C9F11946   4.663   0.075   9.562 -0.2872  1.1509 -0.7193
  114OSM    H9F11947   4.555   0.058   9.580 -0.0339  0.5089  0.2693
  114OSM   C10F11948   4.713   0.120   9.450  0.0245 -0.0468 -0.1566
  114OSM   H10F11949   4.654   0.132   9.357 -0.8308 -1.1615  0.2071
  114OSM   C11F11950   4.861   0.164   9.430  0.3488  0.1635 -0.3336
  114OSM   H11F11951   4.913   0.139   9.525 -0.3607  0.3044  0.0957
  114OSM   H11G11952   4.862   0.275   9.425  0.0500  0.4200  2.8973
  114OSM   C12F11953   4.952   0.108   9.311 -0.3449  0.1477 -0.1343
  114OSM   H12F11954   4.945  -0.003   9.323 -0.4206 -0.1294 -2.3644
  114OSM   H12G11955   5.059   0.138   9.320 -0.4743  0.2005  1.4802
  114OSM   C13F11956   4.889   0.133   9.172  0.6660 -0.7018 -0.6849
  114OSM   H13F11957   4.870   0.242   9.166  2.3692 -0.3888 -0.6015
  114OSM   H13G11958   4.790   0.082   9.168  0.2465  0.1171 -1.1183
  114OSM   C14F11959   4.982   0.078   9.063  0.1319 -0.2620 -0.5976
  114OSM   H14F11960   4.991  -0.033   9.063  0.3869 -0.2488  0.4250
  114OSM   H14G11961   5.082   0.117   9.092 -0.8595  0.4685  2.1446
  114OSM   C15F11962   4.958   0.117   8.918 -0.2637 -0.8436 -0.0515
  114OSM   H15F11963   4.985   0.224   8.915  0.3460 -1.0148 -2.2322
  114OSM   H15G11964   4.848   0.098   8.909 -0.5748  0.4184  0.8316
  114OSM   C16F11965   5.042   0.037   8.814 -0.0835  0.2764  0.0510
  114OSM   H16F11966   4.992   0.056   8.717  0.0726  0.4256 -0.0012
  114OSM   H16G11967   5.027  -0.071   8.835  0.9906  0.1437  0.1848
  114OSM   C17F11968   5.187   0.080   8.798 -0.2756  0.0933  0.4693
  114OSM   H17F11969   5.258   0.088   8.883  0.5799 -1.2196 -0.0972
  114OSM   H17G11970   5.178   0.186   8.768  0.6451  1.0454  3.2277
  114OSM   C18F11971   5.262  -0.002   8.692 -0.2169  0.3839 -0.3168
  114OSM   H18F11972   5.204   0.005   8.598 -1.0471  0.1123  0.1721
  114OSM   H18G11973   5.265  -0.109   8.722 -1.5265  0.3890 -0.1494
  114OSM   H18H11974   5.363   0.041   8.670  0.5298 -0.8870  0.4786
  115OSM      N11975   2.346   5.699  11.256 -0.3529  0.3095 -0.2229
  115OSM    C1511976   2.317   5.839  11.288  0.0110 -0.2993  0.7241
  115OSM   H15A11977   2.364   5.904  11.216 -0.4365 -1.0135 -0.2422
  115OSM   H15B11978   2.338   5.868  11.390 -1.0882 -0.5074  1.0149
  115OSM   H15C11979   2.211   5.852  11.273 -0.0346 -2.2428 -1.1990
  115OSM    C1411980   2.482   5.671  11.311 -0.8469  0.0481  0.6438
  115OSM   H14A11981   2.547   5.753  11.285 -0.2091 -0.9648 -1.0525
  115OSM   H14B11982   2.531   5.586  11.268  1.2430  0.7431  1.5357
  115OSM   H14C11983   2.469   5.661  11.418 -0.1601  1.3066  0.8666
  115OSM    C1311984   2.257   5.608  11.334  0.0992  0.2101 -0.1215
  115OSM   H13A11985   2.153   5.636  11.319  0.6469  1.7117 -1.3906
  115OSM   H13B11986   2.271   5.623  11.440 -1.5596 -0.7739  0.2687
  115OSM   H13C11987   2.271   5.507  11.300 -2.3913  0.7141 -3.1326
  115OSM    C1211988   2.329   5.674  11.110 -0.1939 -0.0598 -0.0828
  115OSM   H12A11989   2.411   5.732  11.070  1.4550 -1.5694  0.9104
  115OSM   H12B11990   2.239   5.721  11.074 -1.0444 -2.1743 -0.8930
  115OSM    C1111991   2.323   5.519  11.072 -1.1078 -0.2007  0.0651
  115OSM   H11A11992   2.405   5.469  11.129 -0.6780 -1.8569 -1.8969
  115OSM   H11B11993   2.345   5.502  10.965  1.6062  1.5183  0.2534
  115OSM      P11994   2.080   5.476  11.001  0.0061 -0.5848 -0.4433
  115OSM    O1311995   1.971   5.395  11.057  0.3056 -0.4431  0.0051
  115OSM    O1411996   2.055   5.620  10.974  0.3124  0.0934 -0.0723
  115OSM    O1111997   2.137   5.409  10.870 -0.1020  0.3806 -0.0024
  115OSM    O1211998   2.200   5.464  11.114 -0.1696 -0.1542 -0.1510
  115OSM    C1S11999   2.050   5.378  10.759 -0.1600 -0.9901 -0.4976
  115OSM    H1S12000   1.973   5.458  10.753  0.8480 -0.0563 -1.5682
  115OSM    H1T12001   2.005   5.278  10.776 -3.0153  0.5294  1.7210
  115OSM     NF12002   2.007   5.324  10.527 -0.3877  0.6065  0.2038
  115OSM    HNF12003   2.032   5.237  10.484 -0.6089  0.9462 -0.6168
  115OSM    C2S12004   2.107   5.375  10.618 -0.2969 -0.6541  0.4946
  115OSM    H2S12005   2.133   5.482  10.601 -1.0601 -0.0599  2.7576
  115OSM    C3S12006   2.245   5.295  10.618  0.4268  0.2583  0.0235
  115OSM    H3S12007   2.222   5.186  10.621 -1.4609  0.6174  0.0450
  115OSM     O312008   2.330   5.316  10.732 -0.3493 -0.3332 -0.1831
  115OSM    HO312009   2.275   5.364  10.794  0.2493 -1.5178  1.3364
  115OSM    C4S12010   2.312   5.316  10.484  0.9796 -0.6582 -0.4903
  115OSM    H4S12011   2.266   5.248  10.411  0.0089 -0.5624  0.0104
  115OSM    C5S12012   2.412   5.405  10.440 -0.3149  0.2446 -0.1747
  115OSM    H5S12013   2.471   5.470  10.506  0.2264  0.3739 -0.7695
  115OSM    C6S12014   2.464   5.390  10.296  0.5312  0.3751 -0.0741
  115OSM    H6S12015   2.417   5.306  10.241 -1.2791  0.4038  1.3374
  115OSM    H6T12016   2.574   5.389  10.310  0.7953  3.0758 -1.2481
  115OSM    C7S12017   2.429   5.513  10.210 -0.6332  0.2124  0.5476
  115OSM    H7S12018   2.446   5.609  10.263 -0.8197 -0.1165  1.2185
  115OSM    H7T12019   2.319   5.502  10.207 -0.6350  0.3653 -1.5692
  115OSM    C8S12020   2.486   5.521  10.068  0.0480  0.2263  0.1915
  115OSM    H8S12021   2.596   5.508  10.081 -0.1718 -1.8034  0.4550
  115OSM    H8T12022   2.456   5.615  10.017  0.6305 -0.0428 -0.6786
  115OSM    C9S12023   2.432   5.422   9.970 -0.4055  0.2411  0.4581
  115OSM    H9S12024   2.322   5.418   9.964 -0.2893 -1.5869 -1.5110
  115OSM    H9T12025   2.456   5.319  10.003 -4.0096 -0.4194  1.3799
  115OSM   C10S12026   2.503   5.422   9.831 -1.2396 -0.0068  0.3886
  115OSM   H10S12027   2.477   5.329   9.776 -0.3926  0.0501 -0.1202
  115OSM   H10T12028   2.613   5.411   9.847 -1.0617 -0.8597 -1.2650
  115OSM   C11S12029   2.479   5.550   9.763  0.4179 -0.5721  0.4096
  115OSM   H11S12030   2.546   5.629   9.804 -0.6276  1.7109 -1.9568
  115OSM   H11T12031   2.378   5.590   9.789  1.1494  2.1709 -0.5583
  115OSM   C12S12032   2.503   5.544   9.611  0.3093  0.6155 -0.1839
  115OSM   H12S12033   2.405   5.574   9.568  0.8915  1.3743 -1.0249
  115OSM   H12T12034   2.515   5.438   9.581 -1.0326  0.4204 -0.0895
  115OSM   C13S12035   2.610   5.624   9.541  0.0202 -0.2824 -0.1393
  115OSM   H13S12036   2.702   5.607   9.601  0.3356  1.6577  0.0148
  115OSM   H13T12037   2.580   5.731   9.540 -1.8012 -0.7635 -0.2534
  115OSM   C14S12038   2.635   5.577   9.393  0.4342 -0.1734 -0.3889
  115OSM   H14S12039   2.638   5.466   9.389  1.5116 -0.1889  0.4629
  115OSM   H14T12040   2.731   5.615   9.353  0.6184 -0.2865 -0.0525
  115OSM   C15S12041   2.517   5.612   9.304  1.1385  0.1823 -0.0144
  115OSM   H15S12042   2.493   5.720   9.315  1.7107  0.5438 -1.9993
  115OSM   H15T12043   2.425   5.552   9.322  0.0231  1.7340 -0.3528
  115OSM   C16S12044   2.560   5.590   9.157 -0.6874  0.0591 -0.2180
  115OSM   H16S12045   2.600   5.488   9.142  1.9755  1.3483 -2.9472
  115OSM   H16T12046   2.648   5.655   9.135 -0.0859 -1.0760 -1.2597
  115OSM   C17S12047   2.457   5.617   9.051 -0.1350  0.1323 -0.4676
  115OSM   H17S12048   2.441   5.726   9.058 -1.2492 -0.0840  0.7385
  115OSM   H17T12049   2.359   5.577   9.086 -0.2849 -1.1217 -2.1805
  115OSM   C18S12050   2.502   5.565   8.916 -0.1127  0.0557 -0.3120
  115OSM   H18S12051   2.444   5.620   8.838  1.4716  1.5612 -0.4922
  115OSM   H18T12052   2.471   5.460   8.899 -3.2467  0.5523  1.4093
  115OSM   H18U12053   2.609   5.592   8.902 -0.4695  2.9199  1.5662
  115OSM    C1F12054   1.892   5.384  10.511 -0.6424 -0.0595 -0.1111
  115OSM     OF12055   1.878   5.505  10.528 -0.5474 -0.2111  0.1074
  115OSM    C2F12056   1.776   5.297  10.471 -0.4772  0.4138  0.0327
  115OSM    H2F12057   1.734   5.269  10.570  2.6790  0.4249  1.4939
  115OSM    H2G12058   1.809   5.209  10.413  0.7551  1.5124 -0.9930
  115OSM    C3F12059   1.683   5.368  10.379 -0.5370  0.3820  0.7011
  115OSM    H3F12060   1.729   5.396  10.282 -1.7943  0.3648  0.0716
  115OSM    H3G12061   1.660   5.466  10.426 -2.4018  0.2898  0.0848
  115OSM    C4F12062   1.549   5.300  10.342 -0.2467  0.0072 -0.1864
  115OSM    H4F12063   1.492   5.292  10.437  3.6933  3.0843  2.8099
  115OSM    H4G12064   1.570   5.193  10.321 -0.2687 -0.1811  0.6907
  115OSM    C5F12065   1.477   5.381  10.236 -0.4560 -0.0879 -0.5458
  115OSM    H5F12066   1.499   5.487  10.260  0.1009 -0.2581 -0.2752
  115OSM    H5G12067   1.367   5.369  10.239 -0.8676  3.0681  0.2515
  115OSM    C6F12068   1.519   5.355  10.091 -0.0854  1.0926  0.1116
  115OSM    H6F12069   1.453   5.273  10.055  0.9485  0.9201 -1.4882
  115OSM    H6G12070   1.620   5.309  10.084 -1.0127 -1.0460 -0.1629
  115OSM    C7F12071   1.485   5.472  10.004  0.2754 -0.2149 -1.3039
  115OSM    H7F12072   1.562   5.545  10.037  0.1176 -1.1356  1.3499
  115OSM    H7G12073   1.388   5.504  10.048  0.1301 -2.2620 -0.0358
  115OSM    C8F12074   1.488   5.447   9.856  0.7175  0.0085 -0.0253
  115OSM    H8F12075   1.580   5.394   9.824  0.4555 -0.0394 -0.7055
  115OSM    H8G12076   1.478   5.543   9.802  0.8646  1.1837  1.9286
  115OSM    C9F12077   1.385   5.341   9.807  0.0748  0.4505 -0.2760
  115OSM    H9F12078   1.345   5.279   9.888 -0.3337  0.8504 -0.1692
  115OSM   C10F12079   1.362   5.303   9.681 -0.1815  0.0714  0.4529
  115OSM   H10F12080   1.291   5.225   9.651 -0.4501  0.7530 -0.7456
  115OSM   C11F12081   1.445   5.366   9.567  0.3866 -0.1010  0.4542
  115OSM   H11F12082   1.541   5.409   9.602  1.0329  0.2674 -1.6073
  115OSM   H11G12083   1.390   5.444   9.510  0.3104 -0.6936 -0.2949
  115OSM   C12F12084   1.475   5.259   9.458  0.3486  0.6460 -0.4118
  115OSM   H12F12085   1.378   5.225   9.416  1.1066 -0.3990 -1.3646
  115OSM   H12G12086   1.518   5.171   9.510 -0.0235  0.6706 -0.0608
  115OSM   C13F12087   1.577   5.302   9.350 -0.2508 -0.1661 -0.5739
  115OSM   H13F12088   1.676   5.328   9.392 -0.2663 -2.0875  0.7845
  115OSM   H13G12089   1.535   5.394   9.304  2.2843  1.0541 -0.6487
  115OSM   C14F12090   1.597   5.197   9.239 -0.2591 -0.7517  0.4284
  115OSM   H14F12091   1.494   5.190   9.197 -0.9678 -1.1321  2.1205
  115OSM   H14G12092   1.628   5.100   9.285  0.9239 -0.3884  0.4241
  115OSM   C15F12093   1.705   5.238   9.134  0.3883  0.1940 -0.3657
  115OSM   H15F12094   1.802   5.249   9.187 -1.1674  2.4856  2.2966
  115OSM   H15G12095   1.683   5.335   9.084  0.3430 -0.0490 -0.8172
  115OSM   C16F12096   1.705   5.127   9.029 -0.0476  0.5251 -1.2183
  115OSM   H16F12097   1.763   5.041   9.069  1.1153  0.8658 -2.0995
  115OSM   H16G12098   1.772   5.178   8.956 -0.2917  0.1098 -1.7320
  115OSM   C17F12099   1.574   5.082   8.967 -0.1288 -0.4981 -0.4652
  115OSM   H17F12100   1.500   5.164   8.957 -0.5316 -0.1726  3.6458
  115OSM   H17G12101   1.533   5.006   9.037 -0.5850  0.6485  0.5394
  115OSM   C18F12102   1.594   5.007   8.831  0.5038  0.4860 -0.4044
  115OSM   H18F12103   1.497   4.962   8.802  0.3392  0.0581  0.7629
  115OSM   H18G12104   1.669   4.928   8.857  0.0437  0.7277  1.9253
  115OSM   H18H12105   1.636   5.074   8.754  2.4963  0.7310  0.8124
  116OSM      N12106   3.167   2.691  11.213 -0.0373 -0.2041 -0.4650
  116OSM    C1512107   3.052   2.777  11.175  0.0332 -0.2755 -0.7509
  116OSM   H15A12108   2.985   2.709  11.124  0.0942 -0.3379 -0.7462
  116OSM   H15B12109   3.079   2.847  11.098 -0.9527  1.0118  0.0377
  116OSM   H15C12110   3.003   2.829  11.256  0.6759  3.1418 -2.3992
  116OSM    C1412111   3.255   2.774  11.302 -0.3508 -0.1689  0.1465
  116OSM   H14A12112   3.292   2.863  11.254 -1.2223  0.5549  0.8018
  116OSM   H14B12113   3.340   2.713  11.331  0.1586  0.1520 -0.6406
  116OSM   H14C12114   3.214   2.801  11.398  0.4711  2.4595 -0.1604
  116OSM    C1312115   3.119   2.572  11.286  0.0092 -0.6377 -0.2069
  116OSM   H13A12116   3.112   2.593  11.392 -1.7868 -0.6498 -0.3069
  116OSM   H13B12117   3.184   2.487  11.272 -0.1605 -1.1869  1.9490
  116OSM   H13C12118   3.016   2.547  11.266 -0.8743  2.4552 -0.0285
  116OSM    C1212119   3.228   2.651  11.079 -0.8597 -0.5299 -0.0479
  116OSM   H12A12120   3.271   2.742  11.040 -0.3679 -0.6998  0.0860
  116OSM   H12B12121   3.158   2.625  11.001 -1.0590  2.1396 -0.8540
  116OSM    C1112122   3.338   2.542  11.088 -0.5507 -0.8084 -0.5297
  116OSM   H11A12123   3.403   2.572  11.173 -1.7026 -1.2026  0.5193
  116OSM   H11B12124   3.399   2.541  10.995  1.8622 -0.2758  0.9491
  116OSM      P12125   3.290   2.293  11.024 -0.0005 -0.3503  0.3396
  116OSM    O1312126   3.404   2.209  11.047 -0.7357  0.7460  0.5892
  116OSM    O1412127   3.162   2.225  11.037  0.2561  0.1168 -0.0232
  116OSM    O1112128   3.283   2.354  10.878  0.0351 -0.1818 -0.9792
  116OSM    O1212129   3.285   2.412  11.119 -0.0630 -0.1742  0.4536
  116OSM    C1S12130   3.379   2.304  10.793 -0.2430  0.2495  0.1891
  116OSM    H1S12131   3.378   2.194  10.777 -1.7202  0.2329  0.2112
  116OSM    H1T12132   3.479   2.332  10.832  0.0942  1.4013 -1.3760
  116OSM     NF12133   3.434   2.284  10.560  0.0167 -0.2259 -0.1638
  116OSM    HNF12134   3.533   2.285  10.553  0.0008  2.1644 -1.3271
  116OSM    C2S12135   3.361   2.366  10.652  0.3144 -0.5961  0.2290
  116OSM    H2S12136   3.252   2.371  10.633  0.5009  2.1177 -0.6290
  116OSM    C3S12137   3.403   2.520  10.651  1.6207 -0.1855  0.3784
  116OSM    H3S12138   3.507   2.534  10.688  0.4892  1.0424  3.4753
  116OSM     O312139   3.323   2.596  10.736  0.5360  0.0673 -0.0071
  116OSM    HO312140   3.267   2.533  10.782 -1.1736  1.3925 -0.1637
  116OSM    C4S12141   3.383   2.578  10.509 -0.0627  0.7137 -1.2484
  116OSM    H4S12142   3.283   2.563  10.466 -1.6109 -1.0991  2.5348
  116OSM    C5S12143   3.479   2.647  10.450  0.6076 -0.4250 -0.5091
  116OSM    H5S12144   3.578   2.674  10.490  0.4793  1.8979 -1.6101
  116OSM    C6S12145   3.454   2.696  10.310  0.1382  0.3113 -0.9850
  116OSM    H6S12146   3.345   2.707  10.294  0.1840 -0.2046 -1.6709
  116OSM    H6T12147   3.490   2.620  10.238 -0.1827  1.0166 -1.9027
  116OSM    C7S12148   3.509   2.839  10.292 -0.5289 -0.5777  0.4484
  116OSM    H7S12149   3.620   2.842  10.280 -0.6361 -0.0270 -0.5291
  116OSM    H7T12150   3.477   2.911  10.370 -1.5502 -1.4073  0.8198
  116OSM    C8S12151   3.466   2.897  10.147 -0.6003  0.1164 -1.2034
  116OSM    H8S12152   3.533   2.985  10.157  1.2286 -1.3083 -0.0199
  116OSM    H8T12153   3.358   2.920  10.139 -0.9787 -1.3416 -0.5782
  116OSM    C9S12154   3.520   2.811  10.028  0.0929  0.4763 -0.6026
  116OSM    H9S12155   3.473   2.710  10.019 -0.9808  1.0232 -1.3634
  116OSM    H9T12156   3.628   2.797  10.050 -0.0146 -1.2911 -1.0121
  116OSM   C10S12157   3.495   2.886   9.902  0.0586  0.5892 -0.5445
  116OSM   H10S12158   3.547   2.984   9.907  1.4008 -0.1185 -0.1182
  116OSM   H10T12159   3.387   2.912   9.897 -0.4232 -1.3523 -0.8264
  116OSM   C11S12160   3.539   2.807   9.776 -0.1304 -0.4397 -0.4012
  116OSM   H11S12161   3.512   2.701   9.793  2.3093 -1.0831 -0.3238
  116OSM   H11T12162   3.650   2.809   9.771 -0.1117  2.8115 -1.6717
  116OSM   C12S12163   3.489   2.857   9.646 -0.4353 -0.1116  0.5141
  116OSM   H12S12164   3.523   2.961   9.628  0.3306 -0.6281 -1.3565
  116OSM   H12T12165   3.379   2.844   9.651 -0.4214 -0.9465 -0.8615
  116OSM   C13S12166   3.535   2.780   9.520  0.1787 -0.0529  0.1224
  116OSM   H13S12167   3.507   2.673   9.524 -2.0673  0.2490 -3.1310
  116OSM   H13T12168   3.646   2.782   9.513  0.2980  1.4058  1.7287
  116OSM   C14S12169   3.462   2.826   9.393  0.0781 -0.2730 -0.1768
  116OSM   H14S12170   3.478   2.934   9.373 -0.0904 -0.0229  0.9628
  116OSM   H14T12171   3.352   2.810   9.402  0.1003  0.4708  2.2851
  116OSM   C15S12172   3.498   2.735   9.271 -0.1528 -0.1390 -0.2317
  116OSM   H15S12173   3.476   2.629   9.297 -2.3183  0.4731  0.7048
  116OSM   H15T12174   3.603   2.750   9.241 -0.2170 -1.2167 -1.0467
  116OSM   C16S12175   3.416   2.775   9.150  0.5707  0.2760 -0.1440
  116OSM   H16S12176   3.486   2.847   9.102  0.3936  1.8652  1.8491
  116OSM   H16T12177   3.316   2.820   9.166  1.1171  1.2261  0.6319
  116OSM   C17S12178   3.391   2.664   9.052 -0.3376  0.4867 -0.4982
  116OSM   H17S12179   3.295   2.612   9.074  0.5333 -1.2085 -0.5775
  116OSM   H17T12180   3.462   2.580   9.064  1.0838  1.4963 -1.4952
  116OSM   C18S12181   3.384   2.711   8.903  0.8262  0.3869 -0.2009
  116OSM   H18S12182   3.316   2.648   8.841 -0.2979  0.9834  0.3812
  116OSM   H18T12183   3.486   2.710   8.860  2.3338  0.1068  3.0705
  116OSM   H18U12184   3.339   2.813   8.909  1.6215  0.8287 -1.4371
  116OSM    C1F12185   3.368   2.185  10.505 -0.1736  0.2730 -0.0648
  116OSM     OF12186   3.254   2.161  10.543  0.6200  0.0029  0.0627
  116OSM    C2F12187   3.421   2.116  10.381 -0.3493 -0.1538 -0.1125
  116OSM    H2F12188   3.334   2.070  10.329  0.2089 -2.7306  1.0825
  116OSM    H2G12189   3.498   2.041  10.410 -1.5696 -1.3718  0.0834
  116OSM    C3F12190   3.496   2.210  10.281 -0.1990  0.7269 -0.0424
  116OSM    H3F12191   3.565   2.151  10.216  0.2898  2.4631 -1.1968
  116OSM    H3G12192   3.567   2.284  10.323  1.6486 -1.7827  1.5417
  116OSM    C4F12193   3.401   2.298  10.202  0.1924 -0.1334 -0.3412
  116OSM    H4F12194   3.464   2.370  10.146  0.0022 -1.1678 -1.9290
  116OSM    H4G12195   3.332   2.358  10.266  1.2911 -1.8780  2.6345
  116OSM    C5F12196   3.326   2.224  10.086  0.3670  0.2827 -0.3565
  116OSM    H5F12197   3.249   2.296  10.052 -0.2747  1.3045  2.9747
  116OSM    H5G12198   3.273   2.137  10.130  0.7283  0.9116  1.3958
  116OSM    C6F12199   3.401   2.186   9.962  0.5569 -0.2526 -0.5185
  116OSM    H6F12200   3.355   2.095   9.918 -1.9987  1.8632 -2.4963
  116OSM    H6G12201   3.502   2.152   9.996  0.9423  0.4740 -0.9133
  116OSM    C7F12202   3.416   2.293   9.858  0.3150 -0.0380 -0.6567
  116OSM    H7F12203   3.447   2.391   9.901 -2.5878  0.4999  0.4200
  116OSM    H7G12204   3.320   2.317   9.808 -0.2357  0.0238  0.3876
  116OSM    C8F12205   3.515   2.247   9.751 -0.1088 -0.2590  0.0228
  116OSM    H8F12206   3.590   2.183   9.802  0.4332 -0.2057 -0.6932
  116OSM    H8G12207   3.561   2.338   9.707 -2.1377  0.2112 -1.2803
  116OSM    C9F12208   3.442   2.164   9.645 -0.0418 -0.3420 -0.0697
  116OSM    H9F12209   3.386   2.085   9.697  0.2294 -0.5153 -0.0412
  116OSM   C10F12210   3.440   2.182   9.512 -0.4199 -0.3411  0.1803
  116OSM   H10F12211   3.405   2.103   9.445  2.0120 -1.2327 -0.1197
  116OSM   C11F12212   3.533   2.285   9.458 -0.0615 -0.1818  0.1290
  116OSM   H11F12213   3.638   2.250   9.454 -0.4597 -1.4080  0.1453
  116OSM   H11G12214   3.529   2.380   9.516  0.9296  0.2591 -0.4958
  116OSM   C12F12215   3.493   2.319   9.313 -0.6212 -0.0649 -0.5527
  116OSM   H12F12216   3.528   2.421   9.286  4.2481 -1.5972 -0.8801
  116OSM   H12G12217   3.382   2.323   9.307 -0.6362  1.6031  0.3442
  116OSM   C13F12218   3.530   2.214   9.215  0.5472 -0.5373 -0.2055
  116OSM   H13F12219   3.463   2.126   9.223  0.8058 -0.8477 -1.2988
  116OSM   H13G12220   3.638   2.189   9.229  0.5391  0.2466  1.5213
  116OSM   C14F12221   3.525   2.257   9.065  0.1622  0.3824 -0.4048
  116OSM   H14F12222   3.580   2.352   9.048 -0.6665  0.6297 -1.9179
  116OSM   H14G12223   3.418   2.278   9.043 -0.4995 -0.9169  1.3238
  116OSM   C15F12224   3.565   2.144   8.967 -0.5096  0.0218  0.1009
  116OSM   H15F12225   3.475   2.080   8.964  0.0785 -0.7932 -1.9223
  116OSM   H15G12226   3.651   2.088   9.009 -1.6615 -1.7859  0.1489
  116OSM   C16F12227   3.590   2.206   8.831  0.3319 -0.2600 -0.1060
  116OSM   H16F12228   3.665   2.286   8.848  1.1183 -1.0291  0.1181
  116OSM   H16G12229   3.498   2.262   8.807  1.6642  2.6072  0.9637
  116OSM   C17F12230   3.625   2.107   8.718 -0.2366 -0.5663  0.2453
  116OSM   H17F12231   3.542   2.034   8.728 -2.2964  1.8752  2.2035
  116OSM   H17G12232   3.716   2.046   8.740  0.5542 -0.1219 -1.5516
  116OSM   C18F12233   3.616   2.179   8.581  0.1576 -0.1326 -0.6231
  116OSM   H18F12234   3.633   2.103   8.501 -2.2642  0.2399 -1.5762
  116OSM   H18G12235   3.702   2.250   8.579 -0.6763  0.9731  0.9578
  116OSM   H18H12236   3.516   2.226   8.572 -0.4167 -1.6339 -2.8041
  117OSM      N12237   3.793   3.802  11.022  0.3654 -0.0482  0.7105
  117OSM    C1512238   3.752   3.812  11.165 -0.3384 -0.4530 -0.4414
  117OSM   H15A12239   3.649   3.846  11.161 -1.1768 -2.8327 -0.2849
  117OSM   H15B12240   3.815   3.877  11.224  0.2125 -2.0547  0.7867
  117OSM   H15C12241   3.756   3.717  11.215  2.3421 -0.3515 -0.3330
  117OSM    C1412242   3.926   3.734  11.023  0.0653  0.0849 -0.7987
  117OSM   H14A12243   3.909   3.631  11.051 -0.1617 -0.2973 -2.2538
  117OSM   H14B12244   3.993   3.792  11.085 -2.7774  1.3748  1.3235
  117OSM   H14C12245   3.965   3.721  10.923  0.2369 -0.0438 -0.7147
  117OSM    C1312246   3.693   3.727  10.936 -0.0245 -0.2517 -0.4753
  117OSM   H13A12247   3.603   3.783  10.914 -0.4252 -1.2546 -1.4986
  117OSM   H13B12248   3.667   3.633  10.983 -0.1189 -0.9667 -1.9128
  117OSM   H13C12249   3.736   3.694  10.843 -0.7631 -0.8574 -0.6223
  117OSM    C1212250   3.808   3.944  10.971  0.0979  0.4957  0.3456
  117OSM   H12A12251   3.715   3.970  10.923 -0.0045  1.8232  1.2082
  117OSM   H12B12252   3.879   3.946  10.890  3.3139  0.9330  2.9803
  117OSM    C1112253   3.868   4.054  11.057 -0.4828  0.3071 -1.2447
  117OSM   H11A12254   3.820   4.063  11.157  1.1343  1.2151 -0.5117
  117OSM   H11B12255   3.854   4.154  11.011 -1.4023  1.1080  0.6348
  117OSM      P12256   4.113   4.078  10.990 -0.3665  0.1264  0.0580
  117OSM    O1312257   4.186   4.185  11.058 -0.6932  0.6235  0.3713
  117OSM    O1412258   4.187   3.958  10.943  0.1230 -0.3108  0.1580
  117OSM    O1112259   4.041   4.140  10.866  0.2186 -0.2322 -0.7949
  117OSM    O1212260   4.006   4.024  11.086  0.2997  0.0497 -0.2489
  117OSM    C1S12261   4.108   4.134  10.744  0.1267 -0.6554  0.4368
  117OSM    H1S12262   4.110   4.025  10.725 -1.7623 -0.8126  0.9537
  117OSM    H1T12263   4.214   4.170  10.744 -0.5123  1.3713  1.0148
  117OSM     NF12264   4.124   4.204  10.503  0.2290  0.4762  0.4770
  117OSM    HNF12265   4.194   4.274  10.491 -1.7558  2.5212  0.2435
  117OSM    C2S12266   4.037   4.211  10.631 -0.4781 -0.6703  0.8201
  117OSM    H2S12267   3.937   4.168  10.610  0.3929 -1.9894 -0.9953
  117OSM    C3S12268   4.020   4.357  10.691  0.1668 -1.0248  0.0997
  117OSM    H3S12269   4.126   4.377  10.718  0.3903 -0.6669 -1.0058
  117OSM     O312270   3.938   4.374  10.809 -0.0684 -0.1773  0.0081
  117OSM    HO312271   3.933   4.283  10.841 -1.1547  0.6576  2.4371
  117OSM    C4S12272   3.977   4.457  10.589 -0.0858  0.3366  0.7994
  117OSM    H4S12273   4.051   4.493  10.516 -1.7094  0.4559 -0.8670
  117OSM    C5S12274   3.848   4.491  10.556 -0.0735 -0.5375  0.2931
  117OSM    H5S12275   3.771   4.432  10.607  0.4114 -0.1797  1.4816
  117OSM    C6S12276   3.781   4.576  10.454  0.0603 -0.3548  0.7579
  117OSM    H6S12277   3.746   4.669  10.504 -2.1707 -1.0551  0.5969
  117OSM    H6T12278   3.699   4.520  10.406  0.3288 -0.2826  0.2092
  117OSM    C7S12279   3.862   4.638  10.344 -0.0339 -0.4922 -0.5050
  117OSM    H7S12280   3.935   4.560  10.315 -0.4643 -0.0910 -2.8636
  117OSM    H7T12281   3.916   4.725  10.387 -2.9599  1.5446 -0.6422
  117OSM    C8S12282   3.785   4.691  10.229  0.0796  0.0146 -0.6853
  117OSM    H8S12283   3.711   4.763  10.271  1.6734  1.6571 -0.5984
  117OSM    H8T12284   3.717   4.614  10.186  0.7773 -1.0653  0.1024
  117OSM    C9S12285   3.867   4.756  10.122 -0.0266 -0.4651  0.5209
  117OSM    H9S12286   3.940   4.830  10.164  1.6220 -1.1926 -0.9087
  117OSM    H9T12287   3.795   4.808  10.055  1.7873 -0.4046 -1.5383
  117OSM   C10S12288   3.935   4.662  10.020  0.2182 -1.0096 -0.1128
  117OSM   H10S12289   3.860   4.586   9.990  0.0396 -0.4040 -1.2740
  117OSM   H10T12290   4.017   4.602  10.066  2.7877  0.9587 -1.8457
  117OSM   C11S12291   3.990   4.737   9.894 -0.5014  0.1796  0.2676
  117OSM   H11S12292   4.069   4.809   9.926  0.8256 -2.1982  2.7691
  117OSM   H11T12293   3.912   4.798   9.842 -0.2739  0.9544  0.8175
  117OSM   C12S12294   4.026   4.658   9.770  0.1832  0.3275 -0.1149
  117OSM   H12S12295   3.945   4.586   9.744 -0.8206  1.5753 -0.5236
  117OSM   H12T12296   4.118   4.595   9.770  0.6179  0.9583  0.4579
  117OSM   C13S12297   4.046   4.756   9.658  0.0735  0.1723 -0.1896
  117OSM   H13S12298   4.145   4.803   9.677 -0.0548 -0.4416  2.2000
  117OSM   H13T12299   3.976   4.843   9.663 -1.9065 -1.3824  0.2245
  117OSM   C14S12300   4.026   4.691   9.517 -0.4894 -0.0236  0.1416
  117OSM   H14S12301   4.025   4.770   9.439 -1.0585  0.8347  0.9985
  117OSM   H14T12302   3.922   4.653   9.526 -0.6864  0.7130  1.1985
  117OSM   C15S12303   4.129   4.591   9.482 -0.3092  0.0020  0.4439
  117OSM   H15S12304   4.111   4.541   9.384  0.4433 -2.2764  1.4009
  117OSM   H15T12305   4.141   4.509   9.556 -3.2917 -2.3722 -1.4631
  117OSM   C16S12306   4.271   4.645   9.472 -0.4206 -0.1624 -0.1012
  117OSM   H16S12307   4.306   4.672   9.574  1.2284  0.5094 -0.8115
  117OSM   H16T12308   4.277   4.734   9.406 -0.7521  0.9225  1.2785
  117OSM   C17S12309   4.372   4.545   9.413  0.0222  0.0557 -0.2187
  117OSM   H17S12310   4.472   4.587   9.391  0.4799 -0.6474  0.5053
  117OSM   H17T12311   4.340   4.510   9.312 -0.8661  1.0451 -0.2965
  117OSM   C18S12312   4.389   4.430   9.519 -0.7060 -0.2324  0.5044
  117OSM   H18S12313   4.297   4.368   9.521  0.5637 -2.2015  0.8314
  117OSM   H18T12314   4.421   4.464   9.619 -0.1269  0.4616  0.0931
  117OSM   H18U12315   4.470   4.365   9.478 -1.4192 -1.4811  1.0030
  117OSM    C1F12316   4.122   4.094  10.430  0.2208 -0.5546  0.1191
  117OSM     OF12317   4.036   4.011  10.453 -0.2371 -0.1849 -0.3856
  117OSM    C2F12318   4.235   4.056  10.335  0.0358 -0.1682  0.1274
  117OSM    H2F12319   4.330   4.052  10.393  1.4178  3.7679 -1.5446
  117OSM    H2G12320   4.247   4.143  10.268  0.9186 -0.5658 -0.2520
  117OSM    C3F12321   4.220   3.918  10.258  0.3052  0.2136 -0.5452
  117OSM    H3F12322   4.128   3.919  10.196  0.1890  3.1260 -0.4912
  117OSM    H3G12323   4.201   3.835  10.329  0.1959 -1.2155 -2.1901
  117OSM    C4F12324   4.344   3.880  10.167 -0.4851  0.8116  0.1399
  117OSM    H4F12325   4.391   3.783  10.196 -0.5640  0.8452  0.3852
  117OSM    H4G12326   4.431   3.949  10.171  1.9770 -2.0761  0.0776
  117OSM    C5F12327   4.288   3.855  10.027  0.5635  0.3045  0.1522
  117OSM    H5F12328   4.242   3.944   9.979  0.5971 -0.3745 -1.1531
  117OSM    H5G12329   4.207   3.780  10.040  0.4626  0.0951 -1.5781
  117OSM    C6F12330   4.408   3.798   9.939 -0.3464 -0.1181 -0.5193
  117OSM    H6F12331   4.441   3.699   9.977 -0.4417  0.4590  1.1394
  117OSM    H6G12332   4.483   3.881   9.944 -1.9287  1.3845 -0.7819
  117OSM    C7F12333   4.358   3.788   9.793 -0.4645  0.3831  0.1484
  117OSM    H7F12334   4.277   3.711   9.792 -0.0859 -0.0321  0.9166
  117OSM    H7G12335   4.443   3.738   9.742  0.8666  0.4220  2.2168
  117OSM    C8F12336   4.307   3.913   9.728 -0.2489 -0.3467  0.3100
  117OSM    H8F12337   4.224   3.968   9.776  0.7466  1.4677  0.0325
  117OSM    H8G12338   4.276   3.889   9.623  0.8830 -1.1813  0.1390
  117OSM    C9F12339   4.417   4.014   9.712 -0.1438  0.0313 -0.7179
  117OSM    H9F12340   4.408   4.096   9.785 -0.3763  0.2960 -1.0388
  117OSM   C10F12341   4.527   4.000   9.631 -0.0201 -0.2699 -0.1806
  117OSM   H10F12342   4.606   4.077   9.628  1.3524 -1.6504 -0.5246
  117OSM   C11F12343   4.545   3.884   9.534  0.1909 -0.2106 -0.3488
  117OSM   H11F12344   4.455   3.820   9.531  0.4042 -0.8639  3.1425
  117OSM   H11G12345   4.615   3.808   9.574  0.1750 -1.3923 -2.4210
  117OSM   C12F12346   4.589   3.938   9.399 -0.5922 -0.5941  0.2784
  117OSM   H12F12347   4.549   3.864   9.327  2.1121 -0.0073 -1.9816
  117OSM   H12G12348   4.699   3.944   9.389 -0.6688 -0.0850 -0.2903
  117OSM   C13F12349   4.515   4.061   9.354  0.2123  0.2931  0.0308
  117OSM   H13F12350   4.562   4.156   9.386 -1.2812  1.6587 -1.6292
  117OSM   H13G12351   4.407   4.046   9.378  0.3562 -2.8358 -0.8318
  117OSM   C14F12352   4.516   4.061   9.198 -0.5928  0.2770  0.4943
  117OSM   H14F12353   4.453   3.973   9.171  0.2790 -0.5263  1.0259
  117OSM   H14G12354   4.621   4.037   9.170 -0.2641 -0.6343  2.3977
  117OSM   C15F12355   4.469   4.203   9.148  0.9245 -0.0875 -0.0694
  117OSM   H15F12356   4.484   4.196   9.038 -0.5421  0.6895 -0.3509
  117OSM   H15G12357   4.534   4.278   9.198  2.2869 -1.9025  0.9958
  117OSM   C16F12358   4.320   4.231   9.177 -0.1869 -0.3022 -0.3841
  117OSM   H16F12359   4.296   4.333   9.139  0.2513 -0.5626 -1.3681
  117OSM   H16G12360   4.306   4.222   9.287 -1.6907 -0.0261 -0.5419
  117OSM   C17F12361   4.221   4.139   9.113 -0.1466  0.7537  0.1379
  117OSM   H17F12362   4.119   4.177   9.132 -0.6277 -0.9325  1.0726
  117OSM   H17G12363   4.226   4.038   9.158 -0.0243 -0.8062 -3.0481
  117OSM   C18F12364   4.230   4.117   8.960  0.0312 -0.5118  0.0020
  117OSM   H18F12365   4.318   4.051   8.944 -0.8007 -1.3460 -1.3017
  117OSM   H18G12366   4.237   4.209   8.898 -1.5551  1.6097  2.7169
  117OSM   H18H12367   4.134   4.068   8.931  0.5690 -2.5640  1.4210
  118OSM      N12368   3.749   4.851  11.265  1.0528  0.2708  0.5530
  118OSM    C1512369   3.801   4.929  11.384 -0.2279 -0.8955  0.3947
  118OSM   H15A12370   3.735   4.910  11.468  0.0198  0.2126  0.8561
  118OSM   H15B12371   3.793   5.034  11.359 -1.6062 -0.1988  3.2990
  118OSM   H15C12372   3.902   4.904  11.412 -0.3599  0.4446  2.2500
  118OSM    C1412373   3.842   4.875  11.147  0.1995  0.6568 -0.2442
  118OSM   H14A12374   3.863   4.980  11.136  1.7662  0.5583  1.2987
  118OSM   H14B12375   3.807   4.832  11.055  1.4697 -2.6339  0.6775
  118OSM   H14C12376   3.942   4.844  11.174  0.6388  1.1492 -1.2362
  118OSM    C1312377   3.749   4.710  11.306 -0.6941 -0.1478 -0.2855
  118OSM   H13A12378   3.851   4.682  11.326 -0.8758 -0.1803  0.6106
  118OSM   H13B12379   3.713   4.651  11.223  1.3172 -0.2024 -1.1701
  118OSM   H13C12380   3.690   4.692  11.395 -0.0395  2.0258  0.6696
  118OSM    C1212381   3.605   4.897  11.229 -0.0891  0.1783 -0.3687
  118OSM   H12A12382   3.603   5.005  11.216  2.7651  0.7865  2.8084
  118OSM   H12B12383   3.537   4.880  11.311 -0.8236  2.3984 -0.4460
  118OSM    C1112384   3.530   4.827  11.108 -0.2111 -0.3672 -0.4780
  118OSM   H11A12385   3.597   4.841  11.021  2.6937  1.9378  1.8840
  118OSM   H11B12386   3.440   4.889  11.088  1.6181  3.0346  0.9941
  118OSM      P12387   3.357   4.652  11.204 -0.0731  0.3191  0.1177
  118OSM    O1312388   3.390   4.573  11.326 -0.3208  0.0872  0.1035
  118OSM    O1412389   3.269   4.773  11.207  0.1298  0.3875  0.0522
  118OSM    O1112390   3.293   4.544  11.096 -0.3564 -0.3086  0.4042
  118OSM    O1212391   3.493   4.688  11.135  0.1755  0.1004 -0.0448
  118OSM    C1S12392   3.217   4.593  10.981  0.0420 -0.5430  0.2810
  118OSM    H1S12393   3.180   4.697  10.997 -0.0898 -0.2764 -1.6008
  118OSM    H1T12394   3.131   4.524  10.971 -0.0944 -0.1999 -1.0284
  118OSM     NF12395   3.211   4.645  10.744 -0.2667 -0.5201  0.0262
  118OSM    HNF12396   3.163   4.584  10.681  0.3770 -1.0186  0.0086
  118OSM    C2S12397   3.288   4.581  10.848  0.2963 -1.5459  0.3842
  118OSM    H2S12398   3.392   4.622  10.846 -0.0240 -0.6253 -2.8577
  118OSM    C3S12399   3.299   4.431  10.812 -0.3663  0.7737  0.5592
  118OSM    H3S12400   3.203   4.376  10.806  0.1138  0.0105 -0.3781
  118OSM     O312401   3.372   4.355  10.915  0.8518 -0.2547  0.2175
  118OSM    HO312402   3.383   4.417  10.988  1.8941  1.5661 -1.3823
  118OSM    C4S12403   3.370   4.412  10.678 -0.2190 -0.2726 -0.1146
  118OSM    H4S12404   3.473   4.451  10.669  0.1444 -1.5575 -2.0200
  118OSM    C5S12405   3.316   4.363  10.565  0.2854 -0.6171 -0.4297
  118OSM    H5S12406   3.207   4.348  10.556 -0.0882  0.7421  1.3135
  118OSM    C6S12407   3.393   4.368  10.429  0.2202  0.1084 -0.3798
  118OSM    H6S12408   3.380   4.268  10.381 -2.8566 -0.3518  1.1618
  118OSM    H6T12409   3.502   4.389  10.430  0.0919  1.1115 -2.2698
  118OSM    C7S12410   3.334   4.476  10.335 -0.5280  0.3791 -0.4888
  118OSM    H7S12411   3.356   4.566  10.395 -1.6774  0.5426 -0.2866
  118OSM    H7T12412   3.223   4.468  10.329 -0.3650 -1.7980 -1.7344
  118OSM    C8S12413   3.414   4.487  10.201  0.0787 -0.1454 -0.1399
  118OSM    H8S12414   3.519   4.507  10.230  0.7595 -0.0930 -2.4602
  118OSM    H8T12415   3.387   4.577  10.142  1.6173  0.6779  0.3551
  118OSM    C9S12416   3.412   4.360  10.113 -0.6236  0.2476  0.2458
  118OSM    H9S12417   3.318   4.301  10.123 -0.7415  0.7520  3.0385
  118OSM    H9T12418   3.488   4.288  10.150 -0.8049 -0.0086  0.1249
  118OSM   C10S12419   3.435   4.388   9.959  0.2906 -0.0865 -0.3339
  118OSM   H10S12420   3.349   4.434   9.907 -1.1082 -0.9561  1.1271
  118OSM   H10T12421   3.450   4.287   9.913 -1.6424 -0.8584  0.6080
  118OSM   C11S12422   3.565   4.472   9.947  1.0188  0.5927  0.4377
  118OSM   H11S12423   3.649   4.421   9.999  0.2106  1.4738  2.7139
  118OSM   H11T12424   3.560   4.572   9.994 -0.6597  0.6441  0.2108
  118OSM   C12S12425   3.593   4.507   9.803 -0.5149 -0.2861 -0.4204
  118OSM   H12S12426   3.666   4.591   9.805  1.1686 -1.6496 -1.3564
  118OSM   H12T12427   3.498   4.540   9.756  0.4224  2.5839 -0.4585
  118OSM   C13S12428   3.658   4.401   9.718 -0.2696  0.1057 -0.3843
  118OSM   H13S12429   3.587   4.316   9.724 -0.8986  0.4742 -2.1868
  118OSM   H13T12430   3.758   4.370   9.758  0.3088  2.4313  0.1023
  118OSM   C14S12431   3.673   4.446   9.567  0.7756 -0.4475 -0.0853
  118OSM   H14S12432   3.680   4.557   9.572  1.7966 -0.4804 -0.5358
  118OSM   H14T12433   3.578   4.424   9.512  0.0865  1.6069  0.1962
  118OSM   C15S12434   3.800   4.389   9.506 -0.2881  0.5709  0.3449
  118OSM   H15S12435   3.807   4.278   9.500 -0.1322  0.5318  1.2184
  118OSM   H15T12436   3.883   4.427   9.569 -0.4033 -1.3846  1.7588
  118OSM   C16S12437   3.816   4.455   9.364 -0.6796  0.6067 -0.1483
  118OSM   H16S12438   3.922   4.440   9.332  0.4050  2.2526  2.3368
  118OSM   H16T12439   3.791   4.563   9.370 -1.1833  0.4336  1.4089
  118OSM   C17S12440   3.728   4.381   9.256  0.2846 -0.6217 -0.7340
  118OSM   H17S12441   3.713   4.454   9.174 -0.8624  0.9766  0.8097
  118OSM   H17T12442   3.634   4.355   9.308  0.1731 -1.5462 -1.3761
  118OSM   C18S12443   3.780   4.252   9.207  0.0303  0.0659 -0.4116
  118OSM   H18S12444   3.875   4.269   9.153  0.7221 -0.8201  0.4824
  118OSM   H18T12445   3.708   4.194   9.146 -1.2357  1.6180 -0.4650
  118OSM   H18U12446   3.810   4.195   9.298 -1.3486  1.1806  0.8000
  118OSM    C1F12447   3.197   4.775  10.735 -0.1332 -0.2936 -0.6703
  118OSM     OF12448   3.287   4.852  10.779  0.4092  0.4406 -0.6464
  118OSM    C2F12449   3.065   4.833  10.684 -0.2016 -0.1947  0.3683
  118OSM    H2F12450   3.023   4.901  10.761  0.5768  1.0152 -0.2405
  118OSM    H2G12451   2.981   4.763  10.663  0.4235 -0.9815  0.4644
  118OSM    C3F12452   3.085   4.909  10.548  1.0637 -0.7234 -0.0039
  118OSM    H3F12453   3.159   4.991  10.562  0.4025  0.0663 -1.0142
  118OSM    H3G12454   2.984   4.949  10.529 -0.0470 -2.6064  1.5330
  118OSM    C4F12455   3.134   4.817  10.427  0.2519 -0.1821 -0.2868
  118OSM    H4F12456   3.087   4.717  10.423  3.7129 -1.9624 -3.6863
  118OSM    H4G12457   3.239   4.781  10.437  0.3786  0.2671  0.0932
  118OSM    C5F12458   3.101   4.880  10.291 -0.1933 -0.1309 -0.0351
  118OSM    H5F12459   3.151   4.978  10.301 -0.9756  0.4002 -1.0746
  118OSM    H5G12460   2.997   4.915  10.275 -0.4236 -0.5707  0.4470
  118OSM    C6F12461   3.150   4.802  10.169 -0.6674  1.0427 -0.1558
  118OSM    H6F12462   3.141   4.694  10.194 -0.3104  0.6059 -1.7903
  118OSM    H6G12463   3.257   4.812  10.144 -0.4031 -1.2393 -0.0875
  118OSM    C7F12464   3.074   4.825  10.040  0.6063 -0.0175  0.7968
  118OSM    H7F12465   3.110   4.921   9.997  0.2435  0.0434  0.6299
  118OSM    H7G12466   2.970   4.842  10.076  0.9499  1.1339  1.3138
  118OSM    C8F12467   3.084   4.713   9.931  0.1392  0.0944 -1.5069
  118OSM    H8F12468   3.005   4.729   9.854  0.5359 -0.1142 -1.9631
  118OSM    H8G12469   3.063   4.623   9.993  0.2920  1.4817  0.6729
  118OSM    C9F12470   3.228   4.721   9.877 -0.1843 -0.6740 -0.3047
  118OSM    H9F12471   3.304   4.692   9.951  0.5334  1.3753 -0.1621
  118OSM   C10F12472   3.264   4.739   9.751 -0.0535  0.0822  0.2949
  118OSM   H10F12473   3.373   4.737   9.733 -0.1892 -1.7185 -0.6462
  118OSM   C11F12474   3.185   4.768   9.626 -0.4758 -0.6787  0.5221
  118OSM   H11F12475   3.157   4.875   9.641  1.9728  0.0840 -0.0327
  118OSM   H11G12476   3.091   4.709   9.629  0.8530 -2.8598  0.6642
  118OSM   C12F12477   3.259   4.730   9.495  0.0166  0.3436 -0.8491
  118OSM   H12F12478   3.349   4.795   9.479  1.1077 -0.4613  1.5446
  118OSM   H12G12479   3.183   4.749   9.416 -2.2489  1.4118  1.4496
  118OSM   C13F12480   3.289   4.583   9.470 -0.6012 -0.1943  1.0390
  118OSM   H13F12481   3.201   4.518   9.480  0.1273 -1.3559  0.1711
  118OSM   H13G12482   3.359   4.544   9.547 -0.8110 -2.2440  0.2532
  118OSM   C14F12483   3.346   4.551   9.324  0.2527 -0.2043 -0.3549
  118OSM   H14F12484   3.378   4.445   9.329  0.2133 -0.2263 -0.5635
  118OSM   H14G12485   3.435   4.616   9.309 -0.7858  1.7227  1.3374
  118OSM   C15F12486   3.242   4.573   9.220  0.4045  0.1418 -0.2082
  118OSM   H15F12487   3.207   4.678   9.215  0.6005  0.3586  1.9705
  118OSM   H15G12488   3.149   4.516   9.240  1.8100 -1.3026  2.7648
  118OSM   C16F12489   3.284   4.530   9.077  0.1841 -0.7182  0.2636
  118OSM   H16F12490   3.198   4.539   9.007  1.3345 -2.8479 -1.5470
  118OSM   H16G12491   3.317   4.424   9.088  1.3075 -0.3825  0.2687
  118OSM   C17F12492   3.403   4.608   9.017  0.1452  0.9588  0.7427
  118OSM   H17F12493   3.483   4.605   9.094 -1.4103 -0.3582  2.3912
  118OSM   H17G12494   3.375   4.715   9.005 -0.5207  0.9611  2.0777
  118OSM   C18F12495   3.459   4.557   8.883 -0.7549 -0.6007  0.0640
  118OSM   H18F12496   3.529   4.635   8.845 -2.5899  0.6656 -0.8941
  118OSM   H18G12497   3.376   4.542   8.811 -1.0799  1.1408  0.0147
  118OSM   H18H12498   3.507   4.457   8.884  0.7299  0.0495  2.4087
  119OSM      N12499   3.702   5.702  10.990  0.3989  0.2799 -0.4851
  119OSM    C1512500   3.662   5.842  11.033  0.9794 -0.7174 -0.2783
  119OSM   H15A12501   3.734   5.907  10.986  0.0728 -0.4017 -1.2684
  119OSM   H15B12502   3.672   5.856  11.140  1.2557 -3.4335  0.1210
  119OSM   H15C12503   3.564   5.880  11.009  1.8346  2.8895  1.3106
  119OSM    C1412504   3.682   5.693  10.846  0.7055  0.2928  0.5750
  119OSM   H14A12505   3.577   5.687  10.823  0.6314 -1.5092  1.2362
  119OSM   H14B12506   3.721   5.600  10.808  0.8145 -0.5176  2.5076
  119OSM   H14C12507   3.733   5.772  10.794  1.9856  0.4592  1.9897
  119OSM    C1312508   3.855   5.701  11.008  0.4298 -0.0686  0.0968
  119OSM   H13A12509   3.910   5.781  10.961  0.4799 -1.8263 -3.1278
  119OSM   H13B12510   3.885   5.606  10.965 -0.2628 -0.2222 -0.0589
  119OSM   H13C12511   3.878   5.701  11.113 -0.0077  2.2281  0.2392
  119OSM    C1212512   3.638   5.593  11.074 -0.0105  0.2368 -0.0304
  119OSM   H12A12513   3.530   5.598  11.075 -0.0779 -0.6622 -1.0963
  119OSM   H12B12514   3.668   5.602  11.177 -2.9088 -0.1881  0.9381
  119OSM    C1112515   3.652   5.444  11.032  0.0142 -0.4389 -0.1833
  119OSM   H11A12516   3.745   5.406  11.079  1.2147  1.4913 -0.8898
  119OSM   H11B12517   3.652   5.431  10.922 -1.5818 -3.8497  0.0927
  119OSM      P12518   3.511   5.241  11.125 -0.0319 -0.1696  0.2229
  119OSM    O1312519   3.623   5.198  11.210 -0.7397 -0.3207 -0.3026
  119OSM    O1412520   3.380   5.226  11.194  0.2879  0.3708 -0.0297
  119OSM    O1112521   3.519   5.165  10.994 -0.0701  0.4943 -0.3052
  119OSM    O1212522   3.534   5.393  11.097 -0.4806  0.4716  0.1443
  119OSM    C1S12523   3.636   5.134  10.912  0.0515 -0.7386 -0.8663
  119OSM    H1S12524   3.710   5.074  10.970  0.3212 -0.8804 -1.3575
  119OSM    H1T12525   3.687   5.228  10.884 -2.6917  1.4790  0.9634
  119OSM     NF12526   3.715   5.021  10.702  0.2634 -0.3196  0.0041
  119OSM    HNF12527   3.729   5.066  10.614 -1.6096  1.0980  0.3718
  119OSM    C2S12528   3.601   5.069  10.777  0.5637  0.4660  0.8479
  119OSM    H2S12529   3.544   4.977  10.802  0.7708  0.2285  0.4597
  119OSM    C3S12530   3.505   5.161  10.693 -0.6391  0.5950 -0.0595
  119OSM    H3S12531   3.560   5.250  10.656 -1.4164  2.1646  2.3857
  119OSM     O312532   3.392   5.211  10.755 -0.4717  0.2816 -0.3057
  119OSM    HO312533   3.401   5.192  10.848 -0.7918  1.4737 -0.0267
  119OSM    C4S12534   3.458   5.095  10.566 -0.1055 -0.4268 -0.1546
  119OSM    H4S12535   3.402   5.002  10.582 -0.7724 -0.4523 -2.3115
  119OSM    C5S12536   3.492   5.133  10.443  0.0873 -0.9657  0.2778
  119OSM    H5S12537   3.520   5.238  10.429 -0.6171 -0.5906  1.4543
  119OSM    C6S12538   3.450   5.069  10.314  0.2397 -0.4141 -0.0621
  119OSM    H6S12539   3.348   5.101  10.285 -1.3782 -2.9395  2.2881
  119OSM    H6T12540   3.438   4.960  10.329 -2.7872 -0.0525  0.8693
  119OSM    C7S12541   3.551   5.089  10.209 -0.0861  0.3559  0.5039
  119OSM    H7S12542   3.643   5.035  10.240  0.5556  1.6819  1.0241
  119OSM    H7T12543   3.572   5.194  10.180 -2.2278  1.2198  1.8252
  119OSM    C8S12544   3.518   5.018  10.077  0.3062 -0.9332  0.2359
  119OSM    H8S12545   3.420   5.054  10.040  0.9498 -1.3332 -1.9859
  119OSM    H8T12546   3.526   4.908  10.089  0.4772 -0.9774 -0.2600
  119OSM    C9S12547   3.623   5.044   9.963  0.3000  0.6149 -0.2299
  119OSM    H9S12548   3.722   5.004   9.996 -0.6558 -2.6673 -0.9697
  119OSM    H9T12549   3.618   5.152   9.937  0.2626 -0.0970 -3.6729
  119OSM   C10S12550   3.579   4.955   9.843 -0.6055 -0.0821  0.2526
  119OSM   H10S12551   3.479   4.993   9.814 -0.6521  0.1628  0.7300
  119OSM   H10T12552   3.569   4.846   9.861 -1.2567 -0.6483 -2.9152
  119OSM   C11S12553   3.668   4.976   9.721 -0.4449 -0.8043  0.4129
  119OSM   H11S12554   3.776   4.953   9.733 -0.2413  0.6873  1.9160
  119OSM   H11T12555   3.660   5.083   9.691 -0.4670 -1.3471 -1.6233
  119OSM   C12S12556   3.622   4.913   9.584  0.1357  0.4771  0.0656
  119OSM   H12S12557   3.511   4.915   9.584  0.1305  0.2354  0.2893
  119OSM   H12T12558   3.658   4.808   9.590  2.9175  1.4080  1.6347
  119OSM   C13S12559   3.684   4.969   9.450 -0.1717 -0.1739  0.0955
  119OSM   H13S12560   3.793   4.967   9.473 -0.3344 -3.4685  1.0480
  119OSM   H13T12561   3.640   5.069   9.433  1.9134  0.8501  0.3613
  119OSM   C14S12562   3.652   4.882   9.328  0.3154  0.4539 -0.4061
  119OSM   H14S12563   3.541   4.874   9.322  0.2094 -1.0532  2.1312
  119OSM   H14T12564   3.688   4.777   9.331 -0.5182  0.1207 -1.5144
  119OSM   C15S12565   3.715   4.956   9.212 -0.0438 -0.9805  0.3461
  119OSM   H15S12566   3.826   4.964   9.217 -0.1630  0.6811  0.9169
  119OSM   H15T12567   3.673   5.059   9.216 -1.4142 -1.5361  0.7932
  119OSM   C16S12568   3.679   4.898   9.077 -0.3157 -0.3030 -0.4472
  119OSM   H16S12569   3.569   4.896   9.063 -0.4239 -1.3729  0.4353
  119OSM   H16T12570   3.722   4.796   9.068  1.4205  0.4067 -0.5176
  119OSM   C17S12571   3.745   4.966   8.962  0.7545  0.0923 -0.2999
  119OSM   H17S12572   3.855   4.953   8.970  0.4489 -1.9516  1.7141
  119OSM   H17T12573   3.714   5.073   8.961 -1.4062 -0.4066 -3.2963
  119OSM   C18S12574   3.688   4.904   8.828  0.0332  0.3924 -0.1941
  119OSM   H18S12575   3.715   4.796   8.826  0.6115  0.4561  1.6811
  119OSM   H18T12576   3.726   4.963   8.742  1.9826  0.2308  0.4915
  119OSM   H18U12577   3.578   4.910   8.842  0.1373 -0.5360  1.2043
  119OSM    C1F12578   3.806   4.929  10.755  0.4096  0.0561 -0.5281
  119OSM     OF12579   3.775   4.866  10.855  0.0342  0.1974  0.4211
  119OSM    C2F12580   3.935   4.911  10.681 -0.6974  0.1452 -0.1170
  119OSM    H2F12581   3.986   5.009  10.670 -1.5624  0.6665  0.3795
  119OSM    H2G12582   3.921   4.873  10.578  1.8516 -0.2093 -0.3856
  119OSM    C3F12583   4.042   4.826  10.760 -0.1841 -0.3006  0.3159
  119OSM    H3F12584   4.012   4.719  10.759  0.4347 -0.4817  0.8988
  119OSM    H3G12585   4.050   4.855  10.867 -0.6569 -2.8343  1.1142
  119OSM    C4F12586   4.191   4.831  10.698  0.5672 -0.0614  0.1489
  119OSM    H4F12587   4.258   4.785  10.773 -0.8807 -0.9666  0.9186
  119OSM    H4G12588   4.210   4.941  10.701 -1.3464  0.2744  1.6100
  119OSM    C5F12589   4.193   4.788  10.548 -0.0697 -0.0168 -0.0933
  119OSM    H5F12590   4.102   4.838  10.510 -0.3628 -0.2169  0.3390
  119OSM    H5G12591   4.199   4.677  10.541  3.0624 -0.0355  1.2062
  119OSM    C6F12592   4.326   4.828  10.479  0.6296 -0.1310 -0.5989
  119OSM    H6F12593   4.404   4.766  10.528 -0.3780 -0.3979  0.7194
  119OSM    H6G12594   4.328   4.938  10.494 -2.3260 -0.4176  3.3813
  119OSM    C7F12595   4.318   4.784  10.327  0.3022 -0.4491 -0.0931
  119OSM    H7F12596   4.227   4.822  10.276  0.1834 -0.2341  0.2775
  119OSM    H7G12597   4.311   4.673  10.330 -0.6110 -0.3948  0.1551
  119OSM    C8F12598   4.429   4.841  10.242  0.0886  0.0368 -0.4177
  119OSM    H8F12599   4.528   4.831  10.291  0.2465  1.3507 -0.4552
  119OSM    H8G12600   4.433   4.952  10.249 -1.1343  0.0782 -0.1603
  119OSM    C9F12601   4.450   4.778  10.102  0.2280  0.4307  0.7181
  119OSM    H9F12602   4.489   4.676  10.095  2.1989  1.1727  0.3039
  119OSM   C10F12603   4.410   4.838   9.989 -0.2364 -0.3533  0.6606
  119OSM   H10F12604   4.427   4.781   9.897 -0.8811 -1.0031  0.9365
  119OSM   C11F12605   4.337   4.963   9.981  0.4503 -0.6769  0.4474
  119OSM   H11F12606   4.338   5.020  10.076 -1.3275 -2.7015  1.7658
  119OSM   H11G12607   4.231   4.947   9.953  0.6830  1.1383 -1.7388
  119OSM   C12F12608   4.395   5.061   9.874 -0.3789 -0.0492  0.4660
  119OSM   H12F12609   4.496   5.097   9.903  0.2667 -1.9205  0.6913
  119OSM   H12G12610   4.340   5.157   9.886 -1.1555 -0.4706  0.3707
  119OSM   C13F12611   4.381   5.018   9.733  0.0521  1.0556  0.2397
  119OSM   H13F12612   4.276   5.012   9.697  0.5726  1.4160 -1.4156
  119OSM   H13G12613   4.426   4.918   9.715  0.9597  1.1397  1.8820
  119OSM   C14F12614   4.455   5.120   9.643  0.6220 -0.7995 -0.3561
  119OSM   H14F12615   4.562   5.121   9.672  0.4105  0.5654  0.4727
  119OSM   H14G12616   4.414   5.221   9.667 -0.6216 -0.7561 -2.4177
  119OSM   C15F12617   4.431   5.091   9.492  0.1261 -0.5582 -0.8557
  119OSM   H15F12618   4.462   4.988   9.467  0.4254 -0.4591 -0.9030
  119OSM   H15G12619   4.502   5.149   9.429  2.0593 -1.0485  0.7455
  119OSM   C16F12620   4.285   5.113   9.462 -0.5131 -0.0176  0.5012
  119OSM   H16F12621   4.248   5.213   9.495 -3.0175 -0.2906 -1.1334
  119OSM   H16G12622   4.216   5.032   9.494 -0.8995  0.5781  1.2097
  119OSM   C17F12623   4.268   5.129   9.309 -0.4842 -0.5353  0.1081
  119OSM   H17F12624   4.341   5.065   9.256 -0.1165  0.0245 -0.0653
  119OSM   H17G12625   4.300   5.231   9.281  0.6677 -0.8752  0.1334
  119OSM   C18F12626   4.121   5.114   9.274 -0.7148  0.1048  0.2528
  119OSM   H18F12627   4.105   5.139   9.167  1.3975 -0.5134 -0.2526
  119OSM   H18G12628   4.064   5.193   9.329 -0.1248  1.1813 -0.6445
  119OSM   H18H12629   4.082   5.016   9.310 -2.1422  1.2778  2.1293
  120OSM      N12630   2.705   0.914  10.841 -0.0108  0.4778 -0.1042
  120OSM    C1512631   2.765   0.885  10.709 -0.1825 -0.6023 -0.2093
  120OSM   H15A12632   2.709   0.806  10.662 -0.0866  0.4463 -2.1759
  120OSM   H15B12633   2.868   0.854  10.713  0.7823  2.3364  0.6368
  120OSM   H15C12634   2.766   0.970  10.642  0.8800  0.2881  0.8877
  120OSM    C1412635   2.693   0.787  10.926 -1.0560  0.9324  0.1554
  120OSM   H14A12636   2.669   0.815  11.027  2.2108 -0.0648  1.3157
  120OSM   H14B12637   2.789   0.739  10.932 -0.8890  1.4004  1.3884
  120OSM   H14C12638   2.629   0.714  10.880  1.9833 -2.2616  0.5752
  120OSM    C1312639   2.796   1.014  10.908 -0.7336 -0.4420  0.6043
  120OSM   H13A12640   2.814   1.092  10.835 -2.2914 -0.6875 -0.0821
  120OSM   H13B12641   2.891   0.964  10.920  0.9044  1.6447 -2.4216
  120OSM   H13C12642   2.764   1.048  11.005 -0.5805 -0.6445  0.7257
  120OSM    C1212643   2.574   0.976  10.827  0.4976  0.3955  0.0603
  120OSM   H12A12644   2.588   1.067  10.771 -0.1501  0.6135  0.2434
  120OSM   H12B12645   2.545   1.018  10.922 -1.1837  0.9302 -0.6514
  120OSM    C1112646   2.455   0.900  10.764  0.9853 -0.0249 -0.0420
  120OSM   H11A12647   2.363   0.961  10.754 -0.0958 -1.4049  1.1494
  120OSM   H11B12648   2.423   0.821  10.834 -1.7178  0.2082 -0.9109
  120OSM      P12649   2.474   0.691  10.604  0.3749 -0.2642 -0.1303
  120OSM    O1312650   2.606   0.635  10.586 -0.8997  0.0808  0.0580
  120OSM    O1412651   2.394   0.618  10.702  0.2081  0.1912  0.9289
  120OSM    O1112652   2.399   0.696  10.459 -0.0297 -0.0500 -0.4422
  120OSM    O1212653   2.486   0.839  10.638 -0.2879 -0.7310  0.1046
  120OSM    C1S12654   2.474   0.733  10.342 -0.3749 -0.0184 -0.2413
  120OSM    H1S12655   2.581   0.704  10.352  0.1529  2.3676  2.3100
  120OSM    H1T12656   2.466   0.843  10.328 -1.4933  0.0842  1.0408
  120OSM     NF12657   2.503   0.702  10.108  0.7931 -0.2753 -0.7321
  120OSM    HNF12658   2.484   0.788  10.062 -1.0483 -0.8236 -1.0744
  120OSM    C2S12659   2.409   0.671  10.217  0.5276 -0.2271  0.3016
  120OSM    H2S12660   2.414   0.561  10.228 -0.8074 -0.2914  0.4346
  120OSM    C3S12661   2.268   0.734  10.205  0.3903  0.4748 -1.0641
  120OSM    H3S12662   2.276   0.845  10.209 -0.4466  0.5098  0.5065
  120OSM     O312663   2.178   0.703  10.313 -0.8924  0.2031 -0.1963
  120OSM    HO312664   2.234   0.694  10.391 -1.3034 -1.0959 -0.0222
  120OSM    C4S12665   2.203   0.705  10.077 -0.3297  0.3551 -1.0915
  120OSM    H4S12666   2.225   0.789  10.009  0.8788  0.7916 -0.1775
  120OSM    C5S12667   2.131   0.603  10.031  0.1466  0.2473  0.2841
  120OSM    H5S12668   2.109   0.515  10.094 -0.5579  1.1920  1.4116
  120OSM    C6S12669   2.077   0.604   9.890 -0.9546 -0.4356  0.3404
  120OSM    H6S12670   1.970   0.635   9.897 -0.8871 -0.3048  0.7993
  120OSM    H6T12671   2.070   0.496   9.864 -1.0066 -1.0840  2.7789
  120OSM    C7S12672   2.148   0.686   9.781  0.0047  0.1634  0.9074
  120OSM    H7S12673   2.152   0.790   9.820 -1.1165  0.7297 -0.3867
  120OSM    H7T12674   2.075   0.681   9.698 -0.5018  1.2344  1.2770
  120OSM    C8S12675   2.279   0.624   9.726 -0.1972  0.4019 -0.0888
  120OSM    H8S12676   2.260   0.515   9.718 -1.2761  0.6676 -1.4569
  120OSM    H8T12677   2.358   0.634   9.804 -0.4487 -1.1561  0.3990
  120OSM    C9S12678   2.336   0.679   9.590 -0.0151  0.0065 -0.7388
  120OSM    H9S12679   2.446   0.665   9.580 -0.2179 -0.4211 -2.9102
  120OSM    H9T12680   2.310   0.787   9.584 -1.4129 -0.1838  1.0611
  120OSM   C10S12681   2.294   0.594   9.468  0.4702 -0.2861 -0.1496
  120OSM   H10S12682   2.191   0.555   9.477  0.7008 -0.8565  0.0314
  120OSM   H10T12683   2.363   0.507   9.466  0.5045 -0.2481 -1.3492
  120OSM   C11S12684   2.302   0.681   9.341 -0.2510  0.7286  0.6647
  120OSM   H11S12685   2.410   0.696   9.319 -0.1980 -0.2072  0.2327
  120OSM   H11T12686   2.259   0.782   9.358 -1.2568  0.1955  1.3843
  120OSM   C12S12687   2.235   0.618   9.219 -0.0010 -0.2007  0.1596
  120OSM   H12S12688   2.127   0.611   9.244 -0.2050  1.6513 -0.0208
  120OSM   H12T12689   2.274   0.515   9.205  0.0401 -0.1578 -0.0430
  120OSM   C13S12690   2.246   0.713   9.098 -0.0190 -0.0617 -0.1397
  120OSM   H13S12691   2.352   0.724   9.066 -0.2323 -2.2686 -1.8867
  120OSM   H13T12692   2.210   0.809   9.141  1.7342  0.8038 -0.4966
  120OSM   C14S12693   2.166   0.664   8.976  0.1509 -0.0932 -0.2260
  120OSM   H14S12694   2.076   0.611   9.014 -1.1058  0.3323 -2.4471
  120OSM   H14T12695   2.210   0.577   8.922 -0.8669 -0.8749  0.1855
  120OSM   C15S12696   2.138   0.782   8.878 -0.0441 -0.2483 -0.6774
  120OSM   H15S12697   2.236   0.795   8.828  1.3578 -3.3461  0.9724
  120OSM   H15T12698   2.118   0.883   8.921  1.2098  0.4343 -1.6326
  120OSM   C16S12699   2.044   0.734   8.763 -0.5963 -0.0162 -0.1042
  120OSM   H16S12700   1.952   0.701   8.814  0.5263  0.2624  2.2633
  120OSM   H16T12701   2.080   0.639   8.719 -3.0773 -1.6667  1.2396
  120OSM   C17S12702   2.025   0.845   8.659  0.0504  0.7264  0.0278
  120OSM   H17S12703   2.039   0.939   8.718 -0.4571 -0.0515  1.4365
  120OSM   H17T12704   1.924   0.833   8.615  1.0067  0.0699 -2.1468
  120OSM   C18S12705   2.128   0.855   8.540  0.1349  0.1469  0.0261
  120OSM   H18S12706   2.103   0.945   8.480 -1.0586 -0.9077 -1.1437
  120OSM   H18T12707   2.117   0.763   8.477 -0.7837  0.6965 -0.6432
  120OSM   H18U12708   2.228   0.854   8.588 -0.6697  1.2448  1.7863
  120OSM    C1F12709   2.613   0.627  10.083  0.1400  0.0672 -0.1667
  120OSM     OF12710   2.657   0.545  10.165  0.8042  0.7157 -0.2394
  120OSM    C2F12711   2.675   0.644   9.953 -0.8040  0.3570  0.2723
  120OSM    H2F12712   2.752   0.724   9.954  0.0730 -0.4730  0.1321
  120OSM    H2G12713   2.594   0.665   9.880 -1.1897 -1.0531  0.2728
  120OSM    C3F12714   2.736   0.505   9.907  0.0839  0.1100  0.2247
  120OSM    H3F12715   2.661   0.425   9.886  1.4221 -0.9115 -0.8514
  120OSM    H3G12716   2.801   0.469   9.990  1.9794 -1.5987 -1.8751
  120OSM    C4F12717   2.817   0.516   9.775 -0.3322 -0.0399  0.2283
  120OSM    H4F12718   2.847   0.421   9.726  2.0230  0.4653  0.5732
  120OSM    H4G12719   2.905   0.582   9.789 -0.2665  0.5146 -2.3141
  120OSM    C5F12720   2.739   0.586   9.667 -0.1922 -0.1094  0.4439
  120OSM    H5F12721   2.728   0.693   9.696  1.1939 -0.1084  1.0166
  120OSM    H5G12722   2.635   0.547   9.667  0.1070 -0.9245  0.6789
  120OSM    C6F12723   2.793   0.574   9.527 -0.2484 -0.7603  0.5938
  120OSM    H6F12724   2.776   0.469   9.497 -0.1424 -0.8819  0.9558
  120OSM    H6G12725   2.901   0.596   9.542 -0.1984 -0.8531  0.3767
  120OSM    C7F12726   2.727   0.666   9.424 -0.0787 -0.0600 -1.0227
  120OSM    H7F12727   2.765   0.766   9.454  1.1174 -0.6469 -0.5030
  120OSM    H7G12728   2.617   0.651   9.430  0.3523 -4.5124 -0.5379
  120OSM    C8F12729   2.782   0.627   9.284  0.2583 -0.5937  0.7570
  120OSM    H8F12730   2.752   0.522   9.264 -1.4662  0.2363 -1.3850
  120OSM    H8G12731   2.893   0.622   9.285  0.2853 -2.3980 -1.9543
  120OSM    C9F12732   2.744   0.721   9.175  0.0614 -0.9960  0.6180
  120OSM    H9F12733   2.756   0.830   9.189 -0.2601 -0.9680  0.6985
  120OSM   C10F12734   2.680   0.694   9.057 -0.0506  0.1400 -0.6278
  120OSM   H10F12735   2.656   0.774   8.985  0.2916  1.6094  0.8394
  120OSM   C11F12736   2.645   0.553   9.022  0.9664  0.1132 -0.0317
  120OSM   H11F12737   2.565   0.558   8.945 -0.9234 -1.1420  1.7209
  120OSM   H11G12738   2.588   0.493   9.096  1.2189  2.6087  2.3195
  120OSM   C12F12739   2.765   0.469   8.971 -0.3148 -0.0749  0.5745
  120OSM   H12F12740   2.831   0.455   9.060 -0.3303  0.0757  0.6096
  120OSM   H12G12741   2.822   0.524   8.893 -0.0383  0.0884  0.8904
  120OSM   C13F12742   2.729   0.330   8.912 -0.2080  0.3881  0.3148
  120OSM   H13F12743   2.697   0.262   8.994 -0.2080 -0.5684 -0.4668
  120OSM   H13G12744   2.812   0.279   8.859  0.5529  2.5822 -0.7630
  120OSM   C14F12745   2.604   0.325   8.826  0.1569 -0.2438  0.1293
  120OSM   H14F12746   2.514   0.364   8.879 -0.2185 -1.6403  0.5504
  120OSM   H14G12747   2.588   0.217   8.810  2.5574 -0.9287  1.8299
  120OSM   C15F12748   2.623   0.407   8.698  0.6992 -0.4530  0.9442
  120OSM   H15F12749   2.688   0.349   8.628  0.1514 -1.2824  1.1083
  120OSM   H15G12750   2.679   0.498   8.728  1.2351 -0.5342  0.2343
  120OSM   C16F12751   2.495   0.427   8.622  0.5717 -1.0186 -0.6384
  120OSM   H16F12752   2.522   0.504   8.546  1.0295 -0.2461  0.2915
  120OSM   H16G12753   2.407   0.467   8.675  1.3621  0.4834 -0.3935
  120OSM   C17F12754   2.441   0.304   8.544  0.4219 -0.5335 -0.0174
  120OSM   H17F12755   2.395   0.233   8.617 -1.8940 -0.3315 -1.1874
  120OSM   H17G12756   2.528   0.249   8.502 -0.1703 -0.1470 -1.8190
  120OSM   C18F12757   2.355   0.331   8.428  0.2817  1.0276  0.3449
  120OSM   H18F12758   2.415   0.378   8.347  1.9713 -2.3494 -0.5933
  120OSM   H18G12759   2.264   0.387   8.457  0.1250  0.9577 -0.0011
  120OSM   H18H12760   2.319   0.230   8.399 -0.5603  0.9899  1.4523
  121OSM      N12761   1.498   3.626  11.484 -0.4998  0.5085  0.3145
  121OSM    C1512762   1.544   3.484  11.467 -0.4492 -0.3668  0.1698
  121OSM   H15A12763   1.511   3.458  11.368 -1.0172  1.5325 -0.1735
  121OSM   H15B12764   1.510   3.420  11.547 -1.3687 -1.3242 -0.9548
  121OSM   H15C12765   1.652   3.475  11.458 -0.1239  1.2103  2.0211
  121OSM    C1412766   1.344   3.637  11.483  0.2073 -0.1323  0.4507
  121OSM   H14A12767   1.313   3.570  11.562 -0.6514 -1.1709 -0.7137
  121OSM   H14B12768   1.298   3.609  11.389 -0.0705 -2.7174  1.2885
  121OSM   H14C12769   1.308   3.737  11.504 -1.8292 -1.0414  1.6242
  121OSM    C1312770   1.548   3.680  11.610  0.1231 -0.2626  0.3601
  121OSM   H13A12771   1.656   3.673  11.619  0.0810 -1.4281  0.1537
  121OSM   H13B12772   1.501   3.635  11.696 -0.5853  0.6430  0.4575
  121OSM   H13C12773   1.514   3.782  11.607 -4.7009 -1.6717 -1.0963
  121OSM    C1212774   1.552   3.714  11.367  0.0752 -0.2487  0.4400
  121OSM   H12A12775   1.659   3.701  11.367  0.3028  0.9094 -2.4291
  121OSM   H12B12776   1.551   3.818  11.393  1.5264 -0.3015  0.8179
  121OSM    C1112777   1.498   3.699  11.225 -0.1294  0.5506  0.9034
  121OSM   H11A12778   1.530   3.780  11.156 -0.6896 -1.3616 -1.7147
  121OSM   H11B12779   1.388   3.714  11.231 -0.1561  0.0808  1.7608
  121OSM      P12780   1.679   3.557  11.103 -0.0110 -0.0966  0.0709
  121OSM    O1312781   1.774   3.638  11.190  0.2889 -0.2319  0.3843
  121OSM    O1412782   1.713   3.420  11.077 -0.7203 -0.4877  0.1622
  121OSM    O1112783   1.680   3.631  10.971  0.0573 -0.1173 -0.1431
  121OSM    O1212784   1.533   3.565  11.171 -0.1309 -0.0712  0.2413
  121OSM    C1S12785   1.574   3.602  10.873  0.6020  0.3508  0.1778
  121OSM    H1S12786   1.471   3.607  10.914  0.8972 -0.0027  0.9991
  121OSM    H1T12787   1.592   3.496  10.844 -0.6275 -1.3437  4.7899
  121OSM     NF12788   1.486   3.641  10.643  0.6366  0.4229  0.6439
  121OSM    HNF12789   1.520   3.578  10.572 -2.2448  1.8875 -2.3103
  121OSM    C2S12790   1.582   3.691  10.745  0.6866 -0.4639 -0.1954
  121OSM    H2S12791   1.543   3.790  10.777  0.7704  0.5925 -3.0212
  121OSM    C3S12792   1.716   3.716  10.684  0.6273 -0.1816  0.1125
  121OSM    H3S12793   1.739   3.613  10.649 -4.3389 -1.0994 -1.1103
  121OSM     O312794   1.818   3.760  10.772 -0.4634  0.6654  0.1822
  121OSM    HO312795   1.785   3.727  10.856 -1.4824  0.6223 -0.2277
  121OSM    C4S12796   1.695   3.803  10.559 -0.8567  0.4638 -0.5204
  121OSM    H4S12797   1.697   3.741  10.469  3.1336 -0.0901 -0.2261
  121OSM    C5S12798   1.690   3.937  10.546  0.5245 -0.2003  1.1898
  121OSM    H5S12799   1.705   3.997  10.638  1.2274 -0.3489  1.1761
  121OSM    C6S12800   1.681   4.009  10.418  0.4087  0.5352  0.5343
  121OSM    H6S12801   1.778   4.044  10.377 -0.3233  0.4580 -1.3957
  121OSM    H6T12802   1.621   4.102  10.430 -1.5213 -0.6040  0.2517
  121OSM    C7S12803   1.604   3.929  10.300 -0.3223 -0.2239 -0.4147
  121OSM    H7S12804   1.500   3.900  10.324 -0.7262  0.2495 -1.4997
  121OSM    H7T12805   1.670   3.846  10.267  1.0860  0.1123  1.3973
  121OSM    C8S12806   1.589   4.017  10.175  0.0676  0.4579 -0.0596
  121OSM    H8S12807   1.684   4.060  10.136 -0.8977  2.0091 -0.8214
  121OSM    H8T12808   1.519   4.097  10.208 -0.1002  0.0963  0.4861
  121OSM    C9S12809   1.518   3.936  10.058 -0.8465  0.7994 -0.3183
  121OSM    H9S12810   1.426   3.986  10.021 -0.9651  0.1336 -0.9542
  121OSM    H9T12811   1.493   3.834  10.093 -0.2449  0.2944 -1.3075
  121OSM   C10S12812   1.601   3.935   9.924 -0.3801  0.1722 -0.6184
  121OSM   H10S12813   1.659   3.841   9.924 -2.5849 -1.3267  1.7660
  121OSM   H10T12814   1.661   4.028   9.914 -0.4338  0.4645  1.3233
  121OSM   C11S12815   1.509   3.927   9.801  0.1319 -0.0086  0.1652
  121OSM   H11S12816   1.433   4.008   9.807  0.8571  0.6832  0.2823
  121OSM   H11T12817   1.467   3.825   9.803  1.6571 -0.6648  0.4772
  121OSM   C12S12818   1.589   3.948   9.677  0.5147 -0.0974  0.1566
  121OSM   H12S12819   1.653   3.862   9.648  0.0139 -0.5278  0.3212
  121OSM   H12T12820   1.664   4.030   9.689  0.8961 -0.2015 -1.2878
  121OSM   C13S12821   1.502   3.951   9.551 -0.4394  0.1535  0.3605
  121OSM   H13S12822   1.564   3.961   9.459 -0.5333 -0.8885  0.1640
  121OSM   H13T12823   1.429   4.035   9.551 -0.1512  0.4246 -0.6085
  121OSM   C14S12824   1.428   3.813   9.527 -0.3022 -0.6726 -1.0069
  121OSM   H14S12825   1.374   3.792   9.621  1.1624  1.9251  0.5419
  121OSM   H14T12826   1.506   3.734   9.516  0.0863 -1.2451  3.7950
  121OSM   C15S12827   1.331   3.817   9.411  0.7998  0.8327 -0.0802
  121OSM   H15S12828   1.248   3.889   9.426 -0.6135 -0.4834 -1.2709
  121OSM   H15T12829   1.288   3.715   9.419  0.3477  1.1550  2.3600
  121OSM   C16S12830   1.384   3.830   9.273 -0.0641 -0.3040  0.5892
  121OSM   H16S12831   1.478   3.771   9.267  1.1866  1.6647  0.2044
  121OSM   H16T12832   1.417   3.935   9.264 -0.5095 -0.2503 -0.5237
  121OSM   C17S12833   1.292   3.803   9.159 -0.4381 -0.7282  0.1367
  121OSM   H17S12834   1.355   3.813   9.068  1.3218 -1.0955  1.2646
  121OSM   H17T12835   1.212   3.878   9.140  0.1064 -0.5892 -1.9362
  121OSM   C18S12836   1.233   3.663   9.168 -0.2017  0.0541  0.3528
  121OSM   H18S12837   1.187   3.646   9.069 -0.2691 -0.2694  0.4374
  121OSM   H18T12838   1.157   3.675   9.248 -1.4340 -0.8813 -0.6357
  121OSM   H18U12839   1.288   3.575   9.206 -3.3534 -2.0168  0.5506
  121OSM    C1F12840   1.352   3.655  10.645  0.2341 -0.6292  0.4840
  121OSM     OF12841   1.292   3.708  10.737 -0.1286 -0.3305  0.2241
  121OSM    C2F12842   1.291   3.593  10.525  0.1366  0.3131  0.1120
  121OSM    H2F12843   1.180   3.599  10.522  0.1866  0.9339 -1.0238
  121OSM    H2G12844   1.327   3.488  10.524 -2.7283 -0.7563 -1.1049
  121OSM    C3F12845   1.340   3.663  10.396 -1.0202 -0.2190  0.4669
  121OSM    H3F12846   1.451   3.668  10.389 -1.1037  0.3221 -0.7761
  121OSM    H3G12847   1.308   3.769  10.406 -0.1160  0.1797 -0.5823
  121OSM    C4F12848   1.279   3.606  10.269 -0.5269  0.1824 -0.1177
  121OSM    H4F12849   1.301   3.662  10.176 -1.9969  1.4772  0.2700
  121OSM    H4G12850   1.169   3.623  10.267 -0.4726  0.6551  0.5405
  121OSM    C5F12851   1.310   3.455  10.250 -0.2412 -0.1463 -0.0327
  121OSM    H5F12852   1.271   3.383  10.326 -0.1997  0.4840  0.5955
  121OSM    H5G12853   1.420   3.452  10.238 -0.5358 -1.3196 -3.3261
  121OSM    C6F12854   1.259   3.390  10.116 -0.1956 -0.7663  0.1114
  121OSM    H6F12855   1.343   3.381  10.043  0.9703 -1.8296  1.5340
  121OSM    H6G12856   1.189   3.457  10.062  1.8212  2.5112  1.2918
  121OSM    C7F12857   1.204   3.249  10.129 -0.2232  0.9430 -0.0698
  121OSM    H7F12858   1.133   3.250  10.215  0.2164  2.4803  0.3145
  121OSM    H7G12859   1.288   3.181  10.155  2.0806  2.1572 -3.5505
  121OSM    C8F12860   1.111   3.203  10.011  0.6508 -0.0263  0.3609
  121OSM    H8F12861   1.023   3.269   9.999  0.1383 -0.4932  1.4783
  121OSM    H8G12862   1.070   3.106  10.047 -1.1198  0.9119  0.9442
  121OSM    C9F12863   1.182   3.163   9.882  0.1658  0.8809  0.1095
  121OSM    H9F12864   1.217   3.059   9.886  1.2634  1.1909 -0.7037
  121OSM   C10F12865   1.192   3.236   9.771 -0.3835 -0.5664  0.6279
  121OSM   H10F12866   1.249   3.208   9.682  0.9355  2.4522  0.4087
  121OSM   C11F12867   1.143   3.379   9.757  1.0896  0.0575  0.7475
  121OSM   H11F12868   1.226   3.451   9.744 -0.1398  1.6384  1.3103
  121OSM   H11G12869   1.098   3.403   9.856  1.8144  0.5425  0.9640
  121OSM   C12F12870   1.043   3.413   9.644  0.1952  0.8047 -0.0771
  121OSM   H12F12871   1.024   3.521   9.663 -0.5455  0.3910  1.7308
  121OSM   H12G12872   0.943   3.366   9.658  0.5513  0.1355  0.2731
  121OSM   C13F12873   1.095   3.380   9.502  0.4955  0.5583 -0.2746
  121OSM   H13F12874   1.100   3.271   9.482  3.5610  0.8514 -1.5983
  121OSM   H13G12875   1.192   3.432   9.490  0.0468  1.3640 -0.4548
  121OSM   C14F12876   0.999   3.438   9.394  0.1658 -0.0534  0.4680
  121OSM   H14F12877   1.003   3.549   9.402  1.6575 -0.1833  2.0075
  121OSM   H14G12878   0.895   3.405   9.415 -0.2096  2.1608  2.5302
  121OSM   C15F12879   1.043   3.376   9.258  0.1572  0.0920  0.1675
  121OSM   H15F12880   1.041   3.265   9.248  0.2349  0.3333 -5.5320
  121OSM   H15G12881   1.153   3.396   9.260  0.6139 -2.0160 -0.8950
  121OSM   C16F12882   0.970   3.424   9.134 -0.4033 -0.1323  0.0374
  121OSM   H16F12883   1.000   3.528   9.106 -0.4770 -0.3585 -0.9289
  121OSM   H16G12884   0.863   3.427   9.167 -0.6361  3.5829 -0.5406
  121OSM   C17F12885   0.984   3.340   9.006  0.2801  0.4329 -0.1600
  121OSM   H17F12886   0.936   3.240   9.019 -0.9012  0.9336 -0.5620
  121OSM   H17G12887   1.089   3.316   8.982  0.6844  1.5228  0.4302
  121OSM   C18F12888   0.923   3.402   8.876 -0.4960 -0.3437 -0.2958
  121OSM   H18F12889   0.815   3.421   8.895 -0.1141  0.4736  1.2864
  121OSM   H18G12890   0.940   3.336   8.789 -0.0404 -0.3554 -0.2046
  121OSM   H18H12891   0.974   3.497   8.848  0.0710  0.0182  1.7848
  122OSM      N12892   3.181   1.907  10.848  0.0156  0.1309  0.5198
  122OSM    C1512893   3.077   1.810  10.881  0.1541  0.8265 -0.3361
  122OSM   H15A12894   3.125   1.714  10.893 -1.0612  0.1942 -0.4087
  122OSM   H15B12895   2.994   1.819  10.812  0.2489 -0.4902 -0.6657
  122OSM   H15C12896   3.034   1.835  10.976  0.7426  0.1017  0.1357
  122OSM    C1412897   3.110   2.029  10.789  1.0574 -0.7475 -0.3078
  122OSM   H14A12898   3.077   2.007  10.689  0.7431 -4.4275  0.4892
  122OSM   H14B12899   3.174   2.116  10.780  1.6993 -1.3428 -2.0085
  122OSM   H14C12900   3.029   2.048  10.858  0.3104  0.5829 -1.4827
  122OSM    C1312901   3.260   1.940  10.974  0.0949 -0.3761 -0.3478
  122OSM   H13A12902   3.345   2.000  10.944 -0.5180 -0.1295 -1.6556
  122OSM   H13B12903   3.294   1.849  11.020  2.1817  0.3418 -0.3495
  122OSM   H13C12904   3.192   1.995  11.038  1.1753 -0.0067  0.5182
  122OSM    C1212905   3.279   1.853  10.747  0.3844 -0.6362 -0.1542
  122OSM   H12A12906   3.328   1.941  10.709 -0.4006 -0.6826 -1.3390
  122OSM   H12B12907   3.220   1.818  10.663  1.4601 -1.4489 -0.5998
  122OSM    C1112908   3.387   1.747  10.788 -0.4470  0.5250 -0.4943
  122OSM   H11A12909   3.458   1.794  10.859 -1.5459  0.8534  0.4046
  122OSM   H11B12910   3.441   1.708  10.699  0.2261 -1.9578  0.9117
  122OSM      P12911   3.301   1.502  10.808  0.6984  0.7268  0.3465
  122OSM    O1312912   3.410   1.411  10.840  0.0239  0.1908  0.0980
  122OSM    O1412913   3.166   1.470  10.871  0.3072  0.5741 -0.4124
  122OSM    O1112914   3.279   1.510  10.651 -0.4692 -0.3179 -0.9118
  122OSM    O1212915   3.344   1.641  10.865  0.3953 -0.1526  0.5136
  122OSM    C1S12916   3.140   1.541  10.611  0.3834 -0.0842  1.2191
  122OSM    H1S12917   3.105   1.634  10.660  2.0166  0.4473  1.4285
  122OSM    H1T12918   3.067   1.460  10.634  0.1294 -0.1102  0.3587
  122OSM     NF12919   3.028   1.658  10.418  0.0676 -0.3187  0.7769
  122OSM    HNF12920   2.945   1.619  10.379  1.5171  0.5917 -3.8201
  122OSM    C2S12921   3.137   1.564  10.453 -0.1326  0.2358  0.1473
  122OSM    H2S12922   3.231   1.613  10.419  1.3369 -2.6863 -0.3456
  122OSM    C3S12923   3.123   1.424  10.387 -0.1847 -0.4455 -0.8049
  122OSM    H3S12924   3.033   1.379  10.434 -0.3297 -0.3749 -1.0192
  122OSM     O312925   3.224   1.328  10.430  0.3915  0.3170  0.5043
  122OSM    HO312926   3.267   1.372  10.503 -1.8744  0.8646  1.5831
  122OSM    C4S12927   3.115   1.431  10.237 -0.1700 -0.0176 -0.1872
  122OSM    H4S12928   3.014   1.443  10.194 -1.2269 -0.6889  1.9472
  122OSM    C5S12929   3.213   1.415  10.147 -0.3724  0.0577  0.1323
  122OSM    H5S12930   3.313   1.395  10.187  0.4103  0.3223 -1.6139
  122OSM    C6S12931   3.206   1.413   9.992  0.0765 -0.3062 -0.4632
  122OSM    H6S12932   3.196   1.305   9.967  0.1338 -0.4517  0.1252
  122OSM    H6T12933   3.303   1.451   9.954 -0.0699  2.8127  1.8991
  122OSM    C7S12934   3.096   1.504   9.924  0.2232 -0.1835 -0.2605
  122OSM    H7S12935   3.084   1.595   9.985  1.5693  0.5898 -1.0902
  122OSM    H7T12936   3.001   1.450   9.905  0.8895 -0.9315 -1.6409
  122OSM    C8S12937   3.129   1.547   9.786 -0.0609  0.8107  0.4726
  122OSM    H8S12938   3.228   1.596   9.790  1.1464 -1.5351  0.9159
  122OSM    H8T12939   3.064   1.615   9.726  0.8935  1.4426  0.1283
  122OSM    C9S12940   3.140   1.418   9.694 -0.1123  0.4904  0.2074
  122OSM    H9S12941   3.047   1.359   9.680 -0.0125  0.9730 -3.2065
  122OSM    H9T12942   3.217   1.351   9.737  0.1518  0.5947 -0.1016
  122OSM   C10S12943   3.191   1.467   9.560 -0.0672 -0.4451  0.7559
  122OSM   H10S12944   3.283   1.529   9.571 -0.9263  0.8069  1.0550
  122OSM   H10T12945   3.106   1.528   9.524  0.9546  1.9272  2.0903
  122OSM   C11S12946   3.226   1.348   9.474 -0.0715  0.3558  0.6710
  122OSM   H11S12947   3.145   1.272   9.478  1.7292 -1.6956  0.4063
  122OSM   H11T12948   3.311   1.291   9.520  1.0358  1.3640 -0.0749
  122OSM   C12S12949   3.266   1.382   9.331  0.4669  0.1191 -0.7789
  122OSM   H12S12950   3.355   1.449   9.332  1.0162 -0.5986  0.5435
  122OSM   H12T12951   3.180   1.437   9.289 -0.5821 -0.2217  0.8328
  122OSM   C13S12952   3.272   1.252   9.252 -0.1761 -0.5332 -0.4040
  122OSM   H13S12953   3.166   1.228   9.228 -0.7477  0.5917  0.8505
  122OSM   H13T12954   3.314   1.170   9.314  1.2723  1.6043  1.5991
  122OSM   C14S12955   3.345   1.284   9.120  0.9445  0.0802  0.0079
  122OSM   H14S12956   3.452   1.306   9.135  0.8384 -0.3605  1.5597
  122OSM   H14T12957   3.299   1.377   9.081  2.0460  0.9448  0.7354
  122OSM   C15S12958   3.335   1.166   9.020 -0.6781  0.9329  0.3888
  122OSM   H15S12959   3.234   1.123   9.033  0.2671 -1.0164  1.8296
  122OSM   H15T12960   3.408   1.089   9.054 -0.4008  2.5983  4.0906
  122OSM   C16S12961   3.374   1.205   8.883 -0.7778  0.3366 -0.5054
  122OSM   H16S12962   3.475   1.250   8.874 -0.7385  0.2426 -0.5321
  122OSM   H16T12963   3.300   1.273   8.835 -0.8003 -0.2261 -1.2828
  122OSM   C17S12964   3.376   1.078   8.788  0.6836  0.0854 -0.3854
  122OSM   H17S12965   3.269   1.053   8.770  0.9189 -1.0171 -0.3244
  122OSM   H17T12966   3.421   0.997   8.848 -0.8184 -0.5971 -0.1261
  122OSM   C18S12967   3.441   1.109   8.655 -0.1220  0.5439 -0.2596
  122OSM   H18S12968   3.385   1.183   8.595 -1.5154 -1.0326 -1.0081
  122OSM   H18T12969   3.435   1.016   8.594 -0.4525 -2.1164  3.4188
  122OSM   H18U12970   3.547   1.134   8.676 -0.2482 -0.7150  2.4151
  122OSM    C1F12971   3.035   1.785  10.449 -0.3461 -0.3563 -0.7523
  122OSM     OF12972   3.124   1.830  10.513 -0.4261  0.0802 -0.1793
  122OSM    C2F12973   2.918   1.868  10.401 -0.6879  0.3596 -0.3435
  122OSM    H2F12974   2.873   1.904  10.496 -0.1514 -1.4942  0.6599
  122OSM    H2G12975   2.860   1.785  10.355  1.3304 -1.9854  1.0829
  122OSM    C3F12976   2.949   1.994  10.312  0.2204 -0.0897  0.8178
  122OSM    H3F12977   3.013   2.065  10.369  0.6902  2.4375 -2.5724
  122OSM    H3G12978   2.861   2.059  10.297  1.4276  0.9660 -2.5214
  122OSM    C4F12979   3.009   1.957  10.181  0.8753  0.7059  0.6592
  122OSM    H4F12980   3.084   1.877  10.199 -0.9120 -0.8420  1.5264
  122OSM    H4G12981   3.048   2.054  10.143  1.0252  0.5468  0.4015
  122OSM    C5F12982   2.909   1.910  10.082 -0.1442  0.3688  0.3432
  122OSM    H5F12983   2.836   1.993  10.085  0.3088  0.7782  0.0547
  122OSM    H5G12984   2.868   1.812  10.115  0.6452 -1.2809 -3.1081
  122OSM    C6F12985   2.963   1.883   9.942 -0.5240  0.0273  0.4214
  122OSM    H6F12986   2.891   1.826   9.879 -1.6491  1.8418 -0.0316
  122OSM    H6G12987   3.054   1.824   9.963 -0.8178 -0.2590  0.8916
  122OSM    C7F12988   3.003   2.008   9.859 -0.5907  0.3754  0.3182
  122OSM    H7F12989   3.054   2.084   9.922 -1.7454  1.0274  0.5057
  122OSM    H7G12990   2.911   2.052   9.813  0.8024  0.0954 -3.0942
  122OSM    C8F12991   3.088   1.973   9.731  0.3302  0.4486  0.2669
  122OSM    H8F12992   3.162   1.894   9.756  1.8368  1.4536 -0.8439
  122OSM    H8G12993   3.152   2.056   9.695  2.8515 -1.2042  0.6596
  122OSM    C9F12994   2.998   1.927   9.616 -0.0715 -0.5304  0.8007
  122OSM    H9F12995   2.888   1.926   9.625 -0.1540 -0.7620 -0.1400
  122OSM   C10F12996   3.043   1.885   9.502  0.6112  0.9844  0.2791
  122OSM   H10F12997   2.977   1.863   9.417 -1.8690  0.0134  2.3277
  122OSM   C11F12998   3.193   1.890   9.471  0.4978 -0.5842  0.9573
  122OSM   H11F12999   3.238   1.805   9.526  3.1553  0.1552  0.0605
  122OSM   H11G13000   3.233   1.989   9.502  0.3118  0.5937 -2.1614
  122OSM   C12F13001   3.232   1.876   9.323  0.3792 -0.0149 -0.5452
  122OSM   H12F13002   3.187   1.788   9.273 -0.6292 -0.8757  1.7117
  122OSM   H12G13003   3.337   1.838   9.316  0.5118  0.1059  0.5546
  122OSM   C13F13004   3.190   1.994   9.243  0.3936  0.2215 -0.4319
  122OSM   H13F13005   3.244   2.086   9.276 -0.3153 -0.2048  2.1424
  122OSM   H13G13006   3.082   2.013   9.263 -0.1864 -1.6385 -1.5708
  122OSM   C14F13007   3.207   1.970   9.096  0.4949  0.3178 -0.5778
  122OSM   H14F13008   3.302   1.918   9.070 -0.7988 -3.0224  0.9076
  122OSM   H14G13009   3.223   2.069   9.048  1.8697 -0.0931 -1.0175
  122OSM   C15F13010   3.092   1.894   9.020 -0.1897  0.1790 -0.8676
  122OSM   H15F13011   3.003   1.901   9.085 -0.2658 -1.8334 -0.7172
  122OSM   H15G13012   3.123   1.788   9.012  2.2653  0.3614  3.2328
  122OSM   C16F13013   3.054   1.950   8.887  0.3103  0.3515  0.8814
  122OSM   H16F13014   2.989   2.040   8.884 -0.5521 -0.2910 -0.4015
  122OSM   H16G13015   2.994   1.872   8.836 -0.8664  0.1225  2.5474
  122OSM   C17F13016   3.179   1.976   8.798  0.3845 -0.5169  0.1318
  122OSM   H17F13017   3.240   1.885   8.814  0.9895 -0.0166  0.7077
  122OSM   H17G13018   3.231   2.065   8.839  1.2096 -0.8112 -0.2638
  122OSM   C18F13019   3.150   2.010   8.660  0.6016 -0.1926  0.6465
  122OSM   H18F13020   3.073   2.091   8.654 -1.4298 -2.1189 -3.6556
  122OSM   H18G13021   3.109   1.931   8.593 -2.7182  2.4252 -0.7351
  122OSM   H18H13022   3.240   2.050   8.608  0.3280 -1.9381 -1.3101
  123OSM      N13023   0.529   6.182   6.130 -0.3482  0.5016 -0.1376
  123OSM    C1513024   0.541   6.042   6.067 -0.3350 -0.2855 -0.6414
  123OSM   H15A13025   0.616   6.050   5.990  0.6402  1.1719  0.3939
  123OSM   H15B13026   0.449   6.004   6.026 -0.7898  0.5623 -0.4500
  123OSM   H15C13027   0.594   5.975   6.133  1.4951 -1.7039 -3.3544
  123OSM    C1413028   0.412   6.188   6.218 -0.1284  0.4883 -0.2161
  123OSM   H14A13029   0.440   6.132   6.306  1.1407  0.2816 -0.7274
  123OSM   H14B13030   0.321   6.150   6.173 -0.7222  0.5830  0.8697
  123OSM   H14C13031   0.389   6.286   6.255 -1.7875  0.0501  0.0407
  123OSM    C1313032   0.651   6.209   6.196  0.1191  0.1563 -0.0290
  123OSM   H13A13033   0.675   6.134   6.270  0.6305  0.4904  0.1477
  123OSM   H13B13034   0.647   6.299   6.256  1.0210  0.5939 -0.5976
  123OSM   H13C13035   0.733   6.210   6.126  0.0819 -0.1874 -0.0814
  123OSM    C1213036   0.515   6.288   6.017  0.1841  0.0983 -0.6014
  123OSM   H12A13037   0.436   6.244   5.958 -0.1652  3.2746 -2.7454
  123OSM   H12B13038   0.603   6.276   5.956  0.4399  1.3195 -0.4950
  123OSM    C1113039   0.475   6.433   6.050 -0.1994 -0.7538  0.2747
  123OSM   H11A13040   0.384   6.433   6.113  0.5921 -1.5023  1.4709
  123OSM   H11B13041   0.450   6.471   5.949  0.3604 -0.2256  0.3284
  123OSM      P13042   0.548   6.656   6.144 -0.1120  0.0127  0.0074
  123OSM    O1313043   0.592   6.744   6.035  0.1150 -0.0232 -0.1944
  123OSM    O1413044   0.412   6.680   6.203 -0.6266  0.0574 -0.3920
  123OSM    O1113045   0.659   6.676   6.257 -0.2136  0.0240 -0.8109
  123OSM    O1213046   0.581   6.511   6.104 -0.7242  0.1712 -0.4833
  123OSM    C1S13047   0.671   6.572   6.359  0.9375  0.3296  0.3979
  123OSM    H1S13048   0.664   6.468   6.319 -1.0108  0.0675  1.3440
  123OSM    H1T13049   0.594   6.585   6.438  1.6221 -0.1555  1.1704
  123OSM     NF13050   0.806   6.497   6.551  0.4148 -0.1394  0.4492
  123OSM    HNF13051   0.769   6.538   6.635 -1.5588  0.5582 -0.6829
  123OSM    C2S13052   0.808   6.585   6.433 -0.0447  0.7725  0.2271
  123OSM    H2S13053   0.879   6.535   6.365  0.1380 -4.4929  3.6991
  123OSM    C3S13054   0.838   6.736   6.451  0.4961 -0.5015  0.2909
  123OSM    H3S13055   0.747   6.785   6.490  1.0266 -0.2204  1.1857
  123OSM     O313056   0.875   6.798   6.326 -0.4880  0.4185 -0.1982
  123OSM    HO313057   0.805   6.765   6.269 -2.2241  1.8330  0.9936
  123OSM    C4S13058   0.955   6.758   6.543  0.1222  0.2190  0.5297
  123OSM    H4S13059   1.050   6.720   6.503 -0.1815  0.6107 -0.5751
  123OSM    C5S13060   0.950   6.808   6.672  0.0348 -0.3162  0.1762
  123OSM    H5S13061   0.854   6.837   6.717 -0.1577 -1.2471  0.4022
  123OSM    C6S13062   1.073   6.839   6.754 -0.2211 -0.6292 -0.5416
  123OSM    H6S13063   1.164   6.857   6.693 -0.3522  2.6126  0.0770
  123OSM    H6T13064   1.093   6.748   6.815  0.0566 -0.5812 -0.5592
  123OSM    C7S13065   1.026   6.952   6.851 -0.3064  0.2644 -0.0975
  123OSM    H7S13066   0.935   6.909   6.898  0.5934 -2.5011 -0.7481
  123OSM    H7T13067   1.002   7.047   6.799 -0.9661 -0.0586 -0.3966
  123OSM    C8S13068   1.127   6.975   6.961 -0.7915  0.0518 -0.9255
  123OSM    H8S13069   1.229   7.005   6.927 -0.4881  0.3565  0.2116
  123OSM    H8T13070   1.140   6.879   7.016 -2.3636  0.1095 -0.4259
  123OSM    C9S13071   1.075   7.078   7.062 -0.8464  0.1692 -0.0363
  123OSM    H9S13072   0.967   7.068   7.087 -0.4234 -0.2155  1.7931
  123OSM    H9T13073   1.087   7.176   7.013  0.6331 -0.3653 -0.8042
  123OSM   C10S13074   1.159   7.076   7.196 -0.4708  0.1951  0.4311
  123OSM   H10S13075   1.255   7.119   7.163  0.5346 -2.4224 -0.3541
  123OSM   H10T13076   1.191   6.975   7.229 -0.0749  0.1237 -0.1496
  123OSM   C11S13077   1.085   7.151   7.309  0.1574 -0.2245 -0.1831
  123OSM   H11S13078   0.998   7.094   7.346 -0.0916  0.6657  0.6750
  123OSM   H11T13079   1.040   7.245   7.271  0.3770  0.2364  0.6596
  123OSM   C12S13080   1.162   7.175   7.442 -0.5106  0.6640  1.1444
  123OSM   H12S13081   1.234   7.255   7.413  0.9941 -0.0413  2.7962
  123OSM   H12T13082   1.227   7.085   7.452 -0.6455  0.4960  0.5652
  123OSM   C13S13083   1.085   7.218   7.565  0.1363  0.4418 -0.1081
  123OSM   H13S13084   1.010   7.141   7.594  3.0663 -2.3943  0.4326
  123OSM   H13T13085   1.021   7.309   7.564 -1.6090 -0.7340 -0.9731
  123OSM   C14S13086   1.173   7.246   7.688  0.6319 -0.0191  0.1470
  123OSM   H14S13087   1.246   7.319   7.648  0.6495  0.0589  0.3172
  123OSM   H14T13088   1.221   7.147   7.706  1.5779  0.0907 -1.5999
  123OSM   C15S13089   1.096   7.289   7.815 -0.5421 -0.0732  0.4001
  123OSM   H15S13090   1.016   7.215   7.835  0.0579 -0.9031 -0.1955
  123OSM   H15T13091   1.052   7.390   7.801 -0.8193 -0.4948 -2.4164
  123OSM   C16S13092   1.176   7.279   7.950 -0.2114 -0.5608  0.5166
  123OSM   H16S13093   1.229   7.182   7.952  1.8110  0.4313 -0.8383
  123OSM   H16T13094   1.108   7.289   8.036 -1.2640  1.5306 -0.4699
  123OSM   C17S13095   1.287   7.382   7.953  0.2914 -0.0665  0.3567
  123OSM   H17S13096   1.252   7.486   7.936 -2.1894 -0.6007  1.7373
  123OSM   H17T13097   1.359   7.369   7.869  0.5392  1.3387  0.3315
  123OSM   C18S13098   1.357   7.369   8.084  0.2554  0.0080 -0.2262
  123OSM   H18S13099   1.457   7.417   8.072  0.4037 -0.3422 -0.4211
  123OSM   H18T13100   1.366   7.262   8.113  1.1455  0.0666 -0.2415
  123OSM   H18U13101   1.303   7.419   8.166  0.2682 -3.7961  2.3351
  123OSM    C1F13102   0.808   6.367   6.531 -0.2777 -0.1116  0.0660
  123OSM     OF13103   0.849   6.320   6.424  0.2285 -0.3153  0.2214
  123OSM    C2F13104   0.765   6.278   6.642  0.2142 -0.5526 -0.0328
  123OSM    H2F13105   0.654   6.270   6.638  0.2668 -0.6698 -2.2494
  123OSM    H2G13106   0.782   6.330   6.739  1.7641  0.4878 -0.8273
  123OSM    C3F13107   0.840   6.137   6.646 -0.2102  0.3303 -1.0776
  123OSM    H3F13108   0.951   6.142   6.656 -0.3748 -0.5885  2.4319
  123OSM    H3G13109   0.813   6.079   6.555  1.1214 -0.5716 -0.9342
  123OSM    C4F13110   0.783   6.070   6.774  0.4378  0.1675 -0.1845
  123OSM    H4F13111   0.816   5.964   6.762 -2.2701 -0.5643 -2.1833
  123OSM    H4G13112   0.673   6.058   6.782  0.5716 -1.0259  0.0505
  123OSM    C5F13113   0.838   6.119   6.914 -0.2304 -0.1333 -0.0480
  123OSM    H5F13114   0.842   6.230   6.914 -1.8577 -0.0188  1.5365
  123OSM    H5G13115   0.945   6.090   6.921 -0.0084 -0.2316 -2.7459
  123OSM    C6F13116   0.767   6.074   7.039  0.2024 -0.0502  0.2437
  123OSM    H6F13117   0.744   5.965   7.044  2.4804 -0.5443  1.6307
  123OSM    H6G13118   0.670   6.128   7.034 -0.5567 -1.3616  0.1600
  123OSM    C7F13119   0.851   6.093   7.166 -0.5691 -0.7320  0.3838
  123OSM    H7F13120   0.910   6.187   7.159  0.3290 -1.3362 -0.5593
  123OSM    H7G13121   0.925   6.010   7.176 -1.4146 -1.4059  1.1658
  123OSM    C8F13122   0.760   6.098   7.287 -0.3884  0.1311  0.0253
  123OSM    H8F13123   0.683   6.176   7.274  1.7054  2.4421  0.6319
  123OSM    H8G13124   0.815   6.135   7.377 -0.3417  0.2561 -0.0539
  123OSM    C9F13125   0.687   5.969   7.312  0.4732  0.5130  0.1608
  123OSM    H9F13126   0.670   5.916   7.217  1.6877  1.6981 -0.7619
  123OSM   C10F13127   0.649   5.914   7.429  0.4742  0.3527  0.5570
  123OSM   H10F13128   0.600   5.816   7.422  0.5382  0.3158  0.6176
  123OSM   C11F13129   0.660   5.977   7.566 -0.0698 -0.3277 -0.5806
  123OSM   H11F13130   0.717   6.071   7.550 -0.9226 -0.0119 -2.0045
  123OSM   H11G13131   0.727   5.920   7.634  1.5499  1.5036 -0.5646
  123OSM   C12F13132   0.526   6.011   7.644 -0.1802 -0.6270  0.9670
  123OSM   H12F13133   0.459   5.924   7.624 -0.7314 -0.2292  1.0691
  123OSM   H12G13134   0.480   6.103   7.603 -1.5057 -0.9938  1.5663
  123OSM   C13F13135   0.546   6.032   7.791  0.1553  0.0877 -0.7646
  123OSM   H13F13136   0.567   6.141   7.797 -2.2810  0.6114 -0.6830
  123OSM   H13G13137   0.636   5.985   7.835 -0.0006  0.3744 -0.1168
  123OSM   C14F13138   0.423   6.010   7.879  0.2746 -0.5350 -0.2435
  123OSM   H14F13139   0.402   5.904   7.852  1.3828 -0.4708 -1.4480
  123OSM   H14G13140   0.338   6.073   7.844 -0.7505 -0.7581  1.7258
  123OSM   C15F13141   0.461   6.029   8.033  0.3340  0.4416 -0.3284
  123OSM   H15F13142   0.465   6.134   8.069 -1.3120  0.0286  1.1932
  123OSM   H15G13143   0.557   5.976   8.053 -0.4208 -0.8395  0.0566
  123OSM   C16F13144   0.368   5.949   8.127 -0.0409 -0.2677 -0.1410
  123OSM   H16F13145   0.425   5.962   8.221 -1.1372  0.9546  0.3869
  123OSM   H16G13146   0.368   5.849   8.079 -0.4232  0.4195 -1.6381
  123OSM   C17F13147   0.234   6.020   8.125  0.0592 -0.4040  0.5361
  123OSM   H17F13148   0.190   6.021   8.023  1.6722 -0.4527 -0.1945
  123OSM   H17G13149   0.246   6.122   8.167  0.2530 -0.9382  1.8232
  123OSM   C18F13150   0.137   5.951   8.219  0.1549  0.0869  0.2973
  123OSM   H18F13151   0.139   5.843   8.193  0.6204  0.6658 -2.3669
  123OSM   H18G13152   0.033   5.990   8.219 -1.3634 -3.5248 -0.4202
  123OSM   H18H13153   0.166   5.947   8.326 -1.4158 -0.0669  0.7328
  124OSM      N13154   2.973   4.715   6.391 -0.4829  0.4205 -0.1770
  124OSM    C1513155   2.999   4.799   6.507 -0.6354  0.4970 -0.4516
  124OSM   H15A13156   2.906   4.843   6.541 -1.8051 -1.6870 -0.6137
  124OSM   H15B13157   3.074   4.868   6.471  0.3192  0.5141  1.4421
  124OSM   H15C13158   3.046   4.746   6.589  0.7250  0.7453 -1.0444
  124OSM    C1413159   2.855   4.623   6.427 -0.8143  0.1259 -0.2944
  124OSM   H14A13160   2.782   4.668   6.492 -1.0438 -0.9467  0.2096
  124OSM   H14B13161   2.897   4.538   6.478 -0.5689  0.3790 -0.0709
  124OSM   H14C13162   2.809   4.582   6.338  0.2365  1.3427 -1.4449
  124OSM    C1313163   2.927   4.795   6.280  0.5426  0.1238  0.3543
  124OSM   H13A13164   2.837   4.847   6.308 -0.1198 -0.6950 -0.1887
  124OSM   H13B13165   2.918   4.746   6.184  0.5727  0.3487  0.2359
  124OSM   H13C13166   2.995   4.877   6.265  1.0214 -0.0639  1.4426
  124OSM    C1213167   3.102   4.643   6.363 -0.0671 -0.1419  0.5182
  124OSM   H12A13168   3.140   4.608   6.458 -0.2210  0.4858  0.8193
  124OSM   H12B13169   3.176   4.718   6.336  0.4070 -0.7639  0.0385
  124OSM    C1113170   3.111   4.537   6.252 -0.3747  0.4963 -0.1120
  124OSM   H11A13171   3.219   4.511   6.246 -0.4864 -0.3911  1.4107
  124OSM   H11B13172   3.081   4.582   6.155 -0.1048  1.9213  0.4397
  124OSM      P13173   3.088   4.276   6.312 -0.1742 -0.1412  0.1323
  124OSM    O1313174   2.993   4.201   6.389  0.2033 -0.3143  0.0368
  124OSM    O1413175   3.135   4.226   6.180  0.5129  0.3962 -0.3181
  124OSM    O1113176   3.222   4.295   6.401 -0.5259  0.2733 -0.7581
  124OSM    O1213177   3.027   4.424   6.284 -0.7670 -0.0792  0.0994
  124OSM    C1S13178   3.216   4.338   6.538 -0.6668 -0.4034  0.9198
  124OSM    H1S13179   3.136   4.414   6.553  1.4519  1.7566  2.0432
  124OSM    H1T13180   3.308   4.390   6.571  1.3222 -4.3055  2.1417
  124OSM     NF13181   3.194   4.267   6.769 -0.7766  0.6379  0.4092
  124OSM    HNF13182   3.279   4.259   6.821 -0.1834 -0.6584 -0.6849
  124OSM    C2S13183   3.193   4.218   6.628 -0.9868 -1.3980  1.1604
  124OSM    H2S13184   3.091   4.185   6.597 -1.2043  1.5589 -1.8620
  124OSM    C3S13185   3.291   4.099   6.604  0.1117 -0.0259 -0.4067
  124OSM    H3S13186   3.395   4.132   6.624 -0.3431  1.5735 -0.5759
  124OSM     O313187   3.291   4.052   6.468  0.1400  0.2125 -0.4721
  124OSM    HO313188   3.282   4.135   6.420 -0.1137  0.6041  0.2392
  124OSM    C4S13189   3.256   3.987   6.698  0.6697 -0.9783  0.1979
  124OSM    H4S13190   3.319   3.977   6.788 -0.0816 -2.3146  0.6065
  124OSM    C5S13191   3.160   3.893   6.681  0.0401 -0.4004 -0.2293
  124OSM    H5S13192   3.110   3.895   6.583  1.9815  0.5410 -1.2616
  124OSM    C6S13193   3.124   3.787   6.782  0.1885  0.5353 -0.1366
  124OSM    H6S13194   3.144   3.684   6.746 -3.2024 -0.4785  0.5363
  124OSM    H6T13195   3.014   3.785   6.795  0.2380 -0.1962  0.1923
  124OSM    C7S13196   3.176   3.801   6.929 -0.1166 -0.3534  0.2229
  124OSM    H7S13197   3.142   3.897   6.975  1.8984  0.5622 -0.0842
  124OSM    H7T13198   3.286   3.812   6.919 -0.1609 -0.1925 -0.1111
  124OSM    C8S13199   3.134   3.684   7.022 -0.6470 -0.5289  0.0929
  124OSM    H8S13200   3.173   3.586   6.988 -0.1656 -0.2507 -0.1695
  124OSM    H8T13201   3.024   3.683   7.039 -0.2569 -1.3506  2.8993
  124OSM    C9S13202   3.181   3.720   7.163 -0.2448  0.1073  0.4647
  124OSM    H9S13203   3.140   3.818   7.197 -1.4111 -0.8437  1.9793
  124OSM    H9T13204   3.291   3.731   7.171 -0.1526 -1.1773  1.3088
  124OSM   C10S13205   3.152   3.620   7.273 -0.1175  0.1819 -0.1917
  124OSM   H10S13206   3.195   3.521   7.248  1.1336  0.6349  0.1254
  124OSM   H10T13207   3.043   3.610   7.296 -0.0748  0.0970 -0.0238
  124OSM   C11S13208   3.212   3.665   7.405  0.2975 -0.3105 -0.2193
  124OSM   H11S13209   3.164   3.760   7.438  2.7378  0.9556 -0.0468
  124OSM   H11T13210   3.317   3.703   7.399 -0.5994  2.2391 -1.4120
  124OSM   C12S13211   3.202   3.560   7.510 -0.4684  0.2876 -0.8900
  124OSM   H12S13212   3.275   3.478   7.490 -1.7859 -1.3944  0.8978
  124OSM   H12T13213   3.101   3.516   7.501 -0.2016 -0.2184 -1.5082
  124OSM   C13S13214   3.234   3.616   7.655  0.4547 -0.2153 -0.1060
  124OSM   H13S13215   3.156   3.692   7.681  0.1815 -0.3292 -0.5794
  124OSM   H13T13216   3.324   3.681   7.659  0.6685 -0.3013 -2.2228
  124OSM   C14S13217   3.239   3.508   7.771  0.2977  0.3801 -0.7591
  124OSM   H14S13218   3.334   3.450   7.767  1.3420  1.7102  1.9783
  124OSM   H14T13219   3.152   3.439   7.777  0.1362  0.6315 -0.1906
  124OSM   C15S13220   3.240   3.567   7.918 -0.0122  0.0129  0.3773
  124OSM   H15S13221   3.146   3.608   7.960  1.1107  0.4512  2.5787
  124OSM   H15T13222   3.319   3.645   7.907  2.1318 -2.1778 -0.6234
  124OSM   C16S13223   3.296   3.466   8.017 -0.8616 -0.1708  0.3849
  124OSM   H16S13224   3.395   3.421   7.993 -0.3493  1.1250 -0.0546
  124OSM   H16T13225   3.217   3.389   8.025 -1.6772  0.4972 -0.8295
  124OSM   C17S13226   3.319   3.534   8.152 -0.4442  0.3408  0.2417
  124OSM   H17S13227   3.220   3.559   8.194 -0.8754 -0.5741 -0.1869
  124OSM   H17T13228   3.374   3.627   8.129  0.9249  0.3569  3.1938
  124OSM   C18S13229   3.387   3.440   8.252  0.5219 -0.6464 -0.2646
  124OSM   H18S13230   3.330   3.345   8.262  1.1789 -1.0492 -0.3483
  124OSM   H18T13231   3.379   3.482   8.355 -3.1376 -1.1220 -0.1997
  124OSM   H18U13232   3.488   3.405   8.225  0.6168 -3.5749  3.0988
  124OSM    C1F13233   3.093   4.336   6.815 -0.1138  0.5704  0.2063
  124OSM     OF13234   3.017   4.396   6.743 -0.4047 -0.1075 -0.3009
  124OSM    C2F13235   3.083   4.340   6.964 -0.6180 -0.2455 -0.2208
  124OSM    H2F13236   3.174   4.385   7.010  0.2425 -2.9551  0.9353
  124OSM    H2G13237   3.086   4.231   6.985  0.1165 -0.5890 -1.9869
  124OSM    C3F13238   2.953   4.407   7.005 -0.5868 -0.0133  0.1512
  124OSM    H3F13239   2.871   4.359   6.948 -0.8507  0.9297 -0.2850
  124OSM    H3G13240   2.969   4.516   6.999  2.2496 -0.3430  0.0309
  124OSM    C4F13241   2.926   4.398   7.158  0.0220  0.3529 -0.7347
  124OSM    H4F13242   2.873   4.305   7.187 -0.3929  1.0115  0.7070
  124OSM    H4G13243   2.859   4.484   7.180 -0.1395  0.9902 -3.3805
  124OSM    C5F13244   3.044   4.410   7.251 -0.6027  0.4984 -0.3684
  124OSM    H5F13245   3.092   4.510   7.239  1.3783 -0.5992 -2.4607
  124OSM    H5G13246   3.119   4.330   7.237 -1.0505 -0.7359  3.2710
  124OSM    C6F13247   2.994   4.382   7.395  0.1264  0.2740  0.6108
  124OSM    H6F13248   2.939   4.286   7.389  0.1383  0.3246 -0.4766
  124OSM    H6G13249   2.924   4.463   7.427 -0.0057  0.6825 -0.6745
  124OSM    C7F13250   3.108   4.379   7.495 -0.1149 -0.0678  0.2953
  124OSM    H7F13251   3.137   4.486   7.511  1.4633 -0.7402  2.4547
  124OSM    H7G13252   3.192   4.319   7.454 -0.7460 -0.0158 -1.1482
  124OSM    C8F13253   3.078   4.307   7.630 -0.3028 -0.4710  0.0113
  124OSM    H8F13254   3.173   4.264   7.668  0.3635  1.4491  0.6123
  124OSM    H8G13255   3.013   4.228   7.586  2.9760 -2.7572 -1.0873
  124OSM    C9F13256   2.996   4.381   7.729 -0.4564 -0.3350 -0.6453
  124OSM    H9F13257   2.928   4.459   7.692  0.4328  1.4615  1.2931
  124OSM   C10F13258   2.985   4.360   7.861  0.2638 -0.2820 -0.2654
  124OSM   H10F13259   2.940   4.431   7.931 -2.5967 -1.3043 -0.9453
  124OSM   C11F13260   3.063   4.257   7.935 -0.6092 -0.6743  0.1594
  124OSM   H11F13261   3.168   4.245   7.899  0.3767  2.1955  1.7207
  124OSM   H11G13262   3.019   4.155   7.935  0.4936 -1.1946  1.7223
  124OSM   C12F13263   3.083   4.296   8.084  0.0902  0.0944 -0.0723
  124OSM   H12F13264   3.123   4.212   8.144 -3.3258 -0.3472  1.8313
  124OSM   H12G13265   2.982   4.320   8.122  0.3008  3.7483 -1.3890
  124OSM   C13F13266   3.163   4.420   8.108 -0.2791 -0.2444 -0.2935
  124OSM   H13F13267   3.126   4.519   8.074 -1.1122 -0.7552 -0.9379
  124OSM   H13G13268   3.265   4.407   8.065 -0.3931 -0.5891 -0.4671
  124OSM   C14F13269   3.178   4.447   8.257 -0.6612 -0.0555  0.8955
  124OSM   H14F13270   3.189   4.352   8.314 -1.5738 -0.5104  0.3450
  124OSM   H14G13271   3.083   4.493   8.292 -0.0017  2.3017 -0.1942
  124OSM   C15F13272   3.284   4.548   8.291 -0.2420 -0.0867  0.1429
  124OSM   H15F13273   3.260   4.649   8.253  1.1860  0.2452  0.0537
  124OSM   H15G13274   3.375   4.518   8.234 -0.2423  1.3286 -0.6392
  124OSM   C16F13275   3.311   4.557   8.441  0.7204 -0.2550  0.2671
  124OSM   H16F13276   3.347   4.455   8.465 -1.6751 -1.4341 -0.9007
  124OSM   H16G13277   3.209   4.567   8.484  0.2123 -0.0941 -0.9381
  124OSM   C17F13278   3.398   4.672   8.481 -0.1219  0.1161  0.3671
  124OSM   H17F13279   3.429   4.720   8.385  0.6301 -2.6275 -0.8579
  124OSM   H17G13280   3.481   4.623   8.536 -0.2281  0.2882  0.6876
  124OSM   C18F13281   3.335   4.774   8.577 -0.8619  0.1576  0.2449
  124OSM   H18F13282   3.354   4.735   8.679 -0.8625  2.3682  1.1626
  124OSM   H18G13283   3.224   4.778   8.574 -0.8459  0.0365 -1.7058
  124OSM   H18H13284   3.381   4.875   8.573 -2.1417  0.8688  2.0137
  125OSM      N13285   3.159   5.633   6.194  0.0725 -0.8350  0.3303
  125OSM    C1513286   3.225   5.532   6.116 -0.5123  0.0441  0.1813
  125OSM   H15A13287   3.332   5.535   6.134 -0.1639 -1.4056 -1.3500
  125OSM   H15B13288   3.216   5.549   6.010 -1.7293  1.0452  0.4222
  125OSM   H15C13289   3.195   5.430   6.134  1.3070 -0.0273  3.8671
  125OSM    C1413290   3.202   5.773   6.148  0.2179  0.2898 -0.0460
  125OSM   H14A13291   3.300   5.800   6.184  0.1745  2.1027 -1.1604
  125OSM   H14B13292   3.127   5.842   6.181 -0.2984  0.0962 -0.7742
  125OSM   H14C13293   3.209   5.790   6.041  2.0310  0.7903  0.1188
  125OSM    C1313294   3.012   5.634   6.156  0.9565 -0.2521  0.1650
  125OSM   H13A13295   2.966   5.541   6.183 -2.1315  1.2045  0.3442
  125OSM   H13B13296   2.994   5.648   6.050 -1.1208 -1.3035  0.3365
  125OSM   H13C13297   2.953   5.700   6.218 -0.9110 -1.4253 -0.3023
  125OSM    C1213298   3.169   5.606   6.342  1.1222 -0.6372  0.5367
  125OSM   H12A13299   3.093   5.531   6.361  0.9310 -0.7486 -0.6213
  125OSM   H12B13300   3.140   5.697   6.393 -1.4696 -1.5411  0.8250
  125OSM    C1113301   3.296   5.541   6.388 -0.5679 -0.3321  0.5214
  125OSM   H11A13302   3.297   5.559   6.497  0.3874  1.3780  0.2681
  125OSM   H11B13303   3.374   5.597   6.331 -1.6867  1.4345  0.6579
  125OSM      P13304   3.409   5.316   6.287 -0.4528  0.0367 -0.0782
  125OSM    O1313305   3.345   5.241   6.180 -0.0884 -0.2837 -0.1847
  125OSM    O1413306   3.523   5.405   6.257 -0.1837  0.0784 -0.1829
  125OSM    O1113307   3.458   5.212   6.393  0.1013 -0.8484 -0.7681
  125OSM    O1213308   3.301   5.404   6.365  0.9715 -0.0793  0.9026
  125OSM    C1S13309   3.512   5.262   6.519  0.1646  0.6374  0.3762
  125OSM    H1S13310   3.460   5.357   6.545 -1.1566 -0.4335  1.7556
  125OSM    H1T13311   3.620   5.286   6.514  0.4603 -0.0890  2.4565
  125OSM     NF13312   3.523   5.227   6.777  0.2810  0.1239 -0.4482
  125OSM    HNF13313   3.591   5.174   6.827 -0.9133 -2.0461 -1.0321
  125OSM    C2S13314   3.479   5.169   6.649  0.2148 -0.1373 -0.5741
  125OSM    H2S13315   3.368   5.159   6.653  0.2749 -0.6514 -0.0419
  125OSM    C3S13316   3.536   5.020   6.632 -0.2596  0.0950 -0.3866
  125OSM    H3S13317   3.643   5.035   6.661  0.0219 -1.7969 -0.3686
  125OSM     O313318   3.532   4.973   6.501  0.4331  0.3503 -0.4376
  125OSM    HO313319   3.495   5.054   6.466 -1.4138 -0.0086  0.5560
  125OSM    C4S13320   3.476   4.926   6.732 -0.0149  0.1359  0.5581
  125OSM    H4S13321   3.366   4.924   6.721  0.1156  0.5655 -0.9566
  125OSM    C5S13322   3.544   4.850   6.815  0.5082  0.4969  0.4431
  125OSM    H5S13323   3.653   4.851   6.803  0.5404 -0.2119  0.6545
  125OSM    C6S13324   3.489   4.748   6.915 -0.3724 -0.5547 -0.4186
  125OSM    H6S13325   3.547   4.755   7.010 -0.5629 -0.4762 -0.3075
  125OSM    H6T13326   3.513   4.642   6.890  0.5889 -1.1473  2.5598
  125OSM    C7S13327   3.338   4.772   6.935 -0.4269 -0.2530 -0.1390
  125OSM    H7S13328   3.274   4.773   6.844  1.9692 -3.6455 -2.1076
  125OSM    H7T13329   3.326   4.870   6.985  0.0784 -0.2551 -0.0040
  125OSM    C8S13330   3.284   4.665   7.032  1.0123  0.3820  0.3507
  125OSM    H8S13331   3.302   4.565   6.988 -1.0786  1.1199 -2.5575
  125OSM    H8T13332   3.173   4.656   7.033  1.1965 -3.2075  0.9171
  125OSM    C9S13333   3.327   4.674   7.178 -0.5217 -0.4274 -0.2420
  125OSM    H9S13334   3.427   4.722   7.185 -2.4526  4.0079  0.6522
  125OSM    H9T13335   3.317   4.578   7.233 -0.6675 -0.0487  0.4045
  125OSM   C10S13336   3.234   4.771   7.256 -0.6253 -0.2327  0.1816
  125OSM   H10S13337   3.129   4.767   7.218 -1.0505  1.4400  1.0899
  125OSM   H10T13338   3.263   4.877   7.247 -1.1563 -0.0954  0.0679
  125OSM   C11S13339   3.235   4.754   7.409 -1.3512  0.1654 -0.1192
  125OSM   H11S13340   3.203   4.651   7.436  0.4245 -0.3801  0.0204
  125OSM   H11T13341   3.154   4.812   7.459 -0.0568  0.6348  1.5215
  125OSM   C12S13342   3.361   4.806   7.478  0.2982 -0.5005 -0.2142
  125OSM   H12S13343   3.361   4.914   7.454 -2.2300 -0.4055 -0.0920
  125OSM   H12T13344   3.452   4.761   7.433  0.0881 -0.8621 -0.2833
  125OSM   C13S13345   3.357   4.782   7.633  0.7200 -0.3158  0.1414
  125OSM   H13S13346   3.250   4.780   7.663  1.1314 -0.2211  1.6934
  125OSM   H13T13347   3.406   4.871   7.677 -0.6711  0.8068 -0.4771
  125OSM   C14S13348   3.412   4.653   7.686  0.7991  0.9650  0.8097
  125OSM   H14S13349   3.522   4.645   7.674  0.5826  1.0176 -1.8582
  125OSM   H14T13350   3.380   4.568   7.622  1.2215 -1.3964  3.5109
  125OSM   C15S13351   3.376   4.623   7.832 -0.1550 -0.3831 -0.1532
  125OSM   H15S13352   3.399   4.520   7.867 -1.7746 -1.7421 -2.8200
  125OSM   H15T13353   3.266   4.635   7.836 -0.1684 -0.2858  3.6231
  125OSM   C16S13354   3.422   4.735   7.929  0.2123  0.4311  0.0186
  125OSM   H16S13355   3.353   4.739   8.016  0.0623  1.8121 -0.1457
  125OSM   H16T13356   3.427   4.835   7.880  0.1926  0.1355 -0.6010
  125OSM   C17S13357   3.554   4.702   8.004  0.1099 -0.3747  0.4716
  125OSM   H17S13358   3.639   4.716   7.934  0.0569  1.4479  0.6989
  125OSM   H17T13359   3.559   4.598   8.041  1.4630 -0.3124  0.5044
  125OSM   C18S13360   3.581   4.797   8.127  0.1583 -0.6338  0.0474
  125OSM   H18S13361   3.511   4.774   8.210 -1.3592  0.2233 -0.9638
  125OSM   H18T13362   3.562   4.899   8.088  0.2814 -0.8199 -0.5162
  125OSM   H18U13363   3.685   4.787   8.165  0.3117  0.3776 -0.0755
  125OSM    C1F13364   3.476   5.343   6.818 -0.4895  0.7898 -0.3388
  125OSM     OF13365   3.379   5.387   6.774  0.1581 -0.1572  0.1070
  125OSM    C2F13366   3.558   5.415   6.914 -0.0774  0.2956  0.0492
  125OSM    H2F13367   3.656   5.432   6.865  0.5077  0.3464  1.2201
  125OSM    H2G13368   3.570   5.349   7.003 -0.4796 -0.4094 -0.4054
  125OSM    C3F13369   3.505   5.549   6.964  0.5774 -0.0203 -0.7233
  125OSM    H3F13370   3.402   5.554   7.004  1.1914 -0.4863  0.9880
  125OSM    H3G13371   3.510   5.620   6.879  1.0553  2.1405  1.0107
  125OSM    C4F13372   3.603   5.614   7.065  0.2117 -0.5270  0.1548
  125OSM    H4F13373   3.619   5.723   7.051 -1.3661 -0.2839  0.0183
  125OSM    H4G13374   3.699   5.559   7.063 -0.5214 -1.9387  1.5723
  125OSM    C5F13375   3.551   5.600   7.208 -0.2239  0.1270 -0.4029
  125OSM    H5F13376   3.522   5.499   7.245 -0.9536  0.5847  0.3441
  125OSM    H5G13377   3.460   5.665   7.212 -0.2249  0.1276 -0.4467
  125OSM    C6F13378   3.646   5.654   7.315 -0.4876  0.2584  0.4301
  125OSM    H6F13379   3.688   5.749   7.275  0.3156  0.1261  0.9420
  125OSM    H6G13380   3.733   5.585   7.322  0.8957  1.7493 -0.9840
  125OSM    C7F13381   3.582   5.693   7.447  0.6555  0.0272  0.0739
  125OSM    H7F13382   3.546   5.597   7.490 -1.7546 -0.1979 -2.1923
  125OSM    H7G13383   3.492   5.753   7.425  0.5846  0.9013  2.4588
  125OSM    C8F13384   3.670   5.768   7.555 -0.1224 -0.5475  0.0265
  125OSM    H8F13385   3.606   5.801   7.639  1.6335 -2.6342  2.3307
  125OSM    H8G13386   3.710   5.864   7.516  1.1482 -1.5240 -1.1956
  125OSM    C9F13387   3.785   5.687   7.611 -0.2781  0.4120  0.1743
  125OSM    H9F13388   3.866   5.704   7.538 -2.7496  1.7949 -2.4621
  125OSM   C10F13389   3.775   5.595   7.704  0.7220  0.3105  0.2570
  125OSM   H10F13390   3.865   5.541   7.737 -0.1096 -0.5608  1.1485
  125OSM   C11F13391   3.656   5.550   7.778  0.5010  0.2205 -0.1858
  125OSM   H11F13392   3.646   5.441   7.759 -0.4163  0.0632  1.0664
  125OSM   H11G13393   3.568   5.599   7.731  0.0180 -0.5671 -0.1349
  125OSM   C12F13394   3.658   5.589   7.925  0.1278 -0.0561  0.0654
  125OSM   H12F13395   3.651   5.698   7.945 -3.0740  0.3014 -2.2373
  125OSM   H12G13396   3.747   5.543   7.973  0.5753  0.6847 -0.0406
  125OSM   C13F13397   3.535   5.523   7.997 -0.1282 -0.3147  0.6739
  125OSM   H13F13398   3.516   5.417   7.971 -0.8021 -0.1773  0.5895
  125OSM   H13G13399   3.455   5.592   7.962  1.2785  1.7213  1.2535
  125OSM   C14F13400   3.543   5.542   8.153  0.3973  0.9696 -0.3174
  125OSM   H14F13401   3.442   5.513   8.187  1.0602 -1.6678 -0.4099
  125OSM   H14G13402   3.552   5.651   8.174  2.6195  0.7837 -0.0648
  125OSM   C15F13403   3.653   5.456   8.223  0.6463  0.2033  0.3418
  125OSM   H15F13404   3.642   5.484   8.330 -0.5516  2.7926 -0.3703
  125OSM   H15G13405   3.746   5.469   8.163 -1.1194  0.6667 -2.4533
  125OSM   C16F13406   3.622   5.310   8.213 -0.4825  0.6578  0.5396
  125OSM   H16F13407   3.640   5.275   8.109 -2.4201 -1.3134  0.7806
  125OSM   H16G13408   3.514   5.287   8.223 -0.7700  0.8892 -1.4927
  125OSM   C17F13409   3.706   5.218   8.297 -0.2755  0.0846  0.8332
  125OSM   H17F13410   3.813   5.221   8.269 -0.0371 -1.2453  1.4715
  125OSM   H17G13411   3.676   5.114   8.271 -2.7889  0.3555  2.2364
  125OSM   C18F13412   3.682   5.214   8.450 -0.5097  0.5051  0.4335
  125OSM   H18F13413   3.573   5.195   8.458 -0.5107  0.4044  0.2025
  125OSM   H18G13414   3.709   5.303   8.511 -1.0347 -0.1856  1.7032
  125OSM   H18H13415   3.732   5.127   8.498 -1.4974 -1.2576 -1.5152
  126OSM      N13416   0.950   4.187   6.465  0.2607 -0.2381 -0.5894
  126OSM    C1513417   0.797   4.179   6.452  0.2230 -0.0506 -0.3808
  126OSM   H15A13418   0.760   4.273   6.414 -1.9880 -1.2316 -1.2782
  126OSM   H15B13419   0.759   4.160   6.551  1.7400  0.3986  0.3226
  126OSM   H15C13420   0.762   4.097   6.391  1.0418 -1.0939  0.5117
  126OSM    C1413421   0.999   4.086   6.564 -0.6115 -0.3174  0.5788
  126OSM   H14A13422   0.937   4.000   6.582  1.4799 -2.1488 -0.5574
  126OSM   H14B13423   1.018   4.137   6.657  2.6927  1.2393 -0.7629
  126OSM   H14C13424   1.097   4.051   6.534 -1.7336 -1.2221 -2.4277
  126OSM    C1313425   1.012   4.150   6.328 -0.5157  0.0149 -0.0817
  126OSM   H13A13426   0.984   4.219   6.250  0.4847  0.0606 -0.4072
  126OSM   H13B13427   0.997   4.049   6.293  0.8064 -0.2241 -0.0096
  126OSM   H13C13428   1.118   4.166   6.323 -0.4625 -0.5003 -0.8328
  126OSM    C1213429   0.991   4.328   6.503  0.0789 -0.6474 -1.0098
  126OSM   H12A13430   1.096   4.328   6.528 -0.3429 -0.9750  0.8848
  126OSM   H12B13431   0.934   4.353   6.592 -0.2270 -0.2635 -1.3088
  126OSM    C1113432   0.970   4.455   6.418 -0.7273  0.2290  0.2187
  126OSM   H11A13433   1.039   4.437   6.333  0.2553  1.3980  0.7228
  126OSM   H11B13434   1.018   4.538   6.475 -0.7359  0.6690 -0.4033
  126OSM      P13435   0.741   4.545   6.490  0.0529 -0.2464  0.4597
  126OSM    O1313436   0.740   4.694   6.462  0.3615  0.2966  0.1527
  126OSM    O1413437   0.612   4.473   6.472 -0.4596  0.5331 -0.7162
  126OSM    O1113438   0.817   4.511   6.629 -0.4460  0.4497 -0.2185
  126OSM    O1213439   0.835   4.483   6.377 -0.3632 -0.0827 -0.0081
  126OSM    C1S13440   0.729   4.510   6.743 -0.6794 -0.1537  0.1405
  126OSM    H1S13441   0.682   4.410   6.752 -0.4322 -0.1447  1.8691
  126OSM    H1T13442   0.650   4.587   6.730 -0.6171 -0.3935 -1.8710
  126OSM     NF13443   0.738   4.488   6.991 -0.2244 -0.4382 -0.0784
  126OSM    HNF13444   0.718   4.568   7.048 -0.1369  1.4793 -2.5506
  126OSM    C2S13445   0.815   4.536   6.874  0.2137  0.3551 -0.0908
  126OSM    H2S13446   0.908   4.475   6.865 -0.7865 -1.0599 -1.3097
  126OSM    C3S13447   0.843   4.678   6.881 -0.2542  0.3421  0.4733
  126OSM    H3S13448   0.738   4.708   6.900  0.4729  1.2221  3.6887
  126OSM     O313449   0.889   4.741   6.764  0.2885 -0.4715 -0.1750
  126OSM    HO313450   0.869   4.675   6.697 -1.1782 -0.5174  0.2804
  126OSM    C4S13451   0.931   4.713   6.999  0.1922 -0.3158  0.0135
  126OSM    H4S13452   0.885   4.749   7.092 -1.5339 -2.7124  0.1848
  126OSM    C5S13453   1.064   4.695   7.001 -0.1590  0.1914  0.1945
  126OSM    H5S13454   1.101   4.658   6.905 -0.0916 -0.7036  0.5575
  126OSM    C6S13455   1.163   4.733   7.112 -0.4579 -0.5757  0.5342
  126OSM    H6S13456   1.226   4.820   7.084 -0.7494 -0.0049  1.6171
  126OSM    H6T13457   1.237   4.651   7.126  2.0099  1.3941 -0.2267
  126OSM    C7S13458   1.109   4.760   7.248 -0.2293  0.2267 -0.3662
  126OSM    H7S13459   1.051   4.675   7.292  1.5019 -0.7273  0.1666
  126OSM    H7T13460   1.040   4.846   7.235  0.3449  0.3882 -2.7278
  126OSM    C8S13461   1.209   4.816   7.349 -0.7788  0.2074  0.0708
  126OSM    H8S13462   1.284   4.874   7.291 -0.7410  0.0104 -0.0782
  126OSM    H8T13463   1.268   4.733   7.393 -1.2816 -1.3064 -1.9599
  126OSM    C9S13464   1.153   4.891   7.466  0.0953 -0.2519 -0.5289
  126OSM    H9S13465   1.075   4.823   7.507  0.2186  0.1784  0.4698
  126OSM    H9T13466   1.088   4.977   7.438 -0.0657  0.1061  0.8253
  126OSM   C10S13467   1.250   4.930   7.581  0.2927  0.0395  0.5753
  126OSM   H10S13468   1.296   5.022   7.538 -0.0196 -0.1440 -0.1625
  126OSM   H10T13469   1.331   4.854   7.584  0.1809 -0.1421 -0.5715
  126OSM   C11S13470   1.192   4.958   7.724  0.1501  0.8081  0.4626
  126OSM   H11S13471   1.136   4.866   7.753  0.2125 -0.0742 -1.9709
  126OSM   H11T13472   1.121   5.043   7.732  0.7298  1.4592 -1.0670
  126OSM   C12S13473   1.297   4.971   7.832 -0.3316 -0.1365 -0.1353
  126OSM   H12S13474   1.361   5.059   7.813 -0.2572 -0.0717  0.4015
  126OSM   H12T13475   1.367   4.885   7.832  0.8505  0.7783  1.3220
  126OSM   C13S13476   1.234   4.971   7.977 -0.1402 -0.3352 -0.3490
  126OSM   H13S13477   1.165   4.885   7.988  0.6066 -1.0868 -1.2361
  126OSM   H13T13478   1.175   5.065   7.978 -0.2149 -0.3858  0.6763
  126OSM   C14S13479   1.354   4.971   8.082  0.1207  0.0666  0.7355
  126OSM   H14S13480   1.418   5.060   8.062  2.9172 -1.5365  1.9767
  126OSM   H14T13481   1.412   4.878   8.065  0.8622  0.5778  0.3844
  126OSM   C15S13482   1.315   4.967   8.225 -0.6628 -0.5900 -0.3476
  126OSM   H15S13483   1.406   4.929   8.276 -0.2914 -0.0617 -0.6096
  126OSM   H15T13484   1.233   4.896   8.252 -2.5677  1.5967 -0.0253
  126OSM   C16S13485   1.279   5.108   8.277 -0.7562 -0.7802  0.1466
  126OSM   H16S13486   1.175   5.136   8.252  0.4811  2.2000 -2.3216
  126OSM   H16T13487   1.339   5.187   8.227  0.0109 -0.7388  1.0966
  126OSM   C17S13488   1.289   5.129   8.425 -0.3542 -0.6723  0.0934
  126OSM   H17S13489   1.387   5.094   8.465  0.2207  0.1266 -0.5939
  126OSM   H17T13490   1.214   5.065   8.476  0.5611 -2.4428 -0.6886
  126OSM   C18S13491   1.273   5.281   8.461  0.1532  0.7257 -0.4315
  126OSM   H18S13492   1.167   5.306   8.437 -0.2174 -0.2011  0.2151
  126OSM   H18T13493   1.349   5.350   8.417 -0.3705  1.6430  0.0594
  126OSM   H18U13494   1.286   5.287   8.571 -0.0521  0.8139 -0.4126
  126OSM    C1F13495   0.698   4.364   7.018  0.0097  0.0548 -0.5639
  126OSM     OF13496   0.742   4.271   6.951  0.3901  0.3868 -0.3460
  126OSM    C2F13497   0.608   4.343   7.131  1.1368  0.1226  0.2708
  126OSM    H2F13498   0.604   4.430   7.201  1.9564 -0.5568  1.1710
  126OSM    H2G13499   0.631   4.252   7.189 -1.1350  0.1632  1.3500
  126OSM    C3F13500   0.466   4.320   7.078  0.5173 -0.3320  0.5150
  126OSM    H3F13501   0.461   4.235   7.007  1.2189  1.3728 -1.6694
  126OSM    H3G13502   0.425   4.413   7.032 -1.7435 -1.5300 -0.0464
  126OSM    C4F13503   0.370   4.305   7.195  0.4734  0.8985  0.4622
  126OSM    H4F13504   0.375   4.202   7.237 -2.0394  0.3239 -0.4291
  126OSM    H4G13505   0.267   4.319   7.156  0.2604  0.4618  0.8454
  126OSM    C5F13506   0.382   4.422   7.296  0.8797 -0.2480 -0.4247
  126OSM    H5F13507   0.426   4.507   7.240 -0.3568 -0.1286 -1.2465
  126OSM    H5G13508   0.466   4.393   7.363 -1.3637 -1.9296  1.8945
  126OSM    C6F13509   0.261   4.461   7.391  0.1171  1.1721  0.5303
  126OSM    H6F13510   0.265   4.377   7.464 -0.3790 -0.9271 -1.7555
  126OSM    H6G13511   0.178   4.472   7.318  0.9539  0.2255 -0.5909
  126OSM    C7F13512   0.283   4.591   7.464 -0.7661  0.2735 -0.5008
  126OSM    H7F13513   0.329   4.666   7.397  2.0193  0.8491  1.8773
  126OSM    H7G13514   0.365   4.561   7.533 -0.9570 -1.6547 -1.0627
  126OSM    C8F13515   0.161   4.635   7.546 -0.9256  0.9376  0.1016
  126OSM    H8F13516   0.124   4.550   7.607  3.4852 -0.9719  0.5163
  126OSM    H8G13517   0.081   4.656   7.472 -0.1906  1.9538 -0.4333
  126OSM    C9F13518   0.204   4.742   7.644  0.1065  0.1795 -0.4518
  126OSM    H9F13519   0.182   4.836   7.593 -0.6184 -0.3489 -1.1399
  126OSM   C10F13520   0.238   4.744   7.776 -0.1375 -0.0467  0.7426
  126OSM   H10F13521   0.269   4.844   7.808  0.2600  0.6051 -1.4959
  126OSM   C11F13522   0.263   4.632   7.875  0.0636  0.3639  0.3845
  126OSM   H11F13523   0.273   4.531   7.829  0.4639 -0.2125  1.6845
  126OSM   H11G13524   0.179   4.609   7.945  0.8645 -1.2278  0.8814
  126OSM   C12F13525   0.391   4.652   7.950 -0.4268  0.6230  0.6210
  126OSM   H12F13526   0.463   4.694   7.877 -0.1104 -0.4969  0.2788
  126OSM   H12G13527   0.445   4.561   7.982 -0.7784  0.4406  0.7016
  126OSM   C13F13528   0.394   4.739   8.071  0.3701  0.0493 -0.7386
  126OSM   H13F13529   0.360   4.843   8.056  1.3735  0.7135  1.1573
  126OSM   H13G13530   0.502   4.752   8.095  0.1599  1.0853 -0.2792
  126OSM   C14F13531   0.310   4.686   8.193  0.6020  0.0880  0.8515
  126OSM   H14F13532   0.206   4.661   8.161  1.2650 -0.5884 -0.8646
  126OSM   H14G13533   0.311   4.763   8.273 -1.5923  1.0884  0.0166
  126OSM   C15F13534   0.361   4.547   8.245 -0.0551  0.3359  0.1005
  126OSM   H15F13535   0.471   4.550   8.260 -0.0677 -3.0213  1.7600
  126OSM   H15G13536   0.341   4.468   8.170  0.6753  1.3334 -1.1927
  126OSM   C16F13537   0.299   4.517   8.378  0.1158  0.7690 -0.2473
  126OSM   H16F13538   0.196   4.475   8.368 -0.2073  1.4286  0.2776
  126OSM   H16G13539   0.278   4.609   8.436  1.3643  1.8158 -1.3789
  126OSM   C17F13540   0.378   4.421   8.470  0.3588 -0.2070  0.5017
  126OSM   H17F13541   0.316   4.412   8.562 -3.8056 -3.1957 -2.2030
  126OSM   H17G13542   0.471   4.470   8.506 -0.1134  0.8981  0.2607
  126OSM   C18F13543   0.416   4.286   8.418 -0.3002  0.3047 -0.0687
  126OSM   H18F13544   0.475   4.227   8.492  0.3794 -0.7326 -1.3843
  126OSM   H18G13545   0.477   4.298   8.326 -1.6588  1.0671 -0.8899
  126OSM   H18H13546   0.325   4.224   8.412 -0.0315 -0.2609  1.3274
  127OSM      N13547   2.443   2.209   5.867  0.2936  0.3358 -0.2577
  127OSM    C1513548   2.377   2.150   5.751  0.4133  0.4468 -0.3873
  127OSM   H15A13549   2.387   2.214   5.664 -0.1940 -0.6388 -1.2999
  127OSM   H15B13550   2.271   2.141   5.770  0.6644  0.8762  1.2822
  127OSM   H15C13551   2.420   2.055   5.722  1.0030  0.2392  1.1139
  127OSM    C1413552   2.433   2.110   5.975 -0.6373 -0.6136 -0.5951
  127OSM   H14A13553   2.494   2.023   5.954  0.1924  0.0900 -1.2103
  127OSM   H14B13554   2.334   2.074   5.998 -0.1711 -3.8305 -2.9628
  127OSM   H14C13555   2.470   2.148   6.069 -1.4157 -0.6086 -0.2797
  127OSM    C1313556   2.590   2.208   5.824  0.0981  0.3669  0.1442
  127OSM   H13A13557   2.596   2.266   5.733  0.5803 -1.1648 -0.8608
  127OSM   H13B13558   2.623   2.107   5.800 -1.6377 -0.0046 -0.8592
  127OSM   H13C13559   2.648   2.242   5.908 -0.2950 -1.4773  1.2198
  127OSM    C1213560   2.404   2.349   5.895 -0.5898  0.4725  0.5797
  127OSM   H12A13561   2.411   2.395   5.798 -3.1638 -0.3404 -0.0499
  127OSM   H12B13562   2.482   2.386   5.961  1.8353 -1.5958 -0.9265
  127OSM    C1113563   2.261   2.354   5.947  0.8949  0.0194 -0.0564
  127OSM   H11A13564   2.252   2.306   6.047 -0.8159  1.3804  0.4946
  127OSM   H11B13565   2.194   2.294   5.883  0.4965 -0.6101  0.9298
  127OSM      P13566   2.278   2.599   6.056 -0.4182 -0.1415 -0.4739
  127OSM    O1313567   2.307   2.724   5.983  0.1960  0.5345 -0.1891
  127OSM    O1413568   2.189   2.609   6.169  0.2110  0.7843 -0.3921
  127OSM    O1113569   2.415   2.542   6.098  0.2187  0.2983 -0.6012
  127OSM    O1213570   2.217   2.491   5.956 -0.1766 -0.1830  0.2905
  127OSM    C1S13571   2.510   2.608   6.186  0.3802  0.9950  0.0470
  127OSM    H1S13572   2.469   2.701   6.231  0.5121 -0.6353  3.8350
  127OSM    H1T13573   2.603   2.620   6.126 -0.0102 -0.4350 -0.9042
  127OSM     NF13574   2.608   2.626   6.421 -0.2440 -0.3187  0.0522
  127OSM    HNF13575   2.707   2.625   6.436  0.0388  0.2168 -1.6459
  127OSM    C2S13576   2.551   2.534   6.319  0.0402 -0.6173  0.4233
  127OSM    H2S13577   2.459   2.481   6.352 -1.3594  0.5199 -1.4480
  127OSM    C3S13578   2.645   2.414   6.276  0.3818 -0.2918  0.7939
  127OSM    H3S13579   2.729   2.462   6.221  1.0582  1.4416  3.1795
  127OSM     O313580   2.580   2.313   6.194  0.3129  0.7012  0.1279
  127OSM    HO313581   2.486   2.326   6.202  0.3377 -0.4240  3.3541
  127OSM    C4S13582   2.712   2.341   6.390 -0.1827  0.2221 -0.4264
  127OSM    H4S13583   2.638   2.285   6.450 -2.1506  0.8050 -2.1619
  127OSM    C5S13584   2.844   2.336   6.423  0.0095 -0.0831  0.3970
  127OSM    H5S13585   2.905   2.405   6.364 -1.7789  0.6166 -0.7102
  127OSM    C6S13586   2.901   2.269   6.545 -0.2874 -0.0259  0.5750
  127OSM    H6S13587   2.987   2.206   6.515 -1.1500 -1.2840  0.6428
  127OSM    H6T13588   2.839   2.207   6.614 -0.0599  1.7709  2.4870
  127OSM    C7S13589   2.943   2.382   6.646 -0.0311 -0.2404  0.2869
  127OSM    H7S13590   2.866   2.462   6.653 -3.1911 -2.7878 -1.8861
  127OSM    H7T13591   3.036   2.426   6.604 -0.7554 -1.3210 -2.7011
  127OSM    C8S13592   2.970   2.328   6.790 -0.2107 -0.2863 -0.2846
  127OSM    H8S13593   3.052   2.254   6.789 -2.3352 -2.8065 -2.6860
  127OSM    H8T13594   2.882   2.279   6.837  0.8570 -1.9738  0.0255
  127OSM    C9S13595   3.011   2.448   6.878 -0.0733  0.1866  0.7644
  127OSM    H9S13596   2.936   2.525   6.851  0.4856  0.8096  0.9616
  127OSM    H9T13597   3.116   2.472   6.849 -0.1001  1.0999  1.4171
  127OSM   C10S13598   2.998   2.411   7.026  0.3999  0.4457  0.1649
  127OSM   H10S13599   3.064   2.322   7.037 -0.6963 -0.4075 -0.0016
  127OSM   H10T13600   2.894   2.378   7.046  0.1841  1.2322  0.3710
  127OSM   C11S13601   3.033   2.520   7.117  0.0139 -1.1391  0.0861
  127OSM   H11S13602   2.957   2.599   7.102 -1.7909 -2.9798 -0.9583
  127OSM   H11T13603   3.133   2.561   7.091 -0.3375 -0.5055 -0.2744
  127OSM   C12S13604   3.021   2.472   7.262 -0.3695  0.4634 -0.4652
  127OSM   H12S13605   3.098   2.394   7.281  1.0627  1.0340 -3.3419
  127OSM   H12T13606   2.917   2.433   7.270  0.0745 -0.8677 -0.9363
  127OSM   C13S13607   3.040   2.584   7.362  0.7450 -0.1611 -0.3059
  127OSM   H13S13608   2.961   2.656   7.331 -0.6913 -1.0478  1.1111
  127OSM   H13T13609   3.141   2.630   7.362 -0.0930  2.0024  2.9962
  127OSM   C14S13610   3.021   2.526   7.502  0.1377  0.0421  0.0004
  127OSM   H14S13611   3.100   2.451   7.525  0.6708 -0.7666 -3.7650
  127OSM   H14T13612   2.927   2.469   7.493  0.1777  0.0326 -0.4097
  127OSM   C15S13613   3.006   2.632   7.613  0.1667 -0.4098  0.1805
  127OSM   H15S13614   2.913   2.603   7.668  0.3726  0.6725  1.1324
  127OSM   H15T13615   2.989   2.736   7.579  0.1213 -0.3111  0.5074
  127OSM   C16S13616   3.119   2.612   7.719  0.3662 -0.0455  0.9465
  127OSM   H16S13617   3.122   2.686   7.802 -0.2397 -0.5620  1.4470
  127OSM   H16T13618   3.214   2.622   7.662  0.8224  1.1342  1.8595
  127OSM   C17S13619   3.127   2.476   7.787  0.1759 -0.1496  0.0064
  127OSM   H17S13620   3.130   2.389   7.719 -1.0159 -0.6374  0.5560
  127OSM   H17T13621   3.040   2.472   7.856  0.4979 -1.1437  0.3788
  127OSM   C18S13622   3.259   2.469   7.858  0.4468  0.1598  0.5093
  127OSM   H18S13623   3.260   2.543   7.941 -0.1880 -0.8936  1.4843
  127OSM   H18T13624   3.340   2.495   7.787 -0.8989 -2.4993 -2.2101
  127OSM   H18U13625   3.274   2.370   7.907 -0.9939 -1.2646 -1.7619
  127OSM    C1F13626   2.536   2.717   6.490 -0.2221  0.3323  0.3326
  127OSM     OF13627   2.421   2.743   6.463  0.9748  0.4282 -0.5551
  127OSM    C2F13628   2.600   2.781   6.606  0.1777  0.0025 -0.3773
  127OSM    H2F13629   2.588   2.891   6.614 -0.3588 -0.0143 -0.9027
  127OSM    H2G13630   2.709   2.770   6.591  0.0835  1.0890 -2.1224
  127OSM    C3F13631   2.577   2.701   6.737  0.0661 -0.5649 -0.1569
  127OSM    H3F13632   2.590   2.591   6.746  1.0934 -0.3802  0.8496
  127OSM    H3G13633   2.475   2.724   6.774 -0.6573 -1.6520 -1.3932
  127OSM    C4F13634   2.678   2.765   6.833 -0.0556 -0.0534  0.2792
  127OSM    H4F13635   2.655   2.874   6.836  1.8521  0.4188 -0.8408
  127OSM    H4G13636   2.777   2.744   6.789 -0.0924 -0.4173  0.3706
  127OSM    C5F13637   2.675   2.721   6.979  0.4770  0.2031  1.1443
  127OSM    H5F13638   2.694   2.612   6.991 -2.4562 -0.7281 -1.4088
  127OSM    H5G13639   2.569   2.726   7.010  0.1398  1.8343 -0.1712
  127OSM    C6F13640   2.755   2.822   7.069 -0.3144 -0.1802 -0.0686
  127OSM    H6F13641   2.711   2.923   7.055 -1.8435 -0.6799  0.9030
  127OSM    H6G13642   2.862   2.818   7.040 -0.3352 -1.4966 -0.0144
  127OSM    C7F13643   2.742   2.787   7.223  0.0170 -0.0669 -0.7443
  127OSM    H7F13644   2.762   2.678   7.235  0.1284 -0.2571 -2.3676
  127OSM    H7G13645   2.634   2.800   7.247  0.5568 -0.3742  2.2521
  127OSM    C8F13646   2.811   2.869   7.326 -0.5883  0.0614 -0.0644
  127OSM    H8F13647   2.917   2.889   7.296  0.5397 -3.3433  1.1620
  127OSM    H8G13648   2.816   2.807   7.418  1.0509  1.3436  0.7825
  127OSM    C9F13649   2.737   2.988   7.365 -0.0816 -0.4842  0.5421
  127OSM    H9F13650   2.630   2.966   7.370  0.1075 -2.1192 -1.5886
  127OSM   C10F13651   2.782   3.113   7.389 -0.4583  0.2302 -0.5247
  127OSM   H10F13652   2.701   3.187   7.398 -0.1262  0.8227 -2.1602
  127OSM   C11F13653   2.932   3.147   7.404  0.0287  0.4549  0.0561
  127OSM   H11F13654   2.970   3.197   7.313  2.5794  1.3442  1.4959
  127OSM   H11G13655   3.002   3.060   7.409 -0.5223  0.0535  1.0552
  127OSM   C12F13656   2.967   3.246   7.521  0.7648 -0.0033 -0.4192
  127OSM   H12F13657   2.930   3.344   7.485  1.9901 -0.4442 -3.1477
  127OSM   H12G13658   3.077   3.254   7.512  0.6877  1.1281 -0.5042
  127OSM   C13F13659   2.917   3.196   7.661 -0.2756 -0.2254  0.2659
  127OSM   H13F13660   2.806   3.188   7.652 -0.2032  0.1549 -1.1737
  127OSM   H13G13661   2.939   3.268   7.743 -1.6864 -0.6867  1.0914
  127OSM   C14F13662   2.988   3.064   7.692  0.2746 -0.2892  0.2641
  127OSM   H14F13663   3.097   3.080   7.686  0.4036 -0.6125  1.5310
  127OSM   H14G13664   2.971   2.983   7.618  2.8220 -0.8899  0.2499
  127OSM   C15F13665   2.957   3.018   7.836  0.4576  0.3604  0.1795
  127OSM   H15F13666   2.990   2.912   7.836  1.2743  0.5592 -2.6088
  127OSM   H15G13667   2.853   3.027   7.873  0.2543  1.5526 -0.6273
  127OSM   C16F13668   3.048   3.092   7.944  0.0817 -0.2418  0.0927
  127OSM   H16F13669   3.008   3.080   8.047  1.9451  0.6435  0.9565
  127OSM   H16G13670   3.059   3.200   7.921 -0.2976  0.1307  1.5858
  127OSM   C17F13671   3.188   3.028   7.975 -0.3430  0.2777  0.3986
  127OSM   H17F13672   3.256   3.091   8.036 -0.8621  0.5361  0.7189
  127OSM   H17G13673   3.239   3.003   7.880  1.3110 -3.4671  2.0862
  127OSM   C18F13674   3.181   2.891   8.051  0.2511 -0.0860  0.9644
  127OSM   H18F13675   3.155   2.805   7.986  1.4859  0.5977 -0.4660
  127OSM   H18G13676   3.103   2.913   8.128 -1.6761 -1.1202 -0.5970
  127OSM   H18H13677   3.282   2.870   8.091  0.5850 -0.5271 -0.0936
  128OSM      N13678   4.590   5.975   6.092  0.0676  0.6568 -0.4089
  128OSM    C1513679   4.716   6.008   6.019 -0.3040  0.5701 -0.8128
  128OSM   H15A13680   4.747   6.110   6.038 -1.2840  0.5849  0.9278
  128OSM   H15B13681   4.702   5.992   5.913  0.1332 -1.0260 -0.6433
  128OSM   H15C13682   4.795   5.944   6.055 -0.9380  0.0176 -0.3970
  128OSM    C1413683   4.481   6.062   6.044  0.6734 -0.2860  0.0560
  128OSM   H14A13684   4.461   6.033   5.942  0.0606  0.2856  0.0034
  128OSM   H14B13685   4.512   6.163   6.067  2.5126 -1.0551  1.2275
  128OSM   H14C13686   4.386   6.049   6.093  0.7675 -0.5726  0.1651
  128OSM    C1313687   4.560   5.833   6.046  0.3521 -0.8215 -0.1807
  128OSM   H13A13688   4.589   5.822   5.942 -0.6112 -0.7481 -0.4602
  128OSM   H13B13689   4.456   5.815   6.068  0.1905  0.7170  0.4191
  128OSM   H13C13690   4.628   5.771   6.102  1.6611  0.2445 -0.5190
  128OSM    C1213691   4.609   5.978   6.240  0.6525 -0.1212  0.5388
  128OSM   H12A13692   4.696   5.920   6.269  0.9734 -0.5134 -1.1504
  128OSM   H12B13693   4.521   5.929   6.277  0.1043  0.2471 -0.2601
  128OSM    C1113694   4.614   6.109   6.315 -0.1423 -0.6821  0.8038
  128OSM   H11A13695   4.622   6.086   6.423 -1.5344 -1.7563  0.7197
  128OSM   H11B13696   4.513   6.155   6.303 -0.0616 -1.1883 -3.1213
  128OSM      P13697   4.705   6.326   6.201  0.2005  0.1849  0.2031
  128OSM    O1313698   4.814   6.326   6.099  0.1455  0.3329 -0.1359
  128OSM    O1413699   4.563   6.335   6.157 -0.3290 -0.0869 -0.5949
  128OSM    O1113700   4.744   6.432   6.307 -0.1695 -0.0563 -0.3975
  128OSM    O1213701   4.721   6.197   6.282  0.3537  0.5026 -0.1979
  128OSM    C1S13702   4.658   6.438   6.421 -0.4464  0.5396 -0.5368
  128OSM    H1S13703   4.677   6.347   6.482 -2.0400  0.7863  0.3730
  128OSM    H1T13704   4.551   6.448   6.391 -0.8617 -1.2514  0.2199
  128OSM     NF13705   4.618   6.541   6.645 -0.1249 -0.6642  0.0666
  128OSM    HNF13706   4.532   6.592   6.651 -0.9108 -1.9790  0.4268
  128OSM    C2S13707   4.696   6.547   6.526 -0.0505  0.7299  0.2914
  128OSM    H2S13708   4.803   6.525   6.548  1.1397  1.7253 -3.6522
  128OSM    C3S13709   4.691   6.688   6.469  0.0602 -0.3961 -0.3346
  128OSM    H3S13710   4.592   6.724   6.433  1.0885  0.9122 -1.9896
  128OSM     O313711   4.763   6.692   6.346  0.0066 -0.2903 -0.6346
  128OSM    HO313712   4.782   6.601   6.322 -0.8487 -0.3318 -1.2058
  128OSM    C4S13713   4.754   6.788   6.565  0.6571  0.1386  0.1724
  128OSM    H4S13714   4.863   6.778   6.576  0.5604 -0.4306  0.6834
  128OSM    C5S13715   4.682   6.883   6.617  0.2619  0.0228 -0.9707
  128OSM    H5S13716   4.575   6.885   6.593 -0.5652 -2.4150  1.8076
  128OSM    C6S13717   4.722   6.996   6.711 -0.3646  0.8752  0.2719
  128OSM    H6S13718   4.699   7.095   6.665  3.5468  3.0290  2.3847
  128OSM    H6T13719   4.832   7.001   6.721 -0.4957  2.6344  1.2443
  128OSM    C7S13720   4.661   6.982   6.849 -0.1129  0.4225  0.1000
  128OSM    H7S13721   4.661   6.878   6.889 -0.2345 -0.2578 -1.5882
  128OSM    H7T13722   4.556   7.010   6.831  0.2889 -0.2801 -4.6652
  128OSM    C8S13723   4.713   7.080   6.953  0.0937  0.6652  0.5763
  128OSM    H8S13724   4.719   7.184   6.912  2.8733  1.0129  1.5953
  128OSM    H8T13725   4.818   7.055   6.979  0.5982  0.6966 -1.3136
  128OSM    C9S13726   4.638   7.077   7.086 -0.3272  0.1472 -0.7618
  128OSM    H9S13727   4.626   6.968   7.102 -1.0341  0.2382 -0.6061
  128OSM    H9T13728   4.541   7.127   7.064 -0.6828 -0.3839 -0.4256
  128OSM   C10S13729   4.717   7.153   7.192  0.7065  0.7548 -0.2134
  128OSM   H10S13730   4.717   7.262   7.166  0.4861  1.1599  1.4021
  128OSM   H10T13731   4.816   7.106   7.206 -0.9040 -2.8131  0.1216
  128OSM   C11S13732   4.641   7.136   7.330  0.8357 -0.4662 -0.0507
  128OSM   H11S13733   4.657   7.029   7.354  3.3527 -0.1296  0.0873
  128OSM   H11T13734   4.535   7.168   7.329  0.7769 -0.5653  1.0796
  128OSM   C12S13735   4.713   7.205   7.440 -0.5210 -0.8535 -0.6628
  128OSM   H12S13736   4.703   7.315   7.441  1.2122 -0.6348  2.0751
  128OSM   H12T13737   4.822   7.186   7.423 -0.4603 -0.8659 -0.2769
  128OSM   C13S13738   4.677   7.162   7.585 -1.0465 -0.0901 -0.1018
  128OSM   H13S13739   4.711   7.056   7.586 -0.0802  0.2091  0.0923
  128OSM   H13T13740   4.567   7.177   7.583 -0.7814  2.3961 -2.2778
  128OSM   C14S13741   4.767   7.237   7.676 -0.0225  0.1661 -0.8089
  128OSM   H14S13742   4.736   7.344   7.680 -1.1828 -0.1614  2.0656
  128OSM   H14T13743   4.873   7.229   7.646 -0.3069  0.0591 -1.8194
  128OSM   C15S13744   4.762   7.184   7.823 -0.5921 -0.6371  0.2686
  128OSM   H15S13745   4.777   7.074   7.822  0.0143 -0.5545 -0.9810
  128OSM   H15T13746   4.654   7.201   7.847 -0.2777 -0.2480  1.4701
  128OSM   C16S13747   4.856   7.246   7.923  0.3312  0.4627  0.0762
  128OSM   H16S13748   4.870   7.351   7.890  1.5942  0.3174  0.0906
  128OSM   H16T13749   4.955   7.197   7.914  0.3553  0.8391 -2.0422
  128OSM   C17S13750   4.811   7.252   8.075  1.0687 -0.0960  0.0838
  128OSM   H17S13751   4.897   7.297   8.129 -0.3661  3.2039 -0.1451
  128OSM   H17T13752   4.787   7.148   8.107 -0.0433 -0.5777 -2.0742
  128OSM   C18S13753   4.687   7.335   8.103 -0.5619 -0.1296  0.0518
  128OSM   H18S13754   4.696   7.382   8.203 -0.3111 -0.1725  0.0502
  128OSM   H18T13755   4.599   7.268   8.113 -1.0791  0.3162 -1.2291
  128OSM   H18U13756   4.680   7.416   8.027  1.5532  0.0860  0.0236
  128OSM    C1F13757   4.646   6.452   6.746  0.7027 -0.5424  0.1870
  128OSM     OF13758   4.728   6.365   6.731 -0.1326  0.3629 -0.3804
  128OSM    C2F13759   4.564   6.461   6.869 -0.7718  1.0039  0.1111
  128OSM    H2F13760   4.556   6.357   6.907  3.4217 -0.1549 -1.6231
  128OSM    H2G13761   4.467   6.510   6.842 -0.7792  0.6098 -0.5825
  128OSM    C3F13762   4.632   6.540   6.985  0.4166  0.3716  0.1737
  128OSM    H3F13763   4.635   6.649   6.964 -1.7673  0.4532  0.0610
  128OSM    H3G13764   4.735   6.499   6.996 -0.5539 -2.1139  0.7320
  128OSM    C4F13765   4.565   6.510   7.126 -0.1614 -0.1987 -0.6100
  128OSM    H4F13766   4.571   6.400   7.141  0.5377 -0.1912 -0.8015
  128OSM    H4G13767   4.460   6.544   7.116 -0.2769 -0.4574 -0.3063
  128OSM    C5F13768   4.646   6.587   7.235 -0.4510 -0.2063  0.3297
  128OSM    H5F13769   4.633   6.696   7.216  1.2359  0.1104  0.8476
  128OSM    H5G13770   4.754   6.575   7.210  0.0707  1.9329  1.2989
  128OSM    C6F13771   4.615   6.553   7.381  0.5847  0.4929  0.8966
  128OSM    H6F13772   4.651   6.452   7.408  0.8617  0.6362  1.0669
  128OSM    H6G13773   4.504   6.542   7.380  0.7916 -1.9146  0.1757
  128OSM    C7F13774   4.648   6.671   7.468 -0.3082  0.5092  0.0940
  128OSM    H7F13775   4.623   6.765   7.414  2.6442  1.7811  0.7160
  128OSM    H7G13776   4.758   6.665   7.488 -0.4620 -2.6683  0.4047
  128OSM    C8F13777   4.577   6.679   7.603  0.1085  0.3000 -0.3680
  128OSM    H8F13778   4.466   6.675   7.600  0.0802 -3.1940  1.0730
  128OSM    H8G13779   4.600   6.782   7.640 -0.4555  0.4152 -0.3247
  128OSM    C9F13780   4.615   6.568   7.688  0.1712 -0.0655 -0.4177
  128OSM    H9F13781   4.584   6.470   7.649  0.4833  0.3413 -1.7079
  128OSM   C10F13782   4.687   6.577   7.801  0.0482 -0.6670 -0.3616
  128OSM   H10F13783   4.727   6.486   7.847 -0.6850 -0.8398 -0.0615
  128OSM   C11F13784   4.744   6.704   7.865  0.8495 -1.0782  0.0141
  128OSM   H11F13785   4.719   6.794   7.806  0.5668 -1.7939 -0.9896
  128OSM   H11G13786   4.854   6.697   7.855  0.8659 -1.1151  0.2125
  128OSM   C12F13787   4.706   6.724   8.021  0.1149  0.3120 -0.0416
  128OSM   H12F13788   4.756   6.639   8.072  1.1228  0.5398 -0.6222
  128OSM   H12G13789   4.596   6.715   8.030  0.3809 -3.0898  0.9986
  128OSM   C13F13790   4.757   6.854   8.087 -0.6123  0.2113 -0.2154
  128OSM   H13F13791   4.707   6.924   8.016 -3.0076 -1.8197 -0.7046
  128OSM   H13G13792   4.867   6.853   8.103 -0.3458 -0.3407 -1.9059
  128OSM   C14F13793   4.692   6.882   8.221 -0.2446 -0.0264 -0.4014
  128OSM   H14F13794   4.727   6.985   8.242 -1.4268  0.1737  0.6133
  128OSM   H14G13795   4.744   6.810   8.288 -1.0553  1.3722  1.8278
  128OSM   C15F13796   4.545   6.877   8.238 -0.1529 -0.5362  0.0175
  128OSM   H15F13797   4.509   6.778   8.205  1.5838 -0.7330 -1.4114
  128OSM   H15G13798   4.491   6.947   8.171 -1.0099  0.1062  1.3287
  128OSM   C16F13799   4.510   6.891   8.384  0.6691 -0.8476 -0.1177
  128OSM   H16F13800   4.557   6.983   8.424  1.3801 -1.2890  0.0923
  128OSM   H16G13801   4.560   6.809   8.440  0.5565 -0.2287  0.9239
  128OSM   C17F13802   4.360   6.892   8.400  0.8655  0.1248 -0.1430
  128OSM   H17F13803   4.314   6.801   8.356 -1.2209 -0.7550  3.4668
  128OSM   H17G13804   4.308   6.983   8.362 -2.9633 -1.7276  0.2303
  128OSM   C18F13805   4.328   6.891   8.554 -0.0035 -0.1587  0.5440
  128OSM   H18F13806   4.415   6.850   8.610  0.2613  0.2479  0.4359
  128OSM   H18G13807   4.230   6.843   8.575 -0.3060  0.0881 -0.2644
  128OSM   H18H13808   4.322   6.997   8.588 -1.2817 -0.9684  3.1683
  129OSM      N13809   2.190   1.516   6.267 -0.8663  0.3290  0.1958
  129OSM    C1513810   2.214   1.388   6.335  0.0850  0.2167 -0.3570
  129OSM   H15A13811   2.136   1.368   6.408  2.0826 -0.4952  1.6975
  129OSM   H15B13812   2.311   1.385   6.382 -0.2644 -1.7801  0.3454
  129OSM   H15C13813   2.210   1.297   6.276 -0.4801 -2.9833  4.0499
  129OSM    C1413814   2.221   1.627   6.358 -0.4687 -0.6838  0.0392
  129OSM   H14A13815   2.205   1.728   6.323 -2.0274 -0.3560  1.5507
  129OSM   H14B13816   2.324   1.618   6.391 -0.4874  1.0532  0.7104
  129OSM   H14C13817   2.168   1.613   6.451 -0.0521 -2.5024  0.0411
  129OSM    C1313818   2.289   1.528   6.155  0.7132  0.6191  0.1504
  129OSM   H13A13819   2.392   1.530   6.187  0.7113  0.2238  0.1826
  129OSM   H13B13820   2.269   1.621   6.103  0.5679 -0.4242 -1.7667
  129OSM   H13C13821   2.267   1.442   6.094  1.1396 -2.1510  3.5774
  129OSM    C1213822   2.040   1.534   6.211 -0.1179 -0.0739  0.6248
  129OSM   H12A13823   1.983   1.532   6.303 -0.1368 -2.2604  0.6227
  129OSM   H12B13824   2.003   1.448   6.157  0.5712  1.3278 -2.2686
  129OSM    C1113825   2.001   1.664   6.126  0.0165  0.6014 -0.1815
  129OSM   H11A13826   1.891   1.655   6.117 -0.1651 -3.0219  3.0809
  129OSM   H11B13827   2.046   1.649   6.025 -1.1156 -0.5777 -0.5274
  129OSM      P13828   2.124   1.897   6.136  0.1293  0.7339 -0.1891
  129OSM    O1313829   2.246   1.835   6.068 -0.2049 -0.5834  0.3850
  129OSM    O1413830   2.044   1.983   6.043 -0.0425  0.4441 -0.0541
  129OSM    O1113831   2.175   1.983   6.259 -0.1797  0.1862 -0.9415
  129OSM    O1213832   2.038   1.788   6.203  0.0437 -0.0489 -0.0601
  129OSM    C1S13833   2.075   2.054   6.337  0.7804 -0.9544 -0.2480
  129OSM    H1S13834   1.987   1.993   6.367 -0.6247  1.3479  0.5819
  129OSM    H1T13835   2.037   2.143   6.283 -1.1412 -1.7532 -0.2825
  129OSM     NF13836   2.017   2.147   6.565 -0.1834 -0.0327 -0.1015
  129OSM    HNF13837   2.018   2.244   6.586  0.5386  0.2669 -1.3863
  129OSM    C2S13838   2.126   2.102   6.476  0.3675  0.3563  0.0719
  129OSM    H2S13839   2.185   2.018   6.520 -0.7612 -0.1838  0.6161
  129OSM    C3S13840   2.228   2.218   6.447 -0.2596  0.1637  1.0618
  129OSM    H3S13841   2.175   2.309   6.412  0.3798 -0.3480 -1.4108
  129OSM     O313842   2.332   2.187   6.348  0.7051 -0.1818  0.3308
  129OSM    HO313843   2.287   2.120   6.296 -3.8278  2.2300  0.7138
  129OSM    C4S13844   2.302   2.247   6.579  0.1181 -0.4815 -0.4174
  129OSM    H4S13845   2.260   2.335   6.630  3.2478  0.5296  0.6497
  129OSM    C5S13846   2.411   2.187   6.630  0.3980  0.7182 -0.0601
  129OSM    H5S13847   2.444   2.095   6.579  0.6728 -0.4271  2.0592
  129OSM    C6S13848   2.488   2.220   6.758 -0.8962 -0.3061 -0.3029
  129OSM    H6S13849   2.589   2.241   6.718 -0.9525 -1.2495 -0.9674
  129OSM    H6T13850   2.496   2.128   6.820 -1.1501 -0.1394 -0.0202
  129OSM    C7S13851   2.422   2.333   6.844  0.3274  0.3059  0.1807
  129OSM    H7S13852   2.313   2.314   6.850  0.1417  1.4484  0.6981
  129OSM    H7T13853   2.414   2.429   6.789 -2.9608  0.0254 -0.0273
  129OSM    C8S13854   2.481   2.363   6.979  0.1500  0.3626 -1.2278
  129OSM    H8S13855   2.589   2.390   6.979  0.2043  0.3787  1.2687
  129OSM    H8T13856   2.469   2.271   7.040 -1.5239  1.9215  0.9395
  129OSM    C9S13857   2.400   2.478   7.051  0.1173 -0.1574  0.9707
  129OSM    H9S13858   2.291   2.463   7.034  0.6010 -0.4852 -2.5667
  129OSM    H9T13859   2.430   2.570   6.997  1.5146 -1.6626 -0.9586
  129OSM   C10S13860   2.433   2.503   7.190 -0.7602 -0.3084 -0.1791
  129OSM   H10S13861   2.535   2.547   7.187 -1.7565  2.1161 -1.8195
  129OSM   H10T13862   2.441   2.406   7.244 -0.6937 -0.7535 -0.9789
  129OSM   C11S13863   2.337   2.594   7.269  0.7876  0.1353 -0.5553
  129OSM   H11S13864   2.382   2.595   7.370  2.7209 -2.7990 -1.2519
  129OSM   H11T13865   2.239   2.543   7.272  0.7518 -0.0188 -2.6322
  129OSM   C12S13866   2.326   2.737   7.225  0.5740 -0.2781 -0.3188
  129OSM   H12S13867   2.275   2.746   7.127  0.6967 -0.9602 -0.4474
  129OSM   H12T13868   2.421   2.795   7.226  1.1918 -1.2158  1.6516
  129OSM   C13S13869   2.225   2.814   7.317  0.1388  0.1648 -0.0435
  129OSM   H13S13870   2.124   2.771   7.302 -0.3174  1.3409 -0.4135
  129OSM   H13T13871   2.221   2.919   7.284 -1.4650  0.2185  0.2495
  129OSM   C14S13872   2.276   2.830   7.468  0.3682  0.2283  0.4534
  129OSM   H14S13873   2.260   2.733   7.520 -4.1798  0.6573  0.2393
  129OSM   H14T13874   2.201   2.897   7.515 -0.1969  1.6927 -2.3090
  129OSM   C15S13875   2.415   2.888   7.510 -0.1195  0.0046 -0.2712
  129OSM   H15S13876   2.427   2.974   7.441  1.6241  0.8727  1.0470
  129OSM   H15T13877   2.499   2.824   7.476 -1.6899 -1.1846 -2.2157
  129OSM   C16S13878   2.413   2.934   7.655  0.0260  0.8743  0.1573
  129OSM   H16S13879   2.408   2.843   7.718 -1.9097 -0.9797 -2.4255
  129OSM   H16T13880   2.325   2.997   7.679  0.8817  2.0738  0.2259
  129OSM   C17S13881   2.530   3.025   7.684 -0.0412  0.5103 -0.1923
  129OSM   H17S13882   2.533   3.120   7.628  1.8272  0.5103 -0.1371
  129OSM   H17T13883   2.625   2.975   7.655 -2.1815 -3.7738 -0.6580
  129OSM   C18S13884   2.533   3.071   7.840  0.1193 -0.0697  0.6503
  129OSM   H18S13885   2.542   2.991   7.916 -0.0407  0.5592  1.3409
  129OSM   H18T13886   2.442   3.134   7.853  0.8842  1.2079  0.0918
  129OSM   H18U13887   2.621   3.138   7.847  0.3526 -0.3678  0.5832
  129OSM    C1F13888   1.930   2.060   6.617  0.0897 -0.2545 -0.2967
  129OSM     OF13889   1.929   1.944   6.587  0.5923  0.8490  0.2460
  129OSM    C2F13890   1.819   2.118   6.708  0.0749  0.0659  0.1375
  129OSM    H2F13891   1.723   2.136   6.656  0.3138  0.9909  0.0026
  129OSM    H2G13892   1.856   2.220   6.733  1.1843  0.6752 -3.3978
  129OSM    C3F13893   1.789   2.024   6.825 -0.4052 -0.1338  0.0711
  129OSM    H3F13894   1.880   1.992   6.880  0.1644  0.2655 -0.6233
  129OSM    H3G13895   1.746   1.926   6.796 -0.6622 -0.8148  2.5488
  129OSM    C4F13896   1.703   2.092   6.936  0.3772 -0.1920 -0.1431
  129OSM    H4F13897   1.608   2.129   6.893 -0.4133 -1.5673  0.3272
  129OSM    H4G13898   1.766   2.172   6.979 -3.1119  1.0311  3.3420
  129OSM    C5F13899   1.660   2.001   7.052 -0.6173 -0.0169  0.5222
  129OSM    H5F13900   1.746   1.951   7.101  3.0406  4.6555 -0.3900
  129OSM    H5G13901   1.609   1.911   7.010 -0.3930 -1.1167  2.5091
  129OSM    C6F13902   1.577   2.076   7.160 -0.4540  0.5118 -0.0025
  129OSM    H6F13903   1.515   1.990   7.193  0.7711 -1.6628 -2.9322
  129OSM    H6G13904   1.513   2.147   7.103  0.8712  1.6750 -0.1243
  129OSM    C7F13905   1.651   2.136   7.271  0.0576  0.0374 -0.9745
  129OSM    H7F13906   1.710   2.218   7.225 -0.7794  0.6685 -0.9450
  129OSM    H7G13907   1.723   2.074   7.330 -0.2920  1.5289  1.1489
  129OSM    C8F13908   1.552   2.212   7.362 -0.2362  0.2054 -0.6364
  129OSM    H8F13909   1.492   2.140   7.422  0.6988  1.2630  1.6858
  129OSM    H8G13910   1.488   2.271   7.293 -0.5735 -0.8910 -1.2870
  129OSM    C9F13911   1.616   2.308   7.456  0.3980  0.2407 -0.2212
  129OSM    H9F13912   1.673   2.390   7.408  0.1856  1.1107  0.9495
  129OSM   C10F13913   1.607   2.321   7.589 -0.4825  0.1647 -0.1839
  129OSM   H10F13914   1.678   2.391   7.635  2.3799 -1.9231 -1.1339
  129OSM   C11F13915   1.517   2.235   7.681  0.2707 -0.6370 -0.1648
  129OSM   H11F13916   1.573   2.161   7.741  0.1774 -0.1034  0.5850
  129OSM   H11G13917   1.436   2.178   7.629 -0.7036 -2.0717  2.7272
  129OSM   C12F13918   1.436   2.322   7.787  0.3454  0.2134 -0.8311
  129OSM   H12F13919   1.376   2.252   7.848  1.9388 -0.0184  0.5668
  129OSM   H12G13920   1.372   2.392   7.730 -1.0024  0.8122  1.2806
  129OSM   C13F13921   1.520   2.394   7.886 -0.0194  0.4202  0.2855
  129OSM   H13F13922   1.452   2.456   7.948 -0.4696 -0.8680  1.1248
  129OSM   H13G13923   1.597   2.460   7.841 -0.6514 -0.2980 -1.9910
  129OSM   C14F13924   1.590   2.297   7.984 -0.4058 -0.2688  0.1389
  129OSM   H14F13925   1.669   2.252   7.920  1.3496  2.1438  0.4684
  129OSM   H14G13926   1.515   2.224   8.021  0.0052 -0.4655  0.6040
  129OSM   C15F13927   1.655   2.379   8.099  1.0570 -0.0504 -0.1205
  129OSM   H15F13928   1.720   2.457   8.055  1.6978  0.9319  2.4216
  129OSM   H15G13929   1.715   2.310   8.161  1.2336  1.3820  1.3674
  129OSM   C16F13930   1.564   2.435   8.213  0.3599  0.1363  0.8284
  129OSM   H16F13931   1.516   2.349   8.264  2.3982 -1.1888  0.6456
  129OSM   H16G13932   1.495   2.498   8.154 -0.6021  0.6553  2.4587
  129OSM   C17F13933   1.646   2.508   8.319  0.0239  0.8070 -0.2526
  129OSM   H17F13934   1.695   2.426   8.376 -0.5305  0.8744  0.3399
  129OSM   H17G13935   1.578   2.555   8.394 -1.1659 -1.5709  0.2528
  129OSM   C18F13936   1.752   2.614   8.279 -0.4668  0.3064 -0.2359
  129OSM   H18F13937   1.794   2.573   8.185 -0.5679 -1.2289  0.3489
  129OSM   H18G13938   1.828   2.619   8.360  1.4876 -0.0868 -1.9753
  129OSM   H18H13939   1.703   2.713   8.273  2.0973  1.8179  1.8125
  130OSM      N13940   4.613   5.367   6.386 -0.1310  0.3749 -0.9267
  130OSM    C1513941   4.610   5.478   6.282 -0.5145 -0.0014 -0.1194
  130OSM   H15A13942   4.556   5.431   6.201  1.2927  0.7246 -1.8398
  130OSM   H15B13943   4.708   5.504   6.245  0.3065 -0.7443  1.4671
  130OSM   H15C13944   4.539   5.556   6.303 -2.5513 -1.4420 -1.2006
  130OSM    C1413945   4.716   5.265   6.348 -0.1428  0.2589  0.4882
  130OSM   H14A13946   4.725   5.184   6.419  0.2643 -0.6499 -0.5745
  130OSM   H14B13947   4.818   5.293   6.330  1.0823 -1.3404  3.9934
  130OSM   H14C13948   4.684   5.220   6.255 -3.1461 -1.6943  2.2602
  130OSM    C1313949   4.671   5.427   6.513 -0.8327 -0.1958  0.1598
  130OSM   H13A13950   4.693   5.352   6.588 -0.8372  0.6624  1.0488
  130OSM   H13B13951   4.616   5.511   6.554  1.9874  1.1007  1.6096
  130OSM   H13C13952   4.773   5.457   6.497  0.2901 -2.8229  1.7283
  130OSM    C1213953   4.482   5.302   6.419 -0.0408 -0.5524 -0.2983
  130OSM   H12A13954   4.418   5.389   6.427  0.3127 -0.2169 -1.0201
  130OSM   H12B13955   4.480   5.255   6.516 -0.7236 -0.7484 -0.4052
  130OSM    C1113956   4.413   5.208   6.313 -0.6502  0.0402 -0.6662
  130OSM   H11A13957   4.320   5.157   6.345  0.0509 -0.7398  0.1892
  130OSM   H11B13958   4.483   5.125   6.286  0.9879  0.4284  1.9998
  130OSM      P13959   4.245   5.348   6.187 -0.2461  0.4591  0.1845
  130OSM    O1313960   4.219   5.411   6.057 -0.7766  0.3224 -0.1814
  130OSM    O1413961   4.145   5.247   6.231 -0.5920  0.7267 -0.5101
  130OSM    O1113962   4.266   5.455   6.298  0.1977  0.3509 -0.0124
  130OSM    O1213963   4.382   5.269   6.187 -0.0202  0.1973 -0.2921
  130OSM    C1S13964   4.158   5.544   6.337 -0.2494  0.4730  0.2919
  130OSM    H1S13965   4.072   5.481   6.369  0.5575 -0.2835  1.0183
  130OSM    H1T13966   4.120   5.602   6.250  0.5845 -1.0188 -1.1171
  130OSM     NF13967   4.086   5.694   6.517 -1.2148  0.0522  0.1622
  130OSM    HNF13968   4.050   5.781   6.484  0.2389 -0.6943 -3.9004
  130OSM    C2S13969   4.205   5.647   6.442 -0.3633 -0.3193  0.4527
  130OSM    H2S13970   4.278   5.593   6.505  0.5931 -0.8444 -1.0635
  130OSM    C3S13971   4.282   5.762   6.370 -0.4890  0.6619  0.0373
  130OSM    H3S13972   4.210   5.817   6.306  0.3570  0.7051 -0.9210
  130OSM     O313973   4.385   5.718   6.279  0.3323  0.9201 -0.0753
  130OSM    HO313974   4.374   5.623   6.269  1.1760  0.6618  1.2269
  130OSM    C4S13975   4.340   5.856   6.472  0.3341  0.4648 -0.6474
  130OSM    H4S13976   4.404   5.806   6.546  0.1494 -1.3760 -1.6645
  130OSM    C5S13977   4.294   5.977   6.487  0.6450 -0.0325 -0.8801
  130OSM    H5S13978   4.203   6.009   6.432 -1.8651 -0.3238  2.7672
  130OSM    C6S13979   4.330   6.071   6.601  0.0186 -0.5292 -0.7415
  130OSM    H6S13980   4.234   6.122   6.625  1.8864  1.8103  2.4143
  130OSM    H6T13981   4.401   6.150   6.570  1.7228 -1.3460  0.9122
  130OSM    C7S13982   4.391   6.002   6.726 -0.1992 -0.3175 -0.2617
  130OSM    H7S13983   4.490   5.957   6.703  0.1924  0.3460  0.0984
  130OSM    H7T13984   4.319   5.925   6.762  1.4347 -0.9680  1.8637
  130OSM    C8S13985   4.413   6.084   6.851  0.4672 -0.1221  0.0565
  130OSM    H8S13986   4.315   6.129   6.878  1.1043  0.8221  0.8397
  130OSM    H8T13987   4.482   6.166   6.823 -0.4648  0.0025 -2.0855
  130OSM    C9S13988   4.460   6.002   6.979 -0.2208 -0.8823  0.6543
  130OSM    H9S13989   4.558   5.958   6.951 -0.2699 -1.3722  1.2349
  130OSM    H9T13990   4.386   5.920   6.996 -0.9327 -1.1513 -2.9063
  130OSM   C10S13991   4.473   6.089   7.103 -0.0611 -0.3758 -0.2186
  130OSM   H10S13992   4.377   6.143   7.115 -0.3106 -1.1129  1.3469
  130OSM   H10T13993   4.548   6.168   7.079 -1.5200  1.0076 -0.3884
  130OSM   C11S13994   4.501   6.022   7.231 -0.0889  0.1217  0.2457
  130OSM   H11S13995   4.610   6.002   7.235 -0.0096  0.5241  0.1642
  130OSM   H11T13996   4.440   5.932   7.255 -0.6497  0.8028  1.4585
  130OSM   C12S13997   4.486   6.119   7.353 -0.1589  0.8784 -0.0943
  130OSM   H12S13998   4.384   6.161   7.369 -1.4484 -1.0463 -2.4873
  130OSM   H12T13999   4.552   6.207   7.339  0.7623  0.6244  2.1946
  130OSM   C13S14000   4.528   6.055   7.484  0.0708  0.0522 -0.7226
  130OSM   H13S14001   4.632   6.017   7.489 -0.4239 -1.1229  1.6677
  130OSM   H13T14002   4.473   5.961   7.504  0.2319  0.2008  0.4610
  130OSM   C14S14003   4.498   6.156   7.596 -0.2043 -0.6864 -0.2066
  130OSM   H14S14004   4.389   6.174   7.595  0.0918  1.8795 -2.8422
  130OSM   H14T14005   4.549   6.253   7.575 -0.1161 -0.7383 -0.2303
  130OSM   C15S14006   4.544   6.106   7.736 -0.3319  0.3745  1.2710
  130OSM   H15S14007   4.645   6.060   7.735 -0.5284 -0.2082 -1.7917
  130OSM   H15T14008   4.464   6.031   7.756 -0.0601  0.0428  1.1010
  130OSM   C16S14009   4.528   6.220   7.834  0.2867  0.5200  0.1992
  130OSM   H16S14010   4.427   6.266   7.822 -1.5834 -2.9678  1.1753
  130OSM   H16T14011   4.594   6.305   7.808  1.0568  0.0615  0.6256
  130OSM   C17S14012   4.533   6.176   7.983 -0.1364  0.4389 -0.3359
  130OSM   H17S14013   4.632   6.132   8.009 -1.0240 -0.5619  1.5047
  130OSM   H17T14014   4.449   6.108   8.008 -0.2789  0.8484  0.3128
  130OSM   C18S14015   4.531   6.302   8.074 -0.4075 -0.1537 -1.0534
  130OSM   H18S14016   4.498   6.386   8.009  1.1972 -0.1955 -1.9819
  130OSM   H18T14017   4.636   6.324   8.103 -0.7137 -0.4164  0.3036
  130OSM   H18U14018   4.468   6.290   8.165  0.0765  1.4863 -0.4703
  130OSM    C1F14019   4.010   5.611   6.594  0.6246 -0.6476  0.9425
  130OSM     OF14020   4.047   5.501   6.624  0.3338 -0.3734 -0.0948
  130OSM    C2F14021   3.872   5.658   6.624 -0.2602 -0.2782  0.3749
  130OSM    H2F14022   3.796   5.577   6.612 -0.5683 -0.0780  0.9118
  130OSM    H2G14023   3.842   5.741   6.557 -0.8453 -1.8438 -1.3713
  130OSM    C3F14024   3.864   5.692   6.778 -0.2599  0.6458  0.3356
  130OSM    H3F14025   3.900   5.601   6.829  0.8237  1.5469  1.2236
  130OSM    H3G14026   3.758   5.704   6.809 -0.0916  1.3791  0.6462
  130OSM    C4F14027   3.949   5.820   6.809  0.0696  0.3199 -0.3623
  130OSM    H4F14028   3.920   5.911   6.752 -0.8424 -0.4278 -1.1113
  130OSM    H4G14029   4.058   5.799   6.795 -0.2617 -1.8489 -0.0292
  130OSM    C5F14030   3.939   5.858   6.957 -0.3834  0.1551 -0.1232
  130OSM    H5F14031   3.944   5.768   7.022  0.8453 -1.0919 -1.8467
  130OSM    H5G14032   3.846   5.914   6.978  0.4199  0.8394  1.9494
  130OSM    C6F14033   4.061   5.956   6.999  0.3275 -0.0963  0.4340
  130OSM    H6F14034   4.077   6.016   6.907 -2.7660 -0.2991 -0.3764
  130OSM    H6G14035   4.149   5.890   7.015  0.1573  0.0498  2.1550
  130OSM    C7F14036   4.027   6.057   7.117  0.0829 -0.1485  0.2536
  130OSM    H7F14037   3.949   6.131   7.088  1.2210  1.6175  1.5418
  130OSM    H7G14038   4.113   6.127   7.119 -1.9184  2.4567  1.6303
  130OSM    C8F14039   4.009   6.005   7.258  0.3685  0.0955 -1.4469
  130OSM    H8F14040   3.921   5.939   7.256 -0.3883  1.0035  0.1654
  130OSM    H8G14041   3.978   6.085   7.328  0.2529 -1.2791  0.1199
  130OSM    C9F14042   4.129   5.931   7.312  0.0022 -0.4946 -0.8675
  130OSM    H9F14043   4.210   5.907   7.242  0.9391  0.9228 -0.3351
  130OSM   C10F14044   4.157   5.902   7.447 -0.2876  0.0739  0.0251
  130OSM   H10F14045   4.256   5.862   7.473  0.1159  0.0128 -1.5211
  130OSM   C11F14046   4.072   5.949   7.562  0.3835  0.6039  0.9159
  130OSM   H11F14047   4.013   5.872   7.616  0.0592  0.5889  0.5488
  130OSM   H11G14048   4.005   6.025   7.517  0.5906 -0.2713 -0.9702
  130OSM   C12F14049   4.142   6.033   7.659 -0.3901 -1.1046 -0.7542
  130OSM   H12F14050   4.200   6.115   7.611  0.0826  0.1027  1.7263
  130OSM   H12G14051   4.217   5.970   7.712 -0.3402 -1.6450 -1.4402
  130OSM   C13F14052   4.041   6.092   7.767 -0.6883 -0.1946 -0.4902
  130OSM   H13F14053   3.967   6.159   7.717 -0.7207  0.1337 -0.0106
  130OSM   H13G14054   4.098   6.162   7.833 -0.9788 -0.9295  0.5643
  130OSM   C14F14055   3.959   5.990   7.854  0.9577 -0.2096 -0.4079
  130OSM   H14F14056   3.881   5.942   7.791 -2.9605  3.7801  0.8731
  130OSM   H14G14057   3.912   6.055   7.931 -0.1258 -0.1094 -1.1392
  130OSM   C15F14058   4.046   5.881   7.919 -0.0438 -0.4604  0.2997
  130OSM   H15F14059   4.137   5.923   7.967 -0.1865  0.1594  0.0440
  130OSM   H15G14060   4.094   5.824   7.837  1.6271 -0.5318  1.2956
  130OSM   C16F14061   3.967   5.794   8.018  0.5491 -0.1675  0.1717
  130OSM   H16F14062   3.881   5.745   7.968  0.4301  1.8232 -1.7582
  130OSM   H16G14063   3.938   5.861   8.102 -0.7595 -1.7365  1.0154
  130OSM   C17F14064   4.058   5.677   8.064  0.5445  0.6799 -0.5123
  130OSM   H17F14065   4.146   5.721   8.116  2.3544 -3.9346  0.7936
  130OSM   H17G14066   4.105   5.629   7.975 -0.9462 -0.4444 -0.7299
  130OSM   C18F14067   4.006   5.574   8.168  0.0375  0.0872 -0.0007
  130OSM   H18F14068   4.089   5.515   8.214  0.6165  1.0540  0.2186
  130OSM   H18G14069   3.942   5.495   8.121 -0.7775  0.8997 -0.2863
  130OSM   H18H14070   3.955   5.617   8.256  0.3051  1.1172 -0.3406
  131OSM      N14071   2.789   0.722   6.050 -0.2404 -0.1101 -0.3388
  131OSM    C1514072   2.834   0.779   6.181  0.0511 -0.3005  0.3029
  131OSM   H15A14073   2.941   0.777   6.190 -0.0465 -2.6486  1.5523
  131OSM   H15B14074   2.800   0.727   6.269  1.5429 -0.3696  0.8692
  131OSM   H15C14075   2.807   0.884   6.180 -0.6862 -0.4721  1.0813
  131OSM    C1414076   2.844   0.586   6.040  0.4203 -0.3974 -0.1888
  131OSM   H14A14077   2.787   0.517   5.979 -0.0645  0.4681 -0.7391
  131OSM   H14B14078   2.845   0.530   6.132 -1.8927 -0.7158 -0.2973
  131OSM   H14C14079   2.943   0.588   5.996 -0.2927 -0.7161 -1.8661
  131OSM    C1314080   2.636   0.723   6.059  0.1674 -0.3074  0.8824
  131OSM   H13A14081   2.599   0.819   6.090  0.5259 -0.6747  2.5528
  131OSM   H13B14082   2.594   0.648   6.124 -2.6434 -0.3477 -0.8245
  131OSM   H13C14083   2.600   0.691   5.962 -2.4757 -0.3470  1.8118
  131OSM    C1214084   2.857   0.811   5.940  0.5664 -0.1897 -0.1805
  131OSM   H12A14085   2.838   0.768   5.843  1.7602  0.0144 -0.5290
  131OSM   H12B14086   2.963   0.802   5.961  0.6062 -0.3986 -0.4542
  131OSM    C1114087   2.822   0.960   5.933  0.0041 -0.1694 -0.5480
  131OSM   H11A14088   2.711   0.963   5.940  0.0911  0.4236  0.8868
  131OSM   H11B14089   2.843   1.005   5.833 -0.5238  0.7283 -0.2569
  131OSM      P14090   2.874   1.197   6.040  0.3041 -0.2763 -0.1263
  131OSM    O1314091   2.973   1.243   5.941  0.1995 -0.4129 -0.2330
  131OSM    O1414092   2.729   1.227   6.011 -0.0978  0.3359 -0.0771
  131OSM    O1114093   2.918   1.250   6.185 -0.1107  1.1062  0.0884
  131OSM    O1214094   2.886   1.033   6.047  0.0807 -0.6468  0.0835
  131OSM    C1S14095   3.005   1.174   6.265  0.8379  0.2718  0.6564
  131OSM    H1S14096   3.109   1.183   6.226  0.2520  0.3089 -0.9743
  131OSM    H1T14097   2.971   1.069   6.265  0.1506  0.4945  0.3253
  131OSM     NF14098   3.115   1.152   6.488 -0.0277  0.2066  0.1372
  131OSM    HNF14099   3.078   1.080   6.546  1.5844 -1.1837 -0.4598
  131OSM    C2S14100   3.016   1.227   6.414 -0.2440  0.2257  0.3827
  131OSM    H2S14101   3.052   1.331   6.395  0.6196 -0.0640  0.3909
  131OSM    C3S14102   2.874   1.230   6.479  0.9238  0.1922 -0.2652
  131OSM    H3S14103   2.845   1.123   6.489 -0.4442  0.5779  0.1449
  131OSM     O314104   2.776   1.291   6.396  0.4649 -0.3068  0.3664
  131OSM    HO314105   2.827   1.315   6.319 -2.1324  1.3479 -0.9906
  131OSM    C4S14106   2.887   1.300   6.616 -0.6425  0.0042  0.1346
  131OSM    H4S14107   2.918   1.221   6.686  1.0402 -1.4469 -2.1109
  131OSM    C5S14108   2.869   1.430   6.650 -0.5028  1.2528  0.3568
  131OSM    H5S14109   2.840   1.501   6.571  2.2030  0.0180 -1.9389
  131OSM    C6S14110   2.880   1.492   6.788 -0.5170  0.0681  0.1708
  131OSM    H6S14111   2.779   1.525   6.823 -0.0211 -0.2849  2.0459
  131OSM    H6T14112   2.946   1.582   6.783  0.1381 -0.4036  0.2189
  131OSM    C7S14113   2.934   1.396   6.891  0.0808 -0.3719  0.5255
  131OSM    H7S14114   3.039   1.370   6.869  0.3078  2.1351 -1.9587
  131OSM    H7T14115   2.874   1.302   6.893  1.1732 -1.0627  1.9156
  131OSM    C8S14116   2.939   1.459   7.032  0.8585  0.1965  0.4678
  131OSM    H8S14117   3.012   1.542   7.029  1.4081 -0.2077  1.8764
  131OSM    H8T14118   2.991   1.382   7.093  2.4054  0.4622 -0.4701
  131OSM    C9S14119   2.801   1.499   7.085  0.0542  0.0671  1.1929
  131OSM    H9S14120   2.734   1.411   7.092 -0.3209  0.1620 -0.5772
  131OSM    H9T14121   2.751   1.570   7.015 -0.8702 -0.6648  1.0971
  131OSM   C10S14122   2.813   1.572   7.223  0.8332  0.4133  0.3646
  131OSM   H10S14123   2.873   1.664   7.207  2.6255 -0.6846  0.5059
  131OSM   H10T14124   2.867   1.502   7.290 -0.0396 -1.7124 -1.0307
  131OSM   C11S14125   2.674   1.607   7.279  0.5673  0.2133  0.1001
  131OSM   H11S14126   2.617   1.512   7.281 -2.0551  1.6782 -0.8793
  131OSM   H11T14127   2.629   1.679   7.207 -0.6260 -0.4470  0.1640
  131OSM   C12S14128   2.671   1.675   7.409 -0.0477  0.1465 -0.5545
  131OSM   H12S14129   2.729   1.769   7.418 -1.8546  1.3942 -1.3640
  131OSM   H12T14130   2.722   1.603   7.477 -0.7282 -1.5882 -1.8036
  131OSM   C13S14131   2.521   1.690   7.466  0.3400 -0.5950  0.6862
  131OSM   H13S14132   2.482   1.587   7.447  1.0392 -0.7028 -0.2615
  131OSM   H13T14133   2.462   1.763   7.407  1.0271  0.6717  1.5237
  131OSM   C14S14134   2.513   1.709   7.620 -0.3730  0.3101 -0.0800
  131OSM   H14S14135   2.533   1.611   7.668  1.1324  0.7821  0.3144
  131OSM   H14T14136   2.407   1.735   7.643  0.1961  0.9914  1.9837
  131OSM   C15S14137   2.611   1.813   7.676 -0.0987 -0.2406 -0.2805
  131OSM   H15S14138   2.590   1.920   7.653 -2.2102 -1.0627 -2.5968
  131OSM   H15T14139   2.714   1.797   7.637  0.7121 -2.2623  2.4230
  131OSM   C16S14140   2.614   1.805   7.835 -0.3416 -0.0030  0.4038
  131OSM   H16S14141   2.677   1.889   7.869  0.7995 -1.6525  2.6333
  131OSM   H16T14142   2.667   1.710   7.860 -1.1186 -0.9356 -1.3254
  131OSM   C17S14143   2.474   1.815   7.898  0.2789  0.5527  0.6470
  131OSM   H17S14144   2.392   1.746   7.871  1.7411 -2.3879  3.1419
  131OSM   H17T14145   2.439   1.918   7.875 -0.8595  0.4576  1.8432
  131OSM   C18S14146   2.487   1.802   8.056 -0.4870 -0.9034  0.0888
  131OSM   H18S14147   2.543   1.888   8.097 -0.6690 -0.3064 -0.8782
  131OSM   H18T14148   2.532   1.704   8.085 -0.8580 -1.0301  0.2327
  131OSM   H18U14149   2.389   1.809   8.106 -0.8183  1.0969 -0.7350
  131OSM    C1F14150   3.245   1.171   6.484 -0.5648 -0.3437 -0.4831
  131OSM     OF14151   3.281   1.265   6.411  0.4933 -0.0435  0.1154
  131OSM    C2F14152   3.337   1.101   6.583 -0.2921  0.3844 -0.1732
  131OSM    H2F14153   3.280   1.013   6.618 -2.2335  1.9120  0.6440
  131OSM    H2G14154   3.355   1.177   6.662 -1.4808  1.8798 -1.2899
  131OSM    C3F14155   3.472   1.060   6.524  0.4053 -0.4612  0.2542
  131OSM    H3F14156   3.529   1.155   6.515  0.3829 -0.2796  1.6711
  131OSM    H3G14157   3.471   1.003   6.429 -0.2376  0.1167 -0.1002
  131OSM    C4F14158   3.558   0.983   6.629 -0.1090  0.0378  0.2467
  131OSM    H4F14159   3.658   0.971   6.583  0.9404  3.1986  1.4849
  131OSM    H4G14160   3.515   0.886   6.663  1.8139 -1.0649 -0.3338
  131OSM    C5F14161   3.593   1.078   6.754  0.4021 -0.3318  0.0628
  131OSM    H5F14162   3.570   1.185   6.734  1.9839  0.2579  1.1938
  131OSM    H5G14163   3.701   1.073   6.780  0.4024 -1.1882 -0.0801
  131OSM    C6F14164   3.536   1.031   6.886  0.8037  0.6407  0.5519
  131OSM    H6F14165   3.567   0.926   6.904 -3.0749 -0.5258  1.2303
  131OSM    H6G14166   3.426   1.022   6.885  0.7866  0.4867  1.8089
  131OSM    C7F14167   3.588   1.106   7.011  0.3586 -0.1659  0.1044
  131OSM    H7F14168   3.547   1.209   7.018  0.8419  0.1430 -1.3117
  131OSM    H7G14169   3.699   1.108   7.008  0.3472  0.1331 -2.6257
  131OSM    C8F14170   3.534   1.039   7.146 -0.6793 -0.5477  0.5689
  131OSM    H8F14171   3.573   0.936   7.136  0.3601 -0.0476 -0.8978
  131OSM    H8G14172   3.423   1.026   7.150 -0.6885 -0.8999 -0.4165
  131OSM    C9F14173   3.582   1.089   7.272 -0.1032  0.0122  0.2802
  131OSM    H9F14174   3.633   1.186   7.263 -2.0666  0.9353 -2.5866
  131OSM   C10F14175   3.560   1.041   7.390  0.1595  0.7288  0.1033
  131OSM   H10F14176   3.600   1.099   7.474  0.9762 -1.2885  1.1906
  131OSM   C11F14177   3.467   0.924   7.422  0.1686  0.4866 -0.4403
  131OSM   H11F14178   3.527   0.830   7.423 -0.3976  0.1117  0.7991
  131OSM   H11G14179   3.385   0.911   7.348 -1.1731  1.6095  0.7987
  131OSM   C12F14180   3.418   0.945   7.568 -0.7682 -0.3398 -0.1905
  131OSM   H12F14181   3.500   0.965   7.640  0.5905 -2.7603 -0.9230
  131OSM   H12G14182   3.366   0.855   7.607 -0.8587 -0.0794  0.3008
  131OSM   C13F14183   3.312   1.052   7.601 -0.3009 -0.3605 -0.4998
  131OSM   H13F14184   3.231   1.027   7.528  1.3930  1.3331 -3.1287
  131OSM   H13G14185   3.349   1.152   7.568  0.0145 -1.0448 -2.3455
  131OSM   C14F14186   3.278   1.068   7.744  0.1545  0.0971 -0.3296
  131OSM   H14F14187   3.366   1.103   7.802  1.0756 -1.7365 -0.5366
  131OSM   H14G14188   3.254   0.968   7.787 -1.0215  2.0908  4.2422
  131OSM   C15F14189   3.148   1.151   7.773  0.2251  0.2859 -0.2135
  131OSM   H15F14190   3.059   1.100   7.730 -0.6803  0.9715  0.8090
  131OSM   H15G14191   3.163   1.243   7.712 -0.5274 -0.3501 -1.4047
  131OSM   C16F14192   3.132   1.184   7.925 -0.5070 -0.3875  0.3024
  131OSM   H16F14193   3.158   1.098   7.990 -1.5254 -2.6995 -2.1480
  131OSM   H16G14194   3.024   1.204   7.937 -1.2695 -3.0065 -1.2357
  131OSM   C17F14195   3.205   1.322   7.948 -0.3241  0.0778  0.8896
  131OSM   H17F14196   3.175   1.395   7.869  2.0403  1.1344  0.8742
  131OSM   H17G14197   3.314   1.304   7.938 -0.1606 -0.2689  2.8599
  131OSM   C18F14198   3.187   1.388   8.082  0.3555 -0.2959 -0.4807
  131OSM   H18F14199   3.219   1.316   8.160 -2.2674 -0.9507  0.1018
  131OSM   H18G14200   3.080   1.396   8.111  0.7620 -0.5381  1.2054
  131OSM   H18H14201   3.249   1.479   8.096  1.6736 -1.0413 -1.2870
  132OSM      N14202   4.903   3.135   6.192 -0.6650 -0.1232 -0.2170
  132OSM    C1514203   5.060   3.137   6.182  0.2697  0.4868 -0.4427
  132OSM   H15A14204   5.108   3.115   6.276  0.2196  1.0833 -0.2717
  132OSM   H15B14205   5.101   3.232   6.150  1.8407 -0.4272 -1.2875
  132OSM   H15C14206   5.100   3.066   6.111  4.8078  1.0243  1.1942
  132OSM    C1414207   4.850   3.141   6.048 -0.3294 -0.5602 -0.8314
  132OSM   H14A14208   4.875   3.233   5.998  1.2560 -0.1802  0.5781
  132OSM   H14B14209   4.742   3.141   6.053 -0.3319  1.8549  0.0546
  132OSM   H14C14210   4.880   3.047   6.003 -1.4878 -2.3822  1.9024
  132OSM    C1314211   4.888   3.005   6.250 -0.4470  0.2970 -0.1326
  132OSM   H13A14212   4.951   2.994   6.336  2.3470 -0.3791 -2.1141
  132OSM   H13B14213   4.922   2.928   6.181 -0.4272 -1.0311  1.3113
  132OSM   H13C14214   4.786   2.983   6.280 -0.0749  1.9861  2.6809
  132OSM    C1214215   4.851   3.237   6.290  0.0988 -0.6705  0.6918
  132OSM   H12A14216   4.893   3.208   6.385  0.0750  0.2870  1.0123
  132OSM   H12B14217   4.744   3.230   6.300  0.0260  0.2862  0.7040
  132OSM    C1114218   4.895   3.383   6.266  0.3362 -0.0713 -0.5214
  132OSM   H11A14219   4.822   3.449   6.318 -1.1826 -3.0914  1.4551
  132OSM   H11B14220   4.877   3.403   6.158 -1.6467  0.9113 -0.0533
  132OSM      P14221   5.100   3.544   6.278  0.4939  0.1496 -0.0849
  132OSM    O1314222   5.145   3.558   6.138 -0.2604 -0.2577 -0.2685
  132OSM    O1414223   5.018   3.657   6.322  0.5779 -0.0030  0.4691
  132OSM    O1114224   5.223   3.542   6.379  0.9760  0.0246  0.3074
  132OSM    O1214225   5.030   3.399   6.308 -0.5357 -0.0935 -0.2610
  132OSM    C1S14226   5.212   3.568   6.517 -0.7880  0.0390  0.3031
  132OSM    H1S14227   5.152   3.658   6.544  0.4598  0.5357  1.5383
  132OSM    H1T14228   5.315   3.592   6.551 -0.4683 -0.2753 -0.4327
  132OSM     NF14229   5.139   3.492   6.755  0.6600 -0.1365  0.2862
  132OSM    HNF14230   5.219   3.487   6.814 -0.3861  1.8119  1.9552
  132OSM    C2S14231   5.158   3.450   6.615  0.3862  0.1073 -0.0912
  132OSM    H2S14232   5.057   3.421   6.581  0.1289 -0.7070  1.2729
  132OSM    C3S14233   5.239   3.320   6.599 -0.4229  0.4113  0.2397
  132OSM    H3S14234   5.344   3.345   6.573 -0.7969 -0.5655 -2.6724
  132OSM     O314235   5.192   3.234   6.494 -0.2426 -0.0286  0.2740
  132OSM    HO314236   5.130   3.291   6.448 -0.4642  0.5133  1.2145
  132OSM    C4S14237   5.235   3.236   6.728 -0.5057  0.2157  1.1288
  132OSM    H4S14238   5.134   3.196   6.742 -0.6258 -0.3699 -1.0202
  132OSM    C5S14239   5.327   3.206   6.816  0.8642 -0.0666 -0.8031
  132OSM    H5S14240   5.433   3.233   6.801 -0.1148  2.9875 -3.5240
  132OSM    C6S14241   5.303   3.126   6.939 -0.5837  0.3248 -0.0801
  132OSM    H6S14242   5.384   3.051   6.930 -1.4972 -0.7054  0.1212
  132OSM    H6T14243   5.199   3.088   6.936 -1.2082  1.8286  1.1475
  132OSM    C7S14244   5.323   3.221   7.057 -0.1121  0.3553 -0.3363
  132OSM    H7S14245   5.240   3.295   7.052  1.2037  1.8810 -0.4156
  132OSM    H7T14246   5.419   3.274   7.042 -0.8542  2.2909  1.2450
  132OSM    C8S14247   5.328   3.140   7.188  1.0863 -0.7026 -0.1047
  132OSM    H8S14248   5.389   3.049   7.171  2.8809  0.0914  1.7529
  132OSM    H8T14249   5.225   3.103   7.207  0.1278  2.6790  2.2534
  132OSM    C9S14250   5.374   3.221   7.312  0.0791 -0.1642 -0.1432
  132OSM    H9S14251   5.290   3.282   7.350  0.4716 -1.1351  2.5139
  132OSM    H9T14252   5.458   3.284   7.277 -1.1122 -0.5576 -4.1992
  132OSM   C10S14253   5.426   3.136   7.429  0.9629  0.0883  0.2426
  132OSM   H10S14254   5.534   3.161   7.426  0.7295  1.2927 -3.5374
  132OSM   H10T14255   5.405   3.027   7.428 -0.0631  0.2385 -2.4501
  132OSM   C11S14256   5.364   3.184   7.560 -0.4986  0.0101 -0.5630
  132OSM   H11S14257   5.254   3.177   7.546 -0.5551  1.0366 -0.7101
  132OSM   H11T14258   5.391   3.291   7.569 -0.0829 -0.2430  2.3784
  132OSM   C12S14259   5.422   3.111   7.675 -0.5042  0.3791  0.4457
  132OSM   H12S14260   5.533   3.104   7.663 -0.8190 -1.4339 -2.2948
  132OSM   H12T14261   5.372   3.013   7.688 -1.0018  0.4644 -0.7381
  132OSM   C13S14262   5.390   3.186   7.806  0.4936  0.2053  0.7276
  132OSM   H13S14263   5.292   3.237   7.797  1.0482  1.4310  1.3488
  132OSM   H13T14264   5.463   3.268   7.822  0.6983  0.2891 -0.5846
  132OSM   C14S14265   5.388   3.095   7.927 -0.2182 -0.5143 -0.1269
  132OSM   H14S14266   5.475   3.025   7.924  1.4910  1.5094 -0.0649
  132OSM   H14T14267   5.298   3.030   7.928  1.7087 -3.7951 -4.7318
  132OSM   C15S14268   5.394   3.187   8.062  0.6852  0.0732  0.0246
  132OSM   H15S14269   5.333   3.132   8.136  0.3184  0.8168  0.2862
  132OSM   H15T14270   5.346   3.286   8.051 -0.6044 -0.3303  1.6459
  132OSM   C16S14271   5.533   3.200   8.124  0.3963  0.8086 -0.4336
  132OSM   H16S14272   5.599   3.263   8.062 -1.7750  2.2088 -1.4658
  132OSM   H16T14273   5.588   3.104   8.115  0.5646  0.7793  0.6760
  132OSM   C17S14274   5.527   3.245   8.272 -0.0166  0.3200 -0.6581
  132OSM   H17S14275   5.631   3.259   8.306  0.1342  2.1673 -1.7258
  132OSM   H17T14276   5.481   3.171   8.341 -1.3424 -1.0722 -2.8866
  132OSM   C18S14277   5.452   3.383   8.294  0.2266  0.5609  0.1597
  132OSM   H18S14278   5.476   3.466   8.225  1.6822  1.3182  1.5171
  132OSM   H18T14279   5.448   3.415   8.401  0.7173 -2.8158  1.3314
  132OSM   H18U14280   5.345   3.360   8.272  0.0931  1.5921 -0.2729
  132OSM    C1F14281   5.036   3.574   6.787  0.9145 -0.1118 -0.0540
  132OSM     OF14282   4.953   3.611   6.710  0.8897 -0.5185  0.5082
  132OSM    C2F14283   5.042   3.632   6.925 -0.0066 -0.0476 -0.2786
  132OSM    H2F14284   5.077   3.737   6.912 -2.0456  1.0928  2.4172
  132OSM    H2G14285   5.123   3.583   6.982  1.2546  0.1361 -1.8438
  132OSM    C3F14286   4.910   3.664   7.004 -0.0361  0.1145  0.2411
  132OSM    H3F14287   4.827   3.699   6.938 -0.3226 -2.4932 -0.8903
  132OSM    H3G14288   4.937   3.733   7.087 -0.2518  1.4776 -0.7817
  132OSM    C4F14289   4.851   3.537   7.064  0.2458 -0.3681 -0.4798
  132OSM    H4F14290   4.923   3.482   7.128  0.8280 -0.6243 -1.3441
  132OSM    H4G14291   4.837   3.470   6.977 -1.3115 -0.8342  0.0876
  132OSM    C5F14292   4.714   3.561   7.132  0.3881  0.3120  0.8928
  132OSM    H5F14293   4.648   3.596   7.050  1.5754 -0.2187 -0.3229
  132OSM    H5G14294   4.715   3.651   7.197  2.4178 -0.2701  1.7371
  132OSM    C6F14295   4.667   3.443   7.206  0.7325  0.2602  0.3202
  132OSM    H6F14296   4.736   3.406   7.285 -1.0449 -0.6378  1.5307
  132OSM    H6G14297   4.643   3.363   7.132  0.0179  0.3268  0.4693
  132OSM    C7F14298   4.541   3.487   7.290 -0.2540 -0.3503 -0.6498
  132OSM    H7F14299   4.460   3.540   7.235 -0.2074  1.5837  1.0048
  132OSM    H7G14300   4.575   3.543   7.379 -1.3046 -1.6146  0.5904
  132OSM    C8F14301   4.485   3.357   7.364 -0.0977  0.5209  0.3592
  132OSM    H8F14302   4.433   3.399   7.452 -0.8407  1.3697 -0.4635
  132OSM    H8G14303   4.574   3.299   7.399 -0.5538  0.3840  1.3088
  132OSM    C9F14304   4.392   3.276   7.272  0.3357 -0.2116  0.1157
  132OSM    H9F14305   4.419   3.279   7.165 -1.1388 -0.2808 -0.2769
  132OSM   C10F14306   4.293   3.197   7.322  0.0047  0.7556  0.0630
  132OSM   H10F14307   4.237   3.145   7.242  2.2806 -2.2804  0.2531
  132OSM   C11F14308   4.239   3.178   7.467  0.8061 -0.0422  0.3920
  132OSM   H11F14309   4.304   3.224   7.545 -2.4326  3.1652  1.4662
  132OSM   H11G14310   4.225   3.069   7.484 -0.2814  0.2554  1.5254
  132OSM   C12F14311   4.100   3.230   7.478 -0.3998 -0.3352 -0.1294
  132OSM   H12F14312   4.056   3.247   7.378 -0.6335  1.2445  0.2145
  132OSM   H12G14313   4.099   3.330   7.527  0.9874  1.3531 -3.2861
  132OSM   C13F14314   4.002   3.142   7.558  0.3314 -0.7565  0.4978
  132OSM   H13F14315   4.006   3.040   7.514 -0.6074  0.0139 -1.4883
  132OSM   H13G14316   3.898   3.175   7.540  0.6348 -0.3558 -0.5514
  132OSM   C14F14317   4.046   3.146   7.704 -0.0871  0.0338 -0.2102
  132OSM   H14F14318   4.065   3.252   7.731  0.2674  0.0918 -0.6805
  132OSM   H14G14319   4.141   3.090   7.701  0.8966  1.4208  2.4186
  132OSM   C15F14320   3.943   3.081   7.796  0.9502  0.6011 -0.2737
  132OSM   H15F14321   3.918   2.982   7.752  2.4943  1.0148 -2.2449
  132OSM   H15G14322   3.848   3.136   7.778 -0.8561 -2.9536 -2.6668
  132OSM   C16F14323   3.983   3.067   7.943  0.3862  0.3791  0.4316
  132OSM   H16F14324   4.092   3.044   7.950  0.1870 -0.5853  0.5289
  132OSM   H16G14325   3.930   2.979   7.986 -0.7904  1.2882  0.8806
  132OSM   C17F14326   3.972   3.190   8.024  0.7975 -0.0259  0.8181
  132OSM   H17F14327   3.865   3.219   8.019  0.1824 -1.9523  1.6945
  132OSM   H17G14328   4.028   3.271   7.973 -0.8407 -0.0240 -1.1296
  132OSM   C18F14329   4.004   3.178   8.169 -0.1709 -0.2037 -0.4172
  132OSM   H18F14330   3.933   3.118   8.229  1.1992  0.4744  2.0222
  132OSM   H18G14331   4.001   3.273   8.227 -2.1226  0.3739 -1.3560
  132OSM   H18H14332   4.107   3.139   8.186  0.5494  1.9160  0.3941
  133OSM      N14333   5.558   3.445   6.268  0.7940  0.5977 -0.3217
  133OSM    C1514334   5.667   3.373   6.200  0.2118 -0.0427  0.2431
  133OSM   H15A14335   5.702   3.284   6.251 -2.3156 -1.5638 -0.5244
  133OSM   H15B14336   5.756   3.434   6.194 -0.5506  0.9775 -1.3864
  133OSM   H15C14337   5.625   3.347   6.104  0.0992 -1.4173  0.6536
  133OSM    C1414338   5.585   3.469   6.415  0.5996 -0.0493 -0.2069
  133OSM   H14A14339   5.503   3.511   6.472  0.6704  1.7897 -1.3567
  133OSM   H14B14340   5.661   3.546   6.419  0.1513  0.5531 -1.9834
  133OSM   H14C14341   5.616   3.381   6.469  0.7717 -0.2268 -0.5840
  133OSM    C1314342   5.548   3.570   6.196 -0.3263  0.2708 -0.8518
  133OSM   H13A14343   5.464   3.629   6.228  0.7151  0.5135  1.6798
  133OSM   H13B14344   5.541   3.555   6.089 -0.4054  0.7258 -0.9118
  133OSM   H13C14345   5.635   3.632   6.215  0.2485 -0.9697  0.8233
  133OSM    C1214346   5.429   3.367   6.256  0.2506  0.0759 -0.2062
  133OSM   H12A14347   5.346   3.429   6.289 -1.7936 -2.8527  0.5170
  133OSM   H12B14348   5.434   3.273   6.308 -0.1471  0.3222  0.2871
  133OSM    C1114349   5.389   3.308   6.113  0.2313 -0.1407 -0.2718
  133OSM   H11A14350   5.369   3.388   6.038  0.2490 -0.7912 -0.9846
  133OSM   H11B14351   5.289   3.262   6.124  0.5655 -0.8474 -0.1291
  133OSM      P14352   5.439   3.058   6.039 -0.5026 -0.1604  0.1377
  133OSM    O1314353   5.310   3.040   5.968 -0.1651 -0.1525 -0.3284
  133OSM    O1414354   5.550   2.988   5.978 -0.8052  0.0684 -0.2245
  133OSM    O1114355   5.421   3.017   6.191  0.9662 -0.0953  0.4645
  133OSM    O1214356   5.476   3.214   6.055  0.5136 -0.1324  0.1861
  133OSM    C1S14357   5.534   2.995   6.275  0.3253  0.9948  0.1727
  133OSM    H1S14358   5.599   3.085   6.278 -0.4422  1.5577  0.6777
  133OSM    H1T14359   5.595   2.907   6.249  0.1325  1.9630 -4.2396
  133OSM     NF14360   5.614   2.977   6.515 -0.6476 -0.9881 -0.4770
  133OSM    HNF14361   5.639   2.892   6.561 -1.5306 -1.7108 -1.3061
  133OSM    C2S14362   5.491   2.980   6.429 -0.1675 -0.0134  0.0027
  133OSM    H2S14363   5.432   3.070   6.458  0.0435 -0.6552  2.6777
  133OSM    C3S14364   5.395   2.857   6.436  0.5243 -0.6759  1.1769
  133OSM    H3S14365   5.452   2.770   6.398 -0.0196 -0.5373 -0.0000
  133OSM     O314366   5.284   2.873   6.340  0.2745  0.0389 -0.6106
  133OSM    HO314367   5.309   2.957   6.300  1.7883  0.0876  0.3534
  133OSM    C4S14368   5.339   2.838   6.573 -0.6799  0.0170  0.8126
  133OSM    H4S14369   5.299   2.932   6.615 -0.5526  0.9544 -1.0882
  133OSM    C5S14370   5.336   2.731   6.646 -1.1006  0.0963 -0.4510
  133OSM    H5S14371   5.386   2.647   6.595 -0.1031  0.8567 -0.7773
  133OSM    C6S14372   5.292   2.726   6.789  0.4109 -0.5165  0.0776
  133OSM    H6S14373   5.225   2.640   6.812 -1.0918  0.9039  1.3121
  133OSM    H6T14374   5.224   2.812   6.803  0.0223 -0.1977 -3.0930
  133OSM    C7S14375   5.408   2.748   6.889  0.0823  0.7834  0.2761
  133OSM    H7S14376   5.450   2.850   6.870  1.0481  0.0592 -1.8144
  133OSM    H7T14377   5.493   2.680   6.869  0.3323  1.1449  0.0794
  133OSM    C8S14378   5.362   2.749   7.032 -0.0475 -0.6193  0.6942
  133OSM    H8S14379   5.306   2.657   7.056 -0.5298 -0.4096  0.3859
  133OSM    H8T14380   5.297   2.838   7.038  0.9904  0.5082 -2.4642
  133OSM    C9S14381   5.481   2.771   7.122 -0.7167 -0.2740 -0.8914
  133OSM    H9S14382   5.534   2.856   7.073  0.0297 -0.2410 -0.0675
  133OSM    H9T14383   5.545   2.681   7.123  0.5529  0.5908  0.0550
  133OSM   C10S14384   5.440   2.814   7.263 -0.6716  0.0921 -0.3942
  133OSM   H10S14385   5.337   2.848   7.243 -0.6341 -0.1655 -1.0450
  133OSM   H10T14386   5.495   2.903   7.300 -1.2005 -0.2617  1.3495
  133OSM   C11S14387   5.450   2.700   7.373  0.1357  0.5358  0.0392
  133OSM   H11S14388   5.558   2.673   7.374  0.1916  0.6715 -1.0839
  133OSM   H11T14389   5.394   2.613   7.333  0.5702  0.5892 -0.7181
  133OSM   C12S14390   5.410   2.737   7.517 -0.4426 -0.0153  0.0180
  133OSM   H12S14391   5.313   2.792   7.520  0.1829  1.0927  2.3581
  133OSM   H12T14392   5.493   2.807   7.545  0.8798 -1.6727  0.4016
  133OSM   C13S14393   5.410   2.622   7.608  0.3746  0.0875  0.4290
  133OSM   H13S14394   5.511   2.578   7.624  0.3792 -0.1749 -0.2999
  133OSM   H13T14395   5.329   2.547   7.591 -0.8936  1.7445 -1.2164
  133OSM   C14S14396   5.370   2.674   7.745 -0.4167  0.3291 -0.7344
  133OSM   H14S14397   5.269   2.721   7.751  0.6134  2.7750 -1.0644
  133OSM   H14T14398   5.426   2.770   7.754 -3.6113  2.1196  3.6571
  133OSM   C15S14399   5.388   2.586   7.869  0.6575  0.1108  0.4217
  133OSM   H15S14400   5.486   2.534   7.859  2.1446  2.7604  0.1676
  133OSM   H15T14401   5.309   2.508   7.878  0.9456 -0.2275  0.0437
  133OSM   C16S14402   5.387   2.668   7.998 -0.4020  0.0837 -0.9386
  133OSM   H16S14403   5.351   2.596   8.075 -1.2249  0.3059 -1.1088
  133OSM   H16T14404   5.310   2.748   7.987 -0.4490  0.2281  0.3173
  133OSM   C17S14405   5.520   2.743   8.026 -0.1870  0.2444  0.4215
  133OSM   H17S14406   5.543   2.810   7.940 -2.3467  3.3625  2.0962
  133OSM   H17T14407   5.601   2.667   8.029 -0.3846  0.0165  3.3664
  133OSM   C18S14408   5.535   2.824   8.153  0.8885 -0.6642 -0.1551
  133OSM   H18S14409   5.639   2.864   8.159  0.4286  0.4490  0.9982
  133OSM   H18T14410   5.521   2.774   8.251  2.9046 -0.9357  0.0541
  133OSM   H18U14411   5.475   2.917   8.152  0.3450 -1.0131 -0.0829
  133OSM    C1F14412   5.699   3.080   6.536 -0.6550 -0.0828  0.8142
  133OSM     OF14413   5.686   3.188   6.476  0.6727 -0.0797  0.2336
  133OSM    C2F14414   5.809   3.052   6.629 -0.0353  0.2058  0.3465
  133OSM    H2F14415   5.902   3.092   6.584  1.6235 -2.6093  1.0058
  133OSM    H2G14416   5.820   2.944   6.655  0.6555 -0.2713 -1.7304
  133OSM    C3F14417   5.799   3.119   6.772 -0.0514 -0.9288 -0.2695
  133OSM    H3F14418   5.785   3.228   6.760 -0.8699 -1.0675 -0.6818
  133OSM    H3G14419   5.893   3.105   6.830 -0.1027  0.5827  0.2080
  133OSM    C4F14420   5.681   3.064   6.858  0.0567 -0.0191 -0.3410
  133OSM    H4F14421   5.706   2.956   6.869  2.1277  0.4277 -0.1571
  133OSM    H4G14422   5.582   3.069   6.808 -0.6708 -2.3832  0.6774
  133OSM    C5F14423   5.662   3.114   7.007 -0.1618 -0.0708  0.1692
  133OSM    H5F14424   5.565   3.073   7.042 -0.4128  0.7640  0.4854
  133OSM    H5G14425   5.656   3.225   7.009  1.4285  0.0332  0.9519
  133OSM    C6F14426   5.770   3.076   7.110 -0.3789 -0.3940 -0.3938
  133OSM    H6F14427   5.864   3.130   7.087 -0.4477 -0.3738 -0.6307
  133OSM    H6G14428   5.792   2.967   7.114  1.5010 -0.0191  1.9703
  133OSM    C7F14429   5.740   3.119   7.259  0.2483  0.3931  0.6048
  133OSM    H7F14430   5.657   3.051   7.288  0.0258  0.3883 -0.0144
  133OSM    H7G14431   5.707   3.225   7.253 -3.8534 -0.8097 -2.0675
  133OSM    C8F14432   5.864   3.099   7.350 -0.6053  0.9784 -0.0573
  133OSM    H8F14433   5.954   3.147   7.306  1.1882 -1.6097  0.5506
  133OSM    H8G14434   5.893   2.994   7.372 -1.3147  1.1280  1.7227
  133OSM    C9F14435   5.837   3.170   7.479  0.1904 -1.0199 -0.3700
  133OSM    H9F14436   5.806   3.276   7.477 -0.6902 -1.2743 -0.2572
  133OSM   C10F14437   5.833   3.124   7.607 -0.6893 -0.3940  0.3977
  133OSM   H10F14438   5.823   3.197   7.688  1.5157 -0.7898  1.0868
  133OSM   C11F14439   5.865   2.984   7.653 -0.3980  0.0264 -1.3439
  133OSM   H11F14440   5.927   2.925   7.583  0.7743 -0.3738 -0.0088
  133OSM   H11G14441   5.767   2.932   7.658 -0.9641  1.1640  1.2370
  133OSM   C12F14442   5.937   2.983   7.792  0.0237 -0.1429 -0.2566
  133OSM   H12F14443   6.033   3.038   7.788  0.3337 -0.6681 -0.1477
  133OSM   H12G14444   5.971   2.879   7.814  1.0917  0.2636  0.0667
  133OSM   C13F14445   5.859   3.054   7.902 -0.2835 -0.5745 -0.4985
  133OSM   H13F14446   5.764   2.997   7.911  0.2914 -1.8552 -2.1335
  133OSM   H13G14447   5.856   3.165   7.890  0.6493 -0.3090  1.3533
  133OSM   C14F14448   5.939   3.028   8.031 -0.7267 -0.2018 -0.4850
  133OSM   H14F14449   6.047   3.052   8.027 -0.2237 -1.5064  2.5771
  133OSM   H14G14450   5.929   2.919   8.049 -2.6391 -0.3117 -1.8717
  133OSM   C15F14451   5.887   3.117   8.141  0.3533 -0.6492 -0.2475
  133OSM   H15F14452   5.788   3.079   8.176  1.1246 -1.0840  1.5717
  133OSM   H15G14453   5.871   3.223   8.111  1.0257  0.2125  2.1919
  133OSM   C16F14454   5.981   3.128   8.264  0.3253 -0.1406  0.3926
  133OSM   H16F14455   5.953   3.227   8.308 -2.3359 -1.3192  1.5697
  133OSM   H16G14456   6.089   3.132   8.239  0.8523 -0.6342  2.3911
  133OSM   C17F14457   5.947   3.010   8.368 -0.2490 -0.1263 -0.3430
  133OSM   H17F14458   5.931   2.924   8.300  1.3749  0.0470 -0.9948
  133OSM   H17G14459   5.855   3.045   8.421  0.2908 -1.8170  1.8473
  133OSM   C18F14460   6.061   2.974   8.456 -0.9734 -0.3661  0.6857
  133OSM   H18F14461   6.083   3.063   8.519 -0.7035  1.6024 -1.9744
  133OSM   H18G14462   6.150   2.950   8.395 -1.3538  0.4688 -0.2405
  133OSM   H18H14463   6.039   2.884   8.516 -2.2277 -1.5840 -1.4879
  134OSM      N14464   5.217   6.277   6.220 -0.5107 -0.0649 -0.1774
  134OSM    C1514465   5.146   6.370   6.312 -0.5075 -0.2706 -0.2989
  134OSM   H15A14466   5.082   6.425   6.244  1.7610 -0.4735 -2.7596
  134OSM   H15B14467   5.210   6.435   6.368 -0.6705  0.5548 -1.0491
  134OSM   H15C14468   5.088   6.319   6.388  1.4431 -0.5610  1.0580
  134OSM    C1414469   5.124   6.212   6.123 -0.6862  0.1355  0.2800
  134OSM   H14A14470   5.174   6.179   6.033 -0.5636  1.5659 -0.2077
  134OSM   H14B14471   5.051   6.286   6.093 -1.7232 -0.6982  0.6883
  134OSM   H14C14472   5.062   6.132   6.160 -1.5048  0.6424  0.0302
  134OSM    C1314473   5.318   6.357   6.150  0.1459  1.2151  0.0637
  134OSM   H13A14474   5.351   6.292   6.071  2.0901 -0.1913  1.9419
  134OSM   H13B14475   5.399   6.383   6.217 -1.3781 -2.0996  3.5553
  134OSM   H13C14476   5.270   6.443   6.104  0.2498  0.8919 -0.6662
  134OSM    C1214477   5.279   6.164   6.310 -0.3758 -0.8769  0.0030
  134OSM   H12A14478   5.324   6.088   6.248 -2.3456 -0.8135 -1.5982
  134OSM   H12B14479   5.187   6.127   6.352  0.5006 -0.5437  2.3581
  134OSM    C1114480   5.367   6.203   6.433  0.1795 -0.9404  0.3578
  134OSM   H11A14481   5.399   6.105   6.474 -1.2689 -1.0199  1.3778
  134OSM   H11B14482   5.308   6.258   6.509  0.7542 -1.9113  1.5500
  134OSM      P14483   5.627   6.238   6.398  0.1418  0.0138  0.0131
  134OSM    O1314484   5.669   6.182   6.267  0.2011  0.3088  0.3165
  134OSM    O1414485   5.703   6.355   6.446 -0.7854  0.4340 -0.2664
  134OSM    O1114486   5.630   6.120   6.510  0.6824 -0.1856  0.1679
  134OSM    O1214487   5.478   6.285   6.398  0.4115  0.5795  0.4941
  134OSM    C1S14488   5.629   6.156   6.645  0.3166 -0.3755  0.0727
  134OSM    H1S14489   5.524   6.160   6.681  0.7838 -0.7090  1.5560
  134OSM    H1T14490   5.682   6.251   6.665  1.2073 -0.4029 -1.9343
  134OSM     NF14491   5.673   6.089   6.875 -0.1465  0.8122 -0.2241
  134OSM    HNF14492   5.748   6.120   6.933 -0.5538  0.5002  0.4797
  134OSM    C2S14493   5.696   6.044   6.737 -0.9873  0.2573  0.0325
  134OSM    H2S14494   5.646   5.944   6.732 -0.1929 -0.2004  0.9467
  134OSM    C3S14495   5.843   6.031   6.701  0.8182  0.8159 -1.0128
  134OSM    H3S14496   5.883   6.134   6.717 -1.7829  1.9423 -1.3508
  134OSM     O314497   5.869   6.002   6.563 -0.2143  0.0228 -0.1422
  134OSM    HO314498   5.778   6.010   6.532 -0.1319  1.7690 -0.0815
  134OSM    C4S14499   5.909   5.925   6.786  0.4512 -0.3866  0.4830
  134OSM    H4S14500   5.881   5.819   6.778 -0.1786 -0.3128  1.5343
  134OSM    C5S14501   5.988   5.952   6.895 -0.0898 -0.4063  0.2657
  134OSM    H5S14502   6.015   6.057   6.908  0.7432 -0.6338  0.4430
  134OSM    C6S14503   6.056   5.843   6.982 -0.1393 -0.4281 -0.6236
  134OSM    H6S14504   6.154   5.808   6.941  0.8414  1.1522  0.2793
  134OSM    H6T14505   5.989   5.754   6.986 -0.1564 -0.4162 -0.6368
  134OSM    C7S14506   6.070   5.903   7.124 -0.3849  0.2299  0.6915
  134OSM    H7S14507   5.966   5.911   7.162 -2.0269 -0.8266 -3.1115
  134OSM    H7T14508   6.111   6.006   7.116 -0.6019  0.6097  3.5819
  134OSM    C8S14509   6.157   5.813   7.220 -0.1254  0.1848 -0.1560
  134OSM    H8S14510   6.256   5.782   7.180 -0.2210  0.0366 -0.2813
  134OSM    H8T14511   6.098   5.719   7.229  0.6685 -0.2717  0.3942
  134OSM    C9S14512   6.176   5.881   7.355 -0.6338 -0.5060 -0.0934
  134OSM    H9S14513   6.080   5.888   7.411  0.4352 -1.4309  1.9899
  134OSM    H9T14514   6.217   5.983   7.335 -1.8650  0.2274  0.9558
  134OSM   C10S14515   6.282   5.806   7.444  0.3046 -0.4086 -0.3505
  134OSM   H10S14516   6.376   5.798   7.384  0.3256 -0.6314 -0.2865
  134OSM   H10T14517   6.258   5.698   7.448 -0.2005 -0.2819  0.1251
  134OSM   C11S14518   6.320   5.872   7.574 -0.9703 -0.0021 -0.2859
  134OSM   H11S14519   6.352   5.974   7.544 -1.8297  0.2685 -0.3171
  134OSM   H11T14520   6.405   5.824   7.628 -2.2898 -1.3047  0.7117
  134OSM   C12S14521   6.209   5.894   7.680  0.0135 -0.3869 -0.3301
  134OSM   H12S14522   6.169   5.795   7.710  0.6182 -0.5416 -0.0102
  134OSM   H12T14523   6.133   5.973   7.663  0.6491  1.1052  2.9631
  134OSM   C13S14524   6.270   5.948   7.815 -0.2579  0.1717 -0.1448
  134OSM   H13S14525   6.292   6.056   7.801  0.5935 -0.1460 -1.4509
  134OSM   H13T14526   6.360   5.886   7.835  0.4686  0.9337 -0.9835
  134OSM   C14S14527   6.169   5.945   7.932  0.5254  0.9632 -0.1169
  134OSM   H14S14528   6.124   5.844   7.936  1.5530  0.4642 -0.6015
  134OSM   H14T14529   6.087   6.014   7.905  0.6603  0.5261 -1.7784
  134OSM   C15S14530   6.229   5.980   8.071  0.3870  0.0444  0.1062
  134OSM   H15S14531   6.266   6.084   8.063  0.5741  0.0928  1.3011
  134OSM   H15T14532   6.313   5.914   8.102 -1.5030 -1.3552  2.6653
  134OSM   C16S14533   6.118   5.980   8.175  0.0839  0.7849 -0.5507
  134OSM   H16S14534   6.070   5.880   8.186  0.4360  0.7941  1.4584
  134OSM   H16T14535   6.044   6.058   8.148 -0.8959 -0.5066 -1.7677
  134OSM   C17S14536   6.164   6.002   8.320  0.1361 -1.0954 -0.1147
  134OSM   H17S14537   6.199   6.107   8.316 -0.6062 -0.8174 -4.0344
  134OSM   H17T14538   6.251   5.936   8.339  2.6460  1.0740 -3.1080
  134OSM   C18S14539   6.046   5.976   8.421 -0.6274  0.4503 -0.2236
  134OSM   H18S14540   6.070   6.025   8.517 -1.5123 -0.0803  0.2803
  134OSM   H18T14541   6.036   5.867   8.437 -1.7585  0.6522  0.6333
  134OSM   H18U14542   5.953   6.024   8.383 -0.6024 -0.1679 -1.0947
  134OSM    C1F14543   5.557   6.069   6.937  0.1293 -0.1258 -0.6967
  134OSM     OF14544   5.472   5.987   6.902 -0.3903  0.2474  0.9029
  134OSM    C2F14545   5.543   6.150   7.063  0.3777 -0.6496  0.3006
  134OSM    H2F14546   5.608   6.240   7.056 -0.4019 -0.1663 -1.2214
  134OSM    H2G14547   5.562   6.094   7.157  2.1140 -0.2673  0.2172
  134OSM    C3F14548   5.397   6.197   7.078  0.1965 -0.6612 -0.5338
  134OSM    H3F14549   5.331   6.107   7.079 -1.9959  0.8747 -0.6208
  134OSM    H3G14550   5.363   6.267   6.999  0.4422 -1.3306 -1.2470
  134OSM    C4F14551   5.373   6.271   7.219 -0.5473  0.4128  0.4995
  134OSM    H4F14552   5.266   6.301   7.223 -0.4462  0.6458  2.1936
  134OSM    H4G14553   5.433   6.364   7.224 -1.1726  1.1450 -3.0569
  134OSM    C5F14554   5.377   6.175   7.334 -0.1784  0.2268  0.0970
  134OSM    H5F14555   5.467   6.111   7.348  1.4518  2.4949  0.5982
  134OSM    H5G14556   5.301   6.096   7.315 -0.4368  0.0542  1.6600
  134OSM    C6F14557   5.353   6.246   7.465  0.2269 -0.5466  0.0189
  134OSM    H6F14558   5.321   6.175   7.544 -0.6032  1.6809  1.7785
  134OSM    H6G14559   5.271   6.318   7.445 -0.4633 -0.9905  1.1777
  134OSM    C7F14560   5.485   6.309   7.511  0.5761  0.5435 -0.7092
  134OSM    H7F14561   5.514   6.389   7.439 -1.3621  1.4129 -0.6010
  134OSM    H7G14562   5.570   6.238   7.508  0.3226  0.2604 -1.3175
  134OSM    C8F14563   5.478   6.378   7.652  0.6441 -0.3328 -0.0461
  134OSM    H8F14564   5.387   6.442   7.647 -1.0727 -2.5973  0.3221
  134OSM    H8G14565   5.574   6.433   7.661  0.7941  0.3085 -3.9137
  134OSM    C9F14566   5.459   6.284   7.759 -0.3189 -0.2321  0.2275
  134OSM    H9F14567   5.391   6.198   7.747 -0.8969  0.3019 -0.3353
  134OSM   C10F14568   5.515   6.298   7.877 -0.7636 -0.0898 -0.3526
  134OSM   H10F14569   5.490   6.224   7.954 -0.5002  0.5590  0.3747
  134OSM   C11F14570   5.604   6.413   7.931  0.6656 -0.1709  0.3649
  134OSM   H11F14571   5.646   6.462   7.841 -1.6412 -0.3069 -0.8657
  134OSM   H11G14572   5.694   6.370   7.980 -0.0616  0.1326  2.0576
  134OSM   C12F14573   5.528   6.501   8.023 -0.1088 -0.0472  0.6161
  134OSM   H12F14574   5.475   6.581   7.966  3.8455  1.4997 -1.2629
  134OSM   H12G14575   5.607   6.555   8.080  0.8676 -0.2160 -0.5326
  134OSM   C13F14576   5.445   6.437   8.136  0.0566 -0.0380  0.3126
  134OSM   H13F14577   5.490   6.341   8.170 -3.3864 -2.0507 -0.3436
  134OSM   H13G14578   5.349   6.410   8.087 -0.8568 -0.3361  2.1435
  134OSM   C14F14579   5.415   6.520   8.260  0.0410 -0.0377  0.1456
  134OSM   H14F14580   5.329   6.477   8.316 -0.2836  0.4335  0.0221
  134OSM   H14G14581   5.375   6.619   8.229 -3.8035 -1.6216 -0.5334
  134OSM   C15F14582   5.537   6.545   8.358 -0.0194  0.3950 -0.7444
  134OSM   H15F14583   5.631   6.583   8.312  1.0725  1.4796  2.1512
  134OSM   H15G14584   5.568   6.448   8.401 -1.2154  1.5849  3.2399
  134OSM   C16F14585   5.491   6.634   8.472 -0.0127 -0.3436  0.3352
  134OSM   H16F14586   5.403   6.590   8.524 -1.1910  0.8516 -0.5856
  134OSM   H16G14587   5.466   6.736   8.437  1.5552 -0.4543 -1.2703
  134OSM   C17F14588   5.603   6.658   8.577  0.0135  0.1646  0.0881
  134OSM   H17F14589   5.674   6.573   8.568  2.3244  1.8428  1.5043
  134OSM   H17G14590   5.571   6.666   8.683  3.0891 -1.9220  1.3105
  134OSM   C18F14591   5.701   6.771   8.543  0.0285  0.2194 -0.3006
  134OSM   H18F14592   5.652   6.871   8.549  0.6129  0.4741  0.5837
  134OSM   H18G14593   5.743   6.752   8.442  1.9133 -0.1121  0.5059
  134OSM   H18H14594   5.781   6.786   8.619 -0.6702  0.5766  0.3879
  135OSM      N14595   5.714   5.515   6.205 -0.4255  0.4519  0.2938
  135OSM    C1514596   5.755   5.660   6.206  0.7147  0.0067  0.1996
  135OSM   H15A14597   5.689   5.720   6.145  1.2378 -0.4582 -0.8551
  135OSM   H15B14598   5.857   5.674   6.173  0.6427  1.1235  0.4043
  135OSM   H15C14599   5.735   5.704   6.303 -1.0913 -1.8419  0.7475
  135OSM    C1414600   5.745   5.462   6.069  0.7570 -0.6297  0.2290
  135OSM   H14A14601   5.847   5.486   6.044  0.9499 -0.0381  1.5235
  135OSM   H14B14602   5.690   5.514   5.992 -1.5585  0.0983  2.2590
  135OSM   H14C14603   5.727   5.355   6.065  2.1151 -0.8528 -0.7183
  135OSM    C1314604   5.794   5.444   6.302 -0.2355  0.2492 -0.3844
  135OSM   H13A14605   5.900   5.462   6.289 -0.1577  1.4083  1.4896
  135OSM   H13B14606   5.790   5.336   6.292  0.3727  0.0918  0.7935
  135OSM   H13C14607   5.770   5.468   6.404 -0.7989  0.3007 -0.5280
  135OSM    C1214608   5.569   5.492   6.238  0.1193  0.0790 -0.6411
  135OSM   H12A14609   5.540   5.545   6.327  0.8451 -0.1593 -0.2505
  135OSM   H12B14610   5.544   5.387   6.250 -3.2759  0.8032 -0.5322
  135OSM    C1114611   5.469   5.547   6.137  0.3123  0.0638 -0.8091
  135OSM   H11A14612   5.369   5.506   6.162  0.1514  0.7338 -0.3212
  135OSM   H11B14613   5.488   5.514   6.032 -3.3102 -0.1776 -1.5020
  135OSM      P14614   5.354   5.771   6.208 -0.0815  0.2877 -0.4699
  135OSM    O1314615   5.397   5.912   6.197 -0.3284  0.0736 -0.1505
  135OSM    O1414616   5.215   5.732   6.164 -0.7484 -0.0877  0.3453
  135OSM    O1114617   5.371   5.720   6.360 -0.0403 -0.2795 -0.3815
  135OSM    O1214618   5.461   5.690   6.127  0.1376  0.2741 -0.1195
  135OSM    C1S14619   5.343   5.824   6.454  0.2994  0.1692  0.7316
  135OSM    H1S14620   5.238   5.860   6.449  0.3351  0.1214 -0.5654
  135OSM    H1T14621   5.406   5.913   6.434  1.7793 -0.9077  0.4342
  135OSM     NF14622   5.301   5.871   6.699 -0.2482 -0.5745 -0.0465
  135OSM    HNF14623   5.367   5.902   6.767  1.3227  0.8620 -2.1021
  135OSM    C2S14624   5.347   5.773   6.600  0.0683  0.3671  0.2695
  135OSM    H2S14625   5.283   5.682   6.610 -0.3191  0.3549 -1.8954
  135OSM    C3S14626   5.490   5.716   6.623 -0.2079 -0.2812  0.8996
  135OSM    H3S14627   5.568   5.793   6.605  0.4882 -0.9379  1.0427
  135OSM     O314628   5.518   5.612   6.535  0.9935 -0.1837  0.5204
  135OSM    HO314629   5.452   5.649   6.476  1.9055  0.6844  0.0101
  135OSM    C4S14630   5.490   5.660   6.767 -0.2531 -0.5670  0.7120
  135OSM    H4S14631   5.408   5.588   6.783 -1.2928  0.1808 -0.9391
  135OSM    C5S14632   5.586   5.690   6.855 -0.2025  0.0911 -0.0199
  135OSM    H5S14633   5.673   5.743   6.815 -1.0419  0.8770 -0.8679
  135OSM    C6S14634   5.591   5.633   6.998  0.0398  0.9136 -0.6958
  135OSM    H6S14635   5.662   5.548   7.001 -2.3253 -1.1435  1.6463
  135OSM    H6T14636   5.495   5.592   7.036  0.3724 -1.8191 -2.5303
  135OSM    C7S14637   5.648   5.731   7.096 -0.0790 -0.3685 -0.1625
  135OSM    H7S14638   5.609   5.835   7.089 -0.4612 -0.2183  2.7517
  135OSM    H7T14639   5.757   5.732   7.076  0.1387 -2.8896  0.5648
  135OSM    C8S14640   5.640   5.703   7.251  0.3576  0.0308 -0.4638
  135OSM    H8S14641   5.639   5.592   7.259 -0.0287  0.0533 -0.1498
  135OSM    H8T14642   5.547   5.744   7.295  1.5613  2.9070 -0.4202
  135OSM    C9S14643   5.761   5.741   7.330  0.0451  0.0989 -0.2768
  135OSM    H9S14644   5.791   5.844   7.301 -2.2548  0.8237 -0.2807
  135OSM    H9T14645   5.847   5.672   7.317 -0.2192 -0.1787 -0.5708
  135OSM   C10S14646   5.720   5.742   7.478 -0.3461 -0.7253  0.0272
  135OSM   H10S14647   5.731   5.639   7.518  0.7712 -1.6054 -2.3685
  135OSM   H10T14648   5.615   5.777   7.489 -0.1380 -0.7397  2.5554
  135OSM   C11S14649   5.798   5.839   7.563 -0.5145  0.5310  0.4420
  135OSM   H11S14650   5.787   5.942   7.524 -1.1774  0.1508 -0.4070
  135OSM   H11T14651   5.905   5.810   7.566 -0.6716 -0.0187  0.8925
  135OSM   C12S14652   5.753   5.828   7.708  0.8589  0.6244  0.1547
  135OSM   H12S14653   5.760   5.722   7.740  1.9217  1.1666  1.8684
  135OSM   H12T14654   5.649   5.864   7.717 -0.0506 -1.7009 -0.4886
  135OSM   C13S14655   5.849   5.901   7.806 -0.1874 -1.1236  0.0896
  135OSM   H13S14656   5.866   6.007   7.777 -0.9596 -1.0186 -0.0057
  135OSM   H13T14657   5.946   5.847   7.808 -0.3854 -1.4662  0.6177
  135OSM   C14S14658   5.784   5.905   7.949 -0.5421 -0.1672  0.1303
  135OSM   H14S14659   5.869   5.935   8.015  0.2503 -1.5498 -0.2201
  135OSM   H14T14660   5.753   5.799   7.960 -1.9300 -0.0971 -2.4350
  135OSM   C15S14661   5.669   6.005   7.966 -0.3043  0.2046  0.0374
  135OSM   H15S14662   5.587   5.983   7.895 -1.5778 -2.0541  2.0669
  135OSM   H15T14663   5.710   6.106   7.944  1.8484 -0.6467 -0.1275
  135OSM   C16S14664   5.599   6.002   8.104 -0.5443  0.6090  0.1052
  135OSM   H16S14665   5.563   5.897   8.115 -3.0238  1.4691  0.9675
  135OSM   H16T14666   5.516   6.074   8.118 -1.6401 -0.0516 -2.3416
  135OSM   C17S14667   5.699   6.040   8.218 -0.5096  0.2291  1.0289
  135OSM   H17S14668   5.785   5.970   8.204  0.1334  1.3815 -1.3300
  135OSM   H17T14669   5.651   6.018   8.315 -0.4808 -1.0971  0.7665
  135OSM   C18S14670   5.753   6.186   8.200 -0.0889  0.1257 -0.0473
  135OSM   H18S14671   5.669   6.258   8.212  1.3294  1.6277  1.3030
  135OSM   H18T14672   5.816   6.204   8.110 -0.9873 -0.7941 -0.8853
  135OSM   H18U14673   5.817   6.204   8.289  0.8184 -1.7688 -0.2781
  135OSM    C1F14674   5.177   5.917   6.723  0.6666  0.3001  0.3590
  135OSM     OF14675   5.087   5.874   6.648  0.2640  0.7398  0.0641
  135OSM    C2F14676   5.155   6.012   6.832 -0.1648  0.1664 -0.3131
  135OSM    H2F14677   5.231   6.092   6.830 -0.1377  0.2342  1.6187
  135OSM    H2G14678   5.158   5.958   6.929 -0.7345 -1.0497 -0.9422
  135OSM    C3F14679   5.008   6.080   6.833  0.2010  1.0655  0.0573
  135OSM    H3F14680   4.934   6.008   6.872 -0.2174  0.7714 -1.2261
  135OSM    H3G14681   4.980   6.107   6.729  0.1399  1.2757  0.1272
  135OSM    C4F14682   4.982   6.194   6.936 -0.4292 -0.6014 -0.2036
  135OSM    H4F14683   4.891   6.246   6.902  0.9555  1.7936 -0.4451
  135OSM    H4G14684   5.069   6.261   6.919  0.3723 -1.5701  0.0022
  135OSM    C5F14685   4.984   6.159   7.085 -0.0752  1.0524  1.2053
  135OSM    H5F14686   5.085   6.121   7.109  0.7352  2.7344  0.6563
  135OSM    H5G14687   4.906   6.082   7.105  1.6437 -0.8572  0.8280
  135OSM    C6F14688   4.956   6.274   7.186 -0.4185  0.3680 -0.0694
  135OSM    H6F14689   4.854   6.306   7.159  0.0879  0.5031 -1.9622
  135OSM    H6G14690   5.037   6.348   7.171 -0.8095  0.5575 -1.3413
  135OSM    C7F14691   4.962   6.222   7.334 -0.1935 -0.7303  0.3289
  135OSM    H7F14692   5.064   6.182   7.357 -0.2389 -0.8573  0.3122
  135OSM    H7G14693   4.884   6.143   7.336 -0.2707 -0.7014 -0.7596
  135OSM    C8F14694   4.940   6.328   7.447 -0.4322 -0.2483 -0.0628
  135OSM    H8F14695   4.863   6.402   7.417  0.7704  0.7667 -0.7469
  135OSM    H8G14696   5.039   6.376   7.460  0.5429 -1.9303 -0.8920
  135OSM    C9F14697   4.882   6.276   7.580 -0.7078  0.1299  0.0495
  135OSM    H9F14698   4.776   6.245   7.578 -0.8050  0.3639  0.8206
  135OSM   C10F14699   4.939   6.258   7.697 -0.6187 -0.0536  0.3951
  135OSM   H10F14700   4.879   6.226   7.784  1.1347  0.5083  1.8644
  135OSM   C11F14701   5.083   6.300   7.724 -0.5807  0.0207 -0.5923
  135OSM   H11F14702   5.138   6.341   7.636  2.1685 -0.4870  0.7883
  135OSM   H11G14703   5.135   6.209   7.761 -0.5338 -0.0194 -0.7573
  135OSM   C12F14704   5.078   6.417   7.822  0.1965  0.5967 -0.0320
  135OSM   H12F14705   5.001   6.493   7.795 -1.4340  0.1127  2.8695
  135OSM   H12G14706   5.174   6.470   7.807  0.4466  0.1753  0.0671
  135OSM   C13F14707   5.055   6.360   7.965  1.0844  0.3022 -0.4376
  135OSM   H13F14708   5.135   6.285   7.984 -0.6227 -1.0303  1.9373
  135OSM   H13G14709   4.957   6.309   7.966  2.5296 -2.7014  1.2327
  135OSM   C14F14710   5.054   6.449   8.083 -0.3157 -0.4572  0.3580
  135OSM   H14F14711   4.962   6.511   8.072  0.7402  1.0432 -0.3218
  135OSM   H14G14712   5.131   6.530   8.083 -2.3166  1.5600  0.0535
  135OSM   C15F14713   5.056   6.372   8.215  0.0605 -0.0533 -0.5473
  135OSM   H15F14714   5.131   6.291   8.224 -0.8038 -0.8555 -0.4708
  135OSM   H15G14715   4.964   6.312   8.229 -0.3932  0.4930 -1.1221
  135OSM   C16F14716   5.070   6.466   8.338 -0.2951 -0.6069 -0.6259
  135OSM   H16F14717   5.151   6.542   8.330 -0.8193  0.1428  0.7351
  135OSM   H16G14718   5.096   6.402   8.425  0.4537 -0.7018 -0.9167
  135OSM   C17F14719   4.942   6.543   8.383 -0.3446  0.3168 -0.6438
  135OSM   H17F14720   4.855   6.477   8.402 -1.7712  2.1946 -0.3177
  135OSM   H17G14721   4.908   6.603   8.296 -0.7471 -2.5554 -2.5847
  135OSM   C18F14722   4.974   6.640   8.497  0.0805 -0.2674  0.1680
  135OSM   H18F14723   4.871   6.671   8.528  0.5045 -0.4429  1.8626
  135OSM   H18G14724   5.041   6.722   8.466 -1.9357  0.8909 -1.3219
  135OSM   H18H14725   4.998   6.583   8.590  0.9017  0.8005  0.6320
  136OSM      N14726   3.518   1.072   5.983  0.5440  0.2470 -0.1720
  136OSM    C1514727   3.504   1.207   5.924 -0.4699 -0.3075  0.9404
  136OSM   H15A14728   3.532   1.197   5.820 -2.7069 -2.2369  0.4448
  136OSM   H15B14729   3.586   1.268   5.959  1.4991 -2.5404  0.4878
  136OSM   H15C14730   3.404   1.243   5.946 -0.6335 -1.2174  1.7618
  136OSM    C1414731   3.653   1.022   5.934  0.3792 -0.4098  0.2580
  136OSM   H14A14732   3.666   1.036   5.828 -1.5772 -0.6362 -0.0464
  136OSM   H14B14733   3.655   0.917   5.960 -1.5511  0.0160  2.4083
  136OSM   H14C14734   3.738   1.080   5.967  2.3948 -0.9919 -3.3398
  136OSM    C1314735   3.521   1.094   6.131 -0.1704  0.0797  0.6352
  136OSM   H13A14736   3.432   1.141   6.171 -0.1838  0.8867 -0.2999
  136OSM   H13B14737   3.605   1.159   6.150  0.7223 -0.4097 -1.3878
  136OSM   H13C14738   3.541   1.001   6.182  2.0664 -0.9522 -1.8858
  136OSM    C1214739   3.409   0.984   5.928 -0.2511 -0.4754 -0.4550
  136OSM   H12A14740   3.429   0.882   5.956 -1.7145 -0.4781  0.6758
  136OSM   H12B14741   3.406   0.987   5.820 -0.2650 -1.1932 -0.4767
  136OSM    C1114742   3.269   1.001   6.002  0.3086 -0.3310  0.1530
  136OSM   H11A14743   3.183   0.976   5.937  0.4532 -2.1083  0.5815
  136OSM   H11B14744   3.268   1.111   6.018 -0.1516 -0.0356 -1.7077
  136OSM      P14745   3.245   0.779   6.128  0.3091 -0.0425  0.1035
  136OSM    O1314746   3.169   0.744   6.004  0.1670 -0.0064  0.1515
  136OSM    O1414747   3.376   0.718   6.139 -0.4449 -0.1972  0.7577
  136OSM    O1114748   3.150   0.750   6.249 -0.4404  0.2762  0.2119
  136OSM    O1214749   3.262   0.930   6.127 -0.4988  0.1455  0.1883
  136OSM    C1S14750   3.169   0.787   6.382  0.4373 -0.0783 -0.6523
  136OSM    H1S14751   3.149   0.893   6.408 -2.8969 -0.7073 -0.1558
  136OSM    H1T14752   3.272   0.759   6.413 -0.6053 -2.7086  0.7404
  136OSM     NF14753   3.107   0.728   6.616  0.2978  0.2231 -0.1346
  136OSM    HNF14754   3.177   0.672   6.659 -0.1680 -0.0472  0.2755
  136OSM    C2S14755   3.071   0.699   6.472 -0.2490 -0.0590  0.9250
  136OSM    H2S14756   2.973   0.748   6.457  0.3196  1.3483  1.6310
  136OSM    C3S14757   3.068   0.542   6.439 -0.5559  0.4562  0.7108
  136OSM    H3S14758   3.165   0.491   6.459 -0.9960 -1.2315 -1.2168
  136OSM     O314759   3.046   0.505   6.302 -0.0768 -0.2362 -0.4684
  136OSM    HO314760   3.047   0.590   6.258 -0.6130 -0.5065 -1.0097
  136OSM    C4S14761   2.973   0.470   6.533  0.1896 -0.4801  0.4197
  136OSM    H4S14762   3.021   0.434   6.625 -1.5331 -0.8614  1.2210
  136OSM    C5S14763   2.843   0.445   6.511  0.1327  0.2349  0.1462
  136OSM    H5S14764   2.794   0.471   6.416 -0.9881  0.3925  0.7461
  136OSM    C6S14765   2.766   0.357   6.609 -0.2898 -0.0353  0.6784
  136OSM    H6S14766   2.746   0.258   6.562  0.8532 -0.2281  0.5438
  136OSM    H6T14767   2.671   0.407   6.636 -0.0404  1.2026 -0.6100
  136OSM    C7S14768   2.821   0.322   6.750  0.8544  0.4251  0.2353
  136OSM    H7S14769   2.829   0.415   6.810 -2.8196  0.3256  1.1198
  136OSM    H7T14770   2.922   0.276   6.741  0.1594 -1.4966  1.5573
  136OSM    C8S14771   2.734   0.228   6.834 -0.1306 -0.6751  0.2339
  136OSM    H8S14772   2.716   0.139   6.770 -0.1781 -0.1343 -0.5121
  136OSM    H8T14773   2.636   0.274   6.860  0.2708 -0.2218  0.9869
  136OSM    C9S14774   2.799   0.195   6.963 -0.4078 -0.9452 -0.2818
  136OSM    H9S14775   2.769   0.277   7.031  0.7474  0.0713 -0.9589
  136OSM    H9T14776   2.908   0.198   6.944 -0.5301 -1.2157 -1.0453
  136OSM   C10S14777   2.752   0.068   7.019  0.2646 -0.3603 -0.4407
  136OSM   H10S14778   2.793  -0.017   6.961 -1.3297 -0.2211 -1.8566
  136OSM   H10T14779   2.641   0.065   7.012  0.2304  2.2894 -2.5412
  136OSM   C11S14780   2.770   0.046   7.172  0.0368  0.2551  0.1016
  136OSM   H11S14781   2.731   0.130   7.233 -0.2172 -0.4420  0.9210
  136OSM   H11T14782   2.875   0.040   7.205  0.4459  1.0408 -1.0083
  136OSM   C12S14783   2.706  -0.086   7.223  0.1401 -0.0823 -0.3947
  136OSM   H12S14784   2.762  -0.167   7.170 -1.5158 -0.7164 -1.2386
  136OSM   H12T14785   2.596  -0.082   7.208  0.3315 -0.5051 -2.2068
  136OSM   C13S14786   2.724  -0.104   7.380 -0.2109 -0.4402 -0.1761
  136OSM   H13S14787   2.672  -0.017   7.425  0.0867 -0.6877  0.6830
  136OSM   H13T14788   2.833  -0.107   7.401 -0.5578 -1.6327  1.7745
  136OSM   C14S14789   2.649  -0.230   7.436  0.5038  0.1285  0.7720
  136OSM   H14S14790   2.690  -0.262   7.534  2.2927 -1.8160 -0.5447
  136OSM   H14T14791   2.682  -0.313   7.370 -0.6152 -0.7826  1.3181
  136OSM   C15S14792   2.496  -0.227   7.440  0.2814 -0.1123  0.4819
  136OSM   H15S14793   2.470  -0.314   7.375  2.2302 -0.3953  0.0196
  136OSM   H15T14794   2.457  -0.137   7.387  0.2606 -0.0876  0.5391
  136OSM   C16S14795   2.445  -0.247   7.590  0.3388  0.5213 -0.7141
  136OSM   H16S14796   2.511  -0.321   7.641 -1.5050 -0.0029  1.0164
  136OSM   H16T14797   2.338  -0.276   7.592  0.0958  1.4314  0.6332
  136OSM   C17S14798   2.442  -0.121   7.675  0.3460 -0.1160  0.0378
  136OSM   H17S14799   2.394  -0.039   7.618  1.7503  2.9223  2.8643
  136OSM   H17T14800   2.543  -0.080   7.698  0.0210  1.8498 -1.8272
  136OSM   C18S14801   2.375  -0.146   7.804 -0.9501 -0.5858 -0.3446
  136OSM   H18S14802   2.266  -0.167   7.796 -0.6899 -2.6311  0.8868
  136OSM   H18T14803   2.399  -0.049   7.853  0.3825 -0.9798 -0.1633
  136OSM   H18U14804   2.432  -0.222   7.861 -0.8140 -0.8087 -0.7730
  136OSM    C1F14805   3.077   0.847   6.671  0.0111  0.6422  0.0788
  136OSM     OF14806   3.010   0.932   6.609  0.1336  0.6042  0.5066
  136OSM    C2F14807   3.117   0.875   6.811  0.4317  0.5171 -0.4302
  136OSM    H2F14808   3.226   0.856   6.815  0.3145 -0.0163  0.6223
  136OSM    H2G14809   3.063   0.789   6.856  1.6926 -1.0254 -1.7682
  136OSM    C3F14810   3.082   1.005   6.878  0.2395 -0.2587 -0.1636
  136OSM    H3F14811   2.974   1.021   6.898  0.7124  2.5687  0.5376
  136OSM    H3G14812   3.115   1.089   6.812 -0.0581  1.5188  1.8617
  136OSM    C4F14813   3.149   1.008   7.019  0.2678 -0.8630  0.1730
  136OSM    H4F14814   3.255   1.041   7.024 -0.9386  3.6859  0.4444
  136OSM    H4G14815   3.139   0.909   7.068  0.8915  0.9174  4.2868
  136OSM    C5F14816   3.072   1.100   7.113 -0.2544  0.3553 -0.1109
  136OSM    H5F14817   2.965   1.071   7.124 -0.9012  2.6523  0.1929
  136OSM    H5G14818   3.075   1.199   7.064  3.9531  0.3266 -0.2243
  136OSM    C6F14819   3.134   1.115   7.255 -0.0653  0.5772  0.3396
  136OSM    H6F14820   3.232   1.167   7.249 -0.8773  2.2521  1.0884
  136OSM    H6G14821   3.148   1.011   7.291 -2.0565  0.0513 -0.2646
  136OSM    C7F14822   3.056   1.191   7.363 -0.1711 -0.4723  0.0286
  136OSM    H7F14823   3.050   1.298   7.335 -1.0561 -0.4757  0.1871
  136OSM    H7G14824   3.106   1.198   7.462 -0.5238  0.0087  0.1762
  136OSM    C8F14825   2.910   1.143   7.372  0.3820 -0.5041 -0.1407
  136OSM    H8F14826   2.872   1.178   7.274  3.5434  1.7572 -0.7037
  136OSM    H8G14827   2.868   1.216   7.444 -2.1213 -1.7576 -0.2240
  136OSM    C9F14828   2.870   1.002   7.418 -0.2105  0.9488  0.2273
  136OSM    H9F14829   2.931   0.945   7.490 -0.5689  0.7109  0.3452
  136OSM   C10F14830   2.766   0.943   7.358 -0.1208  0.5623  0.0468
  136OSM   H10F14831   2.740   0.839   7.384  1.0570  0.7181  1.9919
  136OSM   C11F14832   2.680   1.002   7.252 -0.6081  0.3579  0.1005
  136OSM   H11F14833   2.637   0.917   7.194 -0.3527 -0.1166  0.5997
  136OSM   H11G14834   2.748   1.054   7.181 -0.9798  0.9606  0.1745
  136OSM   C12F14835   2.568   1.095   7.296 -0.2985  0.2521 -0.1205
  136OSM   H12F14836   2.618   1.188   7.328 -1.9176  1.3985 -0.7513
  136OSM   H12G14837   2.513   1.049   7.381  2.2963  2.1089  2.7425
  136OSM   C13F14838   2.474   1.131   7.176 -0.9287 -0.9219 -0.4170
  136OSM   H13F14839   2.373   1.157   7.216 -1.1555 -0.7088 -1.1169
  136OSM   H13G14840   2.464   1.041   7.112 -0.9681  0.0431 -1.8165
  136OSM   C14F14841   2.528   1.253   7.098 -0.3963  1.1387 -0.1830
  136OSM   H14F14842   2.630   1.239   7.056 -0.5062 -1.9720  0.3441
  136OSM   H14G14843   2.533   1.346   7.158 -0.9834  0.2875  1.2238
  136OSM   C15F14844   2.435   1.278   6.979 -0.2170 -0.2565 -0.3636
  136OSM   H15F14845   2.332   1.293   7.017 -0.8179 -2.1932 -1.1469
  136OSM   H15G14846   2.432   1.186   6.917  0.5566 -1.4611  1.3031
  136OSM   C16F14847   2.473   1.398   6.893  0.1378 -0.2746 -0.1339
  136OSM   H16F14848   2.576   1.376   6.857  1.3109  0.6892  2.3843
  136OSM   H16G14849   2.471   1.492   6.953  1.4211  0.6218 -1.4295
  136OSM   C17F14850   2.382   1.392   6.769  0.0460  0.4746 -0.3131
  136OSM   H17F14851   2.277   1.417   6.798 -0.2447  0.6027 -1.4184
  136OSM   H17G14852   2.393   1.286   6.739  2.3097  0.7584 -0.6522
  136OSM   C18F14853   2.436   1.488   6.659 -0.3565  0.4226  0.5220
  136OSM   H18F14854   2.368   1.486   6.571 -1.8991 -3.1606  1.6169
  136OSM   H18G14855   2.529   1.444   6.617 -1.9476 -0.4772 -2.3469
  136OSM   H18H14856   2.455   1.588   6.703  0.1308  1.2134 -1.3680
  137OSM      N14857   6.603   3.696   5.925  0.1960 -0.4123  0.2463
  137OSM    C1514858   6.478   3.713   5.841  0.2278 -0.7230  0.4602
  137OSM   H15A14859   6.396   3.674   5.899  0.5018 -0.4126  1.0656
  137OSM   H15B14860   6.483   3.651   5.753 -2.4562  0.7314 -0.8478
  137OSM   H15C14861   6.466   3.816   5.809 -0.4411 -0.2127  2.2726
  137OSM    C1414862   6.630   3.556   5.967  0.0809  0.7070 -0.4822
  137OSM   H14A14863   6.534   3.509   5.983  0.7813 -0.7171 -0.2957
  137OSM   H14B14864   6.686   3.548   6.059 -0.0061 -1.0520 -0.5534
  137OSM   H14C14865   6.675   3.497   5.888 -1.1865  1.0116 -1.4662
  137OSM    C1314866   6.722   3.743   5.847  0.5047 -0.0467  0.3228
  137OSM   H13A14867   6.720   3.844   5.809  1.5909  0.4290  1.4500
  137OSM   H13B14868   6.725   3.679   5.760 -1.7762  0.7966 -0.4607
  137OSM   H13C14869   6.816   3.731   5.899  1.5716 -1.4653 -1.8349
  137OSM    C1214870   6.578   3.787   6.048  0.5189 -0.0290  0.4304
  137OSM   H12A14871   6.568   3.888   6.012 -1.2891  0.0278  1.0128
  137OSM   H12B14872   6.670   3.780   6.105  2.1414  0.0076 -2.0302
  137OSM    C1114873   6.463   3.750   6.144  0.4513 -0.2899 -0.3447
  137OSM   H11A14874   6.372   3.732   6.083 -0.7557  0.0669  1.2545
  137OSM   H11B14875   6.432   3.832   6.214 -0.7056 -0.3103 -0.8044
  137OSM      P14876   6.580   3.626   6.351  0.3842 -0.0954  0.0868
  137OSM    O1314877   6.712   3.563   6.317  0.5040  0.1039 -0.3131
  137OSM    O1414878   6.590   3.766   6.403 -0.0744  0.5136  0.6035
  137OSM    O1114879   6.505   3.548   6.462  0.1478 -0.1936 -0.7405
  137OSM    O1214880   6.484   3.631   6.231  0.0654  0.2894 -0.0466
  137OSM    C1S14881   6.564   3.507   6.583  0.2275 -0.1897 -0.5148
  137OSM    H1S14882   6.663   3.467   6.554  0.7131  2.4799 -2.9563
  137OSM    H1T14883   6.501   3.427   6.630 -1.5021  1.4530  0.0924
  137OSM     NF14884   6.638   3.580   6.814  0.0516  0.3847  0.1463
  137OSM    HNF14885   6.587   3.559   6.897 -1.5233  1.2655 -0.5569
  137OSM    C2S14886   6.565   3.623   6.696  0.2490 -0.1239 -0.4887
  137OSM    H2S14887   6.624   3.703   6.647  0.1730 -0.7714 -1.6788
  137OSM    C3S14888   6.426   3.678   6.730 -0.2289  0.0336  0.5433
  137OSM    H3S14889   6.374   3.596   6.784  1.4104 -1.0870  0.5160
  137OSM     O314890   6.345   3.710   6.614  0.1555  0.3459 -0.1558
  137OSM    HO314891   6.407   3.699   6.542 -0.0065 -0.4507 -0.1808
  137OSM    C4S14892   6.427   3.803   6.818  0.2789 -0.3221 -0.5240
  137OSM    H4S14893   6.426   3.893   6.755 -2.8825 -0.0384 -0.2306
  137OSM    C5S14894   6.406   3.818   6.948 -0.4233  0.5854 -0.9357
  137OSM    H5S14895   6.391   3.729   7.012  0.9607  2.2459  1.9037
  137OSM    C6S14896   6.425   3.956   7.007 -0.6680  0.1268  0.2487
  137OSM    H6S14897   6.396   4.034   6.934 -2.5334 -1.6897 -1.0335
  137OSM    H6T14898   6.533   3.968   7.030  0.0156 -2.7020 -1.0089
  137OSM    C7S14899   6.341   3.996   7.129 -0.8206 -0.3567 -0.9384
  137OSM    H7S14900   6.236   3.977   7.097 -1.7209  0.1202  1.4681
  137OSM    H7T14901   6.363   4.102   7.151 -0.1012 -0.1735 -2.4216
  137OSM    C8S14902   6.371   3.922   7.262 -0.2519  0.2301 -0.8523
  137OSM    H8S14903   6.481   3.914   7.268  0.0268  2.9102 -1.3538
  137OSM    H8T14904   6.323   3.821   7.258  0.3332 -0.1284  0.5741
  137OSM    C9S14905   6.314   3.995   7.376  0.3247  0.2265 -0.3076
  137OSM    H9S14906   6.204   4.006   7.363 -0.0225 -0.4357  1.7594
  137OSM    H9T14907   6.367   4.093   7.371 -0.6735  0.7633 -0.6810
  137OSM   C10S14908   6.332   3.928   7.508  0.0572  0.2139 -0.5297
  137OSM   H10S14909   6.441   3.916   7.526  0.4399  2.2139 -1.3242
  137OSM   H10T14910   6.280   3.830   7.505 -0.7406  0.6340 -0.6509
  137OSM   C11S14911   6.286   4.004   7.634  0.6178  0.3674  0.4157
  137OSM   H11S14912   6.177   4.021   7.625  0.2112 -2.2047 -0.4126
  137OSM   H11T14913   6.341   4.101   7.632 -0.3311  0.9292  1.1277
  137OSM   C12S14914   6.327   3.945   7.771  0.3315  0.4510  0.5787
  137OSM   H12S14915   6.438   3.942   7.783  0.4454 -2.2705 -0.5982
  137OSM   H12T14916   6.289   3.842   7.787 -0.8367  0.6727 -0.5730
  137OSM   C13S14917   6.264   4.006   7.887 -0.2689 -0.1079  0.5886
  137OSM   H13S14918   6.157   3.977   7.893 -0.6129  0.8986 -0.3757
  137OSM   H13T14919   6.253   4.116   7.889 -1.3929 -0.2073  0.2801
  137OSM   C14S14920   6.333   3.965   8.021  0.7599 -0.1560  0.2144
  137OSM   H14S14921   6.428   4.021   8.028 -0.2862  1.6853  0.2607
  137OSM   H14T14922   6.369   3.861   8.008 -0.1418 -0.2493 -1.8845
  137OSM   C15S14923   6.244   3.983   8.152  0.1213 -0.3653  0.4134
  137OSM   H15S14924   6.166   3.909   8.123  0.1100  0.2388 -1.2353
  137OSM   H15T14925   6.201   4.085   8.159 -0.2905 -0.5968  1.3481
  137OSM   C16S14926   6.307   3.935   8.286  0.4845  0.5424  0.1397
  137OSM   H16S14927   6.237   3.965   8.367 -1.0100  0.1278 -0.9407
  137OSM   H16T14928   6.401   3.993   8.299 -0.2629  1.6448  0.7870
  137OSM   C17S14929   6.300   3.784   8.302  0.3047 -0.4836  0.3286
  137OSM   H17S14930   6.353   3.744   8.213  0.5010 -1.0612  0.7041
  137OSM   H17T14931   6.195   3.749   8.289  0.7809 -1.3268 -1.5084
  137OSM   C18S14932   6.370   3.735   8.433  0.7706  0.1452 -0.2642
  137OSM   H18S14933   6.337   3.798   8.519 -2.1873 -2.1203  0.4429
  137OSM   H18T14934   6.480   3.741   8.416  0.7181  0.3942 -0.5189
  137OSM   H18U14935   6.342   3.629   8.455 -0.8255  0.2886 -1.4548
  137OSM    C1F14936   6.768   3.567   6.812  0.1285 -0.3991  0.2549
  137OSM     OF14937   6.844   3.567   6.715 -0.0861  0.0394 -0.0612
  137OSM    C2F14938   6.814   3.523   6.946 -0.8330  0.6231 -0.0265
  137OSM    H2F14939   6.793   3.418   6.974  2.0099  0.5469  2.2969
  137OSM    H2G14940   6.758   3.586   7.017 -3.0683  1.3658 -2.3044
  137OSM    C3F14941   6.964   3.540   6.978  0.6450  0.1202 -0.1758
  137OSM    H3F14942   7.011   3.636   6.949 -0.6043  0.5550 -0.8313
  137OSM    H3G14943   7.014   3.462   6.917  1.1580 -0.6179  1.1337
  137OSM    C4F14944   6.981   3.511   7.127  0.1409  0.4988 -0.1817
  137OSM    H4F14945   6.920   3.419   7.137 -0.3214  0.5966 -1.8827
  137OSM    H4G14946   6.934   3.594   7.184 -0.9147 -0.5562  0.5475
  137OSM    C5F14947   7.129   3.475   7.155  0.3843  0.2336 -0.2084
  137OSM    H5F14948   7.205   3.551   7.126  2.0141 -0.6190  1.5428
  137OSM    H5G14949   7.151   3.379   7.102  0.7595  0.0692  0.2361
  137OSM    C6F14950   7.142   3.445   7.304  0.1785  0.4468  0.4525
  137OSM    H6F14951   7.053   3.389   7.340  0.5359 -0.5544 -0.1950
  137OSM    H6G14952   7.142   3.539   7.363  0.1133 -0.3025  1.6818
  137OSM    C7F14953   7.265   3.368   7.342 -0.0818 -0.2456  0.5689
  137OSM    H7F14954   7.341   3.398   7.267 -0.3765 -1.6416 -0.3370
  137OSM    H7G14955   7.259   3.258   7.324  0.9894 -0.6663  2.5173
  137OSM    C8F14956   7.300   3.380   7.487  0.4065  0.5362 -0.0043
  137OSM    H8F14957   7.293   3.489   7.508 -0.0317  0.8236 -1.5182
  137OSM    H8G14958   7.405   3.347   7.501 -0.0324 -1.4623 -1.0787
  137OSM    C9F14959   7.207   3.316   7.593  0.2933 -0.4044  0.1064
  137OSM    H9F14960   7.211   3.207   7.604  2.6522 -0.2470  1.3456
  137OSM   C10F14961   7.121   3.374   7.670  0.3643  0.0374 -0.6846
  137OSM   H10F14962   7.060   3.303   7.728 -1.6210  0.4710 -2.1132
  137OSM   C11F14963   7.098   3.516   7.688 -0.2235 -1.0491 -0.4413
  137OSM   H11F14964   6.991   3.536   7.668 -0.8488 -2.3667  1.2555
  137OSM   H11G14965   7.154   3.578   7.615 -1.9720  1.3425  0.1326
  137OSM   C12F14966   7.137   3.553   7.838 -0.1639 -0.0860  0.4433
  137OSM   H12F14967   7.243   3.526   7.859  0.3105  2.4822  1.7883
  137OSM   H12G14968   7.070   3.491   7.900 -2.1754  0.5288 -0.9900
  137OSM   C13F14969   7.120   3.708   7.863  0.2219  0.2730  0.1504
  137OSM   H13F14970   7.018   3.731   7.827 -1.1607 -1.0592  2.8708
  137OSM   H13G14971   7.192   3.753   7.792 -0.0715  0.1453 -0.2297
  137OSM   C14F14972   7.141   3.744   8.012  0.1318 -0.4673  0.3422
  137OSM   H14F14973   7.241   3.705   8.041  0.4048  1.2297  1.9159
  137OSM   H14G14974   7.060   3.681   8.054 -0.4116 -0.8561 -1.2073
  137OSM   C15F14975   7.122   3.895   8.040 -0.4643  0.7550 -0.5384
  137OSM   H15F14976   7.030   3.935   7.994 -0.4527 -0.0103 -1.2578
  137OSM   H15G14977   7.208   3.932   7.980 -0.5797 -0.9076 -1.8296
  137OSM   C16F14978   7.132   3.948   8.183 -0.7214  0.0829 -0.3539
  137OSM   H16F14979   7.041   3.916   8.239 -0.0729  1.8767  1.8582
  137OSM   H16G14980   7.123   4.058   8.170 -1.3002  0.0710 -0.0829
  137OSM   C17F14981   7.247   3.903   8.270  0.3921 -0.1850 -0.2018
  137OSM   H17F14982   7.234   3.793   8.280 -0.1173 -0.3364 -2.0742
  137OSM   H17G14983   7.239   3.952   8.369 -1.0469 -2.0025  0.6447
  137OSM   C18F14984   7.387   3.913   8.216 -0.0500  0.5142  0.1031
  137OSM   H18F14985   7.431   4.014   8.237  1.2868 -0.3445  1.7008
  137OSM   H18G14986   7.396   3.900   8.106  1.1424 -0.6948  0.3177
  137OSM   H18H14987   7.464   3.847   8.262  0.3259 -0.4588 -1.8525
  138OSM      N14988   0.130   1.026   6.124 -0.4160 -0.4581 -0.2512
  138OSM    C1514989   0.020   1.076   6.035 -0.1851  0.0830  0.1780
  138OSM   H15A14990   0.054   1.079   5.933 -0.2219 -0.5362  0.1394
  138OSM   H15B14991  -0.007   1.176   6.065  0.6908  0.8616 -1.4751
  138OSM   H15C14992  -0.060   1.004   6.035  0.2892 -0.4657 -0.7484
  138OSM    C1414993   0.246   1.119   6.113 -0.3791 -0.3261  0.1381
  138OSM   H14A14994   0.331   1.080   6.167  0.0568 -1.6622 -1.4408
  138OSM   H14B14995   0.226   1.219   6.148 -2.9747 -0.0363 -1.8688
  138OSM   H14C14996   0.286   1.127   6.014 -1.8734  0.4035 -0.4418
  138OSM    C1314997   0.088   1.034   6.267  0.0750  0.7635 -0.2694
  138OSM   H13A14998  -0.005   0.982   6.282  0.0914  0.7884 -0.0905
  138OSM   H13B14999   0.061   1.133   6.299 -1.2005  0.0768  0.8520
  138OSM   H13C15000   0.161   0.998   6.338  2.1018  3.1625 -1.0073
  138OSM    C1215001   0.167   0.881   6.087  0.0375  0.2890  0.3327
  138OSM   H12A15002   0.209   0.886   5.987 -2.1103  0.6525 -0.6086
  138OSM   H12B15003   0.080   0.818   6.070 -2.0434  3.2904 -1.0040
  138OSM    C1115004   0.264   0.808   6.186  0.0822 -1.0098  0.2165
  138OSM   H11A15005   0.221   0.811   6.289  0.4944 -0.4628  0.3823
  138OSM   H11B15006   0.353   0.876   6.189 -2.0565  2.0967 -1.1868
  138OSM      P15007   0.199   0.558   6.127  0.2318  0.3893 -0.1559
  138OSM    O1315008   0.069   0.614   6.083  0.2523 -0.5308 -0.0144
  138OSM    O1415009   0.253   0.448   6.043  0.2736 -0.0669  0.1946
  138OSM    O1115010   0.199   0.507   6.274 -0.0608 -0.2948  0.0190
  138OSM    O1215011   0.304   0.679   6.138  0.5144  0.0464  0.3458
  138OSM    C1S15012   0.324   0.509   6.352  0.7059 -0.2071 -0.4605
  138OSM    H1S15013   0.374   0.609   6.346  0.1107  0.0436 -1.3606
  138OSM    H1T15014   0.393   0.433   6.309  3.6263  2.8026 -1.5536
  138OSM     NF15015   0.393   0.543   6.588 -0.2911 -0.9935  0.2030
  138OSM    HNF15016   0.450   0.482   6.641  2.9423  0.7107 -1.0545
  138OSM    C2S15017   0.287   0.489   6.506 -0.2893 -0.8243  0.7762
  138OSM    H2S15018   0.196   0.554   6.503  0.7696  0.7636  1.8225
  138OSM    C3S15019   0.252   0.344   6.533  0.5463 -0.4534 -0.1513
  138OSM    H3S15020   0.342   0.281   6.524 -0.3929 -1.7403 -0.9531
  138OSM     O315021   0.154   0.281   6.444 -0.4964 -0.2761 -0.0193
  138OSM    HO315022   0.123   0.353   6.388 -0.9797 -0.0004  0.5939
  138OSM    C4S15023   0.198   0.326   6.671  0.1320  0.0251 -0.2188
  138OSM    H4S15024   0.093   0.359   6.676  0.0407 -0.2168 -0.5535
  138OSM    C5S15025   0.244   0.254   6.775 -0.0631  0.0952 -0.1992
  138OSM    H5S15026   0.340   0.201   6.775 -2.2206 -4.1825 -0.1768
  138OSM    C6S15027   0.168   0.255   6.904 -0.9072 -0.4446 -0.2380
  138OSM    H6S15028   0.113   0.159   6.912 -0.0492 -1.0013 -0.8281
  138OSM    H6T15029   0.093   0.336   6.916  0.3924  0.8597 -0.5560
  138OSM    C7S15030   0.264   0.270   7.024 -0.5242 -0.3746 -0.2716
  138OSM    H7S15031   0.323   0.363   7.018 -0.7228 -0.1658  0.7622
  138OSM    H7T15032   0.334   0.184   7.024 -0.3663 -0.2472 -1.0022
  138OSM    C8S15033   0.191   0.275   7.161 -0.0347  0.2226 -0.5031
  138OSM    H8S15034   0.128   0.184   7.168  0.4947 -0.2456 -1.5398
  138OSM    H8T15035   0.125   0.363   7.168  1.4012  1.2875  0.1345
  138OSM    C9S15036   0.282   0.267   7.288 -0.1455 -0.4400  0.0937
  138OSM    H9S15037   0.333   0.365   7.279 -0.0539 -0.5751 -1.0552
  138OSM    H9T15038   0.368   0.197   7.274  0.8632  0.3966  1.8425
  138OSM   C10S15039   0.203   0.238   7.419  0.0991 -0.1928  0.0621
  138OSM   H10S15040   0.167   0.134   7.410 -2.4101  0.5588  0.7319
  138OSM   H10T15041   0.120   0.311   7.426 -0.7358 -1.2489  1.6194
  138OSM   C11S15042   0.299   0.254   7.540 -0.3797 -0.5120  0.1885
  138OSM   H11S15043   0.355   0.347   7.519 -1.3965  0.2407  0.7688
  138OSM   H11T15044   0.376   0.174   7.553 -0.4081 -0.6640 -0.4870
  138OSM   C12S15045   0.225   0.258   7.672 -0.2528 -0.1163  0.0922
  138OSM   H12S15046   0.152   0.175   7.663  1.0254 -1.3903  0.9357
  138OSM   H12T15047   0.164   0.351   7.674 -1.1487 -0.6964  0.4531
  138OSM   C13S15048   0.320   0.256   7.797 -0.1731 -0.2780 -0.7958
  138OSM   H13S15049   0.419   0.249   7.747  1.4807 -2.8656  2.4585
  138OSM   H13T15050   0.307   0.167   7.862  0.5805 -0.0811 -0.3560
  138OSM   C14S15051   0.307   0.379   7.887  0.1480  0.0248  0.5560
  138OSM   H14S15052   0.199   0.375   7.914 -0.2452 -2.4501 -1.0367
  138OSM   H14T15053   0.329   0.474   7.833  0.5397  0.7553  1.9624
  138OSM   C15S15054   0.408   0.380   8.003 -0.5879 -0.1024 -0.3661
  138OSM   H15S15055   0.423   0.486   8.034 -0.5220 -0.8089  2.2446
  138OSM   H15T15056   0.510   0.341   7.981  1.4763  4.1257  0.7030
  138OSM   C16S15057   0.350   0.311   8.130  0.1594 -0.0929 -0.3314
  138OSM   H16S15058   0.338   0.209   8.089  1.1462 -0.0848 -0.6533
  138OSM   H16T15059   0.249   0.350   8.155  0.6231 -0.2624  2.0683
  138OSM   C17S15060   0.448   0.312   8.250  0.2293  0.0305  0.1712
  138OSM   H17S15061   0.472   0.416   8.279  1.9520 -0.8616  2.2464
  138OSM   H17T15062   0.547   0.274   8.218 -0.1990  0.0413 -1.2382
  138OSM   C18S15063   0.387   0.238   8.370  0.5241 -0.5525  0.6602
  138OSM   H18S15064   0.378   0.131   8.343  0.6265 -1.0028  2.3106
  138OSM   H18T15065   0.291   0.284   8.402  0.7190  0.2566  0.1170
  138OSM   H18U15066   0.464   0.228   8.449  1.2594  1.4360  0.2666
  138OSM    C1F15067   0.415   0.670   6.599 -0.7783 -0.6176  0.0397
  138OSM     OF15068   0.339   0.759   6.561 -0.0148 -0.2903  0.2363
  138OSM    C2F15069   0.532   0.709   6.674 -0.0908  0.2035  0.3687
  138OSM    H2F15070   0.604   0.771   6.616  0.1671 -1.9271 -1.7303
  138OSM    H2G15071   0.587   0.619   6.708 -0.9760 -0.8358 -0.8345
  138OSM    C3F15072   0.493   0.800   6.797 -0.1288  0.0511 -0.1529
  138OSM    H3F15073   0.417   0.760   6.868  1.0857 -0.0973  1.0927
  138OSM    H3G15074   0.451   0.897   6.765 -2.6575 -0.1983  2.0549
  138OSM    C4F15075   0.617   0.836   6.879  0.7844 -0.6674  0.2335
  138OSM    H4F15076   0.679   0.898   6.811  1.9092 -0.5620  1.3240
  138OSM    H4G15077   0.684   0.751   6.906  0.0639 -1.4945 -0.5439
  138OSM    C5F15078   0.573   0.918   7.006  0.1605 -0.1401  0.1775
  138OSM    H5F15079   0.469   0.886   7.024 -0.0412  1.1790  1.4462
  138OSM    H5G15080   0.563   1.028   6.991 -0.7792 -0.3191 -0.6093
  138OSM    C6F15081   0.650   0.888   7.133 -0.2736  0.0862 -0.3131
  138OSM    H6F15082   0.753   0.928   7.122  0.8009 -2.1376  1.0571
  138OSM    H6G15083   0.674   0.781   7.145  2.4495  0.7593  0.7550
  138OSM    C7F15084   0.589   0.945   7.256  0.4794  0.0186 -0.4129
  138OSM    H7F15085   0.509   0.883   7.302  0.8406 -0.1657 -0.0151
  138OSM    H7G15086   0.540   1.043   7.237  1.2261  0.2350 -1.2844
  138OSM    C8F15087   0.698   0.953   7.370  0.1593  0.1378  0.0757
  138OSM    H8F15088   0.776   0.874   7.360  0.6484  0.3885  1.6582
  138OSM    H8G15089   0.642   0.936   7.464 -1.8936  0.4526 -1.0302
  138OSM    C9F15090   0.763   1.087   7.380 -0.2304 -0.9295  0.2216
  138OSM    H9F15091   0.789   1.132   7.283  1.4085  0.8928  1.4265
  138OSM   C10F15092   0.813   1.135   7.498  0.0287  0.3732 -0.0169
  138OSM   H10F15093   0.866   1.231   7.489 -2.8405  1.8805 -2.8935
  138OSM   C11F15094   0.798   1.069   7.629 -0.7118 -0.0268  0.5372
  138OSM   H11F15095   0.870   0.986   7.642 -0.3106  0.5188  2.0262
  138OSM   H11G15096   0.700   1.018   7.637 -0.7137 -0.0558  0.3296
  138OSM   C12F15097   0.823   1.166   7.739 -0.5230  0.6581  0.4619
  138OSM   H12F15098   0.774   1.266   7.728  0.1525  1.1068  1.3945
  138OSM   H12G15099   0.930   1.195   7.730 -0.6504  1.2179  0.7157
  138OSM   C13F15100   0.781   1.117   7.879 -0.0150  0.4351  0.3360
  138OSM   H13F15101   0.810   1.010   7.880  0.7416  0.5919 -1.4302
  138OSM   H13G15102   0.670   1.119   7.875 -0.0794  1.6619  1.7348
  138OSM   C14F15103   0.847   1.195   7.992  0.4031 -0.7424 -0.4965
  138OSM   H14F15104   0.771   1.274   8.010  1.0246  0.0013 -1.0384
  138OSM   H14G15105   0.941   1.240   7.952  1.0148 -0.9876  0.6489
  138OSM   C15F15106   0.867   1.108   8.116 -0.7005 -0.3822 -0.6228
  138OSM   H15F15107   0.925   1.017   8.088  1.0615  1.1481 -2.1656
  138OSM   H15G15108   0.764   1.077   8.143 -1.3069 -0.0089 -2.4065
  138OSM   C16F15109   0.945   1.182   8.224 -0.6622  0.2602  0.0672
  138OSM   H16F15110   0.958   1.291   8.207 -1.6553  0.1478 -1.5472
  138OSM   H16G15111   1.050   1.146   8.218 -0.7187 -0.6357  2.8389
  138OSM   C17F15112   0.912   1.156   8.365  0.1547 -0.3047 -0.9684
  138OSM   H17F15113   0.813   1.200   8.389  0.6775 -0.9843  3.1246
  138OSM   H17G15114   0.978   1.221   8.426  1.4848 -2.1006 -0.4168
  138OSM   C18F15115   0.921   1.017   8.422 -0.1113  0.2206  0.4895
  138OSM   H18F15116   0.917   1.007   8.533 -0.4138 -1.7861  0.3406
  138OSM   H18G15117   1.015   0.969   8.388 -0.8571 -0.4278 -0.7413
  138OSM   H18H15118   0.835   0.962   8.379 -0.0936  1.0256 -0.6030
  139OSM      N15119   6.447   1.770   6.201 -0.2063  0.1192 -0.1306
  139OSM    C1515120   6.368   1.897   6.233 -0.4170  0.3479  0.5096
  139OSM   H15A15121   6.422   1.957   6.304  1.3916 -0.8129  0.1995
  139OSM   H15B15122   6.267   1.877   6.265  0.0225 -2.4068  0.4385
  139OSM   H15C15123   6.363   1.955   6.142  0.9213  0.2942  0.3750
  139OSM    C1415124   6.445   1.675   6.311  0.5622  0.0300 -0.1165
  139OSM   H14A15125   6.342   1.660   6.339  0.2749  1.0014 -0.5861
  139OSM   H14B15126   6.484   1.719   6.402 -1.9634  2.2464  0.0278
  139OSM   H14C15127   6.491   1.584   6.275 -0.0254  0.1848 -1.2981
  139OSM    C1315128   6.368   1.704   6.095  0.5721 -0.2581  0.4767
  139OSM   H13A15129   6.406   1.610   6.058 -0.6702 -0.0547 -1.4738
  139OSM   H13B15130   6.367   1.761   6.003  0.4840 -1.0656 -0.0332
  139OSM   H13C15131   6.266   1.695   6.128  0.1833 -0.4447 -0.7306
  139OSM    C1215132   6.587   1.800   6.147 -0.2108  0.1499 -0.2299
  139OSM   H12A15133   6.638   1.861   6.221 -0.5252 -0.4478  0.4979
  139OSM   H12B15134   6.584   1.866   6.061  0.5797  2.0631  1.1260
  139OSM    C1115135   6.681   1.677   6.111 -0.4698  0.3859 -0.6531
  139OSM   H11A15136   6.766   1.708   6.046  0.6339 -1.7378 -0.2954
  139OSM   H11B15137   6.613   1.605   6.061 -1.9716  0.0314  1.7564
  139OSM      P15138   6.813   1.479   6.218 -0.2405  0.0821  0.2265
  139OSM    O1315139   6.730   1.366   6.168  0.2978 -0.5173 -0.0540
  139OSM    O1415140   6.929   1.516   6.137 -0.1143 -0.0813  0.5390
  139OSM    O1115141   6.852   1.447   6.364  0.0148 -0.0809  0.2481
  139OSM    O1215142   6.734   1.616   6.234 -0.1402  0.1979  0.5772
  139OSM    C1S15143   6.935   1.521   6.442 -0.0148 -0.2661  0.2090
  139OSM    H1S15144   6.898   1.626   6.439  0.0768 -0.2463 -0.4582
  139OSM    H1T15145   7.039   1.518   6.402 -0.8829  0.0830 -2.2635
  139OSM     NF15146   7.020   1.562   6.668  0.7556 -0.0282 -0.0666
  139OSM    HNF15147   7.114   1.539   6.693  0.5593  1.6843  2.6959
  139OSM    C2S15148   6.940   1.471   6.590 -0.2167 -0.4592 -0.2762
  139OSM    H2S15149   6.838   1.474   6.633  0.1785  2.0070  0.6895
  139OSM    C3S15150   6.997   1.322   6.589 -0.0513  0.5007 -0.3755
  139OSM    H3S15151   7.099   1.333   6.547  0.8567  0.8930  1.8068
  139OSM     O315152   6.938   1.224   6.505  0.2761 -0.6413  0.3851
  139OSM    HO315153   6.875   1.269   6.450  0.8996 -1.2051 -0.8251
  139OSM    C4S15154   7.009   1.267   6.733  0.0173 -0.5222  0.3798
  139OSM    H4S15155   7.104   1.300   6.776  0.9467 -1.1260 -1.1411
  139OSM    C5S15156   6.920   1.194   6.803  0.1108 -0.0353 -0.0720
  139OSM    H5S15157   6.827   1.164   6.752  1.1820 -0.2057 -2.0340
  139OSM    C6S15158   6.929   1.139   6.943 -0.2623 -0.3590 -0.7758
  139OSM    H6S15159   6.925   1.030   6.924  1.2786 -0.3616 -1.1704
  139OSM    H6T15160   6.839   1.173   6.999 -1.1455 -1.0239 -1.7448
  139OSM    C7S15161   7.055   1.185   7.015 -0.0307 -0.0633  0.0041
  139OSM    H7S15162   7.041   1.294   7.031 -0.7535 -0.5515  3.6458
  139OSM    H7T15163   7.144   1.155   6.955  0.6181 -0.3449  1.0729
  139OSM    C8S15164   7.060   1.127   7.157 -0.0714  0.0528 -0.6158
  139OSM    H8S15165   7.122   1.035   7.163  0.4652  0.4288 -0.3273
  139OSM    H8T15166   6.962   1.100   7.202 -0.0438  0.1231 -0.5143
  139OSM    C9S15167   7.120   1.235   7.252 -0.2685  0.4077  0.1159
  139OSM    H9S15168   7.060   1.328   7.245 -0.1275  0.6724  2.0038
  139OSM    H9T15169   7.229   1.247   7.239  0.4792 -0.7430  4.1108
  139OSM   C10S15170   7.112   1.192   7.396  0.0120  0.0502 -0.5371
  139OSM   H10S15171   7.155   1.092   7.416  0.0899  0.1718 -0.0956
  139OSM   H10T15172   7.005   1.191   7.426  0.2287  0.6685  0.2786
  139OSM   C11S15173   7.193   1.282   7.496  0.2973  0.8245  0.0348
  139OSM   H11S15174   7.184   1.388   7.464  0.4641  0.3117 -1.8476
  139OSM   H11T15175   7.298   1.248   7.487  0.3481  0.9860  0.0126
  139OSM   C12S15176   7.155   1.259   7.646  0.0674  0.7873 -0.1219
  139OSM   H12S15177   7.195   1.167   7.693 -2.0213 -0.6929 -1.0792
  139OSM   H12T15178   7.045   1.264   7.659  0.3058  3.7858  1.6447
  139OSM   C13S15179   7.228   1.375   7.716  0.1785  0.3089  0.5931
  139OSM   H13S15180   7.188   1.475   7.686  0.0398 -0.0763 -0.5833
  139OSM   H13T15181   7.337   1.361   7.698  0.0954  0.5498 -0.1383
  139OSM   C14S15182   7.200   1.357   7.866  0.0278  0.4054 -0.0228
  139OSM   H14S15183   7.235   1.259   7.904  0.1396  1.0376  1.6215
  139OSM   H14T15184   7.090   1.355   7.887 -0.0879 -2.2048 -0.5220
  139OSM   C15S15185   7.271   1.456   7.962 -0.6145  0.0290  0.1079
  139OSM   H15S15186   7.233   1.554   7.923 -0.5779  0.0046  0.0118
  139OSM   H15T15187   7.381   1.444   7.956 -0.7691 -1.5957  0.2925
  139OSM   C16S15188   7.224   1.431   8.106 -0.0554 -0.2512 -0.1850
  139OSM   H16S15189   7.263   1.332   8.138 -1.7766 -0.5528  1.1082
  139OSM   H16T15190   7.115   1.417   8.096 -0.1059  0.0345 -0.0366
  139OSM   C17S15191   7.257   1.540   8.206  0.1881 -0.5510 -0.4898
  139OSM   H17S15192   7.200   1.526   8.301  0.1320  1.7051 -0.1237
  139OSM   H17T15193   7.223   1.640   8.169  1.0738 -0.8029 -2.0534
  139OSM   C18S15194   7.412   1.547   8.244 -0.4754  0.6849 -0.2213
  139OSM   H18S15195   7.427   1.651   8.281  1.1092  0.9607 -1.5180
  139OSM   H18T15196   7.484   1.534   8.160  1.2922  1.2025  1.1373
  139OSM   H18U15197   7.432   1.469   8.320 -1.4743  1.5580  0.9821
  139OSM    C1F15198   6.983   1.689   6.695 -0.6760  0.5638 -0.1843
  139OSM     OF15199   6.863   1.718   6.685 -0.0259 -0.3747 -0.2266
  139OSM    C2F15200   7.094   1.788   6.723  0.4744  0.0297  0.5426
  139OSM    H2F15201   7.133   1.819   6.623  1.6961 -1.5758  0.4795
  139OSM    H2G15202   7.178   1.736   6.773  1.3109  0.1703 -0.6542
  139OSM    C3F15203   7.038   1.920   6.791  0.3177 -0.3054  0.4723
  139OSM    H3F15204   6.954   1.959   6.729  0.1351 -0.6458  0.5049
  139OSM    H3G15205   7.120   1.995   6.783  1.3541 -1.5527 -1.8135
  139OSM    C4F15206   6.998   1.900   6.932  0.0282  0.2758 -0.3571
  139OSM    H4F15207   7.083   1.845   6.978 -3.2056 -2.9458  2.3503
  139OSM    H4G15208   6.908   1.835   6.938 -1.1830  2.0116  2.1686
  139OSM    C5F15209   6.951   2.032   6.995 -0.1409  0.3271  0.1800
  139OSM    H5F15210   6.881   2.070   6.918  0.8231 -0.4936 -1.1347
  139OSM    H5G15211   7.041   2.094   7.010 -0.3701  0.5276  0.7394
  139OSM    C6F15212   6.880   2.020   7.126 -0.4108  0.1272 -0.8963
  139OSM    H6F15213   6.783   1.969   7.110  0.1850 -0.9497 -1.1536
  139OSM    H6G15214   6.858   2.114   7.182 -0.8819 -0.0924 -0.7076
  139OSM    C7F15215   6.947   1.922   7.228  0.0496  0.7598  0.3944
  139OSM    H7F15216   7.037   1.977   7.265 -0.5441  1.9049  0.1688
  139OSM    H7G15217   6.985   1.826   7.186  1.8425  1.5897  0.0063
  139OSM    C8F15218   6.861   1.887   7.345  0.3859  0.4720  0.0721
  139OSM    H8F15219   6.777   1.828   7.302  0.1473  0.1731  0.9386
  139OSM    H8G15220   6.824   1.980   7.395 -0.3324  1.7634 -2.6672
  139OSM    C9F15221   6.938   1.797   7.436 -0.3308  0.0686 -0.5616
  139OSM    H9F15222   6.996   1.722   7.380  3.1372  0.2295  2.4314
  139OSM   C10F15223   6.935   1.801   7.574  0.9188 -0.0574 -0.4363
  139OSM   H10F15224   7.003   1.734   7.628 -1.2156 -0.1334  2.4095
  139OSM   C11F15225   6.851   1.907   7.655 -0.3389  0.9228 -0.5604
  139OSM   H11F15226   6.760   1.859   7.697  1.3048 -0.4431  1.6831
  139OSM   H11G15227   6.823   2.001   7.604 -0.9535  0.2500 -1.5000
  139OSM   C12F15228   6.941   1.945   7.776  0.2071 -0.0322 -0.6179
  139OSM   H12F15229   7.007   2.023   7.735 -0.4411  1.0630  0.3529
  139OSM   H12G15230   7.001   1.861   7.818  0.6089 -0.6387 -2.3354
  139OSM   C13F15231   6.854   1.987   7.901  0.2286 -0.1755 -0.3737
  139OSM   H13F15232   6.798   1.894   7.924 -1.6810  0.9383 -0.3157
  139OSM   H13G15233   6.779   2.058   7.862 -2.1957 -3.6082 -2.6040
  139OSM   C14F15234   6.933   2.027   8.027 -0.0635 -0.6114 -0.1238
  139OSM   H14F15235   7.010   2.103   8.004 -1.6753  1.2766  0.4201
  139OSM   H14G15236   6.979   1.932   8.061 -0.2815 -0.4166  0.7371
  139OSM   C15F15237   6.854   2.084   8.151 -0.2959 -0.3625 -0.4437
  139OSM   H15F15238   6.791   1.998   8.185  0.9330 -0.6127  1.3329
  139OSM   H15G15239   6.785   2.163   8.114  1.7700  1.8964  0.2995
  139OSM   C16F15240   6.927   2.155   8.259  0.4792  0.1819  0.0051
  139OSM   H16F15241   7.004   2.208   8.200 -1.3411  1.4807 -1.3383
  139OSM   H16G15242   6.978   2.080   8.323 -2.2046 -3.0227 -1.3365
  139OSM   C17F15243   6.846   2.250   8.355  0.2964  0.5137 -0.4179
  139OSM   H17F15244   6.750   2.207   8.389  1.1500 -0.3904  0.9391
  139OSM   H17G15245   6.807   2.338   8.299  0.6454  0.9537  0.0166
  139OSM   C18F15246   6.922   2.291   8.476  0.3416  0.0072 -0.5529
  139OSM   H18F15247   7.026   2.326   8.456  1.0029 -0.0229  2.3220
  139OSM   H18G15248   6.932   2.199   8.538  0.4342  0.7285  0.5299
  139OSM   H18H15249   6.864   2.366   8.534  0.0488 -1.5057  1.1845
  140OSM      N15250   6.012   1.994   6.026  0.0710 -0.0304 -0.2323
  140OSM    C1515251   5.890   2.004   5.954 -0.2608 -0.1676 -0.3596
  140OSM   H15A15252   5.898   2.012   5.847  1.9490  0.1978 -0.2108
  140OSM   H15B15253   5.827   2.084   5.991  0.7508  0.3712  0.2524
  140OSM   H15C15254   5.829   1.917   5.976 -0.2716  0.1619  1.0698
  140OSM    C1415255   5.990   1.968   6.170  0.3775  0.6587  0.5089
  140OSM   H14A15256   6.074   2.006   6.226 -0.4636  1.9684  0.9180
  140OSM   H14B15257   5.972   1.864   6.195 -1.0425  0.3737 -1.4662
  140OSM   H14C15258   5.901   2.020   6.201 -0.2903  0.8863 -1.6313
  140OSM    C1315259   6.088   1.879   5.965 -0.1756 -0.2039  0.4591
  140OSM   H13A15260   6.054   1.786   6.007  2.6120 -0.7503  1.7640
  140OSM   H13B15261   6.196   1.884   5.974 -0.1152 -0.7171  0.0794
  140OSM   H13C15262   6.080   1.872   5.857  0.3891 -1.6258  0.4850
  140OSM    C1215263   6.094   2.126   6.018  0.4517 -0.6890 -0.3553
  140OSM   H12A15264   6.146   2.141   5.925  2.5604  0.8503  0.9770
  140OSM   H12B15265   6.180   2.115   6.082  1.9714 -0.2207 -2.2479
  140OSM    C1115266   6.024   2.263   6.055  0.2907  0.0204  0.0359
  140OSM   H11A15267   5.922   2.278   6.014 -0.4211  0.7099  1.9374
  140OSM   H11B15268   6.096   2.336   6.013  0.5975  0.3989  1.1837
  140OSM      P15269   6.172   2.342   6.261 -0.0096 -0.0090 -0.6923
  140OSM    O1315270   6.274   2.247   6.210 -0.0939 -0.1093  0.1394
  140OSM    O1415271   6.194   2.486   6.247 -0.0143 -0.5160  0.2344
  140OSM    O1115272   6.157   2.313   6.413 -0.3538  0.4633 -0.8062
  140OSM    O1215273   6.031   2.299   6.193 -0.0894 -0.4918 -0.5575
  140OSM    C1S15274   6.277   2.317   6.493 -0.0552 -0.8270 -0.4263
  140OSM    H1S15275   6.317   2.417   6.518 -1.9370 -0.4891  1.5580
  140OSM    H1T15276   6.358   2.257   6.447 -0.4033  0.6158 -3.1343
  140OSM     NF15277   6.368   2.274   6.725  0.7711  0.8108  0.2628
  140OSM    HNF15278   6.437   2.203   6.736  0.4098  0.0348 -1.9929
  140OSM    C2S15279   6.251   2.249   6.637  0.2222 -0.7781  0.3113
  140OSM    H2S15280   6.167   2.304   6.682  2.3590  0.3736  3.2192
  140OSM    C3S15281   6.220   2.102   6.613 -0.1091 -0.2841 -0.1122
  140OSM    H3S15282   6.310   2.044   6.584 -0.1439 -1.5318  2.0790
  140OSM     O315283   6.124   2.067   6.516  0.3838  0.2726  0.6026
  140OSM    HO315284   6.123   2.147   6.464  0.0085 -0.6477 -0.8516
  140OSM    C4S15285   6.167   2.055   6.733 -0.1100  0.1309  0.2576
  140OSM    H4S15286   6.073   2.102   6.766  0.1195 -0.2255  1.4636
  140OSM    C5S15287   6.237   1.979   6.823  0.9434  0.2401 -0.3916
  140OSM    H5S15288   6.340   1.944   6.808  0.6307 -0.8337 -0.0967
  140OSM    C6S15289   6.186   1.932   6.958 -0.1648  0.2139 -0.5145
  140OSM    H6S15290   6.185   1.821   6.968 -1.1085  0.3469  1.3597
  140OSM    H6T15291   6.082   1.968   6.976 -0.9750 -1.7236 -1.0888
  140OSM    C7S15292   6.283   1.968   7.069  0.1024 -0.1717  0.6951
  140OSM    H7S15293   6.306   2.076   7.054 -0.8188 -0.1484 -0.7598
  140OSM    H7T15294   6.369   1.898   7.057  0.2248  0.4416 -3.1511
  140OSM    C8S15295   6.225   1.960   7.212 -0.2528  0.1112  0.4747
  140OSM    H8S15296   6.201   1.854   7.237  0.7172 -0.3067 -0.2551
  140OSM    H8T15297   6.131   2.016   7.230 -0.8496 -0.9880  0.9339
  140OSM    C9S15298   6.337   2.006   7.312 -0.6104  0.6408  0.5844
  140OSM    H9S15299   6.364   2.108   7.277  3.8166 -1.6098 -3.7612
  140OSM    H9T15300   6.431   1.950   7.291  0.2218  1.7503  1.2700
  140OSM   C10S15301   6.300   1.993   7.460 -0.4194  0.0684 -0.6301
  140OSM   H10S15302   6.232   1.906   7.475 -0.9182  0.4167 -0.8374
  140OSM   H10T15303   6.234   2.079   7.484 -1.3044 -0.4159 -1.2325
  140OSM   C11S15304   6.423   1.989   7.551 -0.2576  0.2372 -0.3377
  140OSM   H11S15305   6.498   2.067   7.527  0.9623 -1.2486 -1.5742
  140OSM   H11T15306   6.486   1.901   7.523  0.1617  0.8523 -1.3905
  140OSM   C12S15307   6.387   1.988   7.700 -0.9648  0.0182  0.2407
  140OSM   H12S15308   6.313   1.906   7.714 -0.8414 -0.2068 -0.4014
  140OSM   H12T15309   6.343   2.087   7.725 -0.2306  0.2324  0.7149
  140OSM   C13S15310   6.505   1.970   7.798 -0.1753  0.2906 -0.7290
  140OSM   H13S15311   6.566   2.063   7.793 -1.0242  0.8979 -0.0644
  140OSM   H13T15312   6.554   1.884   7.749 -1.5561  0.1880 -2.0075
  140OSM   C14S15313   6.471   1.922   7.935  0.9960 -0.0490  0.0913
  140OSM   H14S15314   6.559   1.871   7.981 -0.3915 -1.6163  1.1632
  140OSM   H14T15315   6.396   1.840   7.929  1.6346 -0.6700  0.3819
  140OSM   C15S15316   6.434   2.032   8.042  0.1394  0.0355 -0.0844
  140OSM   H15S15317   6.333   2.074   8.021  0.1225  0.5926  1.0276
  140OSM   H15T15318   6.505   2.117   8.039  0.8384 -0.5245  0.1592
  140OSM   C16S15319   6.429   1.965   8.183  0.4963  0.4208 -0.1243
  140OSM   H16S15320   6.506   1.887   8.201 -0.8368 -1.1767 -1.1044
  140OSM   H16T15321   6.332   1.911   8.188  0.8426 -0.1106  1.6172
  140OSM   C17S15322   6.434   2.072   8.296 -0.4214  1.0779 -0.0579
  140OSM   H17S15323   6.537   2.116   8.293  0.6117 -1.0581  1.4085
  140OSM   H17T15324   6.412   2.026   8.395  1.3862 -0.9216 -0.5076
  140OSM   C18S15325   6.324   2.171   8.278 -0.5069  0.1982  0.3860
  140OSM   H18S15326   6.225   2.123   8.263  0.0488 -0.7489 -0.3661
  140OSM   H18T15327   6.336   2.231   8.185 -0.4600 -0.4824 -0.0512
  140OSM   H18U15328   6.308   2.233   8.369 -1.4577  0.0444  0.3249
  140OSM    C1F15329   6.397   2.399   6.766  0.8181 -0.4797  0.3115
  140OSM     OF15330   6.328   2.498   6.725  0.4140  0.2661  0.1660
  140OSM    C2F15331   6.516   2.426   6.861  0.0321  0.8070  0.2110
  140OSM    H2F15332   6.592   2.493   6.815 -2.2757  1.2390 -3.4495
  140OSM    H2G15333   6.567   2.328   6.874  1.6369  1.5581 -0.2690
  140OSM    C3F15334   6.467   2.480   6.998  0.0337 -0.0748  0.0073
  140OSM    H3F15335   6.389   2.417   7.047  0.2650  0.4549  1.0866
  140OSM    H3G15336   6.425   2.583   6.990  1.3867  0.5901  1.0719
  140OSM    C4F15337   6.581   2.486   7.099 -0.1473  0.3305 -0.1606
  140OSM    H4F15338   6.658   2.536   7.036 -2.1504  2.3935 -1.1315
  140OSM    H4G15339   6.612   2.389   7.142  1.2157  1.2994  1.1263
  140OSM    C5F15340   6.557   2.582   7.212  0.4524  0.2178 -0.0956
  140OSM    H5F15341   6.526   2.680   7.171  1.0189  1.0259  1.3337
  140OSM    H5G15342   6.650   2.615   7.263  0.1166  0.1576  0.5693
  140OSM    C6F15343   6.439   2.544   7.303  1.0336  0.4453 -0.3481
  140OSM    H6F15344   6.349   2.557   7.240 -0.7148  0.0041  1.9204
  140OSM    H6G15345   6.420   2.615   7.386 -0.6425 -1.4029  0.9500
  140OSM    C7F15346   6.448   2.403   7.371 -0.2170 -0.1985  0.9926
  140OSM    H7F15347   6.465   2.332   7.288 -0.4813  1.0735 -0.1867
  140OSM    H7G15348   6.351   2.382   7.421 -1.0430  0.0170 -0.4677
  140OSM    C8F15349   6.578   2.403   7.452 -0.2533  0.0775  0.3145
  140OSM    H8F15350   6.668   2.405   7.387 -1.7028  1.1807 -1.7663
  140OSM    H8G15351   6.587   2.301   7.496  0.0914 -0.8185 -1.7104
  140OSM    C9F15352   6.571   2.511   7.560 -0.3178  0.4530 -0.0346
  140OSM    H9F15353   6.608   2.605   7.516 -0.6304  0.8597  0.5589
  140OSM   C10F15354   6.550   2.489   7.692 -0.1810 -0.9398  0.1986
  140OSM   H10F15355   6.568   2.580   7.751  0.9198 -0.9672 -0.0707
  140OSM   C11F15356   6.522   2.367   7.772 -0.0784  0.1033 -0.6474
  140OSM   H11F15357   6.537   2.272   7.717 -2.9872 -1.5312  1.1629
  140OSM   H11G15358   6.413   2.364   7.796  0.0773 -0.4312 -0.0026
  140OSM   C12F15359   6.597   2.369   7.902 -0.4563 -0.3919 -0.5504
  140OSM   H12F15360   6.694   2.414   7.874 -0.4514 -1.3859 -2.2307
  140OSM   H12G15361   6.624   2.265   7.930  1.6365 -0.0522 -1.1321
  140OSM   C13F15362   6.527   2.450   8.013 -0.2854  0.7680 -0.2081
  140OSM   H13F15363   6.460   2.372   8.056  0.5419 -1.2642 -2.3630
  140OSM   H13G15364   6.461   2.527   7.968 -0.4923  0.4715 -0.4159
  140OSM   C14F15365   6.607   2.516   8.130 -0.1982 -0.5757  0.7582
  140OSM   H14F15366   6.677   2.583   8.075  0.5605 -3.1458 -1.5948
  140OSM   H14G15367   6.664   2.437   8.183 -0.1389 -1.9689 -1.2698
  140OSM   C15F15368   6.517   2.574   8.246  0.1927 -0.0902 -0.3577
  140OSM   H15F15369   6.468   2.479   8.275  2.2898 -0.8971  0.7548
  140OSM   H15G15370   6.442   2.645   8.206  0.4686  2.2211  2.8433
  140OSM   C16F15371   6.597   2.626   8.368  0.1725  0.2517 -0.5411
  140OSM   H16F15372   6.673   2.699   8.332 -0.7047  2.6303  2.0341
  140OSM   H16G15373   6.646   2.541   8.421  0.5147 -0.6077 -2.1453
  140OSM   C17F15374   6.506   2.708   8.457  0.3522 -0.1653 -0.2058
  140OSM   H17F15375   6.412   2.653   8.478 -0.6490  1.2593 -0.8172
  140OSM   H17G15376   6.474   2.790   8.389  0.5627  0.1812  0.1091
  140OSM   C18F15377   6.576   2.762   8.587  0.1624 -0.1556 -0.1660
  140OSM   H18F15378   6.658   2.691   8.612 -1.3218 -1.8952 -0.0566
  140OSM   H18G15379   6.506   2.778   8.672 -0.0400  1.5905 -0.6119
  140OSM   H18H15380   6.633   2.856   8.572 -1.0582  0.5877 -0.2635
  141OSM      N15381   6.077   5.002   6.321  0.4554 -0.0108  0.3759
  141OSM    C1515382   6.187   5.044   6.418  0.8659  0.1805  0.6941
  141OSM   H15A15383   6.212   4.965   6.487 -0.3485 -0.7811  0.0861
  141OSM   H15B15384   6.143   5.120   6.480  0.4601 -0.7079  1.5282
  141OSM   H15C15385   6.262   5.090   6.357  0.6576  0.6585  0.7953
  141OSM    C1415386   6.136   4.882   6.236 -0.5709 -0.4964  0.3791
  141OSM   H14A15387   6.221   4.924   6.185 -1.7153 -1.2895 -2.3377
  141OSM   H14B15388   6.069   4.842   6.161 -0.8389  1.8387 -0.7232
  141OSM   H14C15389   6.173   4.801   6.297 -0.5659 -0.2930  0.6521
  141OSM    C1315390   5.964   4.939   6.406  0.3492 -0.2841  0.0706
  141OSM   H13A15391   6.002   4.862   6.472  1.9837 -0.4716 -1.0215
  141OSM   H13B15392   5.881   4.913   6.341 -1.3140  2.1431  1.0867
  141OSM   H13C15393   5.925   5.022   6.463  0.3234  0.0372 -0.4069
  141OSM    C1215394   6.032   5.118   6.240 -0.6272 -0.4879  0.2235
  141OSM   H12A15395   6.115   5.158   6.185  0.9619 -2.7980  0.7758
  141OSM   H12B15396   6.013   5.203   6.303  2.8109  1.3830 -1.0336
  141OSM    C1115397   5.905   5.114   6.153  0.1737  0.4573  0.2139
  141OSM   H11A15398   5.904   5.037   6.074 -1.6320  0.1889  0.4496
  141OSM   H11B15399   5.894   5.217   6.112  3.2871  1.3525  1.3236
  141OSM      P15400   5.648   5.097   6.190  0.1624  0.2134  0.0537
  141OSM    O1315401   5.612   5.168   6.067 -0.0745  0.0504 -0.1770
  141OSM    O1415402   5.595   4.963   6.194  0.2655 -0.1751 -0.6459
  141OSM    O1115403   5.584   5.183   6.310 -0.1437  0.6929  0.3932
  141OSM    O1215404   5.792   5.099   6.235  0.3510 -0.0626  0.3306
  141OSM    C1S15405   5.585   5.131   6.442  0.4379  0.3914  0.3585
  141OSM    H1S15406   5.689   5.111   6.475  0.0291 -0.3639  1.2460
  141OSM    H1T15407   5.536   5.032   6.432  0.6487  0.1042  1.9652
  141OSM     NF15408   5.549   5.167   6.679 -0.3834  0.3750  0.3374
  141OSM    HNF15409   5.474   5.132   6.734 -1.9209 -0.0297 -1.8711
  141OSM    C2S15410   5.514   5.215   6.544 -0.1221 -0.0425 -0.2803
  141OSM    H2S15411   5.563   5.314   6.527 -0.8191  0.9567  2.8652
  141OSM    C3S15412   5.359   5.227   6.511  0.5996 -0.4038  0.5099
  141OSM    H3S15413   5.323   5.122   6.510  2.3892 -1.0818  1.9245
  141OSM     O315414   5.331   5.289   6.389 -0.4960 -0.4348  0.2613
  141OSM    HO315415   5.417   5.315   6.356 -1.2050 -0.0411 -1.3978
  141OSM    C4S15416   5.291   5.306   6.623 -0.1316  0.1053 -0.2952
  141OSM    H4S15417   5.322   5.412   6.624 -0.5086  0.2403 -1.3834
  141OSM    C5S15418   5.206   5.255   6.717  0.2914  0.1095  0.0890
  141OSM    H5S15419   5.167   5.153   6.711 -2.1534  0.8204  2.0572
  141OSM    C6S15420   5.151   5.346   6.827  0.5956  0.2368  0.5496
  141OSM    H6S15421   5.041   5.333   6.821  0.3101  2.3551  0.5818
  141OSM    H6T15422   5.176   5.454   6.829  0.8200  0.2213 -0.7681
  141OSM    C7S15423   5.169   5.288   6.970 -0.2665 -0.1153  0.1590
  141OSM    H7S15424   5.170   5.177   6.963  2.9333 -0.0927 -1.4186
  141OSM    H7T15425   5.079   5.310   7.031  0.3121  0.9117  0.6823
  141OSM    C8S15426   5.306   5.324   7.040 -0.2256  0.3815 -0.5142
  141OSM    H8S15427   5.340   5.428   7.026 -0.5299  0.4659 -0.6428
  141OSM    H8T15428   5.380   5.264   6.983  0.2050  1.0481 -0.6689
  141OSM    C9S15429   5.299   5.303   7.194  0.1342 -0.1260  0.4882
  141OSM    H9S15430   5.300   5.193   7.211  0.8017  0.1702  2.6914
  141OSM    H9T15431   5.205   5.345   7.235 -0.7348 -0.9734 -0.5929
  141OSM   C10S15432   5.422   5.355   7.273  0.3030  0.4213  0.0229
  141OSM   H10S15433   5.436   5.464   7.259  1.4056  0.0148 -2.5916
  141OSM   H10T15434   5.517   5.313   7.235  1.2076  1.1807  1.3704
  141OSM   C11S15435   5.416   5.312   7.422 -0.2621 -0.7299  0.0348
  141OSM   H11S15436   5.435   5.203   7.420  2.5253 -0.3491  1.2176
  141OSM   H11T15437   5.310   5.329   7.447 -0.5371 -1.0157 -0.8806
  141OSM   C12S15438   5.497   5.414   7.517 -0.8339  0.4583  0.2858
  141OSM   H12S15439   5.460   5.515   7.486  0.6638  0.9976  0.1635
  141OSM   H12T15440   5.604   5.424   7.487 -0.9353 -0.5264 -0.4575
  141OSM   C13S15441   5.470   5.386   7.658  0.0656  0.1317  0.3792
  141OSM   H13S15442   5.520   5.289   7.677 -1.5051 -0.8942 -0.4954
  141OSM   H13T15443   5.361   5.371   7.672 -0.0899  0.2284 -0.6405
  141OSM   C14S15444   5.518   5.497   7.745  0.4337  0.7177 -0.4939
  141OSM   H14S15445   5.472   5.586   7.696  0.0559  0.1154 -1.2652
  141OSM   H14T15446   5.628   5.509   7.736  0.6643 -1.6556 -1.5871
  141OSM   C15S15447   5.502   5.462   7.897  0.0462 -0.5177 -1.0911
  141OSM   H15S15448   5.545   5.365   7.929  0.4299  0.7759  2.9377
  141OSM   H15T15449   5.395   5.461   7.926  0.6007  1.0458  1.3255
  141OSM   C16S15450   5.571   5.566   7.992  0.6039 -0.0355 -0.5474
  141OSM   H16S15451   5.537   5.671   7.977 -0.4488  0.2382  2.9935
  141OSM   H16T15452   5.678   5.568   7.960  0.0515  1.0105 -2.4662
  141OSM   C17S15453   5.556   5.526   8.149  0.7041  0.5193 -0.0446
  141OSM   H17S15454   5.449   5.503   8.168  0.5966  0.9222 -0.1542
  141OSM   H17T15455   5.594   5.611   8.209  2.8262  2.0658 -3.2996
  141OSM   C18S15456   5.658   5.416   8.178  0.0704  0.1726 -0.3055
  141OSM   H18S15457   5.617   5.321   8.137 -0.1247 -0.6462  1.6623
  141OSM   H18T15458   5.662   5.393   8.286 -3.4168 -2.6727 -0.5642
  141OSM   H18U15459   5.757   5.435   8.131 -0.3458 -1.7652 -2.1382
  141OSM    C1F15460   5.672   5.175   6.739  0.1763 -0.0380 -0.3182
  141OSM     OF15461   5.770   5.231   6.681  0.1211 -0.6170  0.2036
  141OSM    C2F15462   5.689   5.120   6.878 -0.0438 -0.3117 -0.1197
  141OSM    H2F15463   5.746   5.024   6.879  0.9257  0.2535  1.1131
  141OSM    H2G15464   5.592   5.109   6.931  1.0277  2.2879  2.6852
  141OSM    C3F15465   5.757   5.226   6.972  0.4046  0.2956 -0.0802
  141OSM    H3F15466   5.688   5.313   6.976 -2.5731 -1.8190 -1.6849
  141OSM    H3G15467   5.853   5.261   6.928  1.3023  0.0796  1.6193
  141OSM    C4F15468   5.768   5.175   7.119 -0.5081 -0.6780 -0.3306
  141OSM    H4F15469   5.814   5.074   7.117 -0.4109 -0.6287 -0.5339
  141OSM    H4G15470   5.669   5.169   7.170 -0.4643 -0.4732 -0.2205
  141OSM    C5F15471   5.851   5.283   7.203 -0.6760  0.0259 -0.9273
  141OSM    H5F15472   5.786   5.372   7.194  0.0933  0.7811  0.5880
  141OSM    H5G15473   5.944   5.296   7.144 -0.0949 -1.2507 -0.3502
  141OSM    C6F15474   5.865   5.251   7.355 -0.2082  0.5039  0.0258
  141OSM    H6F15475   5.933   5.165   7.371  0.1595  0.9798  1.1405
  141OSM    H6G15476   5.766   5.242   7.404  0.1927  0.4681  0.8449
  141OSM    C7F15477   5.931   5.375   7.425 -0.1337 -0.0495 -0.1130
  141OSM    H7F15478   5.862   5.462   7.436  0.1548  0.0669  0.9691
  141OSM    H7G15479   6.019   5.403   7.364  1.1799 -1.1210  1.1887
  141OSM    C8F15480   6.001   5.347   7.560  0.5501  0.7162 -0.0633
  141OSM    H8F15481   6.078   5.425   7.575  0.7298  0.2080  1.9218
  141OSM    H8G15482   6.060   5.253   7.554  1.2887  1.1572  0.1517
  141OSM    C9F15483   5.899   5.333   7.678 -0.1622 -0.1238 -0.1318
  141OSM    H9F15484   5.836   5.243   7.666 -0.1279 -0.5136  2.2076
  141OSM   C10F15485   5.879   5.408   7.788 -0.2345  0.3894  0.2601
  141OSM   H10F15486   5.808   5.387   7.869 -0.0890 -2.4979 -0.2469
  141OSM   C11F15487   5.953   5.541   7.803 -0.3648 -0.0579  0.3957
  141OSM   H11F15488   5.896   5.611   7.868  0.3379 -0.5075  1.5063
  141OSM   H11G15489   5.964   5.590   7.704  2.7422  0.0745  0.7339
  141OSM   C12F15490   6.088   5.513   7.866 -0.1876  0.1049  0.0576
  141OSM   H12F15491   6.154   5.603   7.867 -0.2021  0.1230  1.6955
  141OSM   H12G15492   6.141   5.425   7.824  0.0814 -0.9084  2.4007
  141OSM   C13F15493   6.059   5.475   8.014 -0.0724 -0.3452  0.4801
  141OSM   H13F15494   5.996   5.384   8.007  1.9841 -1.7118 -1.1905
  141OSM   H13G15495   5.997   5.556   8.059  0.2392 -0.3761  0.9664
  141OSM   C14F15496   6.180   5.444   8.106 -0.0236  0.0796 -0.1648
  141OSM   H14F15497   6.236   5.539   8.120  1.6420 -0.7924 -0.6705
  141OSM   H14G15498   6.240   5.375   8.044  0.1797 -0.6194  0.7871
  141OSM   C15F15499   6.138   5.380   8.238 -0.4479  0.4283  0.6212
  141OSM   H15F15500   6.221   5.320   8.282 -1.3836 -0.2174  1.5358
  141OSM   H15G15501   6.052   5.316   8.211 -2.4026  2.7073  1.0782
  141OSM   C16F15502   6.089   5.480   8.340 -0.3031 -0.2153 -0.1171
  141OSM   H16F15503   6.019   5.423   8.405 -1.2506  0.4911 -0.4848
  141OSM   H16G15504   6.014   5.554   8.305 -2.3848 -2.5130 -0.7465
  141OSM   C17F15505   6.189   5.557   8.427 -0.1389 -0.1087 -0.5179
  141OSM   H17F15506   6.121   5.605   8.501 -2.4807 -0.9958 -1.9850
  141OSM   H17G15507   6.228   5.639   8.362  0.1738 -0.8530 -1.2861
  141OSM   C18F15508   6.297   5.467   8.491 -0.3406 -0.5782  0.8343
  141OSM   H18F15509   6.362   5.432   8.408  1.0851  1.3593  1.0835
  141OSM   H18G15510   6.254   5.374   8.535  1.4215 -1.7200  0.2779
  141OSM   H18H15511   6.359   5.527   8.561  0.6805  0.5922 -0.9926
  142OSM      N15512   6.411   0.486   6.056  0.8872 -0.0783 -0.0735
  142OSM    C1515513   6.290   0.403   6.022  0.8227 -0.1991  0.2494
  142OSM   H15A15514   6.285   0.315   6.085  0.6460 -1.2063 -1.1129
  142OSM   H15B15515   6.308   0.354   5.928 -1.7676 -0.4608 -0.1981
  142OSM   H15C15516   6.193   0.451   6.027 -0.5119 -2.4782 -1.6729
  142OSM    C1415517   6.523   0.395   6.092 -0.0895 -0.4458  0.4744
  142OSM   H14A15518   6.619   0.438   6.112  0.0609 -1.3412  1.7691
  142OSM   H14B15519   6.531   0.317   6.018 -1.6402 -0.1727 -0.0274
  142OSM   H14C15520   6.501   0.358   6.191  0.6725 -0.2871  0.7049
  142OSM    C1315521   6.450   0.560   5.932  0.4789  0.7255  0.5065
  142OSM   H13A15522   6.548   0.603   5.945  0.2673  1.2421  0.4214
  142OSM   H13B15523   6.372   0.630   5.904  0.1846 -0.4135 -1.7081
  142OSM   H13C15524   6.453   0.488   5.853 -1.6613  0.0557  0.9687
  142OSM    C1215525   6.369   0.584   6.171 -0.1232  1.0723 -0.6219
  142OSM   H12A15526   6.455   0.640   6.207  0.7395 -1.2639  1.2762
  142OSM   H12B15527   6.342   0.528   6.260  0.5670  0.9380 -0.4867
  142OSM    C1115528   6.258   0.685   6.146  0.5695  0.6075  0.4560
  142OSM   H11A15529   6.260   0.719   6.040  0.4207 -1.7856 -0.3730
  142OSM   H11B15530   6.284   0.772   6.211 -0.6958 -0.6903  2.8478
  142OSM      P15531   6.094   0.605   6.334 -0.6169 -0.2913  0.1138
  142OSM    O1315532   6.073   0.737   6.398  0.4364 -0.5784  0.0279
  142OSM    O1415533   5.978   0.513   6.335  0.0387 -0.3746  0.0343
  142OSM    O1115534   6.228   0.532   6.390 -0.3189 -0.4362  0.1624
  142OSM    O1215535   6.130   0.641   6.184  0.0613  0.1273  0.3274
  142OSM    C1S15536   6.254   0.546   6.537  0.0757 -0.1621 -0.1560
  142OSM    H1S15537   6.224   0.644   6.581 -0.3191 -0.9985  1.5394
  142OSM    H1T15538   6.363   0.533   6.555  0.0512 -1.3729 -0.7877
  142OSM     NF15539   6.200   0.445   6.751  0.0893  0.7042  0.3165
  142OSM    HNF15540   6.272   0.385   6.784  0.2777 -0.1310 -1.4881
  142OSM    C2S15541   6.178   0.429   6.607  0.2424 -0.3427 -0.7367
  142OSM    H2S15542   6.072   0.446   6.582 -0.2582 -0.7420  0.9808
  142OSM    C3S15543   6.223   0.288   6.551  0.0030 -0.0620  0.2494
  142OSM    H3S15544   6.326   0.273   6.589 -0.4395  0.1419  1.5667
  142OSM     O315545   6.229   0.265   6.410 -0.4286 -1.0663 -0.0127
  142OSM    HO315546   6.238   0.355   6.377 -0.8998 -2.1492 -3.5182
  142OSM    C4S15547   6.127   0.178   6.611  0.2813 -0.0713  0.1513
  142OSM    H4S15548   6.023   0.210   6.597 -0.1425 -0.9556  1.1629
  142OSM    C5S15549   6.149   0.066   6.682  0.3641 -0.3571  0.9515
  142OSM    H5S15550   6.251   0.032   6.702 -0.3637 -1.7754  2.4507
  142OSM    C6S15551   6.038  -0.018   6.740  0.1919  0.2390 -0.8487
  142OSM    H6S15552   6.046  -0.117   6.690 -0.0062 -1.0937  1.6477
  142OSM    H6T15553   5.941   0.032   6.716  1.1466  2.4498 -0.3695
  142OSM    C7S15554   6.070  -0.054   6.886  1.1228  0.5190  0.2490
  142OSM    H7S15555   6.153  -0.127   6.878  0.0405 -1.1001  2.6161
  142OSM    H7T15556   5.983  -0.112   6.923  1.1785 -1.4561 -2.4203
  142OSM    C8S15557   6.096   0.066   6.977 -0.3144 -0.9671  0.2615
  142OSM    H8S15558   6.013   0.138   6.962 -0.2103 -0.4130  2.0727
  142OSM    H8T15559   6.184   0.121   6.939 -0.0453 -0.5631  1.4097
  142OSM    C9S15560   6.105   0.034   7.127  0.3415  0.8486 -0.5907
  142OSM    H9S15561   6.179  -0.048   7.135  1.4764  1.8141 -0.9547
  142OSM    H9T15562   6.003   0.004   7.158  1.2228 -0.4745  1.2184
  142OSM   C10S15563   6.148   0.160   7.201  0.4023  0.3559  1.5128
  142OSM   H10S15564   6.077   0.242   7.179 -0.9765 -0.8072  1.4979
  142OSM   H10T15565   6.246   0.194   7.161  1.6174 -2.7094  1.6093
  142OSM   C11S15566   6.145   0.124   7.347  0.2798  0.0939 -0.7303
  142OSM   H11S15567   6.234   0.058   7.350 -0.9807 -1.9404 -3.3336
  142OSM   H11T15568   6.054   0.064   7.370 -0.3417  1.6758  1.1903
  142OSM   C12S15569   6.150   0.243   7.440 -0.1680 -0.2203 -0.6612
  142OSM   H12S15570   6.052   0.291   7.457 -1.0095 -1.6156 -1.3821
  142OSM   H12T15571   6.223   0.320   7.407  0.8734 -1.7039 -2.0387
  142OSM   C13S15572   6.197   0.222   7.587 -0.3400  0.3374  0.0511
  142OSM   H13S15573   6.307   0.206   7.591 -0.6003 -1.3380  2.0058
  142OSM   H13T15574   6.143   0.134   7.628 -0.1214  1.2945  2.5393
  142OSM   C14S15575   6.167   0.331   7.689 -0.4746 -0.6986  0.1360
  142OSM   H14S15576   6.057   0.348   7.686 -0.1810  1.3409 -1.2268
  142OSM   H14T15577   6.222   0.424   7.666  0.0641 -0.7027  1.3097
  142OSM   C15S15578   6.204   0.297   7.826  0.1098 -0.0612 -0.2491
  142OSM   H15S15579   6.314   0.287   7.837  0.0833  1.4253  2.1176
  142OSM   H15T15580   6.162   0.199   7.855 -0.6753  0.9989  2.4702
  142OSM   C16S15581   6.172   0.404   7.930 -0.1030  0.0818 -0.4766
  142OSM   H16S15582   6.066   0.426   7.908  0.1942 -0.5898 -2.8505
  142OSM   H16T15583   6.229   0.496   7.901 -0.9187  0.0425 -2.3627
  142OSM   C17S15584   6.195   0.355   8.069  0.1236 -0.6957  0.2270
  142OSM   H17S15585   6.152   0.254   8.085 -0.8836 -0.3313 -0.0630
  142OSM   H17T15586   6.144   0.425   8.139  0.0337 -1.0964  0.5617
  142OSM   C18S15587   6.346   0.332   8.106  0.4383 -0.2926 -0.3291
  142OSM   H18S15588   6.358   0.282   8.204  1.7141 -2.5920 -1.5719
  142OSM   H18T15589   6.407   0.424   8.107  0.5898 -0.3653 -1.3384
  142OSM   H18U15590   6.400   0.267   8.034  0.9643 -0.1358 -0.0800
  142OSM    C1F15591   6.153   0.534   6.831  0.1241  0.5933 -0.2110
  142OSM     OF15592   6.073   0.622   6.800 -0.7321 -0.4695  0.5019
  142OSM    C2F15593   6.219   0.532   6.972  0.0260 -0.2186 -0.2228
  142OSM    H2F15594   6.322   0.566   6.947  0.0266 -0.9188 -1.2416
  142OSM    H2G15595   6.228   0.427   7.007  0.7210  0.0420  0.4100
  142OSM    C3F15596   6.148   0.621   7.065 -0.2545  0.0471 -0.2019
  142OSM    H3F15597   6.038   0.605   7.067 -0.7062  2.8630  1.1916
  142OSM    H3G15598   6.160   0.724   7.027 -2.4315  0.0855 -0.9663
  142OSM    C4F15599   6.193   0.595   7.205 -0.3198  0.0754 -0.5145
  142OSM    H4F15600   6.304   0.592   7.209 -0.3328 -0.4422 -0.3737
  142OSM    H4G15601   6.158   0.502   7.256  0.0656  0.2795  0.1236
  142OSM    C5F15602   6.152   0.707   7.296  0.5382  0.4250  1.3057
  142OSM    H5F15603   6.042   0.717   7.281  0.8586 -0.5242 -3.2007
  142OSM    H5G15604   6.198   0.805   7.271  2.4079 -0.4116  1.3316
  142OSM    C6F15605   6.203   0.700   7.435 -0.9049 -0.0456 -0.5421
  142OSM    H6F15606   6.314   0.700   7.433 -0.8224  2.9060 -0.4726
  142OSM    H6G15607   6.168   0.605   7.478 -1.4033  0.6096  0.5443
  142OSM    C7F15608   6.162   0.822   7.514  0.3718 -0.1611  0.7247
  142OSM    H7F15609   6.057   0.853   7.491  0.1044  0.5916  2.7646
  142OSM    H7G15610   6.230   0.904   7.480  1.9990 -2.0072 -0.6815
  142OSM    C8F15611   6.157   0.823   7.668 -0.5236  0.2117  0.8050
  142OSM    H8F15612   6.080   0.750   7.701  0.5991 -0.6363  1.5946
  142OSM    H8G15613   6.114   0.921   7.702 -0.1187  0.7681 -0.2554
  142OSM    C9F15614   6.287   0.797   7.738 -0.5712  0.4480 -0.5170
  142OSM    H9F15615   6.370   0.758   7.678 -1.1948 -0.5593 -0.7604
  142OSM   C10F15616   6.299   0.834   7.867 -0.2608 -0.7809  0.2450
  142OSM   H10F15617   6.391   0.807   7.920 -0.5128 -1.9276  0.1390
  142OSM   C11F15618   6.183   0.885   7.956  0.4433 -0.7163  0.6946
  142OSM   H11F15619   6.087   0.840   7.924  1.8421 -3.5465  0.2079
  142OSM   H11G15620   6.163   0.993   7.939  0.4583 -0.5180  1.8556
  142OSM   C12F15621   6.225   0.884   8.107 -0.5944 -0.6127  0.5478
  142OSM   H12F15622   6.161   0.954   8.164 -0.9197  0.1176 -0.6686
  142OSM   H12G15623   6.329   0.920   8.117 -0.4340 -1.1903  1.0260
  142OSM   C13F15624   6.213   0.749   8.167  0.8362 -0.1562  0.2246
  142OSM   H13F15625   6.263   0.674   8.102 -0.6347 -2.7069  1.8777
  142OSM   H13G15626   6.105   0.723   8.162  1.0543 -0.8309 -2.4020
  142OSM   C14F15627   6.258   0.744   8.313  0.1311 -0.0998  0.4623
  142OSM   H14F15628   6.193   0.802   8.382  0.1683  1.5241 -0.8122
  142OSM   H14G15629   6.360   0.785   8.327  0.1084 -0.2315  1.0313
  142OSM   C15F15630   6.260   0.602   8.369 -0.0947 -0.4276 -0.1031
  142OSM   H15F15631   6.321   0.532   8.308 -0.1725 -0.8222  0.2621
  142OSM   H15G15632   6.160   0.554   8.363 -0.7803  1.0977 -1.4908
  142OSM   C16F15633   6.306   0.594   8.514 -0.4984  0.1303 -0.4807
  142OSM   H16F15634   6.417   0.598   8.517 -0.5244  1.2072  1.7110
  142OSM   H16G15635   6.284   0.492   8.553 -0.2808  0.1352 -0.3448
  142OSM   C17F15636   6.236   0.691   8.608 -0.0233  0.6557 -0.8716
  142OSM   H17F15637   6.126   0.686   8.614  0.0777 -1.2154  0.1301
  142OSM   H17G15638   6.263   0.795   8.578  2.4317  0.6312  0.9152
  142OSM   C18F15639   6.288   0.674   8.755 -0.1187 -0.0220 -0.3430
  142OSM   H18F15640   6.393   0.703   8.776  0.1628  0.4449 -2.2414
  142OSM   H18G15641   6.285   0.566   8.780  1.9424  0.5691  3.2229
  142OSM   H18H15642   6.226   0.738   8.822  1.2704  0.7255  0.2794
  143OSM      N15643   1.627   1.982   6.199  0.3031  0.2323  0.3846
  143OSM    C1515644   1.688   1.979   6.340 -0.6419  0.1830 -0.4510
  143OSM   H15A15645   1.772   2.047   6.334 -0.0913 -0.1658  2.0362
  143OSM   H15B15646   1.732   1.882   6.357 -0.2073 -0.0570 -2.6493
  143OSM   H15C15647   1.618   1.997   6.420  1.2729 -1.7366  1.8385
  143OSM    C1415648   1.732   1.945   6.097  0.0745  0.3206 -0.0809
  143OSM   H14A15649   1.689   1.917   6.002 -0.2165 -0.1337  0.1797
  143OSM   H14B15650   1.789   1.862   6.137  0.0604  1.2865  2.0749
  143OSM   H14C15651   1.804   2.023   6.077  1.3662 -1.1328 -1.3616
  143OSM    C1315652   1.516   1.882   6.205 -0.6116 -0.0274 -0.1398
  143OSM   H13A15653   1.550   1.783   6.178 -2.5812  0.0051 -3.2166
  143OSM   H13B15654   1.443   1.917   6.134  0.4954  0.7185 -0.9439
  143OSM   H13C15655   1.472   1.880   6.304  1.7804 -3.0257  1.0342
  143OSM    C1215656   1.578   2.125   6.178 -0.6505  0.3314  0.4282
  143OSM   H12A15657   1.670   2.180   6.185  0.4428 -1.3837  0.2151
  143OSM   H12B15658   1.508   2.159   6.253 -0.4754 -0.7181  1.0889
  143OSM    C1115659   1.505   2.159   6.045  0.5136 -0.1748  0.0001
  143OSM   H11A15660   1.550   2.112   5.955  1.7886 -1.0108  1.0310
  143OSM   H11B15661   1.508   2.270   6.035  1.5064  0.1952  3.0337
  143OSM      P15662   1.252   2.176   6.143  0.1464 -0.0026  0.3792
  143OSM    O1315663   1.240   2.320   6.113  0.3361 -0.4915 -0.0693
  143OSM    O1415664   1.125   2.097   6.132  0.2614  0.5766 -0.4740
  143OSM    O1115665   1.298   2.162   6.292 -0.4061 -0.3448 -0.2869
  143OSM    O1215666   1.363   2.108   6.058 -0.2257 -0.4417  0.1951
  143OSM    C1S15667   1.318   2.275   6.379 -0.0154  0.7719  1.3654
  143OSM    H1S15668   1.236   2.347   6.357 -0.0735 -0.0935 -1.8750
  143OSM    H1T15669   1.414   2.330   6.366  0.0259  0.3747 -0.2898
  143OSM     NF15670   1.300   2.353   6.619  0.3665 -0.1017 -0.7287
  143OSM    HNF15671   1.386   2.363   6.669 -0.0347 -0.9013  0.1522
  143OSM    C2S15672   1.301   2.238   6.527  0.0394  0.4488 -0.0319
  143OSM    H2S15673   1.203   2.187   6.529 -0.1582  0.8461  0.7654
  143OSM    C3S15674   1.401   2.126   6.572 -0.3642  0.4251  0.3084
  143OSM    H3S15675   1.502   2.169   6.560  0.0348 -1.0491 -2.3272
  143OSM     O315676   1.405   2.016   6.479  0.0125  0.3090 -0.4219
  143OSM    HO315677   1.347   2.044   6.407 -1.8493 -1.0640  0.4453
  143OSM    C4S15678   1.371   2.078   6.718 -0.1452 -0.5210 -0.3293
  143OSM    H4S15679   1.410   2.134   6.804 -0.7241 -0.5373 -0.0482
  143OSM    C5S15680   1.290   1.975   6.759  0.1648  0.4570 -0.7776
  143OSM    H5S15681   1.250   1.913   6.678  0.2521  1.5173 -1.6544
  143OSM    C6S15682   1.273   1.937   6.905 -0.1868 -0.1461  0.5954
  143OSM    H6S15683   1.369   1.914   6.955  0.4518  1.6524  0.2898
  143OSM    H6T15684   1.214   1.844   6.917 -0.4937  0.2221  2.0646
  143OSM    C7S15685   1.205   2.042   7.003  0.4042  0.4484  0.5012
  143OSM    H7S15686   1.116   2.074   6.945  0.2748 -0.0310  0.4369
  143OSM    H7T15687   1.278   2.126   7.003  0.8769  0.0487  1.5925
  143OSM    C8S15688   1.183   1.990   7.140 -0.1762  0.0247 -0.7603
  143OSM    H8S15689   1.285   1.954   7.166  0.2575  2.0514  0.5317
  143OSM    H8T15690   1.110   1.906   7.146 -0.1713 -0.0606 -1.7648
  143OSM    C9S15691   1.163   2.103   7.237  0.0501  0.0640  0.6820
  143OSM    H9S15692   1.067   2.158   7.228  0.1101  0.2138  0.9547
  143OSM    H9T15693   1.247   2.175   7.229 -0.2163  0.5887  2.2380
  143OSM   C10S15694   1.178   2.053   7.381  0.1681  0.3100 -0.4028
  143OSM   H10S15695   1.283   2.035   7.411 -0.4594 -0.0072  1.8347
  143OSM   H10T15696   1.120   1.959   7.392  1.1297 -0.1295  1.2820
  143OSM   C11S15697   1.128   2.146   7.491 -0.1787  0.5573  0.5099
  143OSM   H11S15698   1.024   2.170   7.459  0.2244 -0.0926 -1.4309
  143OSM   H11T15699   1.188   2.237   7.510  1.1907 -0.2148 -0.0098
  143OSM   C12S15700   1.112   2.076   7.628  0.9516  0.8004 -0.1428
  143OSM   H12S15701   1.213   2.045   7.661  0.0357 -0.9969  1.1246
  143OSM   H12T15702   1.047   1.988   7.607  2.1884 -0.2255  0.2368
  143OSM   C13S15703   1.054   2.167   7.744 -0.2123 -0.5492 -0.5234
  143OSM   H13S15704   0.958   2.215   7.717  0.2148  1.2941  1.0611
  143OSM   H13T15705   1.125   2.251   7.757 -3.5249  2.3747  0.2478
  143OSM   C14S15706   1.041   2.084   7.869  0.4669 -0.3012 -0.4974
  143OSM   H14S15707   1.131   2.021   7.888 -0.0435 -0.4203  1.9163
  143OSM   H14T15708   0.958   2.013   7.853  0.1380  0.3079 -1.5906
  143OSM   C15S15709   1.020   2.171   8.003 -0.3971  0.5018  0.7674
  143OSM   H15S15710   0.940   2.247   7.990  0.9688  1.7829 -0.7021
  143OSM   H15T15711   1.109   2.237   8.013  1.7388 -2.2285  0.8257
  143OSM   C16S15712   1.011   2.087   8.134 -0.6621  0.2722  0.0563
  143OSM   H16S15713   1.098   2.020   8.150 -1.6802 -1.1832 -0.3109
  143OSM   H16T15714   0.917   2.028   8.136 -0.7749  0.3781  2.9692
  143OSM   C17S15715   0.996   2.173   8.263  0.7167 -0.2854  0.5201
  143OSM   H17S15716   0.894   2.217   8.257  0.9202  0.1466  0.2081
  143OSM   H17T15717   1.067   2.258   8.264 -0.2278  0.6122 -1.9277
  143OSM   C18S15718   1.005   2.089   8.393 -0.1576 -0.3597  0.4494
  143OSM   H18S15719   1.107   2.051   8.419  0.7003  0.6950 -1.2204
  143OSM   H18T15720   0.927   2.009   8.399 -0.1300 -0.4297 -0.0670
  143OSM   H18U15721   0.987   2.161   8.475 -0.1868  0.4618 -0.2648
  143OSM    C1F15722   1.201   2.438   6.632  0.4211 -0.0078  0.1132
  143OSM     OF15723   1.107   2.444   6.558  0.3402 -0.5741  0.0389
  143OSM    C2F15724   1.216   2.530   6.754  1.2286  0.1005 -0.3654
  143OSM    H2F15725   1.223   2.637   6.723  0.2676 -0.0835 -1.2792
  143OSM    H2G15726   1.314   2.513   6.804 -0.0468 -1.4211  1.7525
  143OSM    C3F15727   1.088   2.508   6.844 -0.6418  0.1700 -0.0914
  143OSM    H3F15728   1.092   2.401   6.874 -0.2930  0.6000  1.4824
  143OSM    H3G15729   0.996   2.530   6.786 -1.8772 -0.1443  1.6635
  143OSM    C4F15730   1.092   2.599   6.970  0.6587 -0.5307  0.2690
  143OSM    H4F15731   0.999   2.586   7.029  0.9575 -0.5001  0.7518
  143OSM    H4G15732   1.092   2.699   6.922  1.3778 -0.5639  0.1891
  143OSM    C5F15733   1.211   2.578   7.063 -0.2447  0.4238 -0.3921
  143OSM    H5F15734   1.303   2.581   7.001  0.3044  0.7930  0.4311
  143OSM    H5G15735   1.203   2.477   7.109 -1.6016  0.4391 -0.5304
  143OSM    C6F15736   1.219   2.689   7.174  0.6798  0.2717 -0.6222
  143OSM    H6F15737   1.132   2.700   7.243  2.3562 -0.6133  1.7985
  143OSM    H6G15738   1.214   2.783   7.117 -1.6491  0.7791  0.2904
  143OSM    C7F15739   1.348   2.666   7.262 -0.0308 -0.0553  0.1491
  143OSM    H7F15740   1.431   2.649   7.190  0.4850  1.7111  0.2619
  143OSM    H7G15741   1.343   2.579   7.331 -0.0574 -0.8181 -0.8090
  143OSM    C8F15742   1.396   2.784   7.349 -0.1740  0.2343 -0.1202
  143OSM    H8F15743   1.425   2.863   7.276 -0.6859  0.5698  0.0330
  143OSM    H8G15744   1.476   2.744   7.414  0.6704  0.9292 -0.7024
  143OSM    C9F15745   1.278   2.824   7.435 -0.7838  0.2753 -0.0559
  143OSM    H9F15746   1.209   2.898   7.392  0.4255  1.0142 -0.7773
  143OSM   C10F15747   1.236   2.778   7.555 -0.1595 -0.0386  0.3580
  143OSM   H10F15748   1.153   2.828   7.606  0.9170  1.1652  0.9953
  143OSM   C11F15749   1.309   2.660   7.625 -0.1369 -0.8549  0.4336
  143OSM   H11F15750   1.408   2.639   7.580  0.6817  3.8215 -0.4775
  143OSM   H11G15751   1.249   2.567   7.611  1.2772 -1.5379 -1.5199
  143OSM   C12F15752   1.326   2.688   7.773 -0.1322 -0.3448 -0.2084
  143OSM   H12F15753   1.355   2.593   7.822  0.3741 -0.5097 -0.8039
  143OSM   H12G15754   1.233   2.705   7.830  0.0526 -1.5796  0.4833
  143OSM   C13F15755   1.421   2.807   7.803 -0.1975 -0.3805  0.8691
  143OSM   H13F15756   1.365   2.895   7.765  0.6011 -0.0603  0.4108
  143OSM   H13G15757   1.502   2.794   7.728  0.2505 -0.9217  1.4442
  143OSM   C14F15758   1.471   2.820   7.951 -0.8282  0.1946 -0.0346
  143OSM   H14F15759   1.530   2.731   7.983 -0.8742  0.2476  0.1968
  143OSM   H14G15760   1.381   2.813   8.017 -0.9051  1.0423 -0.0405
  143OSM   C15F15761   1.547   2.946   7.981 -0.1804 -0.6681  0.1514
  143OSM   H15F15762   1.473   3.029   7.978 -0.4391 -0.9043 -0.1049
  143OSM   H15G15763   1.620   2.979   7.904 -1.1839  0.8356 -0.2061
  143OSM   C16F15764   1.618   2.930   8.114  0.2423  0.2381  0.7565
  143OSM   H16F15765   1.671   2.833   8.107  0.3031  0.3451 -0.5309
  143OSM   H16G15766   1.547   2.933   8.199  1.1455  0.9506  1.5047
  143OSM   C17F15767   1.733   3.032   8.132  0.4053 -0.2829 -0.3259
  143OSM   H17F15768   1.702   3.138   8.141  1.2757 -0.0485  0.0283
  143OSM   H17G15769   1.796   3.013   8.042  0.0369 -1.9012 -0.2649
  143OSM   C18F15770   1.820   3.014   8.258  0.0701  0.7025  0.4888
  143OSM   H18F15771   1.872   2.916   8.265  2.0193  1.6237 -0.0963
  143OSM   H18G15772   1.756   3.022   8.348 -2.9480  1.0158 -1.5530
  143OSM   H18H15773   1.895   3.096   8.256  0.0233  0.7491 -2.3185
  144OSM      N15774   0.889   1.563   6.191  0.2245  0.4338  0.0123
  144OSM    C1515775   0.902   1.491   6.061  0.2477 -0.1460  0.0470
  144OSM   H15A15776   0.803   1.480   6.018  1.0381 -1.7728 -1.5033
  144OSM   H15B15777   0.943   1.392   6.076 -2.2007 -1.5848 -1.9228
  144OSM   H15C15778   0.967   1.543   5.992  0.1521  1.5971  1.2019
  144OSM    C1415779   0.822   1.689   6.160 -0.3956 -0.0751  0.3164
  144OSM   H14A15780   0.810   1.747   6.251 -1.0990  0.2275  0.0420
  144OSM   H14B15781   0.733   1.669   6.102 -0.1519 -0.0337 -0.0759
  144OSM   H14C15782   0.890   1.751   6.103 -0.5954 -2.1433 -2.3326
  144OSM    C1315783   0.804   1.484   6.285  0.2902 -0.5721  0.1570
  144OSM   H13A15784   0.853   1.391   6.309 -2.6274 -1.3391  4.2717
  144OSM   H13B15785   0.702   1.466   6.257  0.4342 -2.6319  0.8155
  144OSM   H13C15786   0.809   1.542   6.376  1.4399 -0.0752 -0.1934
  144OSM    C1215787   1.026   1.579   6.256 -0.3418  0.0476  0.2882
  144OSM   H12A15788   1.012   1.621   6.354  0.4205 -1.6354  1.1543
  144OSM   H12B15789   1.077   1.652   6.194  0.8523 -0.6996  0.3433
  144OSM    C1115790   1.113   1.456   6.285  0.5150  0.0756 -0.3983
  144OSM   H11A15791   1.081   1.400   6.375 -0.6225  0.4147 -0.5752
  144OSM   H11B15792   1.201   1.513   6.321 -1.2860  2.5299  0.3781
  144OSM      P15793   1.188   1.235   6.173 -0.1682 -0.1310 -0.2808
  144OSM    O1315794   1.065   1.149   6.180 -0.2808 -0.4626  0.0030
  144OSM    O1415795   1.276   1.222   6.057 -0.8394  0.4627  0.4888
  144OSM    O1115796   1.259   1.209   6.304  0.5419  0.1455  0.3799
  144OSM    O1215797   1.143   1.389   6.168 -0.3492  0.3453 -0.4934
  144OSM    C1S15798   1.376   1.286   6.340  0.7906  0.4348 -0.1044
  144OSM    H1S15799   1.373   1.393   6.310  1.2631  0.6880  0.6988
  144OSM    H1T15800   1.469   1.235   6.305  0.9267  0.8778 -0.3973
  144OSM     NF15801   1.509   1.369   6.540  0.6934  0.0577  0.0860
  144OSM    HNF15802   1.604   1.346   6.558  0.7286 -1.5158 -1.7761
  144OSM    C2S15803   1.407   1.271   6.494 -0.0561  0.2337 -0.3678
  144OSM    H2S15804   1.314   1.299   6.548 -0.4212 -1.0669 -0.2814
  144OSM    C3S15805   1.439   1.120   6.530 -0.4431 -0.2971 -0.2078
  144OSM    H3S15806   1.516   1.086   6.458  0.3383  0.8540  0.0514
  144OSM     O315807   1.336   1.028   6.515  0.0697 -0.1765 -0.3215
  144OSM    HO315808   1.265   1.064   6.461  1.2677  0.4015 -1.5911
  144OSM    C4S15809   1.485   1.124   6.671 -0.7579 -0.2377  0.5057
  144OSM    H4S15810   1.594   1.117   6.680 -0.7026 -2.4213 -1.0428
  144OSM    C5S15811   1.409   1.132   6.783  0.0158  0.0221  0.1699
  144OSM    H5S15812   1.302   1.156   6.775  0.2576  1.3730  0.6862
  144OSM    C6S15813   1.473   1.132   6.924 -0.2076 -0.7057  0.2265
  144OSM    H6S15814   1.432   1.215   6.987  2.9844  0.0321  1.5361
  144OSM    H6T15815   1.582   1.141   6.908 -0.3391 -2.4009 -2.0184
  144OSM    C7S15816   1.457   1.005   7.008  0.3921 -0.5560  0.2591
  144OSM    H7S15817   1.478   0.920   6.940 -2.0540 -1.4018  0.4531
  144OSM    H7T15818   1.351   0.997   7.039  0.7578  0.0699  1.8132
  144OSM    C8S15819   1.548   0.987   7.140 -0.6094  0.1810  0.3032
  144OSM    H8S15820   1.655   0.991   7.107 -0.0491 -1.2268  1.8473
  144OSM    H8T15821   1.525   0.886   7.180  0.9021 -0.1971  0.3039
  144OSM    C9S15822   1.514   1.093   7.252 -0.1754 -0.0245 -0.7047
  144OSM    H9S15823   1.424   1.050   7.301 -3.0380  6.1584  0.4393
  144OSM    H9T15824   1.490   1.197   7.223 -0.9753  0.5071  1.6805
  144OSM   C10S15825   1.625   1.106   7.357 -0.4219  0.3323 -0.4859
  144OSM   H10S15826   1.709   1.161   7.309 -0.5910 -0.6730 -2.0351
  144OSM   H10T15827   1.663   1.004   7.379  2.9129  1.3766 -0.8056
  144OSM   C11S15828   1.583   1.162   7.488 -0.1208 -0.5612  0.9927
  144OSM   H11S15829   1.501   1.101   7.534 -0.5117  0.1721  1.2879
  144OSM   H11T15830   1.529   1.256   7.467 -1.1785 -1.5502 -0.9605
  144OSM   C12S15831   1.696   1.198   7.589  0.2691 -0.3788  0.2205
  144OSM   H12S15832   1.663   1.286   7.648 -0.2379  1.0661 -2.0813
  144OSM   H12T15833   1.780   1.229   7.524 -1.4416 -0.5409 -2.1956
  144OSM   C13S15834   1.735   1.084   7.682  0.1306 -0.0008  0.1778
  144OSM   H13S15835   1.801   1.008   7.635  0.0796  0.2513 -0.3069
  144OSM   H13T15836   1.639   1.037   7.710 -0.4329 -0.4099 -2.2181
  144OSM   C14S15837   1.806   1.146   7.801 -0.1635  0.5479  0.0253
  144OSM   H14S15838   1.734   1.224   7.831 -2.4559  0.0831 -3.7444
  144OSM   H14T15839   1.901   1.195   7.770 -0.1415  1.2098  1.0943
  144OSM   C15S15840   1.818   1.045   7.922 -0.2636 -0.4893 -0.2239
  144OSM   H15S15841   1.870   0.956   7.881  1.7679  1.1013 -1.2689
  144OSM   H15T15842   1.718   1.018   7.963  0.0651  0.3695  1.2035
  144OSM   C16S15843   1.921   1.097   8.023  0.2356 -0.0895 -0.2185
  144OSM   H16S15844   1.870   1.188   8.062 -1.4615 -0.9713 -0.3200
  144OSM   H16T15845   2.017   1.138   7.983  0.5060  0.3882  0.8853
  144OSM   C17S15846   1.951   0.997   8.134 -0.0741  0.3671  0.3012
  144OSM   H17S15847   2.027   1.053   8.192  1.6172 -0.1223 -1.3443
  144OSM   H17T15848   1.983   0.899   8.095 -1.6675 -0.4066  0.8447
  144OSM   C18S15849   1.835   0.958   8.232 -0.7461  0.0060 -0.3205
  144OSM   H18S15850   1.753   0.906   8.178 -2.0952  0.4034  1.2862
  144OSM   H18T15851   1.794   1.051   8.277 -0.9560  0.5180 -1.5262
  144OSM   H18U15852   1.869   0.895   8.317  1.1821 -1.4168 -2.0277
  144OSM    C1F15853   1.482   1.499   6.546  0.0056 -0.3733 -0.1563
  144OSM     OF15854   1.366   1.549   6.560 -0.2146 -0.1419  0.7255
  144OSM    C2F15855   1.607   1.590   6.541  0.5475 -0.0129  0.0856
  144OSM    H2F15856   1.643   1.605   6.437 -0.5738  1.7040 -0.0822
  144OSM    H2G15857   1.691   1.529   6.581  0.5307 -0.6333 -0.7852
  144OSM    C3F15858   1.592   1.728   6.614 -0.1349  0.4044 -0.5591
  144OSM    H3F15859   1.512   1.783   6.561 -1.3837  0.0966  0.9216
  144OSM    H3G15860   1.687   1.783   6.599  0.2143  0.6557  2.0672
  144OSM    C4F15861   1.565   1.713   6.765  0.8253 -1.0242 -0.0102
  144OSM    H4F15862   1.463   1.671   6.781  0.6578  0.1774  2.5971
  144OSM    H4G15863   1.554   1.812   6.814 -1.7840 -0.8068 -0.8791
  144OSM    C5F15864   1.677   1.638   6.842 -0.3218 -0.3960 -0.0236
  144OSM    H5F15865   1.760   1.711   6.836 -1.0897  0.6629  1.6704
  144OSM    H5G15866   1.716   1.553   6.781 -0.1185 -0.0228 -0.4198
  144OSM    C6F15867   1.652   1.602   6.987  0.1688  0.0596  0.2998
  144OSM    H6F15868   1.644   1.691   7.053 -0.2834  0.8428 -0.7798
  144OSM    H6G15869   1.745   1.549   7.018  1.8797  1.9346 -1.2674
  144OSM    C7F15870   1.526   1.516   6.995 -0.0675  0.1759 -0.2111
  144OSM    H7F15871   1.545   1.409   6.970 -0.0438  0.2004 -0.3001
  144OSM    H7G15872   1.453   1.548   6.918 -0.1017 -2.8493 -1.5805
  144OSM    C8F15873   1.458   1.529   7.136  0.1922 -0.3579 -0.3796
  144OSM    H8F15874   1.367   1.468   7.115  1.7932 -1.9171 -3.6363
  144OSM    H8G15875   1.426   1.634   7.153 -0.6622 -0.9534  2.1197
  144OSM    C9F15876   1.551   1.487   7.252 -0.1861 -0.7615 -0.1080
  144OSM    H9F15877   1.585   1.382   7.251 -1.5913 -1.2351 -0.3722
  144OSM   C10F15878   1.615   1.566   7.348 -0.2273 -0.0259 -0.6056
  144OSM   H10F15879   1.679   1.517   7.423  1.8910  0.2221 -2.1503
  144OSM   C11F15880   1.594   1.717   7.363 -0.0079  0.7185 -0.8127
  144OSM   H11F15881   1.553   1.766   7.272  0.8052  2.4142 -0.3125
  144OSM   H11G15882   1.696   1.760   7.379  0.5986 -1.9526  4.9339
  144OSM   C12F15883   1.503   1.763   7.488  0.0917 -0.0494  0.5067
  144OSM   H12F15884   1.437   1.674   7.493  0.6315 -0.6481 -1.8479
  144OSM   H12G15885   1.434   1.841   7.449  0.5632 -0.7768 -1.9545
  144OSM   C13F15886   1.566   1.796   7.615  0.7611 -0.3227 -0.0450
  144OSM   H13F15887   1.490   1.802   7.695  2.1611  3.3315  1.2462
  144OSM   H13G15888   1.608   1.898   7.600 -1.3516  0.5645 -0.2623
  144OSM   C14F15889   1.670   1.699   7.677  0.1466 -0.4096 -0.6366
  144OSM   H14F15890   1.758   1.708   7.610 -1.7107  0.2382 -3.1374
  144OSM   H14G15891   1.638   1.593   7.665  0.9473 -0.4469 -2.7990
  144OSM   C15F15892   1.701   1.748   7.821 -0.0170  0.2992 -0.2074
  144OSM   H15F15893   1.607   1.722   7.875  1.0242 -1.8327  0.6931
  144OSM   H15G15894   1.704   1.859   7.821  0.5395  0.2893  0.2455
  144OSM   C16F15895   1.827   1.698   7.873  0.0885 -0.0570  0.2661
  144OSM   H16F15896   1.876   1.762   7.949 -0.1202 -0.5420  0.8168
  144OSM   H16G15897   1.896   1.687   7.787 -0.3674  1.2114 -0.2884
  144OSM   C17F15898   1.824   1.554   7.931 -0.3229  0.1767 -0.1319
  144OSM   H17F15899   1.741   1.498   7.883 -1.8634  0.7019  1.8267
  144OSM   H17G15900   1.790   1.567   8.036  0.0685 -0.9318  0.1442
  144OSM   C18F15901   1.956   1.480   7.930  1.0443  0.0541 -0.2122
  144OSM   H18F15902   1.939   1.382   7.978  1.0279  1.2333  2.3565
  144OSM   H18G15903   2.023   1.547   7.988  0.0836  0.8017  0.0466
  144OSM   H18H15904   2.003   1.469   7.829  0.5421  2.1312 -0.7227
  145SAPE     N15905   4.289   3.739  10.784 -0.0370 -0.0538 -0.0090
  145SAPE   HN115906   4.368   3.677  10.813 -1.1973 -1.9496 -0.7494
  145SAPE   HN215907   4.281   3.831  10.832  1.9030  0.4474 -0.5493
  145SAPE   HN315908   4.202   3.693  10.817 -0.8087  1.6720  0.4411
  145SAPE   C1215909   4.272   3.781  10.643 -0.5947  0.0783  0.0177
  145SAPE  H12A15910   4.193   3.854  10.618 -1.2521 -0.6925 -0.2085
  145SAPE  H12B15911   4.266   3.684  10.588 -1.1443 -2.0612  3.5096
  145SAPE   C1115912   4.404   3.844  10.604  0.3131  0.2274  1.1358
  145SAPE  H11A15913   4.400   3.859  10.494 -2.5624 -1.1925  0.9562
  145SAPE  H11B15914   4.494   3.780  10.618  0.4795  0.1664 -0.1139
  145SAPE     P15915   4.538   4.070  10.658  0.1811 -0.0577  0.4256
  145SAPE   O1315916   4.548   4.161  10.769 -0.5946  0.2576 -0.5838
  145SAPE   O1415917   4.650   3.979  10.630  0.4490  0.2571  0.3523
  145SAPE   O1215918   4.415   3.969  10.675  0.2060 -0.3204 -0.0148
  145SAPE   O1115919   4.507   4.161  10.528 -0.3115 -0.1928  0.6038
  145SAPE    C115920   4.616   4.231  10.470 -0.1608 -0.3071 -0.1773
  145SAPE    HA15921   4.603   4.339  10.491 -1.4174 -0.5116  0.1925
  145SAPE    HB15922   4.712   4.199  10.514 -0.0709  0.0623 -0.1113
  145SAPE    C215923   4.621   4.211  10.318  0.0217  0.6158  0.5242
  145SAPE    HS15924   4.702   4.278  10.282  0.9639 -1.9054 -2.4194
  145SAPE   O2115925   4.494   4.250  10.256 -0.6538  0.4414 -0.2178
  145SAPE   C2115926   4.470   4.380  10.263  0.6442  0.7751 -0.2218
  145SAPE   O2215927   4.548   4.469  10.290 -0.5968  0.6178  0.8512
  145SAPE   C2215928   4.337   4.400  10.192  0.1805 -0.8288  0.0877
  145SAPE   H2R15929   4.249   4.367  10.250 -1.5504  0.3380 -1.7238
  145SAPE   H2S15930   4.322   4.510  10.179  1.4969 -0.6374  0.0728
  145SAPE    C315931   4.648   4.063  10.282 -0.1387  0.0871  0.1624
  145SAPE    HX15932   4.566   4.002  10.325  1.0101 -1.4561  0.2753
  145SAPE    HY15933   4.735   4.025  10.340  0.2911  0.4477 -0.2362
  145SAPE   O3115934   4.654   4.037  10.140 -0.0527  0.0521 -0.2053
  145SAPE   C3115935   4.771   4.079  10.073 -0.3252  0.4634 -0.1604
  145SAPE   O3215936   4.874   4.106  10.129  0.5825 -0.1087 -0.5782
  145SAPE   C3215937   4.737   4.098   9.924 -0.4998  0.1292 -0.0021
  145SAPE   H2X15938   4.666   4.180   9.903  1.5342  1.7087 -1.0920
  145SAPE   H2Y15939   4.703   3.999   9.887  2.1145 -0.8633  0.0043
  145SAPE   C2315940   4.335   4.328  10.053  0.3583  0.0364 -0.5019
  145SAPE   H3R15941   4.293   4.229  10.081 -2.1485  1.6310  1.8755
  145SAPE   H3S15942   4.434   4.306  10.008  0.1656 -0.6508 -0.5993
  145SAPE   C2415943   4.249   4.402   9.951 -0.1496  0.3087 -0.4886
  145SAPE   H4R15944   4.304   4.498   9.940  1.9149 -0.5199  1.7272
  145SAPE   H4S15945   4.156   4.430  10.004 -0.7707 -0.3094 -1.2221
  145SAPE   C2515946   4.233   4.326   9.822  0.2813  0.6413 -0.3112
  145SAPE   H5R15947   4.329   4.315   9.770 -0.3094  0.2995 -1.3625
  145SAPE   C2615948   4.123   4.252   9.789  0.2330  0.1317  0.1762
  145SAPE   H6R15949   4.124   4.215   9.685  1.9623 -0.1223  0.2573
  145SAPE   C2715950   3.995   4.236   9.869  0.8744 -0.3036 -0.8359
  145SAPE   H7R15951   3.913   4.183   9.815  1.5961 -1.8104 -0.4964
  145SAPE   H7S15952   3.952   4.335   9.894 -0.1626 -1.0316  0.3774
  145SAPE   C2815953   4.011   4.146   9.989  0.1871  0.2841 -0.1143
  145SAPE   H8R15954   4.076   4.060   9.969  0.1207  0.5740 -1.7322
  145SAPE   C2915955   3.946   4.150  10.107 -0.5806 -0.1766  0.1307
  145SAPE   H9R15956   3.963   4.070  10.181  0.5267  0.5684  0.7109
  145SAPE  C21015957   3.848   4.255  10.154  0.1830  0.7628 -0.4471
  145SAPE  H10R15958   3.791   4.284  10.064  0.6387 -0.6348 -1.2065
  145SAPE  H10S15959   3.901   4.348  10.183 -0.8189  0.7102  1.7804
  145SAPE  C21115960   3.753   4.206  10.265 -0.3291 -0.4099 -0.1369
  145SAPE  H11R15961   3.751   4.266  10.357  0.9038 -0.5304 -0.0220
  145SAPE  C21215962   3.679   4.096  10.278  0.0121 -0.1589 -0.0716
  145SAPE  H12R15963   3.631   4.082  10.376 -0.9818  0.5305 -0.4495
  145SAPE  C21315964   3.672   3.982  10.183  0.2950  0.1321 -0.4727
  145SAPE  H13R15965   3.744   3.910  10.229  0.6392  0.5908 -0.2834
  145SAPE  H13S15966   3.700   4.009  10.079  0.5491 -2.5093 -1.1774
  145SAPE  C21415967   3.531   3.932  10.196  0.0634 -0.4396  0.0120
  145SAPE  H14R15968   3.461   4.013  10.170  0.3288 -0.2035  0.0242
  145SAPE  C21515969   3.487   3.816  10.242 -0.0122 -0.4357 -0.2917
  145SAPE  H15R15970   3.381   3.798  10.264  0.0106  0.5951  0.7964
  145SAPE  C21615971   3.578   3.703  10.292  0.2122  0.7272  0.1393
  145SAPE  H16R15972   3.673   3.735  10.341  1.9923 -3.2952 -0.3332
  145SAPE  H16S15973   3.617   3.636  10.212 -2.6825 -0.9874  0.0353
  145SAPE  C21715974   3.519   3.615  10.402 -0.2478  0.2583  0.7618
  145SAPE  H17R15975   3.588   3.534  10.434 -1.7236 -0.2928  2.7150
  145SAPE  H17S15976   3.429   3.561  10.364  0.8495 -0.6633 -0.6855
  145SAPE  C21815977   3.468   3.683  10.530  0.3898 -0.8367 -0.5040
  145SAPE  H18R15978   3.383   3.753  10.513  0.9003 -0.6356 -2.3907
  145SAPE  H18S15979   3.549   3.747  10.572 -0.5918 -0.0955  0.3305
  145SAPE  C21915980   3.431   3.587  10.640 -0.2364  0.5351 -0.4409
  145SAPE  H19R15981   3.527   3.542  10.672 -0.4422 -0.2504 -0.9033
  145SAPE  H19S15982   3.380   3.502  10.589  1.1995 -0.0688 -0.8993
  145SAPE  C22015983   3.341   3.628  10.760 -0.1022  0.0714  0.2111
  145SAPE  H20R15984   3.234   3.631  10.730 -0.3788  1.1362  1.1951
  145SAPE  H20S15985   3.379   3.723  10.805  2.5241  0.0356 -1.7120
  145SAPE  H20T15986   3.336   3.553  10.842 -0.1233 -0.4990 -0.3101
  145SAPE   C3315987   4.872   4.141   9.852 -0.2493  0.6605  0.1786
  145SAPE   H3X15988   4.945   4.058   9.862  1.4151  2.2489  2.2673
  145SAPE   H3Y15989   4.915   4.231   9.902  0.9392 -0.2447  0.8571
  145SAPE   C3415990   4.845   4.196   9.714  0.0349 -0.4878 -0.6384
  145SAPE   H4X15991   4.760   4.265   9.734  0.2845 -0.7619  1.6543
  145SAPE   H4Y15992   4.818   4.112   9.647  1.4711 -0.4604 -1.3062
  145SAPE   C3515993   4.966   4.272   9.659  0.3088 -0.4046  0.2408
  145SAPE   H5X15994   5.058   4.212   9.674 -1.0646 -2.5735  0.3746
  145SAPE   H5Y15995   4.987   4.365   9.716  0.2224 -1.0314  1.3163
  145SAPE   C3615996   4.949   4.306   9.511 -0.6215  0.4811  0.0629
  145SAPE   H6X15997   4.973   4.220   9.445 -1.5354  0.5519 -0.3621
  145SAPE   H6Y15998   5.013   4.390   9.475 -1.2023  0.8377 -0.1382
  145SAPE   C3715999   4.804   4.344   9.467 -0.0159  0.0672  0.7333
  145SAPE   H7X16000   4.782   4.442   9.514  2.4701  1.1565 -0.2189
  145SAPE   H7Y16001   4.734   4.262   9.495 -2.1951  1.0860 -1.4260
  145SAPE   C3816002   4.783   4.380   9.318  0.1460  0.1039 -0.2104
  145SAPE   H8X16003   4.833   4.477   9.299 -1.7236  1.4745  1.4850
  145SAPE   H8Y16004   4.677   4.399   9.291  0.3832 -0.8705 -2.0136
  145SAPE   C3916005   4.823   4.273   9.213  0.6253  0.6884 -0.1214
  145SAPE   H9X16006   4.768   4.178   9.233  0.1393  0.5059 -2.1445
  145SAPE   H9Y16007   4.926   4.232   9.221  0.8553  1.2706 -0.0761
  145SAPE  C31016008   4.817   4.313   9.062  0.5163  0.1568 -0.5900
  145SAPE  H10X16009   4.712   4.309   9.026  0.8065 -1.9345 -1.3739
  145SAPE  H10Y16010   4.865   4.228   9.009 -2.3955 -1.1283 -1.3668
  145SAPE  C31116011   4.893   4.440   9.015  1.2509  0.3215  0.3080
  145SAPE  H11X16012   4.997   4.439   9.054  1.2017  0.5084  0.4452
  145SAPE  H11Y16013   4.849   4.531   9.061  0.3730  0.8925 -1.5474
  145SAPE  C31216014   4.895   4.454   8.860  0.7182  0.4086 -0.0744
  145SAPE  H12X16015   4.795   4.490   8.828  1.1616  1.4207 -0.3830
  145SAPE  H12Y16016   4.910   4.347   8.835 -0.9042  0.1981 -0.2555
  145SAPE  C31316017   5.009   4.540   8.799 -0.3595 -0.1279 -0.0582
  145SAPE  H13X16018   5.111   4.499   8.817 -0.2486  0.5053  0.8348
  145SAPE  H13Y16019   4.999   4.639   8.848  0.5934  0.9346 -1.9197
  145SAPE  C31416020   4.992   4.552   8.642 -0.4442 -0.3475  0.3097
  145SAPE  H14X16021   4.894   4.599   8.620  0.6073  0.7699 -2.4945
  145SAPE  H14Y16022   4.993   4.446   8.608  3.0972 -1.4504  3.1463
  145SAPE  C31516023   5.104   4.636   8.576 -0.2515  0.0887 -0.4359
  145SAPE  H15X16024   5.093   4.646   8.466  2.4469  2.9684 -0.5949
  145SAPE  H15Y16025   5.201   4.589   8.602  0.0503  1.2939  0.7691
  145SAPE  C31616026   5.125   4.777   8.638  0.1475  0.2747  0.3165
  145SAPE  H16X16027   5.143   4.773   8.748 -0.0843  0.1814  0.3527
  145SAPE  H16Y16028   5.034   4.842   8.634 -0.4401 -0.6045 -1.7534
  145SAPE  C31716029   5.241   4.847   8.567 -0.0755 -0.3152 -0.4251
  145SAPE  H17X16030   5.229   4.868   8.459  2.0775 -2.6111 -1.2121
  145SAPE  H17Y16031   5.322   4.771   8.569 -0.9113 -1.2237  0.2977
  145SAPE  C31816032   5.289   4.971   8.639 -0.5958 -0.1630 -0.9581
  145SAPE  H18X16033   5.320   4.938   8.741 -0.4029 -1.2459 -1.3466
  145SAPE  H18Y16034   5.205   5.043   8.636  0.0130  0.8154  1.7648
  145SAPE  H18Z16035   5.376   5.014   8.586  0.0868 -0.3760 -0.0499
  146SAPE     N16036   4.809   6.155  11.051  0.4329  0.3510  0.4336
  146SAPE   HN116037   4.827   6.205  11.141  0.1069  1.2204  0.0315
  146SAPE   HN216038   4.898   6.146  10.998 -0.5861  1.0003 -1.5079
  146SAPE   HN316039   4.735   6.212  11.005 -1.0586 -0.2753  1.9363
  146SAPE   C1216040   4.765   6.015  11.061  0.2368  1.6974  0.1659
  146SAPE  H12A16041   4.668   6.008  11.114 -0.1213 -2.0390 -0.7231
  146SAPE  H12B16042   4.835   5.962  11.130 -1.5468 -1.9945 -0.6295
  146SAPE   C1116043   4.767   5.948  10.921 -0.2298  0.8392  0.1356
  146SAPE  H11A16044   4.739   5.841  10.929  0.9829  0.5695  1.1453
  146SAPE  H11B16045   4.871   5.956  10.884  0.3183 -0.7637  1.2242
  146SAPE     P16046   4.713   6.084  10.706 -0.0550 -0.0310 -0.3514
  146SAPE   O1316047   4.597   6.133  10.632 -0.3447 -0.1036  0.2655
  146SAPE   O1416048   4.807   6.187  10.747  0.3911  0.4645 -0.5768
  146SAPE   O1216049   4.673   6.008  10.834 -0.0396 -0.0766  0.0567
  146SAPE   O1116050   4.792   5.974  10.630  0.0662 -0.3184  0.2226
  146SAPE    C116051   4.724   5.860  10.571 -0.3815  0.4600  1.0151
  146SAPE    HA16052   4.695   5.784  10.646 -0.9280 -0.5696 -0.1961
  146SAPE    HB16053   4.622   5.884  10.533  0.5683  1.9336 -0.7760
  146SAPE    C216054   4.809   5.797  10.457 -0.0858  0.1834 -1.0452
  146SAPE    HS16055   4.892   5.740  10.504 -0.1389  0.5629 -0.4629
  146SAPE   O2116056   4.856   5.901  10.374 -0.4692 -0.3272 -0.2758
  146SAPE   C2116057   4.973   5.884  10.308 -0.2414 -0.2949 -0.2836
  146SAPE   O2216058   5.047   5.791  10.319 -0.6307 -0.2341  0.0284
  146SAPE   C2216059   4.989   6.001  10.209 -0.9473 -0.0648 -0.3758
  146SAPE   H2R16060   4.996   6.094  10.269 -2.5885 -0.7737  0.9984
  146SAPE   H2S16061   5.086   5.992  10.155 -0.7049  0.5773 -0.0511
  146SAPE    C316062   4.722   5.706  10.363 -0.5576  0.2874 -0.2586
  146SAPE    HX16063   4.625   5.753  10.336 -1.9641 -2.0913  0.3377
  146SAPE    HY16064   4.694   5.612  10.415 -2.4988 -0.2698 -2.1423
  146SAPE   O3116065   4.780   5.666  10.237  0.2508 -0.3557 -0.2572
  146SAPE   C3116066   4.854   5.553  10.224  0.2942 -1.0281 -0.1085
  146SAPE   O3216067   4.871   5.476  10.316 -0.2659  0.5624  0.6708
  146SAPE   C3216068   4.913   5.534  10.083 -0.3644 -0.3110  0.0838
  146SAPE   H2X16069   4.973   5.440  10.086 -0.2423 -0.2147  1.2476
  146SAPE   H2Y16070   4.971   5.624  10.055 -1.5746 -0.1506 -2.1478
  146SAPE   C2316071   4.880   5.988  10.100  0.0472  0.0620 -0.4892
  146SAPE   H3R16072   4.793   6.048  10.133  0.7818  0.9578 -0.1636
  146SAPE   H3S16073   4.849   5.882  10.087  0.8541 -0.2693  0.2263
  146SAPE   C2416074   4.931   6.038   9.961  1.1857 -0.9697  0.3777
  146SAPE   H4R16075   4.991   6.130   9.979  1.6727 -1.3696  0.8685
  146SAPE   H4S16076   4.842   6.068   9.902  1.1440 -1.0094  0.4214
  146SAPE   C2516077   5.006   5.937   9.879  0.5131  0.2319  0.2859
  146SAPE   H5R16078   5.102   5.906   9.923  0.5845 -0.6642 -0.4733
  146SAPE   C2616079   4.987   5.903   9.751  0.3091 -0.2873 -0.0488
  146SAPE   H6R16080   5.062   5.837   9.705 -0.2540 -0.0990 -1.3016
  146SAPE   C2716081   4.888   5.955   9.654  0.1164 -0.1863 -0.4483
  146SAPE   H7R16082   4.943   5.981   9.561 -0.8927 -0.1147 -1.0380
  146SAPE   H7S16083   4.832   6.044   9.688  2.2000  1.5469 -1.3104
  146SAPE   C2816084   4.787   5.851   9.621  0.0500 -0.4411  0.0238
  146SAPE   H8R16085   4.763   5.782   9.703  0.3671  1.8825  2.2132
  146SAPE   C2916086   4.725   5.831   9.505  0.3427  0.5044 -0.0083
  146SAPE   H9R16087   4.655   5.746   9.508  3.2478 -2.0513  1.0250
  146SAPE  C21016088   4.736   5.895   9.371 -0.0622 -0.0578 -0.3990
  146SAPE  H10R16089   4.788   5.993   9.378  0.7747 -0.5147 -0.1204
  146SAPE  H10S16090   4.633   5.916   9.335 -0.3113  1.4701  1.1193
  146SAPE  C21116091   4.822   5.807   9.288 -0.4205  0.1764  0.1326
  146SAPE  H11R16092   4.907   5.753   9.332  0.0661  1.5242  0.9271
  146SAPE  C21216093   4.800   5.782   9.155  0.0537 -0.1787 -0.5053
  146SAPE  H12R16094   4.857   5.706   9.099  0.3154  0.0406 -0.5405
  146SAPE  C21316095   4.695   5.843   9.072 -0.1921 -0.6658  0.3353
  146SAPE  H13R16096   4.722   5.856   8.965  0.3964  2.7327  0.7961
  146SAPE  H13S16097   4.687   5.951   9.098 -1.7306 -0.4260 -0.9988
  146SAPE  C21416098   4.558   5.770   9.090  0.5436  0.6400  0.2186
  146SAPE  H14R16099   4.509   5.749   9.186  1.6999  0.6981  0.8427
  146SAPE  C21516100   4.492   5.722   8.979  0.3952  0.2339 -0.2703
  146SAPE  H15R16101   4.405   5.658   8.998  0.0113  0.4435 -1.2683
  146SAPE  C21616102   4.526   5.732   8.826 -0.4933  0.2936 -0.1444
  146SAPE  H16R16103   4.559   5.636   8.781 -0.5983  0.7483 -1.2341
  146SAPE  H16S16104   4.609   5.805   8.814 -0.6321  0.3142 -1.0374
  146SAPE  C21716105   4.406   5.788   8.755 -0.0485  0.2991 -0.1281
  146SAPE  H17R16106   4.367   5.875   8.812  1.0479 -0.2755  1.5736
  146SAPE  H17S16107   4.321   5.717   8.756 -0.7949  1.1568  1.5062
  146SAPE  C21816108   4.426   5.833   8.609 -0.1547 -0.5794 -0.0521
  146SAPE  H18R16109   4.409   5.747   8.541  0.5051 -0.4764 -0.3609
  146SAPE  H18S16110   4.527   5.871   8.583 -0.3176 -1.0342 -1.4196
  146SAPE  C21916111   4.320   5.940   8.581 -0.4533  0.4529  0.1864
  146SAPE  H19R16112   4.333   5.971   8.475  1.5799 -1.3798 -0.1747
  146SAPE  H19S16113   4.328   6.026   8.650  1.0038  0.8095 -0.3712
  146SAPE  C22016114   4.175   5.871   8.580  0.2514 -0.6084 -0.3452
  146SAPE  H20R16115   4.187   5.762   8.560  0.9394 -0.5087 -0.4930
  146SAPE  H20S16116   4.102   5.927   8.519  1.9210  1.4713 -0.5518
  146SAPE  H20T16117   4.130   5.870   8.681 -0.5320  1.2234 -0.6388
  146SAPE   C3316118   4.801   5.498   9.975 -0.7366  0.2167 -0.7234
  146SAPE   H3X16119   4.731   5.584   9.963 -2.0376 -0.8315 -0.7397
  146SAPE   H3Y16120   4.763   5.400  10.008  2.0490 -0.9576 -0.7110
  146SAPE   C3416121   4.869   5.500   9.831  0.1767 -0.2370 -0.7599
  146SAPE   H4X16122   4.960   5.437   9.839 -0.0484 -0.3130  2.5447
  146SAPE   H4Y16123   4.896   5.600   9.792 -3.3403  0.6082 -1.3963
  146SAPE   C3516124   4.781   5.444   9.722 -0.0323 -0.7553  0.7378
  146SAPE   H5X16125   4.677   5.484   9.726 -0.6416 -2.2389  0.4311
  146SAPE   H5Y16126   4.768   5.336   9.744  4.8609 -1.1488  2.9833
  146SAPE   C3616127   4.844   5.463   9.577 -0.1693  0.1081  0.0094
  146SAPE   H6X16128   4.951   5.436   9.589 -0.0782 -0.9264 -2.4348
  146SAPE   H6Y16129   4.837   5.569   9.545 -0.4734 -0.0236 -0.3721
  146SAPE   C3716130   4.775   5.380   9.475 -0.3312 -0.0073  0.0003
  146SAPE   H7X16131   4.672   5.416   9.456 -0.4417  1.1077  2.2749
  146SAPE   H7Y16132   4.782   5.273   9.504  0.9317  0.3759  1.2570
  146SAPE   C3816133   4.856   5.382   9.347 -0.0517  0.4600  0.9714
  146SAPE   H8X16134   4.952   5.330   9.369 -0.9763 -2.3799 -1.1103
  146SAPE   H8Y16135   4.863   5.490   9.321 -1.4520  0.0011 -1.7139
  146SAPE   C3916136   4.790   5.300   9.240  0.1322  0.1692  0.5271
  146SAPE   H9X16137   4.793   5.190   9.256 -1.0821 -0.1128 -0.9768
  146SAPE   H9Y16138   4.855   5.302   9.150 -1.2678 -2.9772 -0.6989
  146SAPE  C31016139   4.658   5.346   9.196  0.2493  1.0054 -0.0062
  146SAPE  H10X16140   4.663   5.457   9.189 -0.6041  0.9618 -2.0903
  146SAPE  H10Y16141   4.582   5.326   9.274  1.6658  0.9359  1.4174
  146SAPE  C31116142   4.607   5.298   9.058 -0.2716 -0.2242 -1.2995
  146SAPE  H11X16143   4.580   5.191   9.073 -1.3479  0.2392  0.2999
  146SAPE  H11Y16144   4.680   5.316   8.976  0.6538 -0.4753 -0.5449
  146SAPE  C31216145   4.479   5.361   9.015  0.0029 -0.0733 -0.5630
  146SAPE  H12X16146   4.499   5.464   8.980 -0.4574  0.6189  1.0878
  146SAPE  H12Y16147   4.401   5.374   9.094  1.7927  1.5940  1.0276
  146SAPE  C31316148   4.403   5.269   8.918 -0.1043  0.3589 -0.1157
  146SAPE  H13X16149   4.304   5.314   8.900 -0.7253 -0.6139  0.7963
  146SAPE  H13Y16150   4.384   5.169   8.963  1.0493  0.1415 -0.0670
  146SAPE  C31416151   4.467   5.243   8.782 -0.2753  0.1931  0.1036
  146SAPE  H14X16152   4.436   5.143   8.745  1.3545 -1.4089  2.6851
  146SAPE  H14Y16153   4.577   5.243   8.799 -0.1612 -0.9295 -0.5625
  146SAPE  C31516154   4.435   5.354   8.681 -0.4353 -0.6687 -0.5518
  146SAPE  H15X16155   4.486   5.445   8.720  0.5873 -1.4060 -0.1289
  146SAPE  H15Y16156   4.324   5.360   8.681 -0.3711  3.7755 -1.3780
  146SAPE  C31616157   4.486   5.331   8.536 -0.1995 -0.1061  0.4206
  146SAPE  H16X16158   4.469   5.225   8.507  0.5356 -0.0732 -0.1472
  146SAPE  H16Y16159   4.595   5.346   8.528 -0.3040  1.1610  1.1806
  146SAPE  C31716160   4.404   5.404   8.421  0.5146 -0.6990  0.2831
  146SAPE  H17X16161   4.418   5.514   8.430 -0.3091 -0.3200 -2.2512
  146SAPE  H17Y16162   4.294   5.390   8.431  0.3736  0.6529  0.9297
  146SAPE  C31816163   4.447   5.360   8.283  0.3067  0.4355 -0.4381
  146SAPE  H18X16164   4.417   5.436   8.208  1.1748 -0.7291 -1.9981
  146SAPE  H18Y16165   4.390   5.273   8.245  0.8642 -0.3972  0.5788
  146SAPE  H18Z16166   4.555   5.337   8.276  0.0396 -2.9745  3.0648
  147SAPE     N16167   5.259   6.677  10.782  0.0298 -0.2264  0.2642
  147SAPE   HN116168   5.337   6.638  10.839 -0.4375 -1.1538  0.2856
  147SAPE   HN216169   5.176   6.617  10.801 -0.0089  0.0937  1.1884
  147SAPE   HN316170   5.278   6.684  10.680 -3.2500 -1.0119 -0.4982
  147SAPE   C1216171   5.233   6.821  10.815 -0.3044  0.0431  0.5225
  147SAPE  H12A16172   5.298   6.884  10.750 -0.4939 -2.3422 -2.1609
  147SAPE  H12B16173   5.264   6.831  10.921  0.6390 -0.9006  0.3506
  147SAPE   C1116174   5.080   6.857  10.812  0.2434  0.0469  0.4732
  147SAPE  H11A16175   5.036   6.837  10.712  1.6032 -0.7541  0.0133
  147SAPE  H11B16176   5.080   6.967  10.833 -0.1747  0.6082 -2.1290
  147SAPE     P16177   4.876   6.822  10.972 -0.3841  0.6598  0.0888
  147SAPE   O1316178   4.854   6.742  11.096  0.5243 -0.5445  0.1715
  147SAPE   O1416179   4.867   6.968  10.972 -0.8626 -0.5837  0.2339
  147SAPE   O1216180   5.015   6.778  10.909  0.8645 -0.2154  0.2460
  147SAPE   O1116181   4.771   6.776  10.865  0.5218  0.1106  0.0938
  147SAPE    C116182   4.764   6.640  10.808  0.5579 -0.2216 -0.6480
  147SAPE    HA16183   4.837   6.566  10.848 -1.9636 -2.1521  0.7138
  147SAPE    HB16184   4.664   6.595  10.826 -0.4050  1.6295 -1.1398
  147SAPE    C216185   4.782   6.642  10.650  0.0411 -0.2769 -0.6137
  147SAPE    HS16186   4.882   6.682  10.622 -0.1438  0.0700 -0.7783
  147SAPE   O2116187   4.669   6.717  10.602 -0.9768  1.3255 -0.1742
  147SAPE   C2116188   4.697   6.772  10.484  0.1346  0.7670  0.0202
  147SAPE   O2216189   4.812   6.785  10.439  0.1385 -0.4167  0.0661
  147SAPE   C2216190   4.576   6.833  10.425  0.5536  0.3118 -0.3410
  147SAPE   H2R16191   4.498   6.754  10.426  0.6141  0.2512 -0.3351
  147SAPE   H2S16192   4.547   6.916  10.492 -1.0025 -0.5479  0.0993
  147SAPE    C316193   4.774   6.490  10.601 -0.3023 -0.1908  0.0447
  147SAPE    HX16194   4.682   6.442  10.640 -0.4702 -1.2084 -1.4841
  147SAPE    HY16195   4.851   6.436  10.660  0.2551 -3.3958 -3.2227
  147SAPE   O3116196   4.805   6.480  10.459  0.1114  0.3994  0.0516
  147SAPE   C3116197   4.705   6.442  10.387 -0.2235 -0.3699  0.6846
  147SAPE   O3216198   4.593   6.438  10.431 -0.3535 -0.1197 -0.0060
  147SAPE   C3216199   4.753   6.386  10.248 -0.1811 -0.5879  0.7014
  147SAPE   H2X16200   4.678   6.311  10.216 -0.7837  0.0719  0.5417
  147SAPE   H2Y16201   4.845   6.324  10.254  0.0785 -0.4988 -1.6748
  147SAPE   C2316202   4.597   6.888  10.279 -0.1040 -0.0139  0.0049
  147SAPE   H3R16203   4.652   6.804  10.232 -1.7575 -0.9593 -0.3212
  147SAPE   H3S16204   4.659   6.979  10.292  0.5560 -0.3083 -0.9682
  147SAPE   C2416205   4.475   6.911  10.201 -0.1110 -0.9182 -0.5963
  147SAPE   H4R16206   4.404   6.826  10.203 -2.0789  0.6269  1.8402
  147SAPE   H4S16207   4.497   6.941  10.096 -0.7126 -3.0427 -1.3850
  147SAPE   C2516208   4.395   7.022  10.264 -0.0982 -0.0038  0.1874
  147SAPE   H5R16209   4.417   7.032  10.371 -1.0235  1.4652  0.2708
  147SAPE   C2616210   4.310   7.109  10.205  0.2727  0.5166  0.4449
  147SAPE   H6R16211   4.266   7.186  10.271 -0.3621  0.3584  0.2157
  147SAPE   C2716212   4.266   7.111  10.061  0.1785  0.7784 -0.1304
  147SAPE   H7R16213   4.157   7.129  10.058  0.1844  0.7544 -0.5629
  147SAPE   H7S16214   4.285   7.009  10.021  1.2477  0.9191 -0.0254
  147SAPE   C2816215   4.343   7.220   9.982 -0.3182 -0.6737 -1.1571
  147SAPE   H8R16216   4.370   7.306  10.045 -0.3696 -0.3518 -1.5710
  147SAPE   C2916217   4.355   7.235   9.852 -0.8312 -0.2317  0.6277
  147SAPE   H9R16218   4.413   7.324   9.826  0.0101 -0.9926 -0.1764
  147SAPE  C21016219   4.322   7.146   9.738  0.2523  0.0204  0.5653
  147SAPE  H10R16220   4.311   7.047   9.788  0.0761  0.4487  1.3830
  147SAPE  H10S16221   4.400   7.143   9.659 -0.0220 -0.3378  0.2970
  147SAPE  C21116222   4.190   7.202   9.690  0.0465 -0.5852  0.2052
  147SAPE  H11R16223   4.120   7.247   9.762  0.2927  1.5603 -0.8205
  147SAPE  C21216224   4.160   7.217   9.556  0.2696 -0.7775 -0.1586
  147SAPE  H12R16225   4.066   7.269   9.533 -1.4108 -2.7814  1.7824
  147SAPE  C21316226   4.250   7.182   9.437  0.2046  0.1706  0.1221
  147SAPE  H13R16227   4.181   7.189   9.351  0.8652 -1.5325 -0.5999
  147SAPE  H13S16228   4.291   7.079   9.448 -0.4319  0.0342  1.3462
  147SAPE  C21416229   4.366   7.275   9.411  0.0003  0.7311 -0.5930
  147SAPE  H14R16230   4.400   7.327   9.502  1.5965 -1.1569 -0.0695
  147SAPE  C21516231   4.418   7.311   9.293  0.0188 -0.2866  0.4506
  147SAPE  H15R16232   4.497   7.387   9.291 -0.5425  0.3019 -1.5715
  147SAPE  C21616233   4.371   7.255   9.166 -0.0720 -0.7341 -0.1330
  147SAPE  H16R16234   4.318   7.332   9.106 -1.6281 -1.1834  0.6049
  147SAPE  H16S16235   4.303   7.167   9.172 -0.9647 -0.2155 -1.8998
  147SAPE  C21716236   4.492   7.218   9.072 -0.7440  0.1100 -0.5177
  147SAPE  H17R16237   4.528   7.122   9.116 -2.3539  0.1963  1.1246
  147SAPE  H17S16238   4.570   7.297   9.065 -0.7323  0.1684  0.1673
  147SAPE  C21816239   4.445   7.198   8.922 -0.1619  0.5783 -0.2762
  147SAPE  H18R16240   4.385   7.287   8.892 -2.5515 -1.2802 -1.3097
  147SAPE  H18S16241   4.376   7.112   8.915  1.6740 -1.0424  0.4946
  147SAPE  C21916242   4.560   7.192   8.820 -0.2268 -0.2475 -0.3630
  147SAPE  H19R16243   4.617   7.288   8.818  0.4105 -0.6218 -1.7267
  147SAPE  H19S16244   4.517   7.185   8.718  1.6761  1.4477 -1.3765
  147SAPE  C22016245   4.641   7.058   8.842 -0.1549 -0.1327  0.4160
  147SAPE  H20R16246   4.570   6.973   8.830  1.1595 -1.0526 -1.4351
  147SAPE  H20S16247   4.680   7.064   8.945  0.2225  1.7847  0.2066
  147SAPE  H20T16248   4.725   7.036   8.773  0.4850  0.5345  0.9697
  147SAPE   C3316249   4.769   6.493  10.145 -0.1135 -0.0104  0.5068
  147SAPE   H3X16250   4.837   6.570  10.186  1.0996 -0.0200 -1.3563
  147SAPE   H3Y16251   4.673   6.544  10.121  0.0875  1.0913  1.9032
  147SAPE   C3416252   4.822   6.442  10.011 -0.0144 -1.1230 -0.3094
  147SAPE   H4X16253   4.749   6.365   9.978 -0.3940  0.2189 -2.9159
  147SAPE   H4Y16254   4.920   6.395  10.029 -0.1840 -0.7338  1.9072
  147SAPE   C3516255   4.829   6.556   9.909  0.2663  0.7015 -0.7246
  147SAPE   H5X16256   4.889   6.640   9.950  2.5103 -0.4198 -1.5321
  147SAPE   H5Y16257   4.721   6.579   9.894  0.4369  0.5568 -2.3848
  147SAPE   C3616258   4.889   6.521   9.772  0.0834 -0.1517 -0.5458
  147SAPE   H6X16259   4.988   6.474   9.793 -0.1340 -0.8531 -1.0795
  147SAPE   H6Y16260   4.897   6.623   9.728 -1.2525  0.5507  0.7557
  147SAPE   C3716261   4.820   6.411   9.685  0.8703 -1.0953 -0.2928
  147SAPE   H7X16262   4.711   6.431   9.678  0.8390 -0.7846  0.8677
  147SAPE   H7Y16263   4.824   6.323   9.752 -0.2325 -1.2367 -0.3975
  147SAPE   C3816264   4.887   6.376   9.548 -0.1555  0.0889  0.1669
  147SAPE   H8X16265   4.869   6.268   9.532 -2.5316  0.6596 -1.5315
  147SAPE   H8Y16266   4.997   6.387   9.560 -0.4739  1.8185  2.0209
  147SAPE   C3916267   4.827   6.462   9.437  0.1862 -0.5493  0.3803
  147SAPE   H9X16268   4.852   6.569   9.457  1.4795 -0.4753 -1.3989
  147SAPE   H9Y16269   4.716   6.459   9.437  0.0542  1.9073  1.3319
  147SAPE  C31016270   4.872   6.408   9.297 -0.6926 -0.4374  0.5353
  147SAPE  H10X16271   4.860   6.299   9.284  1.3634 -0.5985 -0.3606
  147SAPE  H10Y16272   4.980   6.436   9.293 -0.7147  0.2267  2.9803
  147SAPE  C31116273   4.801   6.485   9.188  0.3969 -1.0689  0.5126
  147SAPE  H11X16274   4.781   6.592   9.212  0.7368 -1.2323  1.6071
  147SAPE  H11Y16275   4.703   6.447   9.154 -2.3434  3.5243  2.3101
  147SAPE  C31216276   4.896   6.496   9.057 -0.3605 -0.0019 -0.3618
  147SAPE  H12X16277   4.998   6.531   9.081  0.2968 -2.0156 -0.0455
  147SAPE  H12Y16278   4.856   6.569   8.982 -0.1898  0.6111  0.1303
  147SAPE  C31316279   4.921   6.364   8.991  0.4916  0.3999  0.1581
  147SAPE  H13X16280   4.823   6.312   8.985  0.9597 -0.6130  0.9302
  147SAPE  H13Y16281   4.998   6.311   9.051 -0.9733 -0.5370  1.3009
  147SAPE  C31416282   4.963   6.368   8.852 -0.3824 -0.0027  0.2228
  147SAPE  H14X16283   5.060   6.421   8.855 -1.3601  1.9360 -0.5737
  147SAPE  H14Y16284   4.890   6.431   8.796 -1.2652 -0.6668  0.5988
  147SAPE  C31516285   4.993   6.243   8.770  0.3317 -0.0003 -1.0652
  147SAPE  H15X16286   5.051   6.168   8.829 -0.7717  0.0869  0.1770
  147SAPE  H15Y16287   5.049   6.257   8.676 -0.8382 -2.8491 -2.3257
  147SAPE  C31616288   4.860   6.177   8.719  0.6402 -0.4094 -0.1735
  147SAPE  H16X16289   4.797   6.259   8.679 -0.8224 -0.8166  1.1977
  147SAPE  H16Y16290   4.809   6.129   8.805  1.0656  1.0605  0.9254
  147SAPE  C31716291   4.884   6.073   8.605 -0.0468 -0.3008  0.1466
  147SAPE  H17X16292   4.915   5.971   8.636 -1.0185 -1.0452 -1.2234
  147SAPE  H17Y16293   4.982   6.108   8.565 -0.2904  0.1414 -0.0572
  147SAPE  C31816294   4.777   6.064   8.492 -0.1053 -0.8825  0.3834
  147SAPE  H18X16295   4.733   6.163   8.468  2.7985  0.1271 -1.2280
  147SAPE  H18Y16296   4.693   6.005   8.534 -1.3170 -0.3598 -1.2020
  147SAPE  H18Z16297   4.819   6.019   8.399  0.6146 -0.0282  0.2847
  148SAPE     N16298   4.749   2.133  10.586  0.3375  0.2136  0.0530
  148SAPE   HN116299   4.832   2.075  10.607  0.2569 -0.7779 -2.1007
  148SAPE   HN216300   4.707   2.185  10.666 -3.1670  0.5838 -1.8048
  148SAPE   HN316301   4.666   2.087  10.543  0.2071  1.4711 -1.1164
  148SAPE   C1216302   4.780   2.229  10.476 -0.3018 -0.0097 -0.2706
  148SAPE  H12A16303   4.837   2.178  10.396  0.1213 -0.7129  0.4639
  148SAPE  H12B16304   4.843   2.308  10.523  1.6990 -1.5565 -0.2274
  148SAPE   C1116305   4.654   2.296  10.428  0.6598  0.3525 -0.4521
  148SAPE  H11A16306   4.581   2.225  10.384 -0.4966 -0.0110  1.9228
  148SAPE  H11B16307   4.681   2.371  10.350  0.9812 -0.2112 -0.8841
  148SAPE     P16308   4.457   2.451  10.519  0.0245  0.3295 -0.2366
  148SAPE   O1316309   4.346   2.355  10.538 -0.0843 -0.3166  0.5624
  148SAPE   O1416310   4.460   2.575  10.603  0.3001  0.4403  0.3073
  148SAPE   O1216311   4.591   2.364  10.538 -0.8946 -0.2163  0.4515
  148SAPE   O1116312   4.468   2.495  10.377  0.7553 -0.4288 -0.1013
  148SAPE    C116313   4.559   2.593  10.335  0.2853 -0.1314  0.2705
  148SAPE    HA16314   4.656   2.592  10.390  0.4088 -1.3611  0.0536
  148SAPE    HB16315   4.587   2.583  10.228  0.9505  1.4533  0.2721
  148SAPE    C216316   4.504   2.738  10.337  0.1974  0.3594  0.6734
  148SAPE    HS16317   4.489   2.768  10.443 -0.5088  1.7351  0.2149
  148SAPE   O2116318   4.379   2.737  10.266  0.4950 -0.5280  0.1963
  148SAPE   C2116319   4.303   2.841  10.278  0.6948  0.2150 -0.8131
  148SAPE   O2216320   4.316   2.938  10.351 -0.1658  0.2223 -0.2262
  148SAPE   C2216321   4.190   2.822  10.174 -0.1452  0.3168 -0.6053
  148SAPE   H2R16322   4.245   2.809  10.078 -0.6588 -1.2319 -0.7250
  148SAPE   H2S16323   4.123   2.734  10.191 -1.3791  1.4606  0.6945
  148SAPE    C316324   4.608   2.840  10.286  0.4357  0.3415  0.0695
  148SAPE    HX16325   4.701   2.838  10.347  1.8148  1.2154 -1.8879
  148SAPE    HY16326   4.569   2.943  10.299  0.1598  0.0635  1.6548
  148SAPE   O3116327   4.646   2.825  10.147 -0.0294 -0.0230  0.8058
  148SAPE   C3116328   4.573   2.878  10.046 -0.0187 -0.7584 -0.4187
  148SAPE   O3216329   4.462   2.918  10.056  0.1114 -0.0523  0.1935
  148SAPE   C3216330   4.638   2.880   9.912 -0.4010 -0.1547  0.1490
  148SAPE   H2X16331   4.638   2.773   9.882  3.0385 -0.0865 -0.5065
  148SAPE   H2Y16332   4.745   2.908   9.922 -0.6856  1.3549 -0.6820
  148SAPE   C2316333   4.094   2.942  10.177  0.2953  0.3807  0.7945
  148SAPE   H3R16334   4.147   3.040  10.170  1.3451  0.0155  2.7753
  148SAPE   H3S16335   4.036   2.938  10.272 -1.4614 -0.8219 -0.2940
  148SAPE   C2416336   3.991   2.943  10.060  0.2499  0.2024  0.0577
  148SAPE   H4R16337   3.957   2.837  10.063  0.8299  0.0364  1.2687
  148SAPE   H4S16338   4.037   2.964   9.961  0.4389  1.3881  0.3863
  148SAPE   C2516339   3.875   3.031  10.099  0.5539 -0.3773  0.3670
  148SAPE   H5R16340   3.831   3.023  10.199 -1.7340 -3.2092 -0.7054
  148SAPE   C2616341   3.823   3.116  10.007 -0.2317  0.4171  0.4938
  148SAPE   H6R16342   3.737   3.182  10.025  1.0126  2.2756 -0.0489
  148SAPE   C2716343   3.872   3.147   9.869 -0.2234  0.0491 -0.5626
  148SAPE   H7R16344   3.983   3.157   9.871 -0.2428  0.5146  2.2057
  148SAPE   H7S16345   3.833   3.248   9.841 -0.1714 -0.0026 -0.8214
  148SAPE   C2816346   3.830   3.038   9.772 -0.2455 -0.3248 -0.3976
  148SAPE   H8R16347   3.737   2.985   9.797 -0.5966  0.6928  0.4994
  148SAPE   C2916348   3.883   3.020   9.656  0.1667 -0.3220  0.2374
  148SAPE   H9R16349   3.839   2.948   9.585 -0.2514  2.3449 -2.4168
  148SAPE  C21016350   4.001   3.106   9.610  0.0414  0.0596 -0.6642
  148SAPE  H10R16351   4.083   3.116   9.684  2.9950 -1.2350 -3.5269
  148SAPE  H10S16352   3.956   3.207   9.604 -0.6823  0.0253  2.6210
  148SAPE  C21116353   4.062   3.069   9.474 -0.0337  0.3419  0.1027
  148SAPE  H11R16354   4.155   3.011   9.485 -0.7088 -0.4390  2.2182
  148SAPE  C21216355   4.013   3.085   9.347 -0.6124 -0.2062 -0.4019
  148SAPE  H12R16356   4.083   3.053   9.268  0.1245  0.7730 -0.1770
  148SAPE  C21316357   3.883   3.152   9.315  0.3494 -0.5660 -0.5137
  148SAPE  H13R16358   3.898   3.224   9.231 -1.4476  0.7074  0.1827
  148SAPE  H13S16359   3.845   3.219   9.396 -0.2989 -0.4285 -0.9274
  148SAPE  C21416360   3.771   3.057   9.288 -0.0229  0.2692 -0.7007
  148SAPE  H14R16361   3.707   3.035   9.375 -1.4652 -0.3915 -1.8823
  148SAPE  C21516362   3.738   3.010   9.170 -0.4975  0.3497 -0.6188
  148SAPE  H15R16363   3.650   2.946   9.152  0.1767 -1.5047  2.1252
  148SAPE  C21616364   3.808   3.033   9.042  0.0141  0.7546  0.2012
  148SAPE  H16R16365   3.875   2.950   9.010 -0.2612  1.0725 -1.3056
  148SAPE  H16S16366   3.890   3.107   9.056  1.9530 -1.4402  1.0545
  148SAPE  C21716367   3.720   3.066   8.913 -0.0943  0.4187 -0.5554
  148SAPE  H17R16368   3.682   3.171   8.914 -0.4482  0.2894  0.5149
  148SAPE  H17S16369   3.638   2.994   8.932  1.5918 -0.6090  3.8848
  148SAPE  C21816370   3.796   3.044   8.781 -0.3962 -0.4727  0.2920
  148SAPE  H18R16371   3.819   2.935   8.784 -0.1716 -0.4486 -0.5316
  148SAPE  H18S16372   3.893   3.098   8.787 -0.8880  0.9170 -2.7415
  148SAPE  C21916373   3.708   3.073   8.659  0.3813 -0.9378 -0.2005
  148SAPE  H19R16374   3.602   3.045   8.676 -0.3124  1.5265 -0.0914
  148SAPE  H19S16375   3.729   3.011   8.569  1.4453  1.4940 -1.7237
  148SAPE  C22016376   3.724   3.223   8.622  0.4504  0.1612 -0.7235
  148SAPE  H20R16377   3.723   3.297   8.705  1.8130  0.3457 -0.8562
  148SAPE  H20S16378   3.667   3.259   8.534  0.7115 -0.4873 -1.1638
  148SAPE  H20T16379   3.833   3.225   8.600  1.1021 -0.2940  2.0141
  148SAPE   C3316380   4.559   2.962   9.802  0.2429  0.0974  0.4190
  148SAPE   H3X16381   4.555   3.071   9.822  0.0071  0.3115 -0.7289
  148SAPE   H3Y16382   4.453   2.929   9.799  0.4674 -0.5729 -0.6369
  148SAPE   C3416383   4.619   2.951   9.663 -0.0851 -0.6578  0.1866
  148SAPE   H4X16384   4.597   2.847   9.631  1.8043 -1.0785  0.1699
  148SAPE   H4Y16385   4.727   2.976   9.652 -0.5144  0.5263 -2.1586
  148SAPE   C3516386   4.542   3.048   9.572  0.4361 -0.6213  0.3002
  148SAPE   H5X16387   4.563   3.155   9.597  1.4069 -0.5916 -0.6062
  148SAPE   H5Y16388   4.433   3.046   9.591  0.1267 -1.2102 -1.4262
  148SAPE   C3616389   4.578   3.028   9.418  1.0378 -0.7921 -0.7041
  148SAPE   H6X16390   4.537   2.925   9.405  1.2420 -1.1724  1.2720
  148SAPE   H6Y16391   4.687   3.032   9.396  1.4101  0.3478  1.1311
  148SAPE   C3716392   4.497   3.132   9.327 -0.5604 -0.0822  0.3074
  148SAPE   H7X16393   4.503   3.239   9.359  2.7971 -0.4256  1.1691
  148SAPE   H7Y16394   4.389   3.107   9.327 -0.2018 -1.7648 -0.7805
  148SAPE   C3816395   4.545   3.128   9.177  0.1252  0.0983 -0.3087
  148SAPE   H8X16396   4.514   3.029   9.137  0.1852 -1.4082  2.9766
  148SAPE   H8Y16397   4.656   3.121   9.179  0.2131  1.3565  0.3827
  148SAPE   C3916398   4.499   3.245   9.089  0.0753 -0.0926 -0.2199
  148SAPE   H9X16399   4.564   3.331   9.118 -0.3286 -0.3846  1.6784
  148SAPE   H9Y16400   4.394   3.270   9.115 -0.1434  1.6165 -2.4436
  148SAPE  C31016401   4.498   3.210   8.934 -0.0677 -0.1070  0.0315
  148SAPE  H10X16402   4.568   3.129   8.902 -0.1147  0.1397 -0.7164
  148SAPE  H10Y16403   4.531   3.306   8.888  0.8434  0.8777  2.5584
  148SAPE  C31116404   4.355   3.172   8.875 -1.2864  0.6388 -0.5332
  148SAPE  H11X16405   4.281   3.238   8.925 -0.3562 -0.5366  2.6501
  148SAPE  H11Y16406   4.335   3.065   8.900  3.1669  0.2586  2.4306
  148SAPE  C31216407   4.350   3.195   8.723  0.4217  0.1706 -0.1536
  148SAPE  H12X16408   4.364   3.303   8.697 -0.6150  0.3070 -0.1555
  148SAPE  H12Y16409   4.250   3.172   8.682  0.0798 -0.7119  1.1330
  148SAPE  C31316410   4.463   3.131   8.647 -0.3929 -0.4487  0.1293
  148SAPE  H13X16411   4.468   3.027   8.686 -0.0188 -1.3417 -2.1536
  148SAPE  H13Y16412   4.563   3.178   8.663 -1.2379  0.9216  1.6089
  148SAPE  C31416413   4.428   3.117   8.496 -0.5321 -0.2578  0.0254
  148SAPE  H14X16414   4.415   3.219   8.454 -1.1821 -0.8080 -1.1717
  148SAPE  H14Y16415   4.330   3.065   8.483 -0.8127  0.5241 -1.1233
  148SAPE  C31516416   4.539   3.048   8.420  0.5080  0.0841  0.6320
  148SAPE  H15X16417   4.573   2.963   8.482  0.4661  0.0244  0.5732
  148SAPE  H15Y16418   4.621   3.124   8.417 -0.2639  0.9006 -0.4417
  148SAPE  C31616419   4.520   2.988   8.272  0.2841  0.9292  0.3677
  148SAPE  H16X16420   4.442   2.911   8.287  0.3767  0.9986  1.2304
  148SAPE  H16Y16421   4.616   2.938   8.244  0.1310  0.2829  0.9671
  148SAPE  C31716422   4.480   3.092   8.164 -0.1290 -0.2109 -0.1301
  148SAPE  H17X16423   4.574   3.142   8.134  1.1012 -1.9459  0.6866
  148SAPE  H17Y16424   4.405   3.164   8.201 -0.2771 -0.6906  0.5274
  148SAPE  C31816425   4.426   3.009   8.036 -0.7420 -0.3484 -0.2018
  148SAPE  H18X16426   4.359   2.925   8.062  1.1988 -1.7886  0.3670
  148SAPE  H18Y16427   4.515   2.963   7.988 -1.5171 -0.4027 -1.6497
  148SAPE  H18Z16428   4.375   3.068   7.957 -0.6317 -0.7761 -0.5948
  149SAPE     N16429   3.194   5.035  11.188 -0.4512 -0.3492  0.0568
  149SAPE   HN116430   3.226   4.941  11.220  0.0694  0.1484  1.0351
  149SAPE   HN216431   3.272   5.101  11.207  0.5006 -1.3669 -0.2225
  149SAPE   HN316432   3.113   5.074  11.241 -1.5432 -0.8461 -1.1823
  149SAPE   C1216433   3.162   5.023  11.044  0.1839  0.2300 -0.7350
  149SAPE  H12A16434   3.068   4.966  11.026  1.6811 -1.4635 -4.0011
  149SAPE  H12B16435   3.247   4.969  10.998 -0.3577 -1.9840  0.7393
  149SAPE   C1116436   3.158   5.166  10.975 -0.1499 -0.2463  0.0867
  149SAPE  H11A16437   3.142   5.151  10.866  0.5851  0.5316 -0.1435
  149SAPE  H11B16438   3.257   5.218  10.972  1.7927 -3.6683 -0.5805
  149SAPE     P16439   2.928   5.295  10.961  0.7409  0.1595 -0.0772
  149SAPE   O1316440   2.843   5.174  10.961  0.6291 -0.4812 -0.0845
  149SAPE   O1416441   2.867   5.406  11.034  0.0019 -0.6788  0.5315
  149SAPE   O1216442   3.060   5.257  11.035 -0.2781  0.8206 -0.1431
  149SAPE   O1116443   2.972   5.333  10.814  0.6228  0.8283 -0.8207
  149SAPE    C116444   3.049   5.447  10.801  0.0147  0.2542  0.3041
  149SAPE    HA16445   3.000   5.536  10.847 -4.3191 -1.4329 -0.5119
  149SAPE    HB16446   3.151   5.426  10.840  0.2557 -0.1429 -0.5238
  149SAPE    C216447   3.065   5.474  10.641 -0.0841  0.8421 -0.2676
  149SAPE    HS16448   3.111   5.573  10.620  1.1172  0.3981  0.2166
  149SAPE   O2116449   2.930   5.476  10.579 -0.2787 -0.4881  0.3322
  149SAPE   C2116450   2.854   5.575  10.615 -0.9244 -0.4327 -0.2389
  149SAPE   O2216451   2.889   5.669  10.690  0.1664  0.0726  0.6303
  149SAPE   C2216452   2.715   5.564  10.548  0.6420 -0.0583 -0.1200
  149SAPE   H2R16453   2.704   5.473  10.484  0.2767 -1.4999  1.8757
  149SAPE   H2S16454   2.635   5.557  10.625 -0.4981  0.4161 -1.2204
  149SAPE    C316455   3.148   5.363  10.563 -0.2848 -0.1998 -0.4557
  149SAPE    HX16456   3.110   5.259  10.573  1.1150 -0.7370 -0.5026
  149SAPE    HY16457   3.248   5.374  10.610 -1.0244 -2.2696  1.8030
  149SAPE   O3116458   3.162   5.394  10.421  0.0506 -0.5422  0.4073
  149SAPE   C3116459   3.062   5.345  10.342  1.0299 -0.4116 -0.0446
  149SAPE   O3216460   2.962   5.286  10.384 -0.5672  0.5669  0.0030
  149SAPE   C3216461   3.102   5.385  10.194  0.0105  0.6088 -0.2659
  149SAPE   H2X16462   3.203   5.347  10.166  1.3556  3.8434 -0.2000
  149SAPE   H2Y16463   3.110   5.495  10.182 -1.8018  0.6566 -1.4425
  149SAPE   C2316464   2.690   5.685  10.449  0.0466 -0.1561  0.5168
  149SAPE   H3R16465   2.715   5.783  10.494 -0.7947  0.1219  0.3949
  149SAPE   H3S16466   2.581   5.688  10.426  0.1141 -0.3283  0.1730
  149SAPE   C2416467   2.775   5.665  10.319  0.3235 -0.1345 -0.7654
  149SAPE   H4R16468   2.715   5.711  10.238 -0.3147  1.4169  0.5298
  149SAPE   H4S16469   2.789   5.556  10.299  2.0302  0.2058 -1.5937
  149SAPE   C2516470   2.910   5.739  10.321  0.2037  0.2060  0.3047
  149SAPE   H5R16471   2.950   5.769  10.419  2.2471  0.3545 -0.5245
  149SAPE   C2616472   2.992   5.762  10.213  0.6959 -0.4537  0.9219
  149SAPE   H6R16473   3.085   5.818  10.227  1.1769 -0.6337 -1.1893
  149SAPE   C2716474   2.962   5.705  10.076  0.4861 -0.1101  0.0114
  149SAPE   H7R16475   2.916   5.607  10.097  0.8892 -0.0265  1.3422
  149SAPE   H7S16476   3.060   5.683  10.027 -0.5759 -3.5317 -0.8571
  149SAPE   C2816477   2.884   5.793   9.987  0.2062 -0.5733 -0.0915
  149SAPE   H8R16478   2.822   5.851  10.057  0.1789  1.1862 -1.5215
  149SAPE   C2916479   2.893   5.796   9.850  0.0264 -0.3087 -0.2981
  149SAPE   H9R16480   2.821   5.868   9.809 -1.5607 -0.5551  1.8774
  149SAPE  C21016481   2.985   5.711   9.759  0.6895 -0.1617  0.1488
  149SAPE  H10R16482   2.917   5.654   9.692 -2.1839  2.2765  0.7480
  149SAPE  H10S16483   3.050   5.642   9.817  0.3249 -0.7350 -0.1189
  149SAPE  C21116484   3.077   5.801   9.679 -0.0029  0.2039  0.1648
  149SAPE  H11R16485   3.146   5.859   9.743  1.1537 -0.8008 -0.1300
  149SAPE  C21216486   3.085   5.795   9.547 -0.5041 -0.2018  0.0161
  149SAPE  H12R16487   3.157   5.862   9.497 -0.6365 -0.9016 -1.1448
  149SAPE  C21316488   3.012   5.705   9.453 -0.0677  0.4928  0.3708
  149SAPE  H13R16489   2.934   5.756   9.393  0.4653 -1.3635 -2.0773
  149SAPE  H13S16490   2.962   5.621   9.507  0.0658 -1.4539 -2.3463
  149SAPE  C21416491   3.116   5.632   9.368 -0.9105  0.8802  0.2958
  149SAPE  H14R16492   3.190   5.577   9.429 -1.0515  1.3766  0.9259
  149SAPE  C21516493   3.116   5.612   9.242 -1.0556  0.0157 -0.7654
  149SAPE  H15R16494   3.209   5.569   9.201 -0.7240  0.7566 -0.8041
  149SAPE  C21616495   3.029   5.680   9.145  0.9061 -0.1310  0.0490
  149SAPE  H16R16496   2.995   5.781   9.178 -1.0861 -0.0905 -1.9013
  149SAPE  H16S16497   2.936   5.626   9.119  1.8361 -1.3241 -0.9405
  149SAPE  C21716498   3.094   5.701   9.002 -0.1492 -0.2222 -0.5971
  149SAPE  H17R16499   3.002   5.723   8.945 -2.0770 -1.9823  1.6104
  149SAPE  H17S16500   3.134   5.605   8.963  1.1946  0.2139 -0.3840
  149SAPE  C21816501   3.192   5.809   8.998 -0.6457 -0.0698 -0.4259
  149SAPE  H18R16502   3.268   5.782   9.075  0.9017 -0.6455 -2.0716
  149SAPE  H18S16503   3.141   5.903   9.028 -4.1020 -1.6996 -0.7745
  149SAPE  C21916504   3.260   5.832   8.856 -0.4900  0.1754  0.5731
  149SAPE  H19R16505   3.291   5.738   8.807 -3.3376  0.6256 -2.4123
  149SAPE  H19S16506   3.347   5.895   8.885  0.7125 -1.6404  1.0369
  149SAPE  C22016507   3.163   5.902   8.757 -0.9260 -0.5778  0.4335
  149SAPE  H20R16508   3.061   5.860   8.741 -1.0181 -0.3863  0.5146
  149SAPE  H20S16509   3.210   5.906   8.656 -0.8036 -0.7503  0.4832
  149SAPE  H20T16510   3.148   6.009   8.782 -1.1804 -0.9951  2.1810
  149SAPE   C3316511   2.998   5.331  10.095 -0.4480  0.4447 -0.6903
  149SAPE   H3X16512   2.898   5.371  10.121 -0.0968  0.3886  0.8594
  149SAPE   H3Y16513   2.992   5.220  10.109  0.5988  0.3325 -1.0344
  149SAPE   C3416514   3.029   5.368   9.951 -0.1793 -0.0934 -0.7829
  149SAPE   H4X16515   3.140   5.359   9.941  0.6302  3.7505  2.0836
  149SAPE   H4Y16516   3.004   5.474   9.927 -1.5824 -0.5465 -1.4210
  149SAPE   C3516517   2.971   5.274   9.849 -0.0344 -0.4139 -0.2167
  149SAPE   H5X16518   2.862   5.253   9.860 -0.1867 -0.1858 -1.1784
  149SAPE   H5Y16519   3.021   5.175   9.853 -0.7286 -0.8113 -0.8817
  149SAPE   C3616520   2.960   5.347   9.710  0.2944 -0.2295  0.1325
  149SAPE   H6X16521   3.065   5.367   9.681  0.0195  2.1702  0.6176
  149SAPE   H6Y16522   2.904   5.442   9.722 -0.2445 -0.8226  3.1202
  149SAPE   C3716523   2.908   5.265   9.594  0.6037  0.0097  0.3250
  149SAPE   H7X16524   2.802   5.253   9.624  0.6250  0.5345  0.6182
  149SAPE   H7Y16525   2.962   5.168   9.586 -0.1919 -0.4339  0.1953
  149SAPE   C3816526   2.920   5.340   9.461  0.8182 -0.0635  0.7917
  149SAPE   H8X16527   3.030   5.346   9.445  0.4676  1.0556 -1.7421
  149SAPE   H8Y16528   2.879   5.443   9.459  0.6261 -0.1123  2.0314
  149SAPE   C3916529   2.852   5.262   9.347 -0.9754  0.1285  0.1510
  149SAPE   H9X16530   2.743   5.250   9.367 -0.6441 -2.4779  0.6980
  149SAPE   H9Y16531   2.894   5.160   9.342  0.1962  0.3465  3.4461
  149SAPE  C31016532   2.850   5.340   9.213  0.5877 -0.5247  0.9397
  149SAPE  H10X16533   2.945   5.395   9.196  0.0643  0.2754  0.5403
  149SAPE  H10Y16534   2.768   5.415   9.215  0.5917 -0.4551 -0.4381
  149SAPE  C31116535   2.821   5.238   9.099 -0.3667 -0.0195  0.2804
  149SAPE  H11X16536   2.733   5.184   9.141 -1.5587  0.3202 -1.6743
  149SAPE  H11Y16537   2.889   5.151   9.091 -2.4276 -1.5775 -1.8796
  149SAPE  C31216538   2.783   5.303   8.960 -0.0267  1.2491  0.1514
  149SAPE  H12X16539   2.728   5.398   8.971  2.1820  2.3336  3.0184
  149SAPE  H12Y16540   2.724   5.223   8.911 -0.2799 -0.8920  3.6110
  149SAPE  C31316541   2.920   5.331   8.888 -0.7100 -0.4732  1.0949
  149SAPE  H13X16542   2.978   5.239   8.863 -1.5967 -0.3857 -1.5746
  149SAPE  H13Y16543   2.986   5.393   8.952 -1.2128 -0.7973  1.9612
  149SAPE  C31416544   2.877   5.396   8.745 -0.0125 -0.4677  0.1271
  149SAPE  H14X16545   2.823   5.493   8.745 -1.2746 -1.1493  0.1782
  149SAPE  H14Y16546   2.799   5.326   8.709  0.3428 -0.4258 -0.7591
  149SAPE  C31516547   2.978   5.389   8.629  0.0988 -0.0556  0.4764
  149SAPE  H15X16548   2.927   5.421   8.536 -2.2201  1.6120  2.2193
  149SAPE  H15Y16549   3.020   5.286   8.624 -1.7390 -0.8674  0.9381
  149SAPE  C31616550   3.099   5.482   8.646  0.1387  0.1074  0.1985
  149SAPE  H16X16551   3.159   5.459   8.737  1.0288 -0.3059 -0.4786
  149SAPE  H16Y16552   3.052   5.582   8.647 -0.1018  0.0348 -1.4779
  149SAPE  C31716553   3.198   5.471   8.526  0.5171  0.1862 -0.8390
  149SAPE  H17X16554   3.137   5.505   8.441 -1.7055  0.3495  0.7370
  149SAPE  H17Y16555   3.218   5.362   8.515 -0.7034 -0.2391  0.7460
  149SAPE  C31816556   3.319   5.558   8.539 -0.0832  0.3421 -0.3532
  149SAPE  H18X16557   3.382   5.525   8.625  0.3977  1.9925 -0.0363
  149SAPE  H18Y16558   3.299   5.667   8.547 -1.6805 -0.0543  1.7437
  149SAPE  H18Z16559   3.388   5.541   8.453 -0.5253  0.3182 -0.7063
  150SAPE     N16560   4.302   5.800  10.649 -0.0259 -0.7091  0.3550
  150SAPE   HN116561   4.335   5.827  10.744  1.8541 -1.1327 -0.1363
  150SAPE   HN216562   4.350   5.713  10.620  2.2076  0.2504  0.9711
  150SAPE   HN316563   4.338   5.877  10.589  0.6076 -1.6802 -0.5286
  150SAPE   C1216564   4.155   5.791  10.635  0.1656 -0.5207 -0.0385
  150SAPE  H12A16565   4.131   5.755  10.532  1.9544  1.0399 -1.0626
  150SAPE  H12B16566   4.119   5.896  10.642 -0.4164 -0.6146 -1.2805
  150SAPE   C1116567   4.091   5.711  10.745  0.0166  0.3316  0.5124
  150SAPE  H11A16568   3.981   5.728  10.740  0.2881  2.2928  0.5049
  150SAPE  H11B16569   4.130   5.741  10.844 -1.5704 -0.0458  1.2806
  150SAPE     P16570   4.056   5.452  10.783  0.3527 -0.4778  0.0361
  150SAPE   O1316571   4.076   5.323  10.713 -0.2359 -0.6185 -0.3726
  150SAPE   O1416572   4.086   5.456  10.930 -0.1848 -0.2930 -0.4115
  150SAPE   O1216573   4.121   5.574  10.707 -0.1272 -0.8708  0.3884
  150SAPE   O1116574   3.901   5.501  10.756  0.0920 -0.4755 -0.0078
  150SAPE    C116575   3.803   5.425  10.693 -0.0686 -0.1652  0.5107
  150SAPE    HA16576   3.787   5.325  10.741  0.7973  0.1461  1.4889
  150SAPE    HB16577   3.708   5.482  10.702 -1.1142 -1.1685 -2.8741
  150SAPE    C216578   3.818   5.429  10.530 -0.7786  0.2826  0.3772
  150SAPE    HS16579   3.722   5.397  10.483 -0.0428  1.6135 -2.1978
  150SAPE   O2116580   3.928   5.359  10.468  0.1794  0.1130  0.0319
  150SAPE   C2116581   3.904   5.225  10.457 -0.4620 -1.0984  0.1993
  150SAPE   O2216582   3.805   5.177  10.502  0.7563  0.7425 -0.0924
  150SAPE   C2216583   4.021   5.160  10.389  0.2977  0.2168 -0.2168
  150SAPE   H2R16584   4.088   5.248  10.374 -0.4169  0.6950 -0.6224
  150SAPE   H2S16585   4.066   5.077  10.448  0.1712  1.3105  1.4958
  150SAPE    C316586   3.840   5.582  10.485 -0.1090  0.4604 -0.1196
  150SAPE    HX16587   3.950   5.589  10.500 -0.2864  0.1518  1.5241
  150SAPE    HY16588   3.785   5.640  10.562 -0.6670 -1.3402  0.8967
  150SAPE   O3116589   3.795   5.605  10.350  0.2634  0.0584  0.3891
  150SAPE   C3116590   3.888   5.631  10.257 -0.1574 -0.3144 -0.6900
  150SAPE   O3216591   4.009   5.644  10.274  0.1707  0.6939 -0.0075
  150SAPE   C3216592   3.820   5.642  10.124  0.5183  0.2125  0.6245
  150SAPE   H2X16593   3.714   5.675  10.133  0.2536 -0.6370  0.6907
  150SAPE   H2Y16594   3.818   5.542  10.075  0.0617  0.3373  0.3885
  150SAPE   C2316595   3.981   5.099  10.247 -0.4425 -0.0555  0.0371
  150SAPE   H3R16596   3.911   5.015  10.263  0.9477 -1.1877  0.4168
  150SAPE   H3S16597   4.067   5.053  10.193  1.9345  2.7071  1.1728
  150SAPE   C2416598   3.912   5.201  10.145 -0.2160  0.0650 -0.9541
  150SAPE   H4R16599   3.825   5.247  10.197  2.3020  0.3865  3.5179
  150SAPE   H4S16600   3.873   5.139  10.062  1.4266  1.1932 -2.6503
  150SAPE   C2516601   4.015   5.293  10.102  0.5120  0.4343 -0.8484
  150SAPE   H5R16602   4.094   5.312  10.176  0.0073 -0.7199  0.0269
  150SAPE   C2616603   4.036   5.339   9.984  0.1694  0.0189  0.2810
  150SAPE   H6R16604   4.113   5.417   9.974 -0.4212  0.7067  0.9287
  150SAPE   C2716605   3.957   5.315   9.862 -0.2689  0.2548  0.6955
  150SAPE   H7R16606   3.867   5.381   9.859  0.9585  1.9906  0.2498
  150SAPE   H7S16607   3.913   5.214   9.869  2.3333 -0.8933  1.8109
  150SAPE   C2816608   4.041   5.330   9.736  0.7295  0.0189 -0.4435
  150SAPE   H8R16609   4.150   5.344   9.748  0.6842  0.4226 -0.5077
  150SAPE   C2916610   3.991   5.316   9.608  0.7475  0.9499 -0.0384
  150SAPE   H9R16611   4.050   5.338   9.518  3.0640  0.6007  1.3232
  150SAPE  C21016612   3.847   5.296   9.585  0.1375  0.0965  0.1860
  150SAPE  H10R16613   3.806   5.222   9.657  1.4692  0.0472  0.9306
  150SAPE  H10S16614   3.840   5.230   9.495 -1.3288  1.5371 -0.8152
  150SAPE  C21116615   3.756   5.414   9.574  0.2239  0.1247  1.4005
  150SAPE  H11R16616   3.734   5.457   9.673 -2.2888  0.9570  0.5314
  150SAPE  C21216617   3.706   5.475   9.456  0.7103  0.1284 -0.9291
  150SAPE  H12R16618   3.635   5.558   9.467 -0.2321 -0.5156 -1.9091
  150SAPE  C21316619   3.725   5.431   9.309  0.2300  0.3487 -0.5055
  150SAPE  H13R16620   3.634   5.377   9.276  0.8590 -0.8352 -0.3657
  150SAPE  H13S16621   3.806   5.355   9.303  0.6380  0.8061 -0.9517
  150SAPE  C21416622   3.755   5.546   9.210 -0.0105  0.2824 -0.0448
  150SAPE  H14R16623   3.853   5.591   9.228  0.0716 -0.7260  2.3925
  150SAPE  C21516624   3.668   5.595   9.119 -0.2278 -0.0529  0.5164
  150SAPE  H15R16625   3.700   5.670   9.045  1.7667 -1.4132 -0.1110
  150SAPE  C21616626   3.532   5.531   9.088 -0.1891 -0.0403 -0.4783
  150SAPE  H16R16627   3.462   5.610   9.053  0.1032  0.1982 -0.5308
  150SAPE  H16S16628   3.477   5.490   9.175 -4.2564  0.0651 -2.7309
  150SAPE  C21716629   3.542   5.413   8.988 -0.5478  0.2210 -1.0599
  150SAPE  H17R16630   3.465   5.340   9.021 -2.5101  2.6990  0.2115
  150SAPE  H17S16631   3.633   5.350   8.994 -0.7835 -0.0574 -0.1454
  150SAPE  C21816632   3.536   5.461   8.842  0.0814 -0.1246 -0.1254
  150SAPE  H18R16633   3.629   5.520   8.827  0.7940 -1.0153  0.6331
  150SAPE  H18S16634   3.443   5.517   8.819  0.4194  0.7083  0.5088
  150SAPE  C21916635   3.561   5.345   8.748  0.1275 -0.5549  0.2786
  150SAPE  H19R16636   3.655   5.293   8.778 -0.5513 -2.5249 -0.8931
  150SAPE  H19S16637   3.569   5.399   8.651  1.1315  1.2730  1.3079
  150SAPE  C22016638   3.450   5.246   8.755 -0.1361 -0.3523  0.4024
  150SAPE  H20R16639   3.465   5.164   8.682 -1.3090  0.9717 -1.4201
  150SAPE  H20S16640   3.358   5.300   8.724 -0.7842 -1.2574  0.7016
  150SAPE  H20T16641   3.435   5.208   8.859  2.4820 -0.4860  0.7953
  150SAPE   C3316642   3.894   5.742  10.028  0.2322  0.3458 -0.3405
  150SAPE   H3X16643   4.002   5.721  10.021 -0.1785 -1.5721 -1.9944
  150SAPE   H3Y16644   3.874   5.848  10.056 -0.5522 -0.1575  1.1630
  150SAPE   C3416645   3.846   5.717   9.880 -0.6151  0.3720 -0.2002
  150SAPE   H4X16646   3.735   5.715   9.884 -0.5812 -0.1084  2.4768
  150SAPE   H4Y16647   3.892   5.621   9.848 -0.4710  0.1459  0.6524
  150SAPE   C3516648   3.891   5.836   9.784  0.0121 -0.8914 -0.4132
  150SAPE   H5X16649   3.999   5.852   9.801  0.1179 -3.1773  1.6234
  150SAPE   H5Y16650   3.838   5.924   9.826  2.7755  0.3866  0.5854
  150SAPE   C3616651   3.862   5.814   9.635 -0.4355 -0.3637 -0.7981
  150SAPE   H6X16652   3.752   5.825   9.620 -0.4153  2.1972  0.3857
  150SAPE   H6Y16653   3.903   5.715   9.606  3.4395  0.9744 -0.4944
  150SAPE   C3716654   3.912   5.923   9.543  0.4454 -0.2346  0.7236
  150SAPE   H7X16655   4.021   5.945   9.553  1.0439 -1.2007 -2.5439
  150SAPE   H7Y16656   3.849   6.013   9.560  1.2280  0.4920 -0.1045
  150SAPE   C3816657   3.876   5.875   9.397 -0.1496  0.3487 -0.9007
  150SAPE   H8X16658   3.768   5.892   9.377 -0.3789  1.6600  1.1239
  150SAPE   H8Y16659   3.897   5.766   9.397  3.7602  0.8832  1.8158
  150SAPE   C3916660   3.946   5.953   9.290 -0.1288  0.0059  0.0555
  150SAPE   H9X16661   4.057   5.951   9.291 -0.0826 -0.3092 -1.5944
  150SAPE   H9Y16662   3.912   6.057   9.306 -1.3356 -0.6548  2.2101
  150SAPE  C31016663   3.896   5.909   9.148  0.2333 -1.0001 -0.2419
  150SAPE  H10X16664   3.786   5.921   9.146  0.3183 -0.3803 -1.8440
  150SAPE  H10Y16665   3.929   5.803   9.146  0.6142 -0.9830  1.9469
  150SAPE  C31116666   3.954   5.991   9.035  0.3223 -0.4843  0.2421
  150SAPE  H11X16667   4.065   5.994   9.044  0.2437 -0.7856  1.5292
  150SAPE  H11Y16668   3.922   6.097   9.045  1.2425 -0.2702  1.0399
  150SAPE  C31216669   3.925   5.945   8.893 -0.3166  0.4275 -0.9922
  150SAPE  H12X16670   3.925   5.834   8.890 -1.5412  0.3879 -0.0890
  150SAPE  H12Y16671   4.012   5.983   8.835  1.1094 -0.1065  0.7409
  150SAPE  C31316672   3.783   5.982   8.851  0.2539  0.2834 -0.0173
  150SAPE  H13X16673   3.750   6.081   8.889  1.0146 -0.3438  2.3966
  150SAPE  H13Y16674   3.711   5.913   8.900  1.0478  1.5498  3.1357
  150SAPE  C31416675   3.754   5.973   8.703  0.2172 -1.0595  0.0019
  150SAPE  H14X16676   3.853   6.004   8.664 -0.1785  0.3436  0.0663
  150SAPE  H14Y16677   3.672   6.042   8.674  0.5713 -1.5569 -2.3519
  150SAPE  C31516678   3.706   5.841   8.645  0.2383 -0.4573 -0.0180
  150SAPE  H15X16679   3.621   5.805   8.706  0.5983 -2.0972 -0.4376
  150SAPE  H15Y16680   3.794   5.774   8.656  0.7455  0.1177 -0.4692
  150SAPE  C31616681   3.646   5.856   8.508 -0.5597  0.2755 -0.2351
  150SAPE  H16X16682   3.590   5.952   8.503  0.7591  1.0363 -3.8456
  150SAPE  H16Y16683   3.575   5.774   8.484 -0.1430 -0.4821  1.0384
  150SAPE  C31716684   3.756   5.879   8.402  0.1520  0.2808  0.4137
  150SAPE  H17X16685   3.784   5.779   8.362 -0.8174 -0.0925  0.6454
  150SAPE  H17Y16686   3.853   5.925   8.427  0.0332  1.0571 -0.4872
  150SAPE  C31816687   3.685   5.948   8.276 -0.4639  0.3460 -0.0127
  150SAPE  H18X16688   3.773   5.965   8.211 -0.4250 -1.1178 -0.3962
  150SAPE  H18Y16689   3.632   6.038   8.313 -0.3714 -0.2783  1.7110
  150SAPE  H18Z16690   3.614   5.871   8.237 -0.5289  0.0282  0.7161
  151SAPE     N16691   0.874   1.076  10.565 -0.3341  0.1714 -0.6113
  151SAPE   HN116692   0.848   1.176  10.563 -0.9855  0.1141  1.8278
  151SAPE   HN216693   0.798   1.016  10.528  0.9627 -2.9284  1.3021
  151SAPE   HN316694   0.873   1.066  10.668  0.3082  1.1466 -0.5017
  151SAPE   C1216695   1.000   1.043  10.501 -0.2174  0.1057 -0.3625
  151SAPE  H12A16696   1.004   1.092  10.401  0.3393  1.0431  0.1018
  151SAPE  H12B16697   1.016   0.934  10.488 -2.0156 -0.2954  0.4573
  151SAPE   C1116698   1.122   1.105  10.581  0.1293  0.5604  0.9190
  151SAPE  H11A16699   1.219   1.077  10.536  0.0212 -0.0241  1.0368
  151SAPE  H11B16700   1.123   1.055  10.680  0.6188  0.9853  1.1308
  151SAPE     P16701   1.224   1.351  10.563  0.3264  0.4134  0.1481
  151SAPE   O1316702   1.171   1.488  10.568  0.5675 -0.2120  0.1870
  151SAPE   O1416703   1.338   1.345  10.658  0.7055  0.4313 -1.1306
  151SAPE   O1216704   1.108   1.244  10.604 -0.5922 -0.2082  0.4139
  151SAPE   O1116705   1.278   1.319  10.423  0.1577 -0.4829  0.0665
  151SAPE    C116706   1.198   1.334  10.308 -0.4230 -0.9490 -0.6904
  151SAPE    HA16707   1.148   1.238  10.282 -0.1694 -1.0996 -0.6240
  151SAPE    HB16708   1.112   1.403  10.320  0.4905  0.0551  0.2318
  151SAPE    C216709   1.288   1.367  10.192  0.3103 -0.8654  0.4150
  151SAPE    HS16710   1.371   1.296  10.210  0.6239 -0.8805 -0.9639
  151SAPE   O2116711   1.337   1.498  10.214  0.4221 -0.4708  0.3996
  151SAPE   C2116712   1.464   1.509  10.202  0.9539 -0.2886 -0.6319
  151SAPE   O2216713   1.552   1.428  10.196  0.7458 -0.6926 -0.2192
  151SAPE   C2216714   1.503   1.660  10.200 -0.1784  0.1539  0.1638
  151SAPE   H2R16715   1.418   1.723  10.166 -1.5426 -0.9098  1.4715
  151SAPE   H2S16716   1.531   1.692  10.303 -0.4590 -0.2048  0.3552
  151SAPE    C316717   1.220   1.354  10.052 -0.6662  0.2611  0.1759
  151SAPE    HX16718   1.147   1.436  10.035 -1.2516  0.1087  1.8232
  151SAPE    HY16719   1.155   1.265  10.051  2.5474 -2.2921  0.7621
  151SAPE   O3116720   1.309   1.348   9.935  0.4413 -0.3251  0.5019
  151SAPE   C3116721   1.323   1.225   9.886 -0.1681 -0.5282  0.5764
  151SAPE   O3216722   1.277   1.119   9.936  0.2927 -0.4310 -0.0124
  151SAPE   C3216723   1.421   1.229   9.774 -0.2549 -0.2883  0.9369
  151SAPE   H2X16724   1.520   1.249   9.820  0.6975 -1.4235 -0.5143
  151SAPE   H2Y16725   1.399   1.317   9.709  2.0575  0.3426  0.9528
  151SAPE   C2316726   1.625   1.692  10.104  0.0423  0.6283  0.2534
  151SAPE   H3R16727   1.725   1.657  10.139  0.3622  1.0623 -0.2069
  151SAPE   H3S16728   1.634   1.800  10.129 -1.3282  0.5158  1.3769
  151SAPE   C2416729   1.602   1.664   9.950 -0.1222  0.1192 -0.0007
  151SAPE   H4R16730   1.507   1.707   9.910 -0.6195 -0.1742  0.8431
  151SAPE   H4S16731   1.573   1.557   9.939 -0.6296  0.4482 -2.7001
  151SAPE   C2516732   1.728   1.702   9.871  0.5122  0.3391  0.3565
  151SAPE   H5R16733   1.777   1.793   9.908  0.7354 -0.0350  0.9964
  151SAPE   C2616734   1.776   1.656   9.758  0.0539  0.6305  0.5516
  151SAPE   H6R16735   1.866   1.708   9.720  0.9953 -0.9506  0.5346
  151SAPE   C2716736   1.722   1.551   9.673 -0.6742  0.2474  0.3932
  151SAPE   H7R16737   1.705   1.587   9.569 -0.6998  1.2495  0.7304
  151SAPE   H7S16738   1.622   1.519   9.709  0.4699 -1.9113  1.8987
  151SAPE   C2816739   1.809   1.425   9.662  0.0602 -0.4499 -0.1898
  151SAPE   H8R16740   1.875   1.411   9.750  2.1477  0.5435 -1.5192
  151SAPE   C2916741   1.799   1.331   9.567 -0.7769 -0.1911 -0.3511
  151SAPE   H9R16742   1.865   1.243   9.564  0.9998  1.1221 -0.8074
  151SAPE  C21016743   1.713   1.340   9.447  0.0021 -0.2071  1.1455
  151SAPE  H10R16744   1.628   1.411   9.456  1.1492  1.0908  2.3175
  151SAPE  H10S16745   1.677   1.236   9.434  1.2441 -0.4739 -0.4585
  151SAPE  C21116746   1.792   1.390   9.336 -0.0086 -0.5081  0.6258
  151SAPE  H11R16747   1.899   1.409   9.352 -0.1488  0.0242  0.9676
  151SAPE  C21216748   1.748   1.431   9.217  0.8223  0.4088  0.2754
  151SAPE  H12R16749   1.822   1.479   9.151  0.1205 -0.0058 -0.8550
  151SAPE  C21316750   1.610   1.421   9.160  0.5445 -0.4022 -0.6355
  151SAPE  H13R16751   1.531   1.392   9.232  0.1166 -1.1364 -1.3916
  151SAPE  H13S16752   1.608   1.330   9.097  0.1522 -0.1015 -1.0692
  151SAPE  C21416753   1.568   1.546   9.086  0.0423  0.2426 -0.8473
  151SAPE  H14R16754   1.597   1.549   8.980  1.1372  2.6821 -0.5599
  151SAPE  C21516755   1.502   1.662   9.123 -0.3824  0.1161 -1.0767
  151SAPE  H15R16756   1.466   1.722   9.038 -2.0445  0.4958 -0.1606
  151SAPE  C21616757   1.471   1.693   9.266  0.0983  0.3420 -0.1521
  151SAPE  H16R16758   1.539   1.767   9.312  0.7442 -0.3884  0.1012
  151SAPE  H16S16759   1.494   1.605   9.330 -0.3739  0.5661  0.3320
  151SAPE  C21716760   1.324   1.728   9.307 -0.0506  0.2282  0.6747
  151SAPE  H17R16761   1.249   1.647   9.297 -0.1194  0.2243  1.2214
  151SAPE  H17S16762   1.290   1.796   9.226 -0.0652  0.9234  1.2584
  151SAPE  C21816763   1.304   1.790   9.445 -0.1044  0.3790  0.2040
  151SAPE  H18R16764   1.195   1.802   9.466 -0.0307  1.6596 -0.0644
  151SAPE  H18S16765   1.346   1.892   9.451  2.1197 -0.2817 -2.4646
  151SAPE  C21916766   1.345   1.689   9.551  0.4195  0.1505  0.5863
  151SAPE  H19R16767   1.302   1.724   9.647  1.1809  1.8516  0.3326
  151SAPE  H19S16768   1.456   1.685   9.554  0.3948 -0.2577  1.2633
  151SAPE  C22016769   1.291   1.538   9.527  0.2329  0.0289 -0.0184
  151SAPE  H20R16770   1.185   1.554   9.498  0.4233  2.4243  0.3844
  151SAPE  H20S16771   1.303   1.483   9.623  0.2874 -1.3051 -0.7674
  151SAPE  H20T16772   1.340   1.491   9.440 -0.9258 -2.5596  0.6359
  151SAPE   C3316773   1.448   1.100   9.691 -0.3537  0.2600  1.0344
  151SAPE   H3X16774   1.454   1.018   9.767  2.3784  1.2609  2.0273
  151SAPE   H3Y16775   1.548   1.115   9.646 -0.0194  1.2714  2.0593
  151SAPE   C3416776   1.347   1.066   9.579  0.3666 -0.8045  0.5470
  151SAPE   H4X16777   1.244   1.047   9.615  0.1664  0.5736  0.7583
  151SAPE   H4Y16778   1.383   0.971   9.533 -0.8342 -0.0231 -2.2618
  151SAPE   C3516779   1.333   1.171   9.465  0.4557  0.3677  0.4698
  151SAPE   H5X16780   1.427   1.192   9.410 -1.5575  0.8233 -3.0519
  151SAPE   H5Y16781   1.301   1.263   9.518 -1.5002  2.0528 -3.2675
  151SAPE   C3616782   1.230   1.130   9.362  0.6245 -0.2990  1.0874
  151SAPE   H6X16783   1.224   1.214   9.289  2.2137 -2.2907 -1.5141
  151SAPE   H6Y16784   1.138   1.123   9.424  0.2690 -1.0697  0.4929
  151SAPE   C3716785   1.251   0.995   9.291  0.2858  0.7931  0.4910
  151SAPE   H7X16786   1.239   0.921   9.373  2.3002  0.0639  0.1735
  151SAPE   H7Y16787   1.354   0.991   9.249  1.4959 -1.0031  3.3744
  151SAPE   C3816788   1.142   0.964   9.184  0.5261  0.0800  0.7527
  151SAPE   H8X16789   1.134   1.053   9.118 -2.3268 -1.0131 -0.5277
  151SAPE   H8Y16790   1.041   0.962   9.230 -0.0889  0.9971 -0.4957
  151SAPE   C3916791   1.175   0.843   9.102  0.1820 -0.0610 -0.2434
  151SAPE   H9X16792   1.197   0.761   9.174 -0.0527  1.8136  2.0630
  151SAPE   H9Y16793   1.276   0.852   9.057  1.0068 -1.2798  1.2246
  151SAPE  C31016794   1.061   0.800   9.010 -0.2538  0.2924  0.4079
  151SAPE  H10X16795   1.045   0.867   8.923  2.4610 -0.0126 -0.4160
  151SAPE  H10Y16796   0.966   0.796   9.068  0.7050  0.7652  2.0824
  151SAPE  C31116797   1.083   0.659   8.961 -0.2964  0.0047 -0.5208
  151SAPE  H11X16798   1.116   0.608   9.054  2.4652  0.6931 -1.0451
  151SAPE  H11Y16799   1.157   0.633   8.883 -0.5722 -1.8482 -0.2173
  151SAPE  C31216800   0.966   0.573   8.917  0.1241  0.0530 -0.0709
  151SAPE  H12X16801   0.914   0.620   8.832 -3.3083 -2.3781  0.4801
  151SAPE  H12Y16802   0.898   0.575   9.005  0.6251  2.6055  0.3438
  151SAPE  C31316803   0.994   0.427   8.889 -0.3984 -0.0691  0.0469
  151SAPE  H13X16804   1.080   0.395   8.951 -0.5291 -0.4188  0.0508
  151SAPE  H13Y16805   1.016   0.421   8.781 -2.3720  0.4126 -0.4266
  151SAPE  C31416806   0.877   0.332   8.926  0.2235  0.1236  0.1239
  151SAPE  H14X16807   0.786   0.393   8.946  1.0765  0.6156  3.0768
  151SAPE  H14Y16808   0.905   0.278   9.020 -1.0509  0.9830  1.0333
  151SAPE  C31516809   0.837   0.240   8.816  0.1381  0.8758  0.4416
  151SAPE  H15X16810   0.776   0.150   8.840  0.7084 -0.1449 -1.7103
  151SAPE  H15Y16811   0.925   0.196   8.766  1.1635  1.6934  1.4633
  151SAPE  C31616812   0.757   0.314   8.704 -0.6602  0.0682 -0.7978
  151SAPE  H16X16813   0.748   0.245   8.618 -0.1364 -0.6102 -0.3215
  151SAPE  H16Y16814   0.820   0.401   8.675  0.7548 -1.4537 -2.5277
  151SAPE  C31716815   0.611   0.342   8.744  0.8219 -0.8290  0.5981
  151SAPE  H17X16816   0.613   0.388   8.845 -0.0065 -0.2576  0.3632
  151SAPE  H17Y16817   0.549   0.250   8.742  1.8800 -1.5477 -1.9178
  151SAPE  C31816818   0.550   0.451   8.654 -0.1560  0.6711 -0.3142
  151SAPE  H18X16819   0.440   0.443   8.648 -0.1388 -0.9272  1.0352
  151SAPE  H18Y16820   0.585   0.435   8.549 -1.5980  0.0965 -0.7301
  151SAPE  H18Z16821   0.592   0.550   8.683  0.9796 -0.1991  1.1593
  152SAPE     N16822   2.081   0.967  10.634  0.1197 -0.2909 -0.0039
  152SAPE   HN116823   1.981   0.989  10.615  0.4237  0.2273 -1.1222
  152SAPE   HN216824   2.096   0.874  10.679  0.8438  0.4348  1.3067
  152SAPE   HN316825   2.116   1.033  10.706 -1.7439 -0.0452  0.7277
  152SAPE   C1216826   2.162   0.985  10.504  0.3660 -0.2364 -0.5104
  152SAPE  H12A16827   2.081   0.968  10.431 -0.4372 -0.1217  0.3265
  152SAPE  H12B16828   2.228   0.896  10.495 -0.3534 -0.8732  0.2605
  152SAPE   C1116829   2.227   1.126  10.507 -0.2683  0.2722  0.4535
  152SAPE  H11A16830   2.272   1.149  10.408 -0.4436  0.8228  0.4958
  152SAPE  H11B16831   2.311   1.118  10.579 -0.2840  0.2953  0.4741
  152SAPE     P16832   2.168   1.367  10.569 -0.0593  0.0061  0.3325
  152SAPE   O1316833   2.048   1.437  10.619  0.0365 -0.0664  0.5303
  152SAPE   O1416834   2.280   1.361  10.660 -0.0932  0.5234 -0.0595
  152SAPE   O1216835   2.130   1.226  10.529 -0.6457  0.3222  0.5461
  152SAPE   O1116836   2.219   1.428  10.427  0.1975 -0.5703  0.5018
  152SAPE    C116837   2.115   1.499  10.345  0.1017  0.2060  0.0408
  152SAPE    HA16838   2.062   1.578  10.402 -0.1579  1.2467 -1.5858
  152SAPE    HB16839   2.151   1.550  10.253  0.2620  0.7464  0.4013
  152SAPE    C216840   2.006   1.412  10.285  0.0068  0.1400 -0.3611
  152SAPE    HS16841   1.962   1.374  10.380  1.3375  1.9990  1.0828
  152SAPE   O2116842   2.076   1.311  10.211  0.2712  0.3882  0.5204
  152SAPE   C2116843   1.998   1.202  10.186  0.2413  0.6740  0.1536
  152SAPE   O2216844   1.889   1.181  10.236  0.2239 -0.2366 -0.1382
  152SAPE   C2216845   2.072   1.088  10.110 -0.6025  0.3803  0.1117
  152SAPE   H2R16846   2.153   1.136  10.052  0.3716 -0.7190  0.5247
  152SAPE   H2S16847   2.119   1.032  10.194  2.4539  1.1609 -0.9643
  152SAPE    C316848   1.909   1.484  10.187  0.0428  0.7519 -0.1447
  152SAPE    HX16849   1.862   1.566  10.246 -2.6204  0.0315 -1.1249
  152SAPE    HY16850   1.824   1.429  10.142  0.8054 -0.2173 -0.4220
  152SAPE   O3116851   1.981   1.551  10.088 -0.0329 -0.2579  0.1575
  152SAPE   C3116852   2.030   1.493   9.978 -0.3654 -0.2876  0.5329
  152SAPE   O3216853   2.017   1.379   9.948  0.1037  0.4316  0.5569
  152SAPE   C3216854   2.122   1.592   9.907 -0.1658 -0.0046  0.5119
  152SAPE   H2X16855   2.159   1.664   9.983 -0.5046 -1.3618  2.0183
  152SAPE   H2Y16856   2.061   1.657   9.841  1.2716 -0.0246 -0.8889
  152SAPE   C2316857   1.965   1.003  10.035 -0.2329 -0.7164 -0.5442
  152SAPE   H3R16858   1.883   0.971  10.102 -0.7343  1.5917  0.0485
  152SAPE   H3S16859   2.019   0.909  10.009  0.1425 -0.3496 -1.1285
  152SAPE   C2416860   1.912   1.081   9.904 -0.5456  0.5026 -0.2449
  152SAPE   H4R16861   1.996   1.092   9.832 -0.8333 -1.4686 -0.9529
  152SAPE   H4S16862   1.876   1.180   9.941 -2.8140 -0.4017  0.1655
  152SAPE   C2516863   1.792   1.010   9.850  0.3983  0.4755  0.2016
  152SAPE   H5R16864   1.701   1.013   9.912  0.4342 -0.8725  0.3429
  152SAPE   C2616865   1.789   0.945   9.734  0.7045  0.1828  0.2085
  152SAPE   H6R16866   1.695   0.900   9.697  0.2069  0.2796  1.3129
  152SAPE   C2716867   1.910   0.932   9.639 -0.0474  1.0362 -0.5588
  152SAPE   H7R16868   2.001   0.911   9.699 -0.1779 -1.5865 -1.1650
  152SAPE   H7S16869   1.927   1.028   9.586  1.6458  0.0648 -1.9025
  152SAPE   C2816870   1.890   0.818   9.541 -0.4496 -0.1713 -0.6291
  152SAPE   H8R16871   1.852   0.727   9.590  0.4508  0.3650  1.1811
  152SAPE   C2916872   1.902   0.818   9.406  0.2562 -0.4132  0.2086
  152SAPE   H9R16873   1.887   0.728   9.345  3.2382 -1.3656  0.7271
  152SAPE  C21016874   1.940   0.939   9.317  1.9964  0.7321  0.4387
  152SAPE  H10R16875   2.040   0.964   9.359  2.0792 -0.6877  1.1418
  152SAPE  H10S16876   1.878   1.029   9.339  1.0387  0.2421 -0.1697
  152SAPE  C21116877   1.940   0.913   9.170 -0.3476  1.1137 -0.8426
  152SAPE  H11R16878   1.995   0.821   9.147 -0.2343  0.6352  1.1174
  152SAPE  C21216879   1.864   0.976   9.080 -0.2622  0.0200  0.0326
  152SAPE  H12R16880   1.883   0.933   8.981  0.9240 -0.4168  0.4316
  152SAPE  C21316881   1.770   1.094   9.091 -0.5581  0.2035  0.1672
  152SAPE  H13R16882   1.793   1.172   9.015  1.2657  0.6584  1.1216
  152SAPE  H13S16883   1.770   1.143   9.191 -2.0422 -0.5113  0.5539
  152SAPE  C21416884   1.625   1.048   9.067  0.1145 -0.1520  0.0235
  152SAPE  H14R16885   1.569   1.032   9.160  1.1240 -2.0734  0.3635
  152SAPE  C21516886   1.569   1.032   8.948  0.1289  0.3497  0.8693
  152SAPE  H15R16887   1.463   1.002   8.940  1.2521 -3.4697 -2.9691
  152SAPE  C21616888   1.635   1.035   8.812  0.1224 -0.5601 -1.0274
  152SAPE  H16R16889   1.693   0.941   8.798  1.5387  0.3295 -1.2720
  152SAPE  H16S16890   1.703   1.122   8.807  0.5846 -0.9197 -1.0843
  152SAPE  C21716891   1.531   1.026   8.699 -0.5304  0.2482  0.8171
  152SAPE  H17R16892   1.574   1.070   8.606  0.5498  2.2836  2.1950
  152SAPE  H17S16893   1.444   1.094   8.716 -0.8349  0.4479 -1.2040
  152SAPE  C21816894   1.497   0.887   8.654  0.1609 -0.1298 -0.1910
  152SAPE  H18R16895   1.439   0.830   8.729 -0.1153  0.3947  0.0024
  152SAPE  H18S16896   1.589   0.826   8.645 -0.7532 -1.3843 -1.3985
  152SAPE  C21916897   1.410   0.894   8.519 -0.7967  0.4371 -0.6435
  152SAPE  H19R16898   1.470   0.935   8.434 -1.4534 -0.5022 -1.5928
  152SAPE  H19S16899   1.331   0.968   8.543 -2.5146 -1.2194 -1.0226
  152SAPE  C22016900   1.357   0.763   8.466 -1.5690  0.0068  1.0560
  152SAPE  H20R16901   1.430   0.731   8.389 -1.0986 -1.2872  2.0163
  152SAPE  H20S16902   1.250   0.768   8.433 -1.3086 -0.7934  0.0462
  152SAPE  H20T16903   1.358   0.681   8.541 -0.8938 -0.4370  0.5729
  152SAPE   C3316904   2.237   1.520   9.831 -0.8020 -0.5409  0.2269
  152SAPE   H3X16905   2.198   1.471   9.739 -1.7194  1.3438 -0.4289
  152SAPE   H3Y16906   2.296   1.445   9.889 -0.5845 -0.5140  0.0457
  152SAPE   C3416907   2.328   1.628   9.764 -0.3224 -0.0332  0.0618
  152SAPE   H4X16908   2.412   1.575   9.714  0.2439 -0.5921  1.5290
  152SAPE   H4Y16909   2.376   1.684   9.848  1.2527  0.4940 -1.1508
  152SAPE   C3516910   2.261   1.719   9.654 -0.2949  0.1126 -0.1514
  152SAPE   H5X16911   2.336   1.774   9.594 -1.0706  0.1342 -1.1311
  152SAPE   H5Y16912   2.205   1.796   9.711 -0.3599 -0.3174  0.3732
  152SAPE   C3616913   2.178   1.646   9.544 -0.0704 -0.4137  0.4618
  152SAPE   H6X16914   2.082   1.625   9.595  0.6285 -0.7240  1.6842
  152SAPE   H6Y16915   2.222   1.554   9.500 -2.3014 -0.1759 -2.6103
  152SAPE   C3716916   2.147   1.735   9.420 -0.1399 -0.0118  0.6142
  152SAPE   H7X16917   2.249   1.753   9.379 -0.6675 -0.8536 -1.1644
  152SAPE   H7Y16918   2.104   1.834   9.444  1.0958  0.5040  0.7815
  152SAPE   C3816919   2.083   1.653   9.304  0.0220 -0.5838 -0.0516
  152SAPE   H8X16920   1.993   1.598   9.338 -1.3068  2.0377  0.9511
  152SAPE   H8Y16921   2.158   1.579   9.268 -0.1176 -1.9485  2.2822
  152SAPE   C3916922   2.042   1.748   9.183 -0.8731  0.9383  0.1856
  152SAPE   H9X16923   2.031   1.677   9.098  3.2811 -1.1745  1.1036
  152SAPE   H9Y16924   2.125   1.818   9.158 -0.9562  0.3450 -1.9418
  152SAPE  C31016925   1.911   1.827   9.204  0.0986  0.2114  0.1111
  152SAPE  H10X16926   1.917   1.902   9.285 -0.3248 -0.1009  0.4329
  152SAPE  H10Y16927   1.837   1.752   9.237 -0.2437  0.8779  0.8707
  152SAPE  C31116928   1.867   1.902   9.078  0.6134  0.4204 -0.7080
  152SAPE  H11X16929   1.947   1.972   9.048  1.6674 -0.3913  0.1434
  152SAPE  H11Y16930   1.780   1.961   9.115  0.1968  0.1633 -1.2653
  152SAPE  C31216931   1.825   1.808   8.966  0.5706 -0.2618  0.2726
  152SAPE  H12X16932   1.770   1.719   9.005 -0.3275  0.2271  0.1617
  152SAPE  H12Y16933   1.912   1.766   8.912 -0.0710  0.8307 -1.7222
  152SAPE  C31316934   1.738   1.878   8.868  0.3122 -0.1663  0.0930
  152SAPE  H13X16935   1.803   1.964   8.843  0.8552 -0.5917  0.0383
  152SAPE  H13Y16936   1.647   1.914   8.921 -1.4008  0.8567 -3.2575
  152SAPE  C31416937   1.681   1.782   8.765 -0.1170 -0.5398  0.5477
  152SAPE  H14X16938   1.621   1.845   8.696 -0.1695 -1.1650  0.0109
  152SAPE  H14Y16939   1.607   1.714   8.811  0.0627 -2.2021 -1.4691
  152SAPE  C31516940   1.778   1.707   8.672 -0.0757  0.1807  0.7597
  152SAPE  H15X16941   1.833   1.629   8.728  0.9428 -2.4908 -3.4668
  152SAPE  H15Y16942   1.858   1.776   8.637  1.4711 -2.0326 -0.2730
  152SAPE  C31616943   1.703   1.641   8.554  0.3308  0.3849 -0.1542
  152SAPE  H16X16944   1.769   1.647   8.465  2.0974  1.5954  1.1499
  152SAPE  H16Y16945   1.613   1.699   8.524 -1.1007  0.4397  3.7002
  152SAPE  C31716946   1.661   1.499   8.570  0.0509  0.7202 -0.1495
  152SAPE  H17X16947   1.591   1.483   8.655 -1.4014  1.6996 -1.1305
  152SAPE  H17Y16948   1.750   1.436   8.595 -1.1293 -0.9864 -0.1036
  152SAPE  C31816949   1.594   1.432   8.445  1.1366 -0.1320  0.3035
  152SAPE  H18X16950   1.505   1.494   8.422  1.2407  0.0201  0.3092
  152SAPE  H18Y16951   1.564   1.325   8.457  0.1865 -0.1297 -1.6348
  152SAPE  H18Z16952   1.666   1.440   8.361  3.7762  2.1343  2.5953
  153SAPE     N16953   1.970   2.342  10.799  0.6747  0.4501 -0.1760
  153SAPE   HN116954   2.020   2.267  10.747  0.6224 -0.3501  0.8977
  153SAPE   HN216955   2.021   2.431  10.813  0.9169  0.2536  0.2085
  153SAPE   HN316956   1.938   2.301  10.889  2.3135 -0.2661  0.0993
  153SAPE   C1216957   1.848   2.359  10.702 -0.0421  0.3316  0.3293
  153SAPE  H12A16958   1.887   2.417  10.616  2.3775 -0.1523  1.0282
  153SAPE  H12B16959   1.777   2.425  10.756 -0.9602 -1.1685  1.0177
  153SAPE   C1116960   1.783   2.225  10.668  0.2359  0.7181  0.2351
  153SAPE  H11A16961   1.681   2.254  10.635  1.0745  2.0995 -1.2668
  153SAPE  H11B16962   1.753   2.173  10.762 -0.0951 -0.3019 -0.4151
  153SAPE     P16963   1.971   2.045  10.617  0.4182  0.4745 -0.0315
  153SAPE   O1316964   2.069   2.120  10.700  0.0344 -0.5628 -1.4436
  153SAPE   O1416965   1.899   1.931  10.678 -0.8170  0.7777  0.3082
  153SAPE   O1216966   1.861   2.151  10.576  1.0856 -0.1911  0.0579
  153SAPE   O1116967   2.040   2.007  10.480 -0.5223 -0.0796 -0.6446
  153SAPE    C116968   1.977   2.001  10.358 -0.1993  1.2938  0.4291
  153SAPE    HA16969   1.874   1.961  10.373  0.1336  0.1673 -0.1862
  153SAPE    HB16970   1.980   2.103  10.314  0.7963  1.7337  1.4823
  153SAPE    C216971   2.042   1.899  10.262  0.1645 -0.7633  0.3948
  153SAPE    HS16972   2.028   1.799  10.309  0.3231 -0.3235  1.4015
  153SAPE   O2116973   2.176   1.927  10.230 -0.1886 -0.2869 -0.4355
  153SAPE   C2116974   2.260   1.881  10.318 -0.5923  0.2325  0.4681
  153SAPE   O2216975   2.242   1.795  10.404 -0.0808 -0.3586 -0.4173
  153SAPE   C2216976   2.389   1.960  10.292 -0.7335  0.1390  0.0676
  153SAPE   H2R16977   2.356   2.041  10.224  0.1039 -0.3652 -0.9874
  153SAPE   H2S16978   2.430   1.993  10.390 -0.0453 -3.4096  1.1196
  153SAPE    C316979   1.962   1.896  10.128 -0.7868  0.5468  0.4087
  153SAPE    HX16980   1.863   1.866  10.166 -0.6376 -0.6052 -0.0768
  153SAPE    HY16981   1.987   1.820  10.050 -0.8656  1.4583 -0.5284
  153SAPE   O3116982   1.942   2.028  10.073 -0.8143  0.4413 -0.4282
  153SAPE   C3116983   2.025   2.052   9.964  0.2517  0.4811 -0.8307
  153SAPE   O3216984   2.102   1.971   9.911 -0.0642  0.1840 -0.8465
  153SAPE   C3216985   1.990   2.195   9.909 -0.3734  0.3763  0.4199
  153SAPE   H2X16986   2.083   2.252   9.931  1.7631 -1.6711 -2.4825
  153SAPE   H2Y16987   1.897   2.234   9.955  0.9801  2.4595  1.5051
  153SAPE   C2316988   2.505   1.882  10.222  0.0473  0.0138 -0.7923
  153SAPE   H3R16989   2.512   1.790  10.286  0.8755 -0.7553 -1.9449
  153SAPE   H3S16990   2.595   1.946  10.215 -1.6959  2.4037 -2.6790
  153SAPE   C2416991   2.471   1.840  10.080  0.3217  0.1615 -0.6295
  153SAPE   H4R16992   2.388   1.766  10.084 -0.1539  0.6847 -0.6031
  153SAPE   H4S16993   2.557   1.792  10.030 -0.9980 -1.6636 -1.2446
  153SAPE   C2516994   2.414   1.953   9.988 -0.8190  0.4844  0.2227
  153SAPE   H5R16995   2.326   2.004  10.030 -2.5500 -0.3908 -2.0940
  153SAPE   C2616996   2.459   1.992   9.871 -0.2565  0.7914  0.0522
  153SAPE   H6R16997   2.401   2.071   9.820  1.5673  0.9972 -1.8322
  153SAPE   C2716998   2.580   1.941   9.796  0.5369  0.4062  0.2034
  153SAPE   H7R16999   2.548   1.859   9.729  0.6018  0.1235  0.5120
  153SAPE   H7S17000   2.656   1.896   9.864 -0.4037  0.7724  1.5334
  153SAPE   C2817001   2.640   2.053   9.717 -0.3939  0.3778 -0.1365
  153SAPE   H8R17002   2.694   2.134   9.768 -1.6945  0.8397  0.5683
  153SAPE   C2917003   2.643   2.049   9.588  0.2646 -0.1113 -0.6802
  153SAPE   H9R17004   2.705   2.127   9.542 -0.5377  0.8391 -0.1864
  153SAPE  C21017005   2.584   1.950   9.487 -0.3562  0.1749  0.4220
  153SAPE  H10R17006   2.515   1.877   9.534 -1.2104  1.9970  2.1324
  153SAPE  H10S17007   2.670   1.885   9.458 -0.7097 -0.1899  0.1798
  153SAPE  C21117008   2.533   2.020   9.365 -0.3222 -0.3719  0.1142
  153SAPE  H11R17009   2.535   2.130   9.376 -0.8550 -0.3971  0.5185
  153SAPE  C21217010   2.481   1.971   9.247  0.1851  1.1659 -0.0308
  153SAPE  H12R17011   2.440   2.038   9.170  1.1649  0.3972 -1.2401
  153SAPE  C21317012   2.472   1.819   9.232  0.2976  0.4974 -0.0223
  153SAPE  H13R17013   2.368   1.786   9.212  0.5985  0.9269 -2.5600
  153SAPE  H13S17014   2.481   1.761   9.326 -3.0597 -2.9303 -1.5793
  153SAPE  C21417015   2.568   1.768   9.124  0.2397  0.3644 -0.1412
  153SAPE  H14R17016   2.676   1.757   9.143  0.1468 -0.7235 -0.1859
  153SAPE  C21517017   2.527   1.757   8.988  0.2105 -0.0341 -0.1028
  153SAPE  H15R17018   2.591   1.711   8.911 -0.2032  0.4353 -0.7303
  153SAPE  C21617019   2.389   1.795   8.940  0.4333  0.8744  0.3978
  153SAPE  H16R17020   2.406   1.878   8.868 -0.7785  0.0478 -0.8905
  153SAPE  H16S17021   2.315   1.831   9.015 -1.9155 -2.0597 -0.3463
  153SAPE  C21717022   2.311   1.677   8.876  0.1652 -0.5889  0.3677
  153SAPE  H17R17023   2.254   1.629   8.958  0.6047 -0.3769  0.8045
  153SAPE  H17S17024   2.373   1.605   8.818 -2.5281 -0.3197 -3.1743
  153SAPE  C21817025   2.216   1.733   8.774 -0.0632  0.2877  0.7696
  153SAPE  H18R17026   2.178   1.833   8.804 -0.4204  0.3238  0.2127
  153SAPE  H18S17027   2.126   1.669   8.756 -0.0071  0.1000  1.1305
  153SAPE  C21917028   2.275   1.778   8.644  0.3482 -0.7315  0.6885
  153SAPE  H19R17029   2.299   1.688   8.584 -0.2494  0.4515 -1.4211
  153SAPE  H19S17030   2.372   1.830   8.659  0.4383 -0.8762  0.6015
  153SAPE  C22017031   2.174   1.858   8.562  0.6554  0.6414  0.3066
  153SAPE  H20R17032   2.180   1.962   8.600  0.4342 -0.3881  3.4035
  153SAPE  H20S17033   2.072   1.815   8.567 -0.4956  3.1949  0.2981
  153SAPE  H20T17034   2.204   1.859   8.455 -0.6214  0.6082 -0.0700
  153SAPE   C3317035   1.990   2.198   9.755 -0.0570  0.6726  0.4884
  153SAPE   H3X17036   2.080   2.152   9.707 -0.0200 -1.3966  2.3743
  153SAPE   H3Y17037   1.984   2.304   9.723  0.3454 -0.0999 -2.4397
  153SAPE   C3417038   1.857   2.148   9.701  0.8180 -0.1425  0.2305
  153SAPE   H4X17039   1.791   2.192   9.778  0.5311  0.9833 -0.6389
  153SAPE   H4Y17040   1.840   2.039   9.712  0.2783 -0.1118 -0.2683
  153SAPE   C3517041   1.811   2.191   9.554 -0.5203 -0.3944 -0.1175
  153SAPE   H5X17042   1.885   2.159   9.477 -0.8292  0.2923 -0.7083
  153SAPE   H5Y17043   1.793   2.300   9.559  1.7151 -0.0230  2.4408
  153SAPE   C3617044   1.680   2.127   9.499 -0.1395  0.3912 -0.2617
  153SAPE   H6X17045   1.600   2.153   9.572 -0.1729  0.0459 -0.1720
  153SAPE   H6Y17046   1.685   2.016   9.497  2.3185  0.4399 -0.2177
  153SAPE   C3717047   1.645   2.174   9.356  0.5438  0.4866 -0.1966
  153SAPE   H7X17048   1.739   2.174   9.296  0.3629  1.7004 -0.5009
  153SAPE   H7Y17049   1.613   2.280   9.358 -2.6321 -0.3816  2.4458
  153SAPE   C3817050   1.552   2.084   9.286  0.0134 -0.5398 -0.1270
  153SAPE   H8X17051   1.447   2.077   9.323  0.1288 -1.8847 -0.0254
  153SAPE   H8Y17052   1.582   1.978   9.293 -1.3021 -0.9371 -0.1224
  153SAPE   C3917053   1.534   2.136   9.146  0.0051 -0.2147  0.0879
  153SAPE   H9X17054   1.628   2.143   9.087  0.5692 -0.4927  0.9337
  153SAPE   H9Y17055   1.499   2.241   9.143  0.9171  0.0898 -0.9298
  153SAPE  C31017056   1.433   2.045   9.066  0.0931  0.1526 -0.4038
  153SAPE  H10X17057   1.331   2.059   9.108  0.1350 -1.1543  0.1816
  153SAPE  H10Y17058   1.453   1.936   9.066  1.1083  0.3354 -0.2240
  153SAPE  C31117059   1.411   2.087   8.923 -0.4612 -0.2301  0.3244
  153SAPE  H11X17060   1.507   2.069   8.871 -1.3243  0.6745 -1.7121
  153SAPE  H11Y17061   1.396   2.197   8.933  2.0569  0.1054  1.0216
  153SAPE  C31217062   1.288   2.023   8.846 -0.1777  0.5099  0.3911
  153SAPE  H12X17063   1.264   2.077   8.752 -2.6854 -1.7063 -0.3733
  153SAPE  H12Y17064   1.193   2.050   8.896 -0.2675 -0.0988  0.5540
  153SAPE  C31317065   1.292   1.871   8.837 -0.7257 -0.0364  0.2327
  153SAPE  H13X17066   1.298   1.830   8.940 -0.8945  1.6577  0.9458
  153SAPE  H13Y17067   1.388   1.844   8.787  0.0808  0.2709  1.5790
  153SAPE  C31417068   1.172   1.799   8.772 -0.2208 -0.0256  0.3786
  153SAPE  H14X17069   1.179   1.823   8.664 -1.6246 -0.5825  0.1437
  153SAPE  H14Y17070   1.074   1.840   8.806  0.1735  0.9207  0.4161
  153SAPE  C31517071   1.181   1.648   8.778 -0.0086  1.0531  0.6955
  153SAPE  H15X17072   1.272   1.619   8.721 -1.0232 -0.8880 -0.0378
  153SAPE  H15Y17073   1.095   1.601   8.727 -0.4594  1.3307  1.1979
  153SAPE  C31617074   1.181   1.584   8.916  0.2917  0.4249 -0.0829
  153SAPE  H16X17075   1.095   1.615   8.979  1.8206 -2.2041  3.6167
  153SAPE  H16Y17076   1.270   1.616   8.974 -0.5667 -2.8122  3.4241
  153SAPE  C31717077   1.186   1.432   8.927  0.6987  0.1643 -0.2289
  153SAPE  H17X17078   1.281   1.397   8.880  0.3970 -0.1777 -0.5926
  153SAPE  H17Y17079   1.102   1.391   8.867 -0.6264  1.8021  0.4486
  153SAPE  C31817080   1.169   1.371   9.064  0.0181  0.0886  0.0192
  153SAPE  H18X17081   1.068   1.398   9.102 -0.7031 -0.4711 -1.4286
  153SAPE  H18Y17082   1.242   1.385   9.146 -1.2224 -0.3801  1.2457
  153SAPE  H18Z17083   1.165   1.262   9.045 -0.6393  0.5233 -2.6965
  154SAPE     N17084   1.701   2.661  11.120  0.4781 -0.5362  0.1664
  154SAPE   HN117085   1.746   2.681  11.029  2.2942  1.5495  1.4069
  154SAPE   HN217086   1.762   2.696  11.197 -0.7919  1.9302  0.1411
  154SAPE   HN317087   1.697   2.557  11.123 -0.6454 -0.5345 -0.6970
  154SAPE   C1217088   1.571   2.729  11.127  0.3888 -0.1112  0.3763
  154SAPE  H12A17089   1.545   2.762  11.230  0.0930  0.0779  0.2408
  154SAPE  H12B17090   1.491   2.654  11.111  0.0551  0.2524  0.3307
  154SAPE   C1117091   1.551   2.840  11.033 -0.3554  0.2344 -0.1904
  154SAPE  H11A17092   1.594   2.819  10.933  0.5892  2.7932 -0.4056
  154SAPE  H11B17093   1.599   2.932  11.074 -0.2227  0.1788 -0.2198
  154SAPE     P17094   1.376   2.993  10.927 -0.5100  0.1743 -0.0553
  154SAPE   O1317095   1.230   2.989  10.904  0.2377  0.1657  0.1997
  154SAPE   O1417096   1.418   3.110  11.005 -0.2097 -0.1059  0.6447
  154SAPE   O1217097   1.412   2.867  11.016 -0.0664  0.6815 -0.0911
  154SAPE   O1117098   1.452   2.978  10.792 -0.8152 -0.8822 -0.2591
  154SAPE    C117099   1.411   2.894  10.680 -0.1785  0.3468 -0.5491
  154SAPE    HA17100   1.425   2.789  10.714  1.4787  0.6946 -0.0770
  154SAPE    HB17101   1.305   2.921  10.660 -0.0178  0.5572 -1.1426
  154SAPE    C217102   1.489   2.905  10.547 -0.0798 -0.3643 -0.0653
  154SAPE    HS17103   1.470   2.814  10.486 -0.0967  0.7988 -1.8917
  154SAPE   O2117104   1.632   2.918  10.577 -0.3766 -0.0662  1.2436
  154SAPE   C2117105   1.695   2.806  10.590 -0.5532 -0.2403  0.2395
  154SAPE   O2217106   1.649   2.696  10.586 -0.6175  0.4889 -0.1833
  154SAPE   C2217107   1.846   2.836  10.613  0.2907  0.0611 -0.0768
  154SAPE   H2R17108   1.858   2.933  10.666  0.6223 -0.4363  0.7924
  154SAPE   H2S17109   1.887   2.757  10.680 -1.6908 -0.8028  0.1791
  154SAPE    C317110   1.447   3.030  10.466  1.0287  0.5649  0.6651
  154SAPE    HX17111   1.474   3.126  10.514 -0.7788  2.2245 -1.4188
  154SAPE    HY17112   1.337   3.036  10.451  1.1044 -2.0395 -1.9280
  154SAPE   O3117113   1.501   3.022  10.329  0.4909  0.1431  0.3264
  154SAPE   C3117114   1.545   3.136  10.274 -0.4869 -0.3833 -0.2163
  154SAPE   O3217115   1.528   3.249  10.318 -0.3427  0.0616 -0.1855
  154SAPE   C3217116   1.626   3.101  10.151  0.0116  0.5076  0.2799
  154SAPE   H2X17117   1.703   3.023  10.170 -1.2225 -1.7963 -3.1309
  154SAPE   H2Y17118   1.683   3.190  10.117  0.3470  1.0816  2.2570
  154SAPE   C2317119   1.929   2.834  10.479  0.1571 -0.2249  0.0623
  154SAPE   H3R17120   1.894   2.752  10.412 -0.6597 -1.3722  1.8101
  154SAPE   H3S17121   2.035   2.811  10.505  1.1141  2.1899 -1.3454
  154SAPE   C2417122   1.918   2.963  10.403  0.5509  0.1238  0.1286
  154SAPE   H4R17123   1.937   3.052  10.467  0.6101 -0.2768  0.6771
  154SAPE   H4S17124   1.813   2.972  10.369  0.7342  1.3151 -0.1744
  154SAPE   C2517125   2.012   2.967  10.282  0.7711 -0.0008  0.4886
  154SAPE   H5R17126   2.101   3.028  10.305  0.7206 -0.6195  2.5989
  154SAPE   C2617127   1.996   2.913  10.153 -0.2704  0.4721 -0.1632
  154SAPE   H6R17128   2.085   2.908  10.090 -0.4449 -0.6678 -0.3394
  154SAPE   C2717129   1.888   2.818  10.103  0.4537 -0.6826  0.1158
  154SAPE   H7R17130   1.819   2.869  10.032  2.2307 -0.3354 -1.4338
  154SAPE   H7S17131   1.823   2.787  10.188  1.0247  1.4139  1.3841
  154SAPE   C2817132   1.940   2.693  10.040 -0.0030  0.0523  0.4628
  154SAPE   H8R17133   1.957   2.609  10.109 -2.3282  0.4269  1.6131
  154SAPE   C2917134   1.976   2.680   9.909  0.2697 -0.4630 -0.7430
  154SAPE   H9R17135   2.014   2.580   9.881 -0.6173 -0.4061 -2.2839
  154SAPE  C21017136   1.967   2.786   9.801  0.2796 -1.0219 -0.2169
  154SAPE  H10R17137   1.914   2.875   9.842  0.2453 -1.3311  0.4309
  154SAPE  H10S17138   1.889   2.758   9.728 -0.2647  0.2642 -0.1536
  154SAPE  C21117139   2.095   2.816   9.744 -0.8007 -0.3092  0.8681
  154SAPE  H11R17140   2.152   2.879   9.814 -1.0213 -0.6506  1.3554
  154SAPE  C21217141   2.156   2.779   9.624 -0.0560  0.3237  0.5529
  154SAPE  H12R17142   2.263   2.798   9.607 -0.4749  0.4714 -2.4755
  154SAPE  C21317143   2.098   2.694   9.518  0.3038  0.1192  0.0248
  154SAPE  H13R17144   1.988   2.686   9.527  0.3805 -1.8946 -0.4012
  154SAPE  H13S17145   2.139   2.591   9.529  3.4482  1.1316 -1.0336
  154SAPE  C21417146   2.122   2.740   9.378  0.1785  0.4356  0.0693
  154SAPE  H14R17147   2.195   2.820   9.360  1.2205 -0.5898 -0.3601
  154SAPE  C21517148   2.058   2.696   9.269  0.5534  0.9019 -0.0557
  154SAPE  H15R17149   2.076   2.740   9.170  1.9043 -0.3755 -0.4185
  154SAPE  C21617150   1.944   2.590   9.269 -0.0117  0.3548 -0.0844
  154SAPE  H16R17151   1.854   2.650   9.241 -0.8738 -0.8566  0.0151
  154SAPE  H16S17152   1.914   2.549   9.367  2.2089 -1.1384  0.0496
  154SAPE  C21717153   1.947   2.472   9.165 -0.2360  0.1496 -0.0983
  154SAPE  H17R17154   1.955   2.514   9.063  0.4692  1.3143  0.4215
  154SAPE  H17S17155   1.850   2.420   9.180  1.1432 -2.4933  0.3343
  154SAPE  C21817156   2.055   2.368   9.195 -0.4103 -0.5550  0.1874
  154SAPE  H18R17157   2.064   2.336   9.301  0.4397 -1.4430 -0.1467
  154SAPE  H18S17158   2.153   2.418   9.178  1.0199 -2.5576  2.0302
  154SAPE  C21917159   2.048   2.247   9.103  0.2273 -0.6416  0.1790
  154SAPE  H19R17160   2.067   2.280   8.999  2.1598 -0.2995  0.6051
  154SAPE  H19S17161   1.945   2.205   9.098 -0.6386  1.4484 -0.4389
  154SAPE  C22017162   2.150   2.137   9.129  0.0532  0.2911  0.7385
  154SAPE  H20R17163   2.166   2.060   9.051  1.1759  0.6194  0.6236
  154SAPE  H20S17164   2.116   2.084   9.221 -0.5610  0.4363  0.5922
  154SAPE  H20T17165   2.248   2.186   9.148  0.9831  0.0040 -2.6376
  154SAPE   C3317166   1.544   3.035  10.034  0.4041  0.5689 -0.2734
  154SAPE   H3X17167   1.443   3.081  10.036 -0.5722 -1.4707  1.9507
  154SAPE   H3Y17168   1.522   2.929  10.057 -2.2235  1.0175 -0.4367
  154SAPE   C3417169   1.610   3.040   9.900  0.1626  0.2366  0.9370
  154SAPE   H4X17170   1.689   2.963   9.888 -0.8009 -0.7728  0.8222
  154SAPE   H4Y17171   1.660   3.138   9.895 -0.4831  0.6655  2.3605
  154SAPE   C3517172   1.514   3.012   9.781 -0.2204 -0.1366  0.2978
  154SAPE   H5X17173   1.429   3.082   9.792 -0.7604  0.0484 -3.4510
  154SAPE   H5Y17174   1.480   2.907   9.794 -1.1600  0.0680 -0.4018
  154SAPE   C3617175   1.579   3.039   9.644 -0.3568  0.7164 -0.2130
  154SAPE   H6X17176   1.642   2.956   9.604  2.3575  1.5006  2.0917
  154SAPE   H6Y17177   1.645   3.126   9.666  0.5970 -0.5414  2.1749
  154SAPE   C3717178   1.483   3.072   9.528  0.1980  0.0753  0.2330
  154SAPE   H7X17179   1.448   3.175   9.549 -0.4285  0.3627 -1.9033
  154SAPE   H7Y17180   1.398   3.001   9.536 -0.8801  1.2707 -0.3064
  154SAPE   C3817181   1.541   3.057   9.385 -1.0362  0.3415  0.3296
  154SAPE   H8X17182   1.572   2.951   9.375 -1.5780  0.2352 -0.3700
  154SAPE   H8Y17183   1.623   3.130   9.371 -0.0783 -0.6727  0.5672
  154SAPE   C3917184   1.429   3.071   9.291  0.1185  0.0970 -0.3547
  154SAPE   H9X17185   1.383   3.171   9.306  0.0461 -0.2025  1.6530
  154SAPE   H9Y17186   1.345   3.005   9.322  0.2750 -0.4050 -0.9787
  154SAPE  C31017187   1.470   3.063   9.139  0.5812  0.0536  0.0846
  154SAPE  H10X17188   1.498   2.958   9.118  1.1566  0.1475  0.3517
  154SAPE  H10Y17189   1.561   3.127   9.131 -0.5946  1.6529 -1.1784
  154SAPE  C31117190   1.345   3.107   9.055 -0.2572  0.0879  0.2994
  154SAPE  H11X17191   1.312   3.201   9.104 -0.6747 -0.8749  1.9440
  154SAPE  H11Y17192   1.258   3.039   9.066 -1.2507  0.9479 -1.7992
  154SAPE  C31217193   1.371   3.113   8.905  0.1668 -0.0657 -0.8422
  154SAPE  H12X17194   1.464   3.173   8.895 -0.4045  0.7167 -1.5035
  154SAPE  H12Y17195   1.287   3.171   8.863 -1.3013 -0.6304  1.1570
  154SAPE  C31317196   1.389   2.977   8.837 -0.1281 -0.9611  0.0480
  154SAPE  H13X17197   1.295   2.918   8.837 -1.1686  0.5847 -1.4257
  154SAPE  H13Y17198   1.459   2.922   8.903  1.2872 -0.1600 -0.7231
  154SAPE  C31417199   1.437   2.988   8.691 -0.5595  0.5423  0.0679
  154SAPE  H14X17200   1.504   2.900   8.679 -0.8734  0.0935  1.3963
  154SAPE  H14Y17201   1.496   3.077   8.662  1.1730 -0.9536 -1.2427
  154SAPE  C31517202   1.331   3.000   8.580  0.1434  0.3449  0.1120
  154SAPE  H15X17203   1.286   3.101   8.587  1.3390  0.9782 -0.8703
  154SAPE  H15Y17204   1.253   2.922   8.593 -1.7759  2.1263 -0.2137
  154SAPE  C31617205   1.383   2.987   8.435  0.0934  0.3341 -0.2594
  154SAPE  H16X17206   1.407   2.881   8.413 -0.8669 -0.2966  1.4901
  154SAPE  H16Y17207   1.478   3.045   8.427 -0.2490  0.9637  0.1090
  154SAPE  C31717208   1.291   3.053   8.330 -0.0118 -0.5676 -0.1214
  154SAPE  H17X17209   1.329   3.043   8.226 -1.4846  1.3078 -0.8971
  154SAPE  H17Y17210   1.297   3.163   8.340  0.5746 -0.7149  1.4195
  154SAPE  C31817211   1.150   3.005   8.339 -0.1153  0.0495 -0.5139
  154SAPE  H18X17212   1.084   3.055   8.413 -0.4956  0.8105 -1.3505
  154SAPE  H18Y17213   1.151   2.894   8.343  1.2856  0.0622  0.1085
  154SAPE  H18Z17214   1.097   3.036   8.247  3.1835  0.2979 -2.4796
  155SAPE     N17215   4.285   3.023  10.609 -0.3959  0.3052 -0.3611
  155SAPE   HN117216   4.191   2.980  10.620  0.0201 -0.9685 -1.4708
  155SAPE   HN217217   4.314   2.985  10.517 -0.4569 -2.8485  0.7842
  155SAPE   HN317218   4.351   2.986  10.682 -1.9486  0.7754  1.3583
  155SAPE   C1217219   4.270   3.171  10.639  0.3980 -0.6557 -0.2640
  155SAPE  H12A17220   4.197   3.216  10.569  0.5243 -0.0064  0.0184
  155SAPE  H12B17221   4.359   3.226  10.604  0.4007  0.4659  1.3986
  155SAPE   C1117222   4.231   3.204  10.790 -0.3448  0.8454 -0.4237
  155SAPE  H11A17223   4.246   3.311  10.815  0.2824  0.4158  1.1759
  155SAPE  H11B17224   4.322   3.171  10.845 -0.4373  2.1948  0.5634
  155SAPE     P17225   3.975   3.202  10.849 -0.0018  0.4637  0.1002
  155SAPE   O1317226   3.879   3.106  10.908  0.0155 -0.2581  0.1271
  155SAPE   O1417227   3.991   3.336  10.911  0.7909  0.2675  0.3926
  155SAPE   O1217228   4.119   3.130  10.837 -0.1416  0.6137  0.5455
  155SAPE   O1117229   3.941   3.227  10.696  0.5771  0.6601 -0.0946
  155SAPE    C117230   3.904   3.102  10.619 -0.6359 -0.1475 -0.4133
  155SAPE    HA17231   3.989   3.053  10.567 -1.3774 -1.2459 -0.6413
  155SAPE    HB17232   3.841   3.026  10.672  1.0947 -1.0230  0.4888
  155SAPE    C217233   3.810   3.144  10.500 -0.2413  0.0197  0.5812
  155SAPE    HS17234   3.831   3.064  10.426  0.4433  0.2205  0.5514
  155SAPE   O2117235   3.834   3.275  10.445 -0.0930 -0.3614 -0.0642
  155SAPE   C2117236   3.964   3.285  10.386  0.1834 -0.4382 -0.1165
  155SAPE   O2217237   4.051   3.203  10.393  0.5210  0.4530  0.1247
  155SAPE   C2217238   3.986   3.416  10.318  0.8959 -0.6106 -0.0042
  155SAPE   H2R17239   3.916   3.491  10.359  1.2244 -0.2560 -0.0833
  155SAPE   H2S17240   4.088   3.453  10.341  1.2692 -0.2537 -1.9647
  155SAPE    C317241   3.661   3.110  10.540 -0.0247 -0.1880  0.4140
  155SAPE    HX17242   3.636   3.175  10.627 -1.0476 -0.9648  0.7277
  155SAPE    HY17243   3.669   3.003  10.570 -0.3258 -0.0555  0.9747
  155SAPE   O3117244   3.571   3.125  10.430 -0.0742 -0.0465  0.3656
  155SAPE   C3117245   3.468   3.195  10.445 -0.2503 -0.0503 -0.8144
  155SAPE   O3217246   3.429   3.243  10.553 -0.0964 -0.2282  0.4961
  155SAPE   C3217247   3.417   3.244  10.314 -0.2005  0.0199  0.0232
  155SAPE   H2X17248   3.373   3.343  10.338 -0.0954  0.5375 -1.7642
  155SAPE   H2Y17249   3.337   3.175  10.280 -1.3570  0.7646  1.1306
  155SAPE   C2317250   3.977   3.406  10.157  0.6489 -0.1184 -0.9268
  155SAPE   H3R17251   3.872   3.378  10.134 -0.7733  3.4737  0.4986
  155SAPE   H3S17252   4.041   3.319  10.133  0.3374 -1.0135  1.2367
  155SAPE   C2417253   4.016   3.537  10.098  0.0149 -0.1769 -0.1855
  155SAPE   H4R17254   4.053   3.515   9.995  1.1324 -1.4386  0.4532
  155SAPE   H4S17255   4.109   3.557  10.155  0.5951 -0.1182 -1.1142
  155SAPE   C2517256   3.915   3.644  10.109 -0.0522 -0.4569 -0.4334
  155SAPE   H5R17257   3.875   3.661  10.211 -1.2771 -1.0141 -0.7945
  155SAPE   C2617258   3.857   3.696  10.000 -0.1969 -0.4503  0.3075
  155SAPE   H6R17259   3.782   3.774  10.022  0.0934  0.1686 -0.8058
  155SAPE   C2717260   3.877   3.660   9.853  0.2584 -0.0122 -0.4469
  155SAPE   H7R17261   3.858   3.552   9.840  1.1658  0.1776 -4.5004
  155SAPE   H7S17262   3.985   3.666   9.827  0.7101 -0.8952  1.0726
  155SAPE   C2817263   3.804   3.719   9.741  0.1202  0.0659  0.0699
  155SAPE   H8R17264   3.695   3.706   9.735  0.0253  1.2213 -1.2734
  155SAPE   C2917265   3.850   3.804   9.648  0.3325  0.3713  0.1617
  155SAPE   H9R17266   3.779   3.819   9.566 -0.3164 -0.1767  0.6063
  155SAPE  C21017267   3.999   3.843   9.641  0.5311  0.0352 -0.4974
  155SAPE  H10R17268   4.049   3.750   9.608 -0.4650 -0.7962  0.2469
  155SAPE  H10S17269   4.037   3.869   9.742  2.1820  1.2819 -1.3846
  155SAPE  C21117270   4.027   3.957   9.544 -0.1206  0.2616  0.2760
  155SAPE  H11R17271   4.051   4.048   9.601 -0.0918  0.0949  0.5301
  155SAPE  C21217272   4.032   3.959   9.410 -0.2274 -0.2581 -0.4411
  155SAPE  H12R17273   4.048   4.060   9.370  1.3866 -1.0733 -1.9904
  155SAPE  C21317274   3.994   3.851   9.306  0.0024  0.0810 -0.0049
  155SAPE  H13R17275   3.923   3.780   9.353 -1.1133  1.3134  0.2281
  155SAPE  H13S17276   4.081   3.793   9.270 -0.5449 -0.8619  0.1619
  155SAPE  C21417277   3.924   3.908   9.184  0.5117  0.5340  0.1877
  155SAPE  H14R17278   3.959   4.004   9.142 -1.1002  0.5829 -1.1254
  155SAPE  C21517279   3.812   3.861   9.129 -0.3938 -0.2182  0.5830
  155SAPE  H15R17280   3.786   3.914   9.037  1.0037  0.7943  0.7429
  155SAPE  C21617281   3.729   3.742   9.165 -0.0593  0.1916 -0.2358
  155SAPE  H16R17282   3.647   3.772   9.233 -1.7184  2.6254 -3.0612
  155SAPE  H16S17283   3.796   3.675   9.223  0.5086  1.1750  0.2707
  155SAPE  C21717284   3.679   3.665   9.040 -0.1102  0.1270 -0.2593
  155SAPE  H17R17285   3.620   3.733   8.975 -1.7396 -2.1957 -1.3548
  155SAPE  H17S17286   3.610   3.581   9.064  2.1343 -1.9914 -0.6879
  155SAPE  C21817287   3.797   3.595   8.977 -0.5470  0.8783 -1.5449
  155SAPE  H18R17288   3.873   3.671   8.947  1.1483  0.6975  1.7735
  155SAPE  H18S17289   3.752   3.545   8.889 -2.2507  1.9720 -1.3375
  155SAPE  C21917290   3.873   3.485   9.065 -0.5060 -0.0302  0.1164
  155SAPE  H19R17291   3.793   3.409   9.082 -0.0570 -0.5731 -0.1545
  155SAPE  H19S17292   3.910   3.511   9.166 -0.2836 -0.0295  0.0349
  155SAPE  C22017293   3.989   3.423   8.990 -0.3856 -0.4066 -0.0207
  155SAPE  H20R17294   4.046   3.348   9.049 -1.4979 -0.6897  0.7278
  155SAPE  H20S17295   4.056   3.508   8.964 -1.8767  1.8525  2.8466
  155SAPE  H20T17296   3.952   3.369   8.901  0.9786 -2.2052  0.4479
  155SAPE   C3317297   3.533   3.277  10.209  0.2742  0.5304 -0.2175
  155SAPE   H3X17298   3.568   3.180  10.167  0.8384  0.3862  0.5618
  155SAPE   H3Y17299   3.622   3.328  10.250 -1.0008  2.7810 -0.0859
  155SAPE   C3417300   3.501   3.366  10.094  0.3870  0.3452  0.1445
  155SAPE   H4X17301   3.596   3.387  10.040  1.3588 -1.4578  1.0786
  155SAPE   H4Y17302   3.468   3.470  10.116  1.5464  0.5572  0.9886
  155SAPE   C3517303   3.403   3.292   9.996  0.3087  0.6029  0.1469
  155SAPE   H5X17304   3.306   3.277  10.049 -0.9891 -0.4159 -2.3534
  155SAPE   H5Y17305   3.445   3.191   9.976 -1.5401 -0.4818  1.4343
  155SAPE   C3617306   3.366   3.371   9.868  0.3078 -0.3177  0.0057
  155SAPE   H6X17307   3.380   3.480   9.883 -1.9581  0.2483 -1.4152
  155SAPE   H6Y17308   3.256   3.363   9.851  0.6864 -2.7748 -1.9303
  155SAPE   C3717309   3.415   3.321   9.739  0.1588  0.1392  0.2791
  155SAPE   H7X17310   3.389   3.215   9.718  0.1209  0.3647 -0.8812
  155SAPE   H7Y17311   3.526   3.319   9.751  0.0295  1.0848  1.9662
  155SAPE   C3817312   3.376   3.413   9.616  0.3172  0.3205  0.3742
  155SAPE   H8X17313   3.416   3.514   9.637  1.8725 -0.1932  0.0068
  155SAPE   H8Y17314   3.265   3.412   9.609  0.2674  1.9106  0.5788
  155SAPE   C3917315   3.427   3.357   9.481 -0.5040  0.3515 -0.1763
  155SAPE   H9X17316   3.431   3.246   9.488  0.3081  0.4582  1.7457
  155SAPE   H9Y17317   3.531   3.396   9.471 -1.1361  2.5654  1.1997
  155SAPE  C31017318   3.341   3.390   9.364  0.0945 -0.5801 -1.0225
  155SAPE  H10X17319   3.317   3.499   9.362 -0.5578 -0.6431 -4.9031
  155SAPE  H10Y17320   3.250   3.328   9.378  1.9949 -3.1496  0.7534
  155SAPE  C31117321   3.408   3.357   9.231  0.6982  0.1369 -0.0060
  155SAPE  H11X17322   3.470   3.265   9.237  2.3515  1.3122  1.9631
  155SAPE  H11Y17323   3.481   3.439   9.217  0.5664 -0.0898 -2.6727
  155SAPE  C31217324   3.308   3.357   9.113 -0.0624 -0.1227  0.1713
  155SAPE  H12X17325   3.255   3.453   9.097 -0.3852 -0.4056 -0.5097
  155SAPE  H12Y17326   3.228   3.280   9.118  2.2106 -2.6274  0.6068
  155SAPE  C31317327   3.370   3.323   8.975 -0.3248  0.2357  0.0917
  155SAPE  H13X17328   3.459   3.258   8.983  0.5791  1.5151  0.6225
  155SAPE  H13Y17329   3.416   3.411   8.927 -0.5430  0.9190  1.1118
  155SAPE  C31417330   3.264   3.251   8.885  0.1708  0.2292  0.7440
  155SAPE  H14X17331   3.170   3.310   8.884  1.5570  2.5632 -0.2351
  155SAPE  H14Y17332   3.236   3.151   8.925 -0.6290 -0.9084 -2.3305
  155SAPE  C31517333   3.319   3.244   8.741 -0.2679  0.2415  0.4681
  155SAPE  H15X17334   3.421   3.199   8.745 -0.5257 -0.3085  0.9402
  155SAPE  H15Y17335   3.338   3.345   8.697 -2.1574  1.3293  1.9962
  155SAPE  C31617336   3.241   3.150   8.643 -0.2354  0.1722  0.9679
  155SAPE  H16X17337   3.142   3.199   8.634 -1.0558 -1.3888  1.1848
  155SAPE  H16Y17338   3.234   3.052   8.694 -1.2084  0.3621  1.2147
  155SAPE  C31717339   3.314   3.145   8.509  0.1106 -0.1861  0.1940
  155SAPE  H17X17340   3.424   3.128   8.519  0.0532 -1.4783 -1.0502
  155SAPE  H17Y17341   3.300   3.241   8.454  2.3301  0.1716  0.1356
  155SAPE  C31817342   3.263   3.035   8.418  0.0460  0.0145 -0.7161
  155SAPE  H18X17343   3.153   3.040   8.405 -0.0392  0.6924  0.1752
  155SAPE  H18Y17344   3.279   2.936   8.466 -1.5760 -0.4480 -1.0909
  155SAPE  H18Z17345   3.303   3.036   8.315  1.3874  0.2829 -0.2189
  156SAPE     N17346   1.631   1.293  10.590 -0.1740 -0.4756 -0.8267
  156SAPE   HN117347   1.669   1.383  10.625 -1.4612  0.1383 -0.9296
  156SAPE   HN217348   1.531   1.315  10.572  0.0104  0.0720 -1.2123
  156SAPE   HN317349   1.630   1.236  10.677  0.8992 -0.1022 -0.5564
  156SAPE   C1217350   1.707   1.234  10.481 -0.6143  0.0834  0.3789
  156SAPE  H12A17351   1.797   1.186  10.525 -0.4775  0.6457  0.7222
  156SAPE  H12B17352   1.738   1.302  10.399 -0.8127 -1.0879 -0.7035
  156SAPE   C1117353   1.630   1.116  10.416  0.7621  0.8710 -0.3566
  156SAPE  H11A17354   1.690   1.068  10.335 -1.3590  0.1209 -1.5560
  156SAPE  H11B17355   1.539   1.161  10.371 -1.0210 -2.9420 -0.9768
  156SAPE     P17356   1.699   0.894  10.537  0.2798  0.2968  0.5885
  156SAPE   O1317357   1.811   0.965  10.598  0.3571 -0.5593 -0.7352
  156SAPE   O1417358   1.635   0.793  10.621 -0.4268  0.0076 -0.6822
  156SAPE   O1217359   1.589   1.010  10.510  0.2801 -0.2289  0.1644
  156SAPE   O1117360   1.740   0.835  10.397  0.7305 -0.0749  0.5253
  156SAPE    C117361   1.846   0.738  10.398 -0.2623  0.0943  0.1124
  156SAPE    HA17362   1.904   0.742  10.303  1.2418 -1.9795  0.8728
  156SAPE    HB17363   1.923   0.769  10.472  1.4684  0.5966 -1.7964
  156SAPE    C217364   1.803   0.593  10.421 -0.4766 -0.8777 -0.2875
  156SAPE    HS17365   1.695   0.589  10.446 -0.1735 -0.2386  1.2566
  156SAPE   O2117366   1.881   0.536  10.536  0.1627  0.0622 -0.1901
  156SAPE   C2117367   1.835   0.407  10.567  0.3983 -0.6739 -0.3547
  156SAPE   O2217368   1.725   0.368  10.536  0.2743  0.1909 -0.5281
  156SAPE   C2217369   1.934   0.331  10.648 -1.3203 -0.3697 -0.0714
  156SAPE   H2R17370   1.941   0.376  10.749  1.0627 -0.4339 -0.1708
  156SAPE   H2S17371   1.900   0.226  10.659 -1.5638 -0.6367 -2.6430
  156SAPE    C317372   1.817   0.523  10.281  0.3910  0.0887  0.4570
  156SAPE    HX17373   1.769   0.423  10.281 -1.5552  0.9722  0.7538
  156SAPE    HY17374   1.925   0.513  10.260  0.4609  0.1059  0.8023
  156SAPE   O3117375   1.765   0.593  10.160 -0.3459  0.3932  0.4154
  156SAPE   C3117376   1.632   0.604  10.147 -0.6799 -0.1146 -0.4511
  156SAPE   O3217377   1.555   0.558  10.229  0.3085 -1.0215  0.0637
  156SAPE   C3217378   1.601   0.706  10.034  0.2131  0.8620 -0.3214
  156SAPE   H2X17379   1.678   0.689   9.957 -2.0923  0.3763 -2.6623
  156SAPE   H2Y17380   1.603   0.810  10.074  0.3514  0.3354  1.1118
  156SAPE   C2317381   2.074   0.330  10.578  0.3477  0.2409  0.2691
  156SAPE   H3R17382   2.140   0.267  10.641  0.1886 -3.2649 -2.7166
  156SAPE   H3S17383   2.117   0.432  10.574  2.0632 -0.4640  0.0035
  156SAPE   C2417384   2.084   0.266  10.436  0.3274  0.1810 -0.3258
  156SAPE   H4R17385   2.189   0.264  10.401  0.6951 -0.0791  0.7329
  156SAPE   H4S17386   2.031   0.333  10.366 -0.6559  1.1937  1.3090
  156SAPE   C2517387   2.028   0.127  10.436  0.5409 -0.7698  0.1197
  156SAPE   H5R17388   2.074   0.055  10.506  0.6982 -1.9900 -1.1837
  156SAPE   C2617389   1.938   0.075  10.352 -0.2355 -0.2653  0.4700
  156SAPE   H6R17390   1.900  -0.027  10.368  0.1101 -0.6262 -0.8842
  156SAPE   C2717391   1.878   0.147  10.240 -0.3763  0.4177  0.0121
  156SAPE   H7R17392   1.820   0.236  10.274  0.1633  0.4815  0.7837
  156SAPE   H7S17393   1.803   0.080  10.193  0.6944 -0.1705 -0.8863
  156SAPE   C2817394   1.976   0.179  10.127  0.0360 -0.0984  0.0003
  156SAPE   H8R17395   2.082   0.163  10.154 -0.9555 -2.9397  2.9505
  156SAPE   C2917396   1.950   0.237  10.009  0.1836  0.2831  0.0284
  156SAPE   H9R17397   2.036   0.269   9.948 -0.3459  2.9566  0.5995
  156SAPE  C21017398   1.817   0.288   9.959 -0.4668 -0.8193 -0.2369
  156SAPE  H10R17399   1.824   0.392   9.921  1.7074 -0.1846  1.6611
  156SAPE  H10S17400   1.744   0.297  10.042 -2.2429  0.8084 -1.8884
  156SAPE  C21117401   1.760   0.201   9.845 -0.1649 -0.1618  0.0304
  156SAPE  H11R17402   1.725   0.103   9.880 -0.8625  0.3855  0.9174
  156SAPE  C21217403   1.737   0.243   9.720 -0.2450 -0.3716  0.0847
  156SAPE  H12R17404   1.724   0.164   9.644 -0.9858  0.2558 -0.4636
  156SAPE  C21317405   1.767   0.378   9.661  0.2227 -0.2993 -0.0919
  156SAPE  H13R17406   1.757   0.450   9.745  2.6637 -0.3450  0.3020
  156SAPE  H13S17407   1.693   0.401   9.581  2.2767 -1.0103 -2.3345
  156SAPE  C21417408   1.910   0.363   9.606  0.0153 -0.4301  0.1684
  156SAPE  H14R17409   1.987   0.345   9.682 -1.7645 -0.3480  2.0664
  156SAPE  C21517410   1.939   0.374   9.471  0.4610 -0.3253 -0.6930
  156SAPE  H15R17411   2.044   0.367   9.439  0.9785 -0.3792  0.9604
  156SAPE  C21617412   1.843   0.411   9.358  0.0731  0.0586 -0.1898
  156SAPE  H16R17413   1.884   0.489   9.292  0.5799  2.5547  2.8261
  156SAPE  H16S17414   1.757   0.464   9.405 -0.4276  0.1093 -1.1464
  156SAPE  C21717415   1.792   0.295   9.272 -0.8737 -0.2108  0.0145
  156SAPE  H17R17416   1.714   0.336   9.205 -0.0127  0.8494 -0.3775
  156SAPE  H17S17417   1.752   0.223   9.346  1.4966 -2.1766 -0.4478
  156SAPE  C21817418   1.897   0.243   9.174 -0.0900 -0.2051  0.0069
  156SAPE  H18R17419   1.975   0.190   9.232  0.9257  1.6886  0.4330
  156SAPE  H18S17420   1.957   0.327   9.132 -0.4244  0.6746  1.2435
  156SAPE  C21917421   1.837   0.142   9.072 -0.4386  0.5840  0.0671
  156SAPE  H19R17422   1.753   0.174   9.007  0.1421  1.2350 -0.3835
  156SAPE  H19S17423   1.783   0.059   9.122 -0.3922  0.6225  0.1820
  156SAPE  C22017424   1.947   0.084   8.979  0.0189 -0.0940  0.6217
  156SAPE  H20R17425   2.037   0.051   9.035  2.5046 -0.1856 -3.1060
  156SAPE  H20S17426   1.985   0.151   8.900  0.8001  0.2090  1.2372
  156SAPE  H20T17427   1.910  -0.003   8.920  0.2227  1.2339 -1.5372
  156SAPE   C3317428   1.462   0.695   9.968 -0.8239  0.1460  0.2882
  156SAPE   H3X17429   1.439   0.785   9.907  0.1053 -0.3862 -0.8878
  156SAPE   H3Y17430   1.392   0.691  10.054  0.3776  0.0241  1.3026
  156SAPE   C3417431   1.439   0.567   9.888  0.3715 -0.1531 -0.7180
  156SAPE   H4X17432   1.329   0.549   9.894 -0.4158  3.7135 -0.9876
  156SAPE   H4Y17433   1.477   0.481   9.947 -0.2935  1.2837  1.9550
  156SAPE   C3517434   1.490   0.558   9.739 -0.9288 -0.0838 -0.2206
  156SAPE   H5X17435   1.505   0.452   9.710  2.4978 -0.5214  2.4574
  156SAPE   H5Y17436   1.592   0.601   9.729 -2.5560  4.4568  0.5499
  156SAPE   C3617437   1.408   0.636   9.637  0.6564 -0.9722 -0.1956
  156SAPE   H6X17438   1.401   0.742   9.669 -1.3581 -0.9496 -0.6012
  156SAPE   H6Y17439   1.303   0.604   9.652  0.3226 -0.1258 -0.6583
  156SAPE   C3717440   1.447   0.630   9.484 -0.1709  0.1023  0.4643
  156SAPE   H7X17441   1.553   0.659   9.465 -0.5472  0.3584 -1.3951
  156SAPE   H7Y17442   1.382   0.699   9.426 -1.8046 -0.4441  1.5705
  156SAPE   C3817443   1.439   0.488   9.425 -0.1352  0.3661 -0.4528
  156SAPE   H8X17444   1.340   0.440   9.444  2.3175 -4.7675  1.2418
  156SAPE   H8Y17445   1.497   0.418   9.489  0.7899  0.8381 -0.7665
  156SAPE   C3917446   1.474   0.474   9.279 -0.2691  0.2337  0.1578
  156SAPE   H9X17447   1.451   0.368   9.257 -2.0564  0.5104  0.5968
  156SAPE   H9Y17448   1.584   0.488   9.267 -0.2916 -0.2743 -0.6934
  156SAPE  C31017449   1.404   0.569   9.184  0.4512  0.6242 -0.3878
  156SAPE  H10X17450   1.320   0.605   9.247 -0.0408 -1.8347  0.4661
  156SAPE  H10Y17451   1.367   0.509   9.098 -2.3991 -0.7993  1.6799
  156SAPE  C31117452   1.499   0.679   9.137 -0.1843 -0.3041  0.7500
  156SAPE  H11X17453   1.546   0.742   9.216  0.8464  2.4265 -1.8903
  156SAPE  H11Y17454   1.451   0.751   9.069  1.6668 -0.5262 -0.8758
  156SAPE  C31217455   1.620   0.643   9.047 -0.3736 -0.5092  0.2543
  156SAPE  H12X17456   1.692   0.585   9.108  1.2401  1.9117  0.7640
  156SAPE  H12Y17457   1.672   0.737   9.019  1.2191 -1.7732 -1.2791
  156SAPE  C31317458   1.588   0.562   8.923  0.1138 -0.2866  0.5524
  156SAPE  H13X17459   1.667   0.578   8.846  0.1218  0.2838  0.6736
  156SAPE  H13Y17460   1.486   0.584   8.886  0.7037 -0.6136 -1.4336
  156SAPE  C31417461   1.594   0.412   8.944  0.5073  0.2976  0.8285
  156SAPE  H14X17462   1.514   0.386   9.016  0.1042 -0.8851 -0.0276
  156SAPE  H14Y17463   1.688   0.365   8.981 -0.0168 -1.1704  0.3673
  156SAPE  C31517464   1.556   0.341   8.813  0.2367  0.4523 -0.5838
  156SAPE  H15X17465   1.471   0.391   8.761 -0.3454 -2.3005 -2.5216
  156SAPE  H15Y17466   1.514   0.243   8.843  1.7858 -0.5831 -1.7006
  156SAPE  C31617467   1.667   0.329   8.710  0.0089 -0.3757 -0.1742
  156SAPE  H16X17468   1.747   0.262   8.748  1.4354  1.7955  0.8528
  156SAPE  H16Y17469   1.726   0.422   8.695 -2.5951  1.3207 -0.4660
  156SAPE  C31717470   1.619   0.282   8.573 -0.2681  0.4008 -0.1957
  156SAPE  H17X17471   1.572   0.183   8.590  1.4401 -0.5040 -0.4789
  156SAPE  H17Y17472   1.702   0.261   8.502  0.0375 -1.0990  0.5571
  156SAPE  C31817473   1.525   0.381   8.501  0.4341 -0.5035  0.6448
  156SAPE  H18X17474   1.567   0.480   8.529 -0.2532 -0.3269  1.0588
  156SAPE  H18Y17475   1.422   0.389   8.542 -0.3680 -1.7953 -0.9727
  156SAPE  H18Z17476   1.518   0.381   8.390 -0.5198 -0.4474  0.6986
  157SAPE     N17477   6.720   0.673  10.813 -0.1526  0.2056  0.2749
  157SAPE   HN117478   6.743   0.774  10.817 -0.7322  0.4088 -1.1742
  157SAPE   HN217479   6.810   0.624  10.795  0.2654  0.8806  0.4905
  157SAPE   HN317480   6.658   0.667  10.730  1.3368  2.5549 -1.1300
  157SAPE   C1217481   6.671   0.618  10.942  0.2773 -0.1006  0.1200
  157SAPE  H12A17482   6.564   0.649  10.949  1.0511  2.7508  0.4956
  157SAPE  H12B17483   6.733   0.663  11.022  1.0482  1.4406 -1.2841
  157SAPE   C1117484   6.693   0.461  10.944  0.1446 -0.3731  0.2318
  157SAPE  H11A17485   6.654   0.422  11.041  1.1582  1.1103  1.2785
  157SAPE  H11B17486   6.803   0.443  10.939  0.2495  0.2547  0.1480
  157SAPE     P17487   6.625   0.257  10.795  0.3914  0.0865 -0.1976
  157SAPE   O1317488   6.741   0.180  10.847 -0.5171 -0.0598  0.2247
  157SAPE   O1417489   6.496   0.222  10.853  0.3144 -0.2345  0.2693
  157SAPE   O1217490   6.640   0.411  10.825  0.5209 -0.4755 -0.4245
  157SAPE   O1117491   6.609   0.252  10.645  0.0943  0.2409  0.0015
  157SAPE    C117492   6.591   0.378  10.572 -0.1837  0.2337  0.1724
  157SAPE    HA17493   6.504   0.439  10.604 -0.8085  0.9011 -2.4993
  157SAPE    HB17494   6.680   0.445  10.585 -0.3705 -0.0387  3.5813
  157SAPE    C217495   6.564   0.355  10.421  0.5235  0.5842  0.7918
  157SAPE    HS17496   6.521   0.445  10.372 -1.5595 -0.4072  0.6957
  157SAPE   O2117497   6.479   0.237  10.387  0.0567 -0.0068  0.3646
  157SAPE   C2117498   6.356   0.263  10.414  0.1252  0.2115  0.1569
  157SAPE   O2217499   6.308   0.363  10.469  0.1394  0.1933  0.6014
  157SAPE   C2217500   6.277   0.146  10.344 -0.2716 -0.4906 -0.2237
  157SAPE   H2R17501   6.260   0.176  10.238  2.8083  2.0380 -0.1269
  157SAPE   H2S17502   6.342   0.056  10.341  1.6890  0.8942 -0.9801
  157SAPE    C317503   6.706   0.330  10.346  0.7438  0.2175  0.2413
  157SAPE    HX17504   6.719   0.220  10.358 -1.8124 -0.2383 -0.4607
  157SAPE    HY17505   6.781   0.392  10.399  1.2682  0.9037 -1.2611
  157SAPE   O3117506   6.700   0.356  10.204 -0.3808  0.1629  0.0224
  157SAPE   C3117507   6.732   0.475  10.165  1.4972 -0.1489  0.1948
  157SAPE   O3217508   6.740   0.572  10.236 -0.6343 -0.0580 -0.4070
  157SAPE   C3217509   6.752   0.467  10.015 -0.0595  0.3341 -0.2439
  157SAPE   H2X17510   6.656   0.464   9.958 -0.2875  0.2505  0.1422
  157SAPE   H2Y17511   6.810   0.374  10.004  1.7163  1.5058 -1.4226
  157SAPE   C2317512   6.136   0.115  10.409  0.1580  0.5851  0.5454
  157SAPE   H3R17513   6.066   0.201  10.420 -1.9490 -0.9394 -0.1960
  157SAPE   H3S17514   6.144   0.078  10.514 -2.7591 -1.8146  0.0776
  157SAPE   C2417515   6.054   0.008  10.329 -0.5241  0.7711  0.0173
  157SAPE   H4R17516   5.967  -0.029  10.389  0.6746 -1.3565  0.5614
  157SAPE   H4S17517   6.116  -0.080  10.304 -0.5613  0.8035 -0.1850
  157SAPE   C2517518   6.021   0.081  10.199  0.5609  0.8531  0.3132
  157SAPE   H5R17519   5.946   0.160  10.214  0.4338  0.7817  0.0585
  157SAPE   C2617520   6.055   0.049  10.068  0.4345 -0.4782 -0.7136
  157SAPE   H6R17521   6.033   0.120   9.987 -0.2921 -0.0993 -0.1940
  157SAPE   C2717522   6.138  -0.072  10.022 -0.1977 -0.2122  0.2863
  157SAPE   H7R17523   6.054  -0.131   9.980 -1.4513  0.5586  1.5968
  157SAPE   H7S17524   6.173  -0.143  10.100 -2.3090 -0.3635  1.1662
  157SAPE   C2817525   6.228  -0.029   9.911 -0.0561  0.5089  0.1718
  157SAPE   H8R17526   6.176   0.009   9.822  2.2310  1.8575 -0.6770
  157SAPE   C2917527   6.363  -0.027   9.919  0.2435 -0.4844 -0.0235
  157SAPE   H9R17528   6.417   0.014   9.832 -0.3557  0.4607  0.0381
  157SAPE  C21017529   6.442  -0.050  10.048 -0.5568 -0.4839 -0.1377
  157SAPE  H10R17530   6.495  -0.147  10.048  1.1121  0.3790 -1.1069
  157SAPE  H10S17531   6.379  -0.048  10.140 -0.2642  0.5621  0.0582
  157SAPE  C21117532   6.551   0.056  10.054 -0.2621 -0.6565  0.2580
  157SAPE  H11R17533   6.527   0.132  10.129 -0.4754 -0.5358  0.0696
  157SAPE  C21217534   6.668   0.061   9.982 -0.3907 -0.4571  0.2440
  157SAPE  H12R17535   6.743   0.134  10.016  0.5396 -2.0236  1.7468
  157SAPE  C21317536   6.712  -0.038   9.876  0.4362  0.1932 -0.3817
  157SAPE  H13R17537   6.694  -0.141   9.915  0.8427  0.2553 -0.0327
  157SAPE  H13S17538   6.822  -0.029   9.872  0.4693  0.1362  0.2744
  157SAPE  C21417539   6.661  -0.034   9.739 -0.1953  0.1962  0.0635
  157SAPE  H14R17540   6.590  -0.112   9.708 -0.7935  0.8253 -0.1658
  157SAPE  C21517541   6.682   0.069   9.651  0.3334 -0.2272 -0.4816
  157SAPE  H15R17542   6.643   0.071   9.548 -0.3665 -0.8598 -0.2336
  157SAPE  C21617543   6.772   0.192   9.678 -0.0048 -0.4627 -0.4753
  157SAPE  H16R17544   6.842   0.181   9.764 -0.1059  0.1587 -0.3080
  157SAPE  H16S17545   6.706   0.278   9.705  0.2215 -1.1740  2.7787
  157SAPE  C21717546   6.846   0.245   9.557 -0.0396  0.2395  0.7501
  157SAPE  H17R17547   6.927   0.177   9.524 -0.0301  1.4450 -1.9698
  157SAPE  H17S17548   6.891   0.342   9.586  1.0597 -0.3682  1.1338
  157SAPE  C21817549   6.756   0.279   9.434 -0.3826  0.3610  0.3173
  157SAPE  H18R17550   6.695   0.191   9.402  0.3326 -0.7908  1.9892
  157SAPE  H18S17551   6.822   0.289   9.346  1.3896  0.9775  1.6736
  157SAPE  C21917552   6.667   0.400   9.451 -0.5740 -0.5950 -0.1427
  157SAPE  H19R17553   6.633   0.416   9.556 -0.6163 -1.9052  0.0608
  157SAPE  H19S17554   6.584   0.387   9.378  0.1200  1.5227 -1.3864
  157SAPE  C22017555   6.755   0.516   9.409  0.2610  0.2889  0.1675
  157SAPE  H20R17556   6.699   0.611   9.412 -0.9984 -0.4194 -0.1463
  157SAPE  H20S17557   6.794   0.500   9.306 -0.4553 -1.0840  0.0778
  157SAPE  H20T17558   6.837   0.527   9.484 -0.5552 -1.6466  1.4335
  157SAPE   C3317559   6.829   0.598   9.975 -0.3963 -0.1002 -0.4345
  157SAPE   H3X17560   6.921   0.598  10.036 -1.7172  1.4335  1.7139
  157SAPE   H3Y17561   6.773   0.684  10.018  0.7912  1.0320 -1.0893
  157SAPE   C3417562   6.856   0.625   9.822  0.1309 -0.2728 -0.4930
  157SAPE   H4X17563   6.864   0.735   9.817  3.3809 -0.4032 -0.0323
  157SAPE   H4Y17564   6.767   0.595   9.763  0.9408 -2.2966 -0.7751
  157SAPE   C3517565   6.991   0.574   9.766 -0.6483 -0.0680 -0.2345
  157SAPE   H5X17566   6.978   0.465   9.749  2.0347 -1.0011  2.8541
  157SAPE   H5Y17567   7.071   0.581   9.842 -1.9703  0.1310  1.1896
  157SAPE   C3617568   7.038   0.659   9.645  0.7988  0.5082 -0.0996
  157SAPE   H6X17569   6.951   0.672   9.577  1.6959  0.0102 -1.3947
  157SAPE   H6Y17570   7.114   0.613   9.578 -1.1420 -1.3534 -1.1432
  157SAPE   C3717571   7.103   0.785   9.695 -0.4243 -0.4476 -0.1864
  157SAPE   H7X17572   7.208   0.756   9.718 -0.1484  0.1606 -0.6548
  157SAPE   H7Y17573   7.038   0.824   9.777  0.8975  0.9440  0.2397
  157SAPE   C3817574   7.114   0.905   9.597 -0.6364  0.3279  0.6249
  157SAPE   H8X17575   7.163   0.868   9.504 -0.7716 -1.1482  1.1178
  157SAPE   H8Y17576   7.175   0.987   9.640 -0.7957  1.0842 -0.5448
  157SAPE   C3917577   6.986   0.969   9.555  0.1683 -0.2093  0.2149
  157SAPE   H9X17578   6.927   1.002   9.643 -1.1712 -0.6592 -0.4891
  157SAPE   H9Y17579   6.937   0.880   9.510  0.4203  1.3909 -3.5081
  157SAPE  C31017580   7.015   1.079   9.455 -0.3130 -0.2972  0.4438
  157SAPE  H10X17581   7.052   1.039   9.359 -1.8764 -1.6963  0.3895
  157SAPE  H10Y17582   7.098   1.151   9.476  0.1136 -0.8602  0.7253
  157SAPE  C31117583   6.880   1.140   9.427 -0.1072 -1.2539  0.2900
  157SAPE  H11X17584   6.848   1.200   9.515  1.1660 -0.7588  0.4399
  157SAPE  H11Y17585   6.801   1.068   9.396 -0.7037  0.6739 -3.2623
  157SAPE  C31217586   6.887   1.250   9.308 -0.6534  0.1757  0.2215
  157SAPE  H12X17587   6.783   1.290   9.305 -1.2023 -1.2519 -1.2281
  157SAPE  H12Y17588   6.915   1.210   9.209 -1.4058 -1.8784  0.7902
  157SAPE  C31317589   6.985   1.364   9.348 -0.4144 -0.5835  0.0367
  157SAPE  H13X17590   7.091   1.338   9.330 -0.2717 -0.0183  0.0520
  157SAPE  H13Y17591   6.965   1.375   9.456 -2.2300 -1.3212 -0.1741
  157SAPE  C31417592   6.953   1.503   9.285  0.0627 -0.1243  0.2670
  157SAPE  H14X17593   7.017   1.582   9.331  0.7683 -1.0165  0.8417
  157SAPE  H14Y17594   6.853   1.530   9.324  0.0380 -2.5007  2.0509
  157SAPE  C31517595   6.953   1.504   9.130  0.1673  0.4914  0.3129
  157SAPE  H15X17596   6.932   1.610   9.106  0.8434  0.7014  0.6023
  157SAPE  H15Y17597   6.878   1.434   9.089 -0.7586  1.3489  0.5263
  157SAPE  C31617598   7.083   1.463   9.068 -0.6544 -0.8194 -0.2335
  157SAPE  H16X17599   7.096   1.356   9.093 -0.1130 -0.3296  1.6953
  157SAPE  H16Y17600   7.169   1.515   9.116 -0.7853 -2.0436  1.3890
  157SAPE  C31717601   7.099   1.475   8.910  0.9079 -0.3241  0.1860
  157SAPE  H17X17602   7.006   1.444   8.858 -0.1535  2.8419 -0.0111
  157SAPE  H17Y17603   7.183   1.408   8.884 -0.7560 -2.9421  1.1083
  157SAPE  C31817604   7.132   1.613   8.867  0.1785 -0.0336 -0.1155
  157SAPE  H18X17605   7.077   1.688   8.927  0.1762  0.1093 -0.2957
  157SAPE  H18Y17606   7.113   1.626   8.758  1.5951 -1.4341 -0.5701
  157SAPE  H18Z17607   7.241   1.633   8.879  0.1551  1.3475 -1.8861
  158SAPE     N17608   0.193   0.072  10.811 -0.3653 -0.0355  0.0776
  158SAPE   HN117609   0.204   0.016  10.724  0.6596  1.2443 -0.6468
  158SAPE   HN217610   0.217   0.020  10.897  1.8162  0.0388 -0.4457
  158SAPE   HN317611   0.094   0.104  10.814 -0.3604  0.2081 -1.4736
  158SAPE   C1217612   0.277   0.204  10.803  0.2056  0.2776 -0.1398
  158SAPE  H12A17613   0.379   0.161  10.814 -1.0825 -2.4817  2.7087
  158SAPE  H12B17614   0.245   0.267  10.888 -4.7109 -2.0430  0.0770
  158SAPE   C1117615   0.266   0.273  10.670  0.0840 -0.0925  0.0687
  158SAPE  H11A17616   0.159   0.288  10.644  0.3684 -1.3567 -2.0517
  158SAPE  H11B17617   0.302   0.210  10.586  0.3383 -0.7040  0.6241
  158SAPE     P17618   0.285   0.532  10.664  0.1259  0.0492 -0.0692
  158SAPE   O1317619   0.188   0.552  10.776  0.1797  0.3762 -0.2600
  158SAPE   O1417620   0.404   0.616  10.657 -0.3415 -0.3956 -0.2227
  158SAPE   O1217621   0.352   0.390  10.677 -0.3068  0.4911 -0.2436
  158SAPE   O1117622   0.213   0.531  10.521 -0.4529  0.6333  0.3220
  158SAPE    C117623   0.268   0.452  10.415  0.6910  0.3098 -0.0629
  158SAPE    HA17624   0.334   0.365  10.438  2.2529  0.9411 -1.8384
  158SAPE    HB17625   0.187   0.413  10.350  1.8262  0.4134 -1.5990
  158SAPE    C217626   0.349   0.551  10.326  0.5890 -0.2115 -0.2795
  158SAPE    HS17627   0.415   0.608  10.395  0.0376 -1.8263  1.6675
  158SAPE   O2117628   0.267   0.640  10.246  0.0552  0.2119 -0.2520
  158SAPE   C2117629   0.324   0.763  10.240 -0.0400  0.2507  0.1557
  158SAPE   O2217630   0.436   0.792  10.278  0.1879  0.1284 -0.6269
  158SAPE   C2217631   0.223   0.861  10.181 -0.8675  0.4418  0.6880
  158SAPE   H2R17632   0.133   0.804  10.149  0.2347 -0.8973 -0.1366
  158SAPE   H2S17633   0.190   0.924  10.267 -0.8103 -1.6078  2.2787
  158SAPE    C317634   0.444   0.477  10.228  0.3314  0.2616  0.2601
  158SAPE    HX17635   0.511   0.417  10.294 -0.8099 -0.0340  1.1846
  158SAPE    HY17636   0.493   0.557  10.169 -1.4518  0.8078 -0.5317
  158SAPE   O3117637   0.354   0.384  10.158 -0.0499  0.2613  0.1005
  158SAPE   C3117638   0.416   0.317  10.062 -0.2618  0.1082  0.0001
  158SAPE   O3217639   0.535   0.329  10.035 -0.1585 -0.2008 -0.3086
  158SAPE   C3217640   0.311   0.216  10.019 -0.7737 -0.7685  0.3563
  158SAPE   H2X17641   0.224   0.259   9.966  1.0357  3.2282  0.2932
  158SAPE   H2Y17642   0.275   0.159  10.107 -1.2775  0.3066  0.8506
  158SAPE   C2317643   0.273   0.945  10.063  0.3426  1.0525  0.0990
  158SAPE   H3R17644   0.311   0.879   9.982  2.2705 -1.0674  2.5815
  158SAPE   H3S17645   0.364   0.999  10.097  3.1224 -1.5960 -2.6005
  158SAPE   C2417646   0.165   1.042  10.016  0.1321  0.3353 -0.1023
  158SAPE   H4R17647   0.125   1.091  10.108 -1.4601 -0.8040 -0.1420
  158SAPE   H4S17648   0.095   0.975   9.961  2.4362 -0.2449 -2.4985
  158SAPE   C2517649   0.225   1.147   9.927  0.4002  0.2956  0.0210
  158SAPE   H5R17650   0.276   1.116   9.835  0.2262  0.7822 -0.2405
  158SAPE   C2617651   0.231   1.274   9.956  0.0516 -0.2494  0.0063
  158SAPE   H6R17652   0.252   1.352   9.881  0.0541 -0.8275 -0.6071
  158SAPE   C2717653   0.174   1.344  10.081 -0.6621  0.1281 -0.5090
  158SAPE   H7R17654   0.071   1.306  10.098 -0.4274 -0.0229  0.6399
  158SAPE   H7S17655   0.161   1.451  10.056 -1.5260  0.1551  0.0270
  158SAPE   C2817656   0.230   1.325  10.210  0.2851  0.2223 -0.1653
  158SAPE   H8R17657   0.236   1.218  10.232 -1.4835 -0.1798 -1.4317
  158SAPE   C2917658   0.280   1.412  10.293 -0.9050 -0.6743 -0.0360
  158SAPE   H9R17659   0.311   1.381  10.394 -0.5503 -1.0655 -0.2622
  158SAPE  C21017660   0.287   1.564  10.267  0.2353 -0.2848 -0.1514
  158SAPE  H10R17661   0.232   1.591  10.174  1.0316  3.5456  0.3420
  158SAPE  H10S17662   0.393   1.590  10.246 -0.0027  1.6597  0.9071
  158SAPE  C21117663   0.243   1.648  10.388  0.1633  0.1343  0.2089
  158SAPE  H11R17664   0.314   1.673  10.468 -0.1365  1.7636 -0.0001
  158SAPE  C21217665   0.114   1.683  10.405  0.4816 -0.3732 -1.0647
  158SAPE  H12R17666   0.088   1.738  10.496  0.1451 -2.6414  0.2724
  158SAPE  C21317667   0.000   1.665  10.311  1.1125 -0.1619 -0.1395
  158SAPE  H13R17668  -0.079   1.621  10.376  0.8971 -0.5079 -0.6302
  158SAPE  H13S17669   0.017   1.586  10.235  0.3504 -1.3638  0.9001
  158SAPE  C21417670  -0.050   1.799  10.262  0.1305 -0.7423 -0.2276
  158SAPE  H14R17671  -0.009   1.888  10.312  1.5595  0.0561 -2.6275
  158SAPE  C21517672  -0.128   1.810  10.155 -0.1484  0.2618  0.4007
  158SAPE  H15R17673  -0.177   1.906  10.137 -1.6606 -0.3390  1.1720
  158SAPE  C21617674  -0.186   1.702  10.065 -0.0942  0.1167  0.0780
  158SAPE  H16R17675  -0.286   1.730  10.025  0.0426 -0.1163 -0.4336
  158SAPE  H16S17676  -0.204   1.602  10.110 -0.5567 -0.3845 -1.1739
  158SAPE  C21717677  -0.101   1.688   9.937 -0.1633 -0.4418 -0.4074
  158SAPE  H17R17678   0.004   1.687   9.974 -0.8090 -0.0052  1.5745
  158SAPE  H17S17679  -0.102   1.767   9.859 -0.0558 -2.4026 -2.5078
  158SAPE  C21817680  -0.129   1.560   9.854  0.4345 -0.1145 -0.0110
  158SAPE  H18R17681  -0.236   1.546   9.825  0.8824  0.6418 -2.2921
  158SAPE  H18S17682  -0.104   1.466   9.907 -1.3717 -1.4508 -1.3993
  158SAPE  C21917683  -0.057   1.562   9.713 -0.3603 -0.3382 -0.0561
  158SAPE  H19R17684   0.053   1.570   9.712 -0.4237  1.1485  0.9993
  158SAPE  H19S17685  -0.099   1.651   9.661 -0.5958 -0.5644 -0.2574
  158SAPE  C22017686  -0.096   1.435   9.629 -0.3981  0.1549  0.2599
  158SAPE  H20R17687  -0.081   1.348   9.696  1.5076  1.1026  1.1424
  158SAPE  H20S17688  -0.028   1.436   9.541 -0.3268 -0.5522  0.3047
  158SAPE  H20T17689  -0.200   1.454   9.596  0.7990  0.0666 -4.2180
  158SAPE   C3317690   0.361   0.110   9.920 -0.1336  0.5793 -0.5149
  158SAPE   H3X17691   0.285   0.029   9.924 -0.5364  0.9207 -1.1286
  158SAPE   H3Y17692   0.457   0.070   9.960 -0.0334  1.4061  0.0979
  158SAPE   C3417693   0.365   0.154   9.775  0.1391 -0.8684 -0.2259
  158SAPE   H4X17694   0.268   0.175   9.724  0.0443 -0.8635 -0.0439
  158SAPE   H4Y17695   0.392   0.060   9.722  1.0787 -1.1636  0.7446
  158SAPE   C3517696   0.471   0.262   9.738 -0.4855  0.4824  0.6604
  158SAPE   H5X17697   0.567   0.245   9.791 -0.6132 -2.5601  0.1188
  158SAPE   H5Y17698   0.435   0.366   9.750 -1.0960  0.2452  0.9389
  158SAPE   C3617699   0.514   0.252   9.588 -0.2206 -0.1997 -0.0787
  158SAPE   H6X17700   0.479   0.160   9.537  1.0332  1.0455 -3.5564
  158SAPE   H6Y17701   0.625   0.257   9.574 -0.3742  0.8227 -1.1415
  158SAPE   C3717702   0.453   0.372   9.510 -0.0412  0.1599  0.4432
  158SAPE   H7X17703   0.513   0.459   9.542  2.2337 -1.0988 -0.1689
  158SAPE   H7Y17704   0.349   0.375   9.549  0.8105 -0.0960  2.9193
  158SAPE   C3817705   0.441   0.360   9.363 -0.3175 -0.0645  1.4597
  158SAPE   H8X17706   0.396   0.263   9.333  1.6662 -1.3552  2.4202
  158SAPE   H8Y17707   0.538   0.370   9.310 -1.0521 -1.4636 -0.2327
  158SAPE   C3917708   0.345   0.467   9.303 -1.0190  0.2964 -0.4166
  158SAPE   H9X17709   0.378   0.568   9.337 -1.4830  0.6493 -0.9907
  158SAPE   H9Y17710   0.246   0.447   9.350 -1.1990  0.9692 -0.4894
  158SAPE  C31017711   0.345   0.456   9.150 -0.4835 -0.5406 -0.0052
  158SAPE  H10X17712   0.348   0.349   9.121 -1.7068 -0.8087  0.8065
  158SAPE  H10Y17713   0.446   0.495   9.124 -0.8329  0.4505  0.0920
  158SAPE  C31117714   0.233   0.527   9.085  0.1649 -0.2892  0.3225
  158SAPE  H11X17715   0.142   0.480   9.127  0.8767 -1.6844  0.3679
  158SAPE  H11Y17716   0.223   0.506   8.977 -1.7396 -1.2686  0.6441
  158SAPE  C31217717   0.221   0.672   9.114 -0.1061  0.2824  0.0132
  158SAPE  H12X17718   0.310   0.716   9.064 -0.7804  0.6064 -0.9345
  158SAPE  H12Y17719   0.238   0.685   9.223  3.3308 -1.6479 -0.1561
  158SAPE  C31317720   0.091   0.735   9.051 -0.0237 -0.1735 -0.5503
  158SAPE  H13X17721   0.007   0.674   9.088  0.8735 -0.6464  0.7819
  158SAPE  H13Y17722   0.099   0.718   8.942 -0.8520 -2.4554 -0.3000
  158SAPE  C31417723   0.072   0.886   9.088  0.0278  0.1708 -0.0124
  158SAPE  H14X17724   0.142   0.947   9.026  0.3958 -0.9846 -0.7681
  158SAPE  H14Y17725   0.106   0.885   9.194 -1.2139 -0.9686  0.4010
  158SAPE  C31517726  -0.073   0.937   9.088 -0.2392 -0.1611  0.4064
  158SAPE  H15X17727  -0.068   1.033   9.142 -0.1177  1.2003 -1.8926
  158SAPE  H15Y17728  -0.141   0.876   9.151  1.8441 -0.6914  2.2712
  158SAPE  C31617729  -0.135   0.960   8.949 -0.1183  0.0188 -0.4087
  158SAPE  H16X17730  -0.110   0.877   8.879  1.0486 -0.0186  0.0371
  158SAPE  H16Y17731  -0.074   1.043   8.908  0.9031 -0.4541  0.1071
  158SAPE  C31717732  -0.284   0.999   8.961 -0.0163 -0.0222  0.0224
  158SAPE  H17X17733  -0.299   1.072   9.043 -0.6142  0.2746 -0.3366
  158SAPE  H17Y17734  -0.347   0.910   8.982 -0.8122  0.8811  1.6847
  158SAPE  C31817735  -0.344   1.053   8.829 -0.1329  1.0175 -1.2921
  158SAPE  H18X17736  -0.447   1.089   8.850 -0.4946 -0.0997 -1.1370
  158SAPE  H18Y17737  -0.346   0.982   8.744  0.8010  0.1555 -0.6185
  158SAPE  H18Z17738  -0.298   1.147   8.790  1.5782  0.0145 -1.7916
  159SAPE     N17739   2.540   4.381   6.467  0.4033  0.2105  0.2181
  159SAPE   HN117740   2.517   4.456   6.399 -2.4237  0.0541  0.8836
  159SAPE   HN217741   2.633   4.400   6.511  1.2680 -1.7644 -0.6473
  159SAPE   HN317742   2.559   4.292   6.417 -0.4035  1.2278 -2.0334
  159SAPE   C1217743   2.431   4.363   6.567  0.1041  0.6724  0.3919
  159SAPE  H12A17744   2.472   4.309   6.655 -1.7974 -0.0839  0.8795
  159SAPE  H12B17745   2.359   4.290   6.525 -0.7098  1.1264  0.9530
  159SAPE   C1117746   2.375   4.499   6.600  0.1492  0.7014  0.1896
  159SAPE  H11A17747   2.452   4.560   6.651  0.5585  0.5529 -0.2480
  159SAPE  H11B17748   2.303   4.479   6.682  0.0158  1.5353  0.2877
  159SAPE     P17749   2.175   4.512   6.430  0.0855  0.0588 -0.0104
  159SAPE   O1317750   2.118   4.606   6.337  0.1906 -0.4936 -0.3238
  159SAPE   O1417751   2.184   4.373   6.386 -0.0556 -0.1095 -0.0249
  159SAPE   O1217752   2.316   4.566   6.484  0.4168  0.3773 -1.3767
  159SAPE   O1117753   2.075   4.519   6.554 -0.8835  0.1162 -0.1003
  159SAPE    C117754   2.066   4.645   6.624 -0.2562 -0.2221 -0.0631
  159SAPE    HA17755   2.158   4.675   6.679 -0.2267 -0.4715  0.0222
  159SAPE    HB17756   2.047   4.723   6.547 -0.5774  0.4721  0.7060
  159SAPE    C217757   1.953   4.647   6.724  0.1368 -0.3928  0.3837
  159SAPE    HS17758   1.927   4.747   6.766 -3.3149 -0.3599 -1.4595
  159SAPE   O2117759   1.998   4.556   6.828  0.5191  0.1654 -0.4875
  159SAPE   C2117760   1.950   4.575   6.943 -0.4365 -0.4558 -0.1018
  159SAPE   O2217761   1.898   4.674   6.986 -0.1622 -0.3453  0.4357
  159SAPE   C2217762   1.981   4.451   7.032  0.1858  0.1686 -0.1797
  159SAPE   H2R17763   1.927   4.370   6.977  0.2839 -0.4122  0.5582
  159SAPE   H2S17764   2.090   4.428   7.031  0.1097 -0.2957 -1.8707
  159SAPE    C317765   1.826   4.602   6.658  0.4467 -0.5272  0.1424
  159SAPE    HX17766   1.839   4.492   6.648  2.2027 -0.3242 -0.0502
  159SAPE    HY17767   1.815   4.640   6.554 -1.0804 -3.2178 -0.7811
  159SAPE   O3117768   1.712   4.634   6.739 -0.4031 -0.2471  0.3921
  159SAPE   C3117769   1.642   4.533   6.804  0.3019  0.0827  0.0906
  159SAPE   O3217770   1.688   4.420   6.824  0.1947 -0.6134  0.1165
  159SAPE   C3217771   1.507   4.585   6.861  0.3187 -0.1375 -0.1038
  159SAPE   H2X17772   1.436   4.500   6.856  0.7578 -0.6165  1.3578
  159SAPE   H2Y17773   1.479   4.678   6.807  1.8344 -0.7417 -2.0510
  159SAPE   C2317774   1.921   4.454   7.176  0.1088  0.1294  0.4141
  159SAPE   H3R17775   1.928   4.348   7.208 -0.1841  0.1973  0.7036
  159SAPE   H3S17776   1.814   4.481   7.184 -0.3021 -1.8212  2.3361
  159SAPE   C2417777   2.000   4.554   7.264 -0.1766 -0.5440  0.0589
  159SAPE   H4R17778   1.928   4.590   7.341 -0.0765 -1.2488  0.4953
  159SAPE   H4S17779   2.017   4.646   7.204  0.3832 -2.3606 -2.7538
  159SAPE   C2517780   2.131   4.494   7.310  0.2243 -0.8445  0.1073
  159SAPE   H5R17781   2.213   4.501   7.236  1.4419 -0.3976  1.4509
  159SAPE   C2617782   2.151   4.424   7.417 -0.2869  0.0251  0.3398
  159SAPE   H6R17783   2.254   4.399   7.444 -0.0909 -0.4424 -0.7914
  159SAPE   C2717784   2.037   4.401   7.511  0.1345  0.8246 -0.1655
  159SAPE   H7R17785   1.935   4.404   7.467 -0.4203 -2.3565  0.6871
  159SAPE   H7S17786   2.039   4.492   7.576  1.0986  1.0927 -0.5434
  159SAPE   C2817787   2.064   4.274   7.599 -0.1738 -0.6330 -0.0927
  159SAPE   H8R17788   2.076   4.179   7.546 -1.2938 -2.5247  2.7901
  159SAPE   C2917789   2.087   4.277   7.730 -0.7561  0.6549 -0.5138
  159SAPE   H9R17790   2.101   4.184   7.787 -0.5386  1.2216  0.3747
  159SAPE  C21017791   2.101   4.403   7.814 -0.4532  0.2287 -0.5519
  159SAPE  H10R17792   2.001   4.425   7.857 -0.7334 -0.8753 -0.5918
  159SAPE  H10S17793   2.128   4.497   7.761  0.7606  0.7473  0.9235
  159SAPE  C21117794   2.178   4.391   7.948  0.6886 -0.3810 -0.0004
  159SAPE  H11R17795   2.167   4.288   7.985 -1.2477 -0.7635 -1.5263
  159SAPE  C21217796   2.249   4.487   8.017  0.4199 -0.1068 -0.0473
  159SAPE  H12R17797   2.283   4.458   8.118 -1.5488  0.3602  0.7896
  159SAPE  C21317798   2.273   4.637   7.987 -0.0154 -0.3110  0.2409
  159SAPE  H13R17799   2.255   4.664   7.881  0.0890 -0.5874  0.1503
  159SAPE  H13S17800   2.383   4.649   7.995  0.0297 -0.2772 -0.3723
  159SAPE  C21417801   2.230   4.743   8.090  0.1496 -0.2024  0.4296
  159SAPE  H14R17802   2.133   4.790   8.070  0.3441  0.0228 -0.0030
  159SAPE  C21517803   2.282   4.787   8.208 -0.5373 -0.3305  0.1058
  159SAPE  H15R17804   2.229   4.862   8.269 -0.6554 -1.1594  1.0386
  159SAPE  C21617805   2.404   4.733   8.266  0.0534 -0.6286  0.4337
  159SAPE  H16R17806   2.480   4.813   8.274  1.9020 -1.9294 -2.4168
  159SAPE  H16S17807   2.451   4.665   8.192  0.5217  0.9737 -0.7843
  159SAPE  C21717808   2.367   4.663   8.402  1.2179  0.5430  0.1532
  159SAPE  H17R17809   2.462   4.619   8.439  0.8667  1.2162  1.9727
  159SAPE  H17S17810   2.291   4.584   8.386 -0.5258  1.6383  2.3114
  159SAPE  C21817811   2.315   4.761   8.505 -0.0134  0.3337 -0.8577
  159SAPE  H18R17812   2.215   4.805   8.486 -0.4313 -0.5384 -0.7015
  159SAPE  H18S17813   2.387   4.846   8.501  1.5722 -0.7228  2.0522
  159SAPE  C21917814   2.327   4.701   8.645  0.6313  0.0271 -0.1771
  159SAPE  H19R17815   2.276   4.602   8.640 -0.2908  0.5600 -2.1290
  159SAPE  H19S17816   2.270   4.771   8.710 -2.2007 -0.4544 -1.9580
  159SAPE  C22017817   2.469   4.688   8.702 -1.2573 -0.6067  0.1881
  159SAPE  H20R17818   2.484   4.778   8.766  1.2988 -0.4856 -0.4821
  159SAPE  H20S17819   2.542   4.686   8.618 -0.2109 -0.3755  1.0795
  159SAPE  H20T17820   2.500   4.603   8.766 -0.8524  0.5530  1.5971
  159SAPE   C3317821   1.523   4.626   7.010 -0.1232 -0.2415 -0.1174
  159SAPE   H3X17822   1.431   4.687   7.027  1.0264  1.2228  1.2305
  159SAPE   H3Y17823   1.612   4.689   7.031  0.8931 -1.1312 -1.6072
  159SAPE   C3417824   1.532   4.510   7.103 -0.1667  0.4666 -0.6466
  159SAPE   H4X17825   1.622   4.446   7.089 -1.6640 -1.5520 -1.5387
  159SAPE   H4Y17826   1.445   4.450   7.067 -1.4731  2.5521 -1.1235
  159SAPE   C3517827   1.487   4.527   7.252 -0.6332 -0.3314  1.0658
  159SAPE   H5X17828   1.479   4.429   7.305  3.5582 -0.4503  1.9024
  159SAPE   H5Y17829   1.393   4.584   7.263 -0.3931  0.0652  1.0898
  159SAPE   C3617830   1.598   4.589   7.330 -0.4368 -0.3775 -0.0033
  159SAPE   H6X17831   1.634   4.684   7.285  0.1399 -0.0728  1.0644
  159SAPE   H6Y17832   1.690   4.527   7.327 -0.2380 -0.1492  1.0215
  159SAPE   C3717833   1.553   4.621   7.475 -0.2233 -0.7481  0.9791
  159SAPE   H7X17834   1.517   4.528   7.524  1.7488 -0.9708  2.1333
  159SAPE   H7Y17835   1.458   4.678   7.471  0.2615  0.1902  2.3342
  159SAPE   C3817836   1.667   4.682   7.551  0.0857 -0.4750 -0.0097
  159SAPE   H8X17837   1.652   4.790   7.530  0.8163 -0.4375 -0.4092
  159SAPE   H8Y17838   1.764   4.651   7.505  1.4720  2.0477  1.0331
  159SAPE   C3917839   1.664   4.658   7.700  0.3681 -0.1710  0.3192
  159SAPE   H9X17840   1.673   4.554   7.739 -0.0777 -0.0428  0.7776
  159SAPE   H9Y17841   1.560   4.686   7.727 -0.0016 -1.6632  0.5338
  159SAPE  C31017842   1.767   4.740   7.772 -0.1535  0.4099  0.0793
  159SAPE  H10X17843   1.753   4.847   7.748  1.0217  0.4459 -0.4837
  159SAPE  H10Y17844   1.874   4.722   7.748 -0.2175  0.5202 -0.2792
  159SAPE  C31117845   1.753   4.716   7.925  0.7505 -0.6160  0.3591
  159SAPE  H11X17846   1.794   4.614   7.941 -2.1485 -2.2490 -1.7569
  159SAPE  H11Y17847   1.646   4.724   7.953  0.2671  2.6830 -1.8318
  159SAPE  C31217848   1.829   4.835   7.997 -0.7119 -0.0169 -0.3148
  159SAPE  H12X17849   1.774   4.925   7.963 -0.5352  0.0392 -0.4559
  159SAPE  H12Y17850   1.933   4.831   7.957 -0.9216  1.5140 -1.0761
  159SAPE  C31317851   1.816   4.837   8.152 -0.8371 -0.3317  0.5670
  159SAPE  H13X17852   1.878   4.757   8.199 -1.9298 -0.9507  1.0002
  159SAPE  H13Y17853   1.715   4.807   8.188 -1.6290  0.2230 -1.1372
  159SAPE  C31417854   1.878   4.966   8.209 -0.2356  0.8290 -0.8805
  159SAPE  H14X17855   1.795   5.037   8.186  0.0947  1.0144 -1.4939
  159SAPE  H14Y17856   1.961   5.006   8.148  2.2281 -3.4246 -0.7029
  159SAPE  C31517857   1.929   4.942   8.353  0.2136  0.0403  0.0687
  159SAPE  H15X17858   2.016   4.873   8.355  0.2322 -0.0504 -2.0388
  159SAPE  H15Y17859   1.845   4.890   8.405  1.1926 -2.8564 -1.0354
  159SAPE  C31617860   1.986   5.068   8.422  0.1819 -0.0385  0.0622
  159SAPE  H16X17861   2.017   5.045   8.526 -1.4497  2.7921  1.3150
  159SAPE  H16Y17862   1.903   5.141   8.435  1.6682  2.1767 -2.0187
  159SAPE  C31717863   2.100   5.139   8.351  0.0100 -0.3204  0.0260
  159SAPE  H17X17864   2.038   5.175   8.266 -0.8493 -1.8507 -0.0408
  159SAPE  H17Y17865   2.174   5.073   8.301  0.4539  1.1720 -1.3828
  159SAPE  C31817866   2.164   5.243   8.445  0.0273 -0.4416  0.2929
  159SAPE  H18X17867   2.100   5.322   8.489  0.4991  0.5648 -0.7994
  159SAPE  H18Y17868   2.249   5.289   8.390 -2.2657  2.6132 -0.9489
  159SAPE  H18Z17869   2.205   5.184   8.531 -0.0758 -0.4340  0.3474
  160SAPE     N17870   0.436   4.279   6.562  0.1647 -0.1622  0.0644
  160SAPE   HN117871   0.493   4.360   6.530 -1.4741  0.9391 -0.1343
  160SAPE   HN217872   0.475   4.186   6.536 -1.3239 -0.6916 -0.3457
  160SAPE   HN317873   0.353   4.266   6.501  1.2060 -4.0525 -0.8444
  160SAPE   C1217874   0.402   4.305   6.705  0.3270  0.0452  0.3840
  160SAPE  H12A17875   0.493   4.321   6.766 -0.8290 -1.8406  2.8455
  160SAPE  H12B17876   0.363   4.209   6.745 -0.9728 -0.3044 -1.5559
  160SAPE   C1117877   0.303   4.413   6.718 -0.0991 -0.1880  0.2597
  160SAPE  H11A17878   0.282   4.437   6.825  1.8665  1.6244  0.3101
  160SAPE  H11B17879   0.209   4.380   6.670  0.6260 -0.2453 -1.1894
  160SAPE     P17880   0.266   4.655   6.645  0.0097 -0.3727 -0.4793
  160SAPE   O1317881   0.309   4.729   6.529  0.9697  0.0626 -0.1787
  160SAPE   O1417882   0.127   4.599   6.648  0.6503  0.3131 -0.1768
  160SAPE   O1217883   0.369   4.531   6.665 -0.0788  0.2805  0.4859
  160SAPE   O1117884   0.299   4.744   6.767 -0.0802  0.3389  0.7307
  160SAPE    C117885   0.369   4.711   6.882 -0.7499 -0.8837  0.0198
  160SAPE    HA17886   0.305   4.686   6.969 -0.0791  1.3019  1.2343
  160SAPE    HB17887   0.442   4.628   6.877 -0.6656 -1.0268  2.5212
  160SAPE    C217888   0.464   4.828   6.915 -0.3625 -0.4851  0.1294
  160SAPE    HS17889   0.543   4.783   6.979 -1.5308 -0.8445  1.3940
  160SAPE   O2117890   0.394   4.941   6.979  0.1710  0.3982 -0.5006
  160SAPE   C2117891   0.348   4.908   7.098 -0.2481 -0.4131 -0.1214
  160SAPE   O2217892   0.366   4.803   7.154 -0.4000 -0.2370 -0.7753
  160SAPE   C2217893   0.305   5.036   7.163 -0.4312  0.8313  0.1598
  160SAPE   H2R17894   0.382   5.115   7.171  0.5648 -0.2025  0.9384
  160SAPE   H2S17895   0.227   5.077   7.094  1.7514  1.1896 -2.2590
  160SAPE    C317896   0.528   4.884   6.791 -0.8407  0.4669 -0.0183
  160SAPE    HX17897   0.456   4.943   6.730  0.1439 -1.7962 -3.6793
  160SAPE    HY17898   0.562   4.796   6.732  0.4765  0.1637  1.1400
  160SAPE   O3117899   0.644   4.958   6.825  0.2547  0.3686  0.4756
  160SAPE   C3117900   0.632   5.089   6.815  0.1755  0.1169 -0.1325
  160SAPE   O3217901   0.537   5.155   6.784 -0.4896 -0.3677  0.3804
  160SAPE   C3217902   0.775   5.142   6.856  0.3414 -0.0795  0.5808
  160SAPE   H2X17903   0.765   5.253   6.866 -0.8388 -0.2465  1.4926
  160SAPE   H2Y17904   0.837   5.110   6.769  1.8657 -0.7042  1.8557
  160SAPE   C2317905   0.249   5.007   7.303 -0.5442 -0.5376  0.4315
  160SAPE   H3R17906   0.331   4.972   7.369 -0.3846  0.8877  1.0372
  160SAPE   H3S17907   0.173   4.926   7.310 -2.4469  1.2172  1.2791
  160SAPE   C2417908   0.198   5.140   7.361  0.0276 -0.2246  0.2451
  160SAPE   H4R17909   0.144   5.192   7.279 -2.1706 -0.2159  1.6036
  160SAPE   H4S17910   0.284   5.201   7.395 -0.5524  1.1760 -0.7515
  160SAPE   C2517911   0.107   5.100   7.475 -0.0493 -0.2370  0.1818
  160SAPE   H5R17912   0.028   5.028   7.450  1.9097 -2.9459  1.2581
  160SAPE   C2617913   0.118   5.131   7.606  0.1929 -0.2006  0.2484
  160SAPE   H6R17914   0.040   5.093   7.673 -2.5463  1.3768 -1.8624
  160SAPE   C2717915   0.216   5.229   7.660 -0.7601  0.4074 -0.1263
  160SAPE   H7R17916   0.171   5.328   7.642  2.5179  1.7210 -2.0722
  160SAPE   H7S17917   0.308   5.223   7.597 -2.9687  0.4435 -3.6591
  160SAPE   C2817918   0.242   5.197   7.803 -0.7435 -0.1463  0.3947
  160SAPE   H8R17919   0.280   5.098   7.832  1.8252  0.8399  0.6273
  160SAPE   C2917920   0.224   5.274   7.905  0.4024  0.3351  0.1228
  160SAPE   H9R17921   0.240   5.230   8.004 -1.6945 -2.2466 -0.5617
  160SAPE  C21017922   0.168   5.419   7.905  0.1963  0.7069 -0.5756
  160SAPE  H10R17923   0.075   5.430   7.965  0.5400 -0.9111  0.3289
  160SAPE  H10S17924   0.113   5.434   7.810 -1.3923 -0.4374  0.1204
  160SAPE  C21117925   0.273   5.530   7.929  1.0562  0.1393  0.2155
  160SAPE  H11R17926   0.289   5.585   7.835 -1.1257  0.9698  0.2796
  160SAPE  C21217927   0.332   5.565   8.043  0.2766  0.0096 -0.2765
  160SAPE  H12R17928   0.406   5.647   8.048  0.4158 -0.1652  1.0310
  160SAPE  C21317929   0.315   5.493   8.180  0.0638 -0.4503 -0.0798
  160SAPE  H13R17930   0.223   5.432   8.194  0.7209 -1.0842  1.8596
  160SAPE  H13S17931   0.298   5.580   8.247  0.1577 -0.6050  0.1471
  160SAPE  C21417932   0.443   5.421   8.218  0.0384  0.1314  0.6666
  160SAPE  H14R17933   0.531   5.444   8.156  0.5860 -1.1164  0.9286
  160SAPE  C21517934   0.445   5.311   8.298  0.5314  0.1361 -0.5463
  160SAPE  H15R17935   0.536   5.251   8.318 -0.8154 -1.9732 -0.4592
  160SAPE  C21617936   0.328   5.248   8.369 -1.0117 -0.1277  0.1214
  160SAPE  H16R17937   0.281   5.177   8.296  0.5243  0.4731 -1.5320
  160SAPE  H16S17938   0.255   5.320   8.411 -0.7908 -1.0199  2.1122
  160SAPE  C21717939   0.382   5.156   8.485  0.5629  0.1237 -0.1654
  160SAPE  H17R17940   0.295   5.137   8.552  1.3990 -3.1401  0.1353
  160SAPE  H17S17941   0.468   5.209   8.533 -1.0048  0.7931  2.0949
  160SAPE  C21817942   0.413   5.016   8.445 -0.0561  0.6559 -0.1736
  160SAPE  H18R17943   0.507   5.016   8.385  0.7724  1.2193  1.0733
  160SAPE  H18S17944   0.326   4.983   8.384 -1.6369  2.1514  1.1590
  160SAPE  C21917945   0.450   4.926   8.562 -0.9482 -0.3234 -0.3745
  160SAPE  H19R17946   0.468   4.823   8.523 -1.0247 -0.0856 -1.0556
  160SAPE  H19S17947   0.372   4.924   8.641 -1.5197 -4.6806 -0.7558
  160SAPE  C22017948   0.579   4.973   8.631  0.1086  0.7618 -0.1721
  160SAPE  H20R17949   0.660   5.000   8.560 -0.1085 -2.1229 -1.7089
  160SAPE  H20S17950   0.604   4.889   8.699 -0.1776  0.1652 -0.7886
  160SAPE  H20T17951   0.554   5.052   8.704 -0.5694 -0.9265  1.4980
  160SAPE   C3317952   0.834   5.108   6.991  0.0703  0.0544 -0.0134
  160SAPE   H3X17953   0.942   5.088   6.973 -0.0535 -0.9118  0.2309
  160SAPE   H3Y17954   0.791   5.009   7.018  2.2324 -1.4490 -1.7192
  160SAPE   C3417955   0.808   5.208   7.098  0.3541 -0.1944  0.4030
  160SAPE   H4X17956   0.830   5.302   7.044  2.5783 -0.4492  0.7692
  160SAPE   H4Y17957   0.879   5.200   7.183 -0.8598 -0.1671  1.4551
  160SAPE   C3517958   0.667   5.215   7.154 -0.2253  0.5942  0.0218
  160SAPE   H5X17959   0.645   5.108   7.175 -0.3396  0.1911 -1.9506
  160SAPE   H5Y17960   0.605   5.251   7.069  0.9789  0.5773 -0.8902
  160SAPE   C3617961   0.636   5.302   7.280 -0.5158 -0.3996  0.3619
  160SAPE   H6X17962   0.690   5.252   7.363  1.2672  0.1958 -0.3925
  160SAPE   H6Y17963   0.527   5.296   7.298 -0.7302 -1.7044 -1.1182
  160SAPE   C3717964   0.685   5.449   7.266  0.1563 -0.3177 -0.3201
  160SAPE   H7X17965   0.636   5.500   7.180  0.5128  1.1461  0.3087
  160SAPE   H7Y17966   0.796   5.441   7.262  0.7746  1.2589  5.3322
  160SAPE   C3817967   0.660   5.546   7.386  0.0951  0.3351 -0.1372
  160SAPE   H8X17968   0.549   5.551   7.388 -0.0218 -1.7144  0.1504
  160SAPE   H8Y17969   0.695   5.652   7.385 -1.3439  0.8741  1.6090
  160SAPE   C3917970   0.701   5.501   7.527  0.1330  0.0560  0.2548
  160SAPE   H9X17971   0.809   5.472   7.529  0.2692  0.4353 -0.7485
  160SAPE   H9Y17972   0.638   5.415   7.558 -0.3372  0.9510  1.8803
  160SAPE  C31017973   0.689   5.605   7.637 -0.3863 -0.3306  0.2697
  160SAPE  H10X17974   0.584   5.609   7.673 -0.2802 -1.3907  0.7180
  160SAPE  H10Y17975   0.724   5.707   7.610 -0.8905  0.4798  2.4798
  160SAPE  C31117976   0.771   5.571   7.768 -0.5553  0.1198  0.5276
  160SAPE  H11X17977   0.877   5.584   7.736 -0.8410  1.2180 -0.0163
  160SAPE  H11Y17978   0.755   5.466   7.800 -0.8759 -0.6609 -1.9455
  160SAPE  C31217979   0.733   5.677   7.875 -0.0336  0.0475  0.4063
  160SAPE  H12X17980   0.625   5.702   7.862 -0.7255 -3.5214 -2.3986
  160SAPE  H12Y17981   0.794   5.767   7.856 -0.1995  0.0563 -0.0838
  160SAPE  C31317982   0.771   5.643   8.019 -0.3328 -0.0928 -0.2164
  160SAPE  H13X17983   0.881   5.631   8.022  0.0671  2.8486 -0.5836
  160SAPE  H13Y17984   0.719   5.551   8.055 -1.0247 -0.0423 -1.0494
  160SAPE  C31417985   0.723   5.753   8.115 -0.1653  0.0902 -0.5139
  160SAPE  H14X17986   0.620   5.781   8.085 -1.4736 -2.1597  1.5144
  160SAPE  H14Y17987   0.779   5.848   8.103 -1.2708  0.8563  0.2072
  160SAPE  C31517988   0.719   5.707   8.263  0.2090 -0.8026  0.1429
  160SAPE  H15X17989   0.806   5.645   8.292 -0.9678 -2.0659  1.0974
  160SAPE  H15Y17990   0.634   5.636   8.274 -1.1365  0.5108 -1.1575
  160SAPE  C31617991   0.702   5.822   8.354  0.0502  0.3134  0.2592
  160SAPE  H16X17992   0.606   5.877   8.342  0.3705  0.6094 -1.0644
  160SAPE  H16Y17993   0.784   5.895   8.334  0.8520 -0.9459 -1.1708
  160SAPE  C31717994   0.725   5.775   8.499  0.1536  0.2006 -1.4612
  160SAPE  H17X17995   0.715   5.859   8.570 -0.4165 -0.2172 -1.0323
  160SAPE  H17Y17996   0.831   5.743   8.506  0.0917  0.3486  1.3079
  160SAPE  C31817997   0.625   5.672   8.564  0.7464  0.0777  0.2341
  160SAPE  H18X17998   0.668   5.592   8.628  1.7099  1.8449  1.8944
  160SAPE  H18Y17999   0.569   5.629   8.478  0.1686  2.4109 -0.6444
  160SAPE  H18Z18000   0.551   5.738   8.614 -0.1466  1.4520 -2.6932
  161SAPE     N18001   1.529   3.230   6.571  0.4593 -0.6418  0.1290
  161SAPE   HN118002   1.554   3.317   6.519  1.4211 -0.4197  0.9191
  161SAPE   HN218003   1.505   3.161   6.497  0.8120  1.9312 -2.5393
  161SAPE   HN318004   1.441   3.254   6.621 -0.4314 -1.1480 -1.1360
  161SAPE   C1218005   1.616   3.168   6.675  0.4941  0.5209 -0.4991
  161SAPE  H12A18006   1.568   3.082   6.727  2.2792 -0.1168  0.1601
  161SAPE  H12B18007   1.645   3.249   6.744  1.4431 -0.5417  0.3814
  161SAPE   C1118008   1.749   3.110   6.615  0.4480 -0.1020  0.3321
  161SAPE  H11A18009   1.803   3.071   6.704  0.4797 -3.0396 -0.8533
  161SAPE  H11B18010   1.803   3.191   6.561 -1.1869  0.4979 -0.4854
  161SAPE     P18011   1.812   2.880   6.503 -0.3732  0.0736 -0.3019
  161SAPE   O1318012   1.735   2.755   6.524  0.5100  0.6813  0.3632
  161SAPE   O1418013   1.885   2.898   6.373 -0.2766  0.8317  0.0676
  161SAPE   O1218014   1.714   3.000   6.527 -0.1591  0.0523 -0.0209
  161SAPE   O1118015   1.917   2.885   6.617  0.0356 -0.6013 -0.3316
  161SAPE    C118016   2.030   2.797   6.604  0.7791 -0.5188  0.0849
  161SAPE    HA18017   1.997   2.692   6.610  0.6912 -0.5576 -0.9346
  161SAPE    HB18018   2.094   2.828   6.518 -0.3560  1.4599 -0.1043
  161SAPE    C218019   2.125   2.808   6.729 -0.3334  0.4068  0.1670
  161SAPE    HS18020   2.206   2.732   6.717 -1.6843 -0.8682 -1.2776
  161SAPE   O2118021   2.061   2.772   6.852  0.2042 -0.6421  0.7250
  161SAPE   C2118022   2.040   2.644   6.885 -0.0702 -0.0825  0.1349
  161SAPE   O2218023   2.052   2.553   6.805 -0.1942  0.3510  0.0418
  161SAPE   C2218024   1.968   2.639   7.016 -0.1116 -0.2343 -0.7099
  161SAPE   H2R18025   2.047   2.616   7.090 -1.1446 -0.9686  0.1922
  161SAPE   H2S18026   1.912   2.730   7.047 -0.1969 -0.0054 -1.5062
  161SAPE    C318027   2.203   2.945   6.747 -0.5731  0.4938 -0.5876
  161SAPE    HX18028   2.121   3.017   6.768 -1.0690  0.5141 -2.4182
  161SAPE    HY18029   2.268   2.955   6.657 -2.1091 -0.4236 -1.8493
  161SAPE   O3118030   2.299   2.925   6.856 -0.5210 -0.2158  0.8276
  161SAPE   C3118031   2.335   3.044   6.902  0.1564  0.0231 -0.0023
  161SAPE   O3218032   2.310   3.149   6.844  0.5794 -0.0924 -0.5746
  161SAPE   C3218033   2.417   3.028   7.031 -0.1542 -0.3437 -0.0098
  161SAPE   H2X18034   2.524   3.052   7.013 -0.3948 -0.1228 -1.2100
  161SAPE   H2Y18035   2.429   2.920   7.056  1.1166 -0.2150  0.0342
  161SAPE   C2318036   1.861   2.523   7.035 -0.8053 -0.4349  0.1164
  161SAPE   H3R18037   1.905   2.430   6.993 -1.6498 -1.0886  0.6552
  161SAPE   H3S18038   1.771   2.553   6.976 -0.9761 -0.8858  0.1433
  161SAPE   C2418039   1.827   2.503   7.184 -0.0248  0.3943 -0.7404
  161SAPE   H4R18040   1.919   2.498   7.245 -0.1533 -0.1773 -0.5868
  161SAPE   H4S18041   1.777   2.406   7.203  1.5213 -0.3001 -0.0876
  161SAPE   C2518042   1.740   2.620   7.219 -0.7153  0.2823 -0.4862
  161SAPE   H5R18043   1.702   2.669   7.128 -1.5892  0.1325 -0.2094
  161SAPE   C2618044   1.735   2.686   7.334  0.3078  0.5521  0.6560
  161SAPE   H6R18045   1.678   2.779   7.337  1.2061  1.1136  0.6535
  161SAPE   C2718046   1.808   2.645   7.458 -0.0767 -0.1417 -0.2245
  161SAPE   H7R18047   1.904   2.699   7.459  0.7202 -1.4536 -1.4705
  161SAPE   H7S18048   1.835   2.537   7.455  0.0149 -0.1231 -0.0531
  161SAPE   C2818049   1.732   2.680   7.588  0.4645  0.1496  0.5985
  161SAPE   H8R18050   1.626   2.703   7.570  1.0368  1.4878 -1.4065
  161SAPE   C2918051   1.789   2.690   7.712 -1.0598  0.8733 -0.3774
  161SAPE   H9R18052   1.731   2.714   7.802 -0.9478 -0.8410  0.1840
  161SAPE  C21018053   1.942   2.658   7.741  0.1786 -0.1605  0.2790
  161SAPE  H10R18054   1.981   2.605   7.651 -0.0283 -3.3715  1.9348
  161SAPE  H10S18055   1.959   2.584   7.822 -0.8452 -0.2727  0.4142
  161SAPE  C21118056   2.022   2.784   7.760  0.1234  0.3744 -0.4368
  161SAPE  H11R18057   1.994   2.866   7.693 -1.7101  0.1183 -0.0429
  161SAPE  C21218058   2.122   2.796   7.845 -0.4590  0.4683  0.7616
  161SAPE  H12R18059   2.192   2.879   7.826  1.8194 -1.4733  0.2115
  161SAPE  C21318060   2.181   2.694   7.935  0.7945 -0.4075 -0.2035
  161SAPE  H13R18061   2.287   2.720   7.958  1.2671 -1.8944 -0.5164
  161SAPE  H13S18062   2.174   2.595   7.884 -0.3980 -1.4979  1.9593
  161SAPE  C21418063   2.094   2.683   8.058 -1.0069  0.3682  0.1943
  161SAPE  H14R18064   1.986   2.677   8.039 -0.7964 -1.8498 -0.5686
  161SAPE  C21518065   2.126   2.671   8.189 -0.0525  0.1824  0.1517
  161SAPE  H15R18066   2.044   2.668   8.262 -1.5475 -0.0266 -1.4709
  161SAPE  C21618067   2.264   2.672   8.243 -0.4063 -0.3962  0.4532
  161SAPE  H16R18068   2.339   2.678   8.161 -0.1176  0.6011  0.7753
  161SAPE  H16S18069   2.281   2.573   8.290 -0.6838 -1.5142 -1.6684
  161SAPE  C21718070   2.296   2.794   8.333 -1.0481 -0.1571  0.8720
  161SAPE  H17R18071   2.386   2.770   8.392  0.5471  0.3484 -1.2361
  161SAPE  H17S18072   2.213   2.808   8.406 -1.9607  2.0949 -0.5093
  161SAPE  C21818073   2.315   2.921   8.256  0.1308 -0.4114  0.6021
  161SAPE  H18R18074   2.256   3.003   8.301 -0.7315 -0.8450  0.2821
  161SAPE  H18S18075   2.275   2.918   8.152  0.8254 -0.6663  0.3330
  161SAPE  C21918076   2.467   2.968   8.250 -0.6007 -0.4153  0.0180
  161SAPE  H19R18077   2.527   2.906   8.181  0.6065 -1.5105  1.9501
  161SAPE  H19S18078   2.501   2.954   8.355  0.9677 -2.1695 -0.6744
  161SAPE  C22018079   2.486   3.110   8.192  0.6488  0.7004 -0.0724
  161SAPE  H20R18080   2.452   3.103   8.086 -0.7248  0.0571  0.3777
  161SAPE  H20S18081   2.588   3.151   8.204  0.3437  1.5983 -0.4495
  161SAPE  H20T18082   2.420   3.181   8.248  0.3979 -1.6809  2.9382
  161SAPE   C3318083   2.342   3.110   7.140  0.1866  0.1404 -0.0694
  161SAPE   H3X18084   2.370   3.065   7.238 -0.6018  1.8569  0.9888
  161SAPE   H3Y18085   2.231   3.109   7.144  0.1624 -2.2314  2.9628
  161SAPE   C3418086   2.385   3.262   7.152 -0.5273  0.1511  1.2388
  161SAPE   H4X18087   2.345   3.305   7.057 -0.5585 -0.2688  1.0560
  161SAPE   H4Y18088   2.495   3.270   7.140  0.0288 -2.1217  3.7642
  161SAPE   C3518089   2.337   3.337   7.275  0.4067 -0.4761  0.2636
  161SAPE   H5X18090   2.230   3.312   7.292  0.2580  0.2340  0.4265
  161SAPE   H5Y18091   2.356   3.446   7.264 -0.5954 -0.4442 -1.5913
  161SAPE   C3618092   2.415   3.292   7.399  0.2928  0.0503 -0.5339
  161SAPE   H6X18093   2.523   3.318   7.396  0.0506  1.1187 -0.1076
  161SAPE   H6Y18094   2.401   3.182   7.407 -0.4859  0.2783  2.3953
  161SAPE   C3718095   2.363   3.349   7.527  0.2548  0.8498 -0.3651
  161SAPE   H7X18096   2.367   3.460   7.533  1.2626  0.7594  1.2389
  161SAPE   H7Y18097   2.424   3.306   7.609 -0.1866 -1.2416 -1.0685
  161SAPE   C3818098   2.220   3.311   7.557  0.3816  0.2957 -0.3356
  161SAPE   H8X18099   2.206   3.201   7.565  2.9279 -0.2195 -1.8555
  161SAPE   H8Y18100   2.144   3.326   7.478 -1.9882 -1.6023  1.4150
  161SAPE   C3918101   2.163   3.379   7.680 -0.5102 -0.2976  0.9489
  161SAPE   H9X18102   2.055   3.352   7.691 -0.5592  0.6739  3.6287
  161SAPE   H9Y18103   2.162   3.489   7.663  0.6786  0.0295  2.7717
  161SAPE  C31018104   2.233   3.349   7.812 -0.1997  1.1676  0.7554
  161SAPE  H10X18105   2.341   3.378   7.810  1.0558 -2.5162  2.9983
  161SAPE  H10Y18106   2.227   3.239   7.829  3.0494  1.1247  2.6549
  161SAPE  C31118107   2.179   3.420   7.937  0.0803  0.1761  0.2946
  161SAPE  H11X18108   2.070   3.433   7.917  0.4360  0.3353 -1.8020
  161SAPE  H11Y18109   2.214   3.526   7.939  0.9182 -0.0775 -0.2099
  161SAPE  C31218110   2.197   3.350   8.066 -0.7999  0.3158 -0.2134
  161SAPE  H12X18111   2.298   3.331   8.110  0.3913  3.4704 -1.2859
  161SAPE  H12Y18112   2.155   3.247   8.057  1.4157 -0.7534  0.7945
  161SAPE  C31318113   2.116   3.428   8.170  0.5312  0.4354  0.0355
  161SAPE  H13X18114   2.101   3.359   8.256 -0.2286  1.0876  0.4440
  161SAPE  H13Y18115   2.013   3.444   8.130 -0.3581 -1.7996  1.2495
  161SAPE  C31418116   2.178   3.558   8.213  0.5819 -0.5991  0.4521
  161SAPE  H14X18117   2.133   3.640   8.153  0.2987 -2.1726 -1.6073
  161SAPE  H14Y18118   2.283   3.570   8.180  0.4527  1.3656  0.6297
  161SAPE  C31518119   2.195   3.586   8.366 -0.1014 -1.0294  0.1755
  161SAPE  H15X18120   2.280   3.655   8.383 -1.9508  0.7337  3.1447
  161SAPE  H15Y18121   2.212   3.485   8.409 -0.0294 -0.9709  0.2846
  161SAPE  C31618122   2.068   3.645   8.438  0.3545  0.1941 -0.3246
  161SAPE  H16X18123   1.985   3.588   8.391 -0.5875  1.0055  0.3108
  161SAPE  H16Y18124   2.060   3.755   8.426  3.9878  0.7799  1.2120
  161SAPE  C31718125   2.071   3.618   8.586  0.3137  0.0744 -0.9715
  161SAPE  H17X18126   2.075   3.509   8.607  0.2457  0.1752 -0.4187
  161SAPE  H17Y18127   1.965   3.634   8.615  0.8656 -1.0762  2.0526
  161SAPE  C31818128   2.182   3.684   8.668 -0.2944 -1.2384 -0.1022
  161SAPE  H18X18129   2.184   3.653   8.775  0.7702  0.1737  0.3236
  161SAPE  H18Y18130   2.175   3.795   8.666 -0.9935 -1.2785 -1.9535
  161SAPE  H18Z18131   2.280   3.646   8.632  0.4715 -0.5458  1.1669
  162SAPE     N18132   4.115   0.438   6.037 -0.6261  0.4487 -0.2805
  162SAPE   HN118133   4.037   0.381   5.998 -1.5957  0.2250  1.8510
  162SAPE   HN218134   4.135   0.521   5.977  0.5169 -1.0464 -2.0922
  162SAPE   HN318135   4.192   0.368   6.044 -1.5887 -0.5165  1.1775
  162SAPE   C1218136   4.070   0.478   6.169 -0.5552 -0.3472  0.2766
  162SAPE  H12A18137   4.025   0.579   6.172  0.7979  0.3767 -1.9273
  162SAPE  H12B18138   4.161   0.470   6.232 -0.4820  0.7816  0.3298
  162SAPE   C1118139   3.959   0.381   6.214 -0.4003  0.1861  0.2427
  162SAPE  H11A18140   3.936   0.425   6.313 -0.3735  3.2080 -0.9597
  162SAPE  H11B18141   3.989   0.275   6.226 -3.5139 -0.7210  0.8506
  162SAPE     P18142   3.708   0.452   6.149 -0.2601  0.3450  0.5623
  162SAPE   O1318143   3.717   0.589   6.194 -0.3643 -0.5104 -0.0162
  162SAPE   O1418144   3.613   0.434   6.039  0.6218 -0.0134  0.3099
  162SAPE   O1218145   3.853   0.397   6.116  0.0277 -0.5845 -0.9562
  162SAPE   O1118146   3.653   0.369   6.269 -0.5144 -0.2159 -1.0491
  162SAPE    C118147   3.517   0.384   6.323  0.0726 -0.0875  0.0075
  162SAPE    HA18148   3.470   0.484   6.307 -0.2227  0.0325  1.4385
  162SAPE    HB18149   3.457   0.296   6.294  0.9991 -0.7946  0.1844
  162SAPE    C218150   3.523   0.375   6.480 -0.2415  0.3498 -0.7867
  162SAPE    HS18151   3.598   0.296   6.503 -0.0665  0.8127  0.3205
  162SAPE   O2118152   3.401   0.338   6.543 -0.0405  0.0385 -0.5073
  162SAPE   C2118153   3.365   0.216   6.524 -0.2123 -0.0400 -0.2405
  162SAPE   O2218154   3.432   0.135   6.467  0.0008  0.0873 -0.0286
  162SAPE   C2218155   3.236   0.194   6.593 -0.0276 -1.0282  0.0014
  162SAPE   H2R18156   3.215   0.285   6.654  1.9109 -0.0077 -0.7687
  162SAPE   H2S18157   3.161   0.178   6.513 -1.3404 -2.8872  1.5000
  162SAPE    C318158   3.578   0.505   6.545 -0.0270 -0.2957  0.1339
  162SAPE    HX18159   3.511   0.583   6.504  1.5635  1.3510  0.5111
  162SAPE    HY18160   3.683   0.520   6.509 -0.1766  0.2154 -0.1109
  162SAPE   O3118161   3.574   0.500   6.688  0.0364  0.1560  0.0576
  162SAPE   C3118162   3.474   0.559   6.750  0.1711 -0.3399 -0.4065
  162SAPE   O3218163   3.376   0.613   6.704  0.2995 -0.0722  0.4034
  162SAPE   C3218164   3.499   0.563   6.904  0.4928  0.0848  0.6545
  162SAPE   H2X18165   3.608   0.578   6.919  1.1250 -1.0806 -2.1652
  162SAPE   H2Y18166   3.465   0.462   6.934 -0.1800 -0.0070 -0.3670
  162SAPE   C2318167   3.235   0.074   6.690 -0.2580 -0.4015 -0.1899
  162SAPE   H3R18168   3.286  -0.016   6.649 -0.2438  0.5655 -2.3771
  162SAPE   H3S18169   3.131   0.041   6.712 -0.6364  0.3776 -0.7894
  162SAPE   C2418170   3.299   0.109   6.824 -0.1572 -0.1923 -0.1318
  162SAPE   H4R18171   3.400   0.153   6.815 -0.2218 -0.0696 -0.2499
  162SAPE   H4S18172   3.313   0.015   6.882  0.5871  0.1795  0.2954
  162SAPE   C2518173   3.223   0.204   6.919 -0.0841  0.2883  0.4155
  162SAPE   H5R18174   3.164   0.278   6.864 -0.8994  0.8582  2.0053
  162SAPE   C2618175   3.214   0.201   7.048 -0.6594  0.4091  0.2491
  162SAPE   H6R18176   3.159   0.277   7.105 -2.0001 -0.4343  0.1202
  162SAPE   C2718177   3.284   0.095   7.134  0.0022  0.1295  0.4810
  162SAPE   H7R18178   3.382   0.072   7.087 -1.3069 -0.5795 -2.0869
  162SAPE   H7S18179   3.221   0.004   7.145 -1.2183  0.8537 -0.2659
  162SAPE   C2818180   3.326   0.146   7.272  0.6266  0.0480 -0.1064
  162SAPE   H8R18181   3.401   0.225   7.260  0.9776 -0.4296 -1.1358
  162SAPE   C2918182   3.298   0.097   7.392  0.0680  0.1666 -0.0865
  162SAPE   H9R18183   3.359   0.135   7.475 -2.2749  2.1673  0.8319
  162SAPE  C21018184   3.198  -0.015   7.411  0.1047  0.6406  0.3862
  162SAPE  H10R18185   3.161  -0.060   7.316  0.0232  0.8622  0.3129
  162SAPE  H10S18186   3.107   0.024   7.462 -0.8394  2.6411 -2.5327
  162SAPE  C21118187   3.253  -0.122   7.499  0.2275  0.3489  0.4677
  162SAPE  H11R18188   3.336  -0.172   7.445  0.2743  1.0067 -0.0819
  162SAPE  C21218189   3.199  -0.167   7.617 -0.0535 -0.4148 -0.9338
  162SAPE  H12R18190   3.251  -0.247   7.672 -1.7514 -1.8004 -1.2621
  162SAPE  C21318191   3.085  -0.113   7.690 -0.0301 -0.2759 -0.0213
  162SAPE  H13R18192   3.093  -0.003   7.678  3.3501 -0.4415 -0.1392
  162SAPE  H13S18193   3.104  -0.133   7.797 -2.8237 -1.9249  0.2715
  162SAPE  C21418194   2.939  -0.160   7.669 -0.1589  0.3851 -0.4810
  162SAPE  H14R18195   2.917  -0.230   7.587 -0.5482 -0.5267  0.3822
  162SAPE  C21518196   2.834  -0.108   7.743  0.5445  0.8284  0.1123
  162SAPE  H15R18197   2.734  -0.141   7.713  1.2126  0.6322 -2.0342
  162SAPE  C21618198   2.844  -0.010   7.861 -0.7632  0.2810  0.5054
  162SAPE  H16R18199   2.798   0.090   7.846 -0.0980  0.3240 -1.7575
  162SAPE  H16S18200   2.949  -0.003   7.896  0.2079 -2.7598 -1.3580
  162SAPE  C21718201   2.766  -0.076   7.975  0.1104  0.7167  0.3881
  162SAPE  H17R18202   2.824  -0.165   8.005 -2.7572 -0.9490  1.4612
  162SAPE  H17S18203   2.663  -0.104   7.944 -0.2139  0.3941  1.6997
  162SAPE  C21818204   2.756   0.019   8.097 -0.1759 -0.2897 -0.6849
  162SAPE  H18R18205   2.686   0.103   8.077 -0.5244 -0.4749 -0.2549
  162SAPE  H18S18206   2.858   0.052   8.124 -1.5202  1.9794  2.1161
  162SAPE  C21918207   2.704  -0.051   8.223  0.4825  0.0684 -0.5033
  162SAPE  H19R18208   2.755  -0.149   8.228  0.5142  0.0958 -0.2436
  162SAPE  H19S18209   2.594  -0.067   8.211  0.0602  1.1774  1.4438
  162SAPE  C22018210   2.729   0.031   8.344 -0.4370  0.0043 -0.3252
  162SAPE  H20R18211   2.681   0.131   8.342 -0.5860 -0.0060  1.4896
  162SAPE  H20S18212   2.838   0.043   8.361 -0.0312 -1.0544 -1.8957
  162SAPE  H20T18213   2.706  -0.027   8.436  2.8828 -1.8699 -0.5140
  162SAPE   C3318214   3.415   0.654   6.998  0.3397  0.5199 -0.1097
  162SAPE   H3X18215   3.305   0.645   6.988 -0.0610  2.2822  2.0043
  162SAPE   H3Y18216   3.439   0.760   6.976  0.9900  0.0556 -1.7203
  162SAPE   C3418217   3.439   0.636   7.142  0.0680 -0.2191  0.0745
  162SAPE   H4X18218   3.395   0.724   7.193 -2.0115 -0.9990 -0.2633
  162SAPE   H4Y18219   3.548   0.631   7.166  0.5322  1.1944 -1.5349
  162SAPE   C3518220   3.374   0.514   7.205  0.7652  0.4911  1.0908
  162SAPE   H5X18221   3.414   0.418   7.168 -2.0197 -0.5664  0.5765
  162SAPE   H5Y18222   3.267   0.518   7.175  0.4898  0.6492  2.0702
  162SAPE   C3618223   3.362   0.517   7.358 -0.1448 -0.4084  0.0673
  162SAPE   H6X18224   3.288   0.441   7.390  0.8434 -1.1987  0.5116
  162SAPE   H6Y18225   3.322   0.617   7.385 -0.5535 -0.9693  1.6000
  162SAPE   C3718226   3.487   0.499   7.445  0.2823  0.5750 -0.4403
  162SAPE   H7X18227   3.556   0.584   7.427  1.8799 -0.4420  0.6735
  162SAPE   H7Y18228   3.532   0.408   7.399 -0.0685  1.5000 -2.7293
  162SAPE   C3818229   3.469   0.492   7.600  0.0550  0.1946 -0.6797
  162SAPE   H8X18230   3.401   0.572   7.636 -0.8237 -1.3045  1.1082
  162SAPE   H8Y18231   3.563   0.512   7.655  0.3232 -1.8076 -0.3515
  162SAPE   C3918232   3.418   0.355   7.644  0.0922 -0.4379  0.1651
  162SAPE   H9X18233   3.481   0.272   7.605  0.9045  0.4272 -0.4017
  162SAPE   H9Y18234   3.322   0.347   7.589 -1.3863 -0.0107  2.5654
  162SAPE  C31018235   3.386   0.341   7.786  0.3246 -0.5532  0.4155
  162SAPE  H10X18236   3.310   0.419   7.807 -0.0239 -0.8690  0.3389
  162SAPE  H10Y18237   3.473   0.340   7.855 -0.0040  0.9093  0.8926
  162SAPE  C31118238   3.307   0.211   7.818  0.2613 -0.9972  0.0774
  162SAPE  H11X18239   3.369   0.124   7.789  0.2158 -1.3055  0.8925
  162SAPE  H11Y18240   3.224   0.206   7.744 -0.6262  0.7329  0.8855
  162SAPE  C31218241   3.275   0.194   7.968 -0.5196 -0.3743  0.2956
  162SAPE  H12X18242   3.366   0.156   8.019 -1.2156 -2.5476  0.0051
  162SAPE  H12Y18243   3.205   0.109   7.971  0.0096 -0.8203  0.2028
  162SAPE  C31318244   3.210   0.315   8.041 -0.3465 -0.0848 -0.6905
  162SAPE  H13X18245   3.112   0.341   7.995 -0.8278  0.3476  0.5270
  162SAPE  H13Y18246   3.282   0.400   8.033 -0.7862  0.3546 -0.1167
  162SAPE  C31418247   3.198   0.272   8.192 -0.2488  0.1720  0.6084
  162SAPE  H14X18248   3.304   0.255   8.221 -0.6103 -1.0608  1.2858
  162SAPE  H14Y18249   3.153   0.171   8.203 -2.6172  1.3292  2.2763
  162SAPE  C31518250   3.121   0.364   8.290  0.2754 -0.2637  0.2213
  162SAPE  H15X18251   3.024   0.393   8.245  0.4391 -0.3780 -0.2112
  162SAPE  H15Y18252   3.187   0.453   8.300  2.1453 -1.2771 -2.0751
  162SAPE  C31618253   3.090   0.299   8.426  0.8921 -0.2286  0.2402
  162SAPE  H16X18254   3.190   0.264   8.462  0.6484  0.6513  1.8785
  162SAPE  H16Y18255   3.021   0.215   8.403  0.2246  0.3458  0.1227
  162SAPE  C31718256   3.027   0.406   8.524 -0.6282  0.3303 -0.0203
  162SAPE  H17X18257   2.935   0.458   8.487  0.0811  1.1982 -0.6178
  162SAPE  H17Y18258   3.090   0.497   8.517 -2.4366  1.5944 -0.6601
  162SAPE  C31818259   3.000   0.359   8.656 -0.1269 -0.1955 -1.4370
  162SAPE  H18X18260   3.096   0.322   8.698 -0.8300 -0.8322 -0.3418
  162SAPE  H18Y18261   2.926   0.276   8.662 -0.4429  0.1737  0.6671
  162SAPE  H18Z18262   2.967   0.445   8.720 -0.2218  0.3661 -2.2296
  163SAPE     N18263   6.499   4.009   6.438  0.4575 -0.1150  0.1725
  163SAPE   HN118264   6.541   3.916   6.417 -0.6726 -0.7784  0.7658
  163SAPE   HN218265   6.545   4.029   6.529  2.2542 -0.8712 -0.5261
  163SAPE   HN318266   6.395   4.004   6.439  0.4678 -1.6920 -1.5193
  163SAPE   C1218267   6.540   4.113   6.324 -0.1388  0.6355 -0.5080
  163SAPE  H12A18268   6.510   4.216   6.349 -0.7870 -0.1113  2.0294
  163SAPE  H12B18269   6.472   4.077   6.244 -1.5116  0.8433  0.5316
  163SAPE   C1118270   6.690   4.110   6.287  0.2724 -0.2219 -0.2093
  163SAPE  H11A18271   6.697   4.182   6.203  0.5026  0.1051  0.0915
  163SAPE  H11B18272   6.723   4.013   6.243  2.1036  1.6694 -3.3997
  163SAPE     P18273   6.925   4.152   6.379 -0.2391  0.2693 -0.0052
  163SAPE   O1318274   6.960   4.125   6.236  0.5483 -0.1235  0.2579
  163SAPE   O1418275   6.985   4.270   6.441 -0.2919 -0.3938 -0.2012
  163SAPE   O1218276   6.772   4.155   6.396  0.4149  0.2635 -0.1535
  163SAPE   O1118277   6.976   4.029   6.462 -0.3183  0.4330 -0.1082
  163SAPE    C118278   6.889   3.936   6.531 -0.5660 -0.1065  0.3199
  163SAPE    HA18279   6.785   3.941   6.492 -0.9502  0.8674  1.4103
  163SAPE    HB18280   6.924   3.832   6.518  0.8583  0.4312 -0.2993
  163SAPE    C218281   6.881   3.964   6.683 -0.2207 -0.7029  0.3920
  163SAPE    HS18282   6.812   3.884   6.718  0.7922 -1.2772  1.1616
  163SAPE   O2118283   6.835   4.096   6.711 -0.0427 -0.0982 -0.4362
  163SAPE   C2118284   6.711   4.123   6.695  0.5440  0.1545  0.1198
  163SAPE   O2218285   6.628   4.035   6.665  0.3932 -0.2908  0.1440
  163SAPE   C2218286   6.675   4.271   6.724 -0.1100 -0.1577 -0.7284
  163SAPE   H2R18287   6.706   4.314   6.626  1.4930  1.7261  0.5390
  163SAPE   H2S18288   6.565   4.282   6.733  0.1412  2.1856  0.2333
  163SAPE    C318289   7.020   3.947   6.751  0.3142 -0.3540  0.3394
  163SAPE    HX18290   7.100   3.997   6.693  0.9948 -0.9882  0.7024
  163SAPE    HY18291   7.052   3.840   6.747  0.9559 -0.3429  3.0871
  163SAPE   O3118292   7.027   3.999   6.889  0.0726 -0.4874 -0.2662
  163SAPE   C3118293   6.940   3.943   6.977  0.0858 -0.1206 -0.8681
  163SAPE   O3218294   6.856   3.857   6.956 -0.2928 -0.3111  0.0777
  163SAPE   C3218295   6.957   4.015   7.116  0.5187 -0.7216 -0.1302
  163SAPE   H2X18296   6.922   4.120   7.110  0.7394 -0.3558  3.1642
  163SAPE   H2Y18297   7.065   4.021   7.139  0.8657  1.7948 -2.0172
  163SAPE   C2318298   6.751   4.332   6.851 -0.5138 -0.1312  0.2661
  163SAPE   H3R18299   6.761   4.439   6.826  0.4534 -0.4339 -0.6895
  163SAPE   H3S18300   6.856   4.297   6.853  0.4712  2.5938  0.6585
  163SAPE   C2418301   6.674   4.315   6.987 -0.2875 -0.2009  0.3937
  163SAPE   H4R18302   6.653   4.206   6.990 -5.3953  0.5435  1.0308
  163SAPE   H4S18303   6.575   4.366   6.984 -0.2314 -0.1079  0.1059
  163SAPE   C2518304   6.754   4.361   7.105 -0.3271  0.2444 -0.5569
  163SAPE   H5R18305   6.847   4.415   7.080  0.0159 -0.8885 -1.8080
  163SAPE   C2618306   6.725   4.347   7.235 -0.0887  0.7980  0.2644
  163SAPE   H6R18307   6.785   4.400   7.311  1.4094 -1.7264  0.9480
  163SAPE   C2718308   6.609   4.277   7.296  1.7813  0.4603  0.9799
  163SAPE   H7R18309   6.646   4.180   7.338  1.2776  0.7895  2.2245
  163SAPE   H7S18310   6.538   4.249   7.216  2.2058  0.1953  0.6944
  163SAPE   C2818311   6.538   4.347   7.409 -0.2275 -0.7803  0.6725
  163SAPE   H8R18312   6.468   4.426   7.381  1.3570 -0.0044 -1.3390
  163SAPE   C2918313   6.578   4.358   7.539  0.1281  0.2592 -0.2984
  163SAPE   H9R18314   6.517   4.403   7.618  0.7807  0.3198  0.1703
  163SAPE  C21018315   6.695   4.288   7.604  0.2931  0.6747 -0.3850
  163SAPE  H10R18316   6.708   4.328   7.706 -0.3887  0.2851 -0.1353
  163SAPE  H10S18317   6.788   4.308   7.546 -0.5583 -0.8214 -2.3898
  163SAPE  C21118318   6.682   4.133   7.612 -0.2167  0.1393 -0.2068
  163SAPE  H11R18319   6.670   4.081   7.516  1.8671  0.3479 -0.6280
  163SAPE  C21218320   6.699   4.043   7.716 -0.1764  0.1899 -0.0299
  163SAPE  H12R18321   6.683   3.936   7.695  0.6429  0.1340 -0.4076
  163SAPE  C21318322   6.721   4.076   7.866  0.1304 -0.3273 -0.7738
  163SAPE  H13R18323   6.765   3.987   7.915  2.7309  0.4513 -1.5308
  163SAPE  H13S18324   6.622   4.088   7.914  0.1612 -0.4121 -0.6898
  163SAPE  C21418325   6.810   4.194   7.899  0.1893 -0.5639 -0.2090
  163SAPE  H14R18326   6.884   4.214   7.820  0.6611  0.0955  0.3775
  163SAPE  C21518327   6.815   4.262   8.017  0.6741 -0.0259  0.8142
  163SAPE  H15R18328   6.891   4.341   8.019  0.1023  0.5988 -0.4814
  163SAPE  C21618329   6.734   4.229   8.142  0.8543 -0.9999  0.3245
  163SAPE  H16R18330   6.632   4.209   8.102  1.8468 -3.5763 -1.2335
  163SAPE  H16S18331   6.731   4.314   8.212  3.0404 -1.1996  0.7272
  163SAPE  C21718332   6.779   4.116   8.223  0.1381  1.0677  0.6947
  163SAPE  H17R18333   6.889   4.124   8.241  0.4779 -0.0024 -0.7109
  163SAPE  H17S18334   6.780   4.023   8.161  0.6706 -0.1649  2.4543
  163SAPE  C21818335   6.701   4.090   8.347  0.0853 -0.0846  0.8655
  163SAPE  H18R18336   6.604   4.043   8.319 -0.1188  0.9042 -0.1403
  163SAPE  H18S18337   6.678   4.178   8.410 -1.8034 -0.4331  0.7385
  163SAPE  C21918338   6.764   3.981   8.443  0.0694  0.7293  0.8566
  163SAPE  H19R18339   6.815   3.898   8.389  2.4990  2.8125 -0.2599
  163SAPE  H19S18340   6.684   3.936   8.506 -0.3926  1.0710  0.5201
  163SAPE  C22018341   6.861   4.043   8.537 -0.2049  0.5120 -0.4217
  163SAPE  H20R18342   6.819   4.127   8.596  0.5500  0.2725  0.4806
  163SAPE  H20S18343   6.944   4.093   8.483  0.7279  1.8492  2.0980
  163SAPE  H20T18344   6.890   3.970   8.615 -2.2578  0.8252  0.7003
  163SAPE   C3318345   6.858   3.950   7.210  0.1745 -0.0831 -0.2597
  163SAPE   H3X18346   6.833   3.843   7.190 -2.1202  0.2191  0.6759
  163SAPE   H3Y18347   6.756   3.989   7.192  0.2099 -0.1077 -0.5145
  163SAPE   C3418348   6.888   3.984   7.357  0.3760 -0.5254 -0.2620
  163SAPE   H4X18349   6.802   3.962   7.424 -0.0828  2.9643  0.4861
  163SAPE   H4Y18350   6.911   4.092   7.353 -1.8956 -0.0132 -1.3651
  163SAPE   C3518351   7.017   3.918   7.411 -0.2952 -0.0088 -0.2775
  163SAPE   H5X18352   7.101   3.944   7.343  1.3847 -0.0568  1.6933
  163SAPE   H5Y18353   7.005   3.808   7.419 -3.2401  0.2102 -0.6570
  163SAPE   C3618354   7.062   3.969   7.555  0.3103 -0.4010  0.2920
  163SAPE   H6X18355   7.166   3.930   7.561  1.4418  2.0537 -1.6410
  163SAPE   H6Y18356   6.986   3.927   7.624  0.5917 -1.9324 -0.2915
  163SAPE   C3718357   7.093   4.119   7.572 -0.7607  0.4306 -0.2851
  163SAPE   H7X18358   7.005   4.185   7.556  1.5205  3.1675 -2.8765
  163SAPE   H7Y18359   7.174   4.144   7.500 -1.3141  0.4878 -0.8940
  163SAPE   C3818360   7.164   4.166   7.705  0.1534 -0.5798 -0.1210
  163SAPE   H8X18361   7.239   4.093   7.743  1.4233  0.3560 -0.7677
  163SAPE   H8Y18362   7.083   4.179   7.779 -0.4570 -2.2101 -0.4445
  163SAPE   C3918363   7.246   4.295   7.690  0.8135  0.5446 -0.3419
  163SAPE   H9X18364   7.187   4.382   7.653  0.0832 -0.6612 -2.1972
  163SAPE   H9Y18365   7.326   4.281   7.614 -1.2362 -0.2925 -2.4969
  163SAPE  C31018366   7.314   4.342   7.813  0.0229 -0.0495  0.3174
  163SAPE  H10X18367   7.235   4.356   7.891 -0.5747 -1.1026 -0.0748
  163SAPE  H10Y18368   7.359   4.439   7.783  0.5794 -0.6694 -0.9083
  163SAPE  C31118369   7.428   4.249   7.871  0.0554 -0.7320 -0.0179
  163SAPE  H11X18370   7.478   4.219   7.776 -2.1110 -0.3447 -1.3582
  163SAPE  H11Y18371   7.384   4.161   7.924 -2.2418  1.1022  1.3487
  163SAPE  C31218372   7.533   4.321   7.959  0.0942  0.0479  0.0539
  163SAPE  H12X18373   7.570   4.414   7.911  2.8054  0.9631  3.5410
  163SAPE  H12Y18374   7.618   4.251   7.970 -0.0623  0.0035  1.0602
  163SAPE  C31318375   7.488   4.349   8.103 -0.0290  0.5062 -1.5493
  163SAPE  H13X18376   7.466   4.255   8.159  0.7481  1.7926  1.0923
  163SAPE  H13Y18377   7.390   4.401   8.097 -0.6317 -0.0139  1.7187
  163SAPE  C31418378   7.590   4.439   8.171  0.2327  0.2022 -0.0186
  163SAPE  H14X18379   7.635   4.516   8.104  2.6698 -1.0150  0.0964
  163SAPE  H14Y18380   7.675   4.382   8.213  0.5286 -0.3721 -1.3581
  163SAPE  C31518381   7.529   4.519   8.290 -0.2299 -0.4103  0.7323
  163SAPE  H15X18382   7.490   4.439   8.357 -2.3877  0.1328  0.2130
  163SAPE  H15Y18383   7.446   4.579   8.246  1.3445 -0.4585 -2.5593
  163SAPE  C31618384   7.626   4.617   8.365  0.4394  0.3162 -0.0949
  163SAPE  H16X18385   7.633   4.707   8.300  0.9860 -1.3824 -2.5309
  163SAPE  H16Y18386   7.727   4.573   8.375 -0.3222 -1.0732  2.3519
  163SAPE  C31718387   7.579   4.650   8.507  0.4022  0.1775 -0.4734
  163SAPE  H17X18388   7.578   4.560   8.572 -0.6974  0.5343  0.0247
  163SAPE  H17Y18389   7.475   4.688   8.502  0.4081  0.5335  1.2584
  163SAPE  C31818390   7.653   4.759   8.583 -0.1131  0.3024 -0.1572
  163SAPE  H18X18391   7.760   4.731   8.587 -0.1655  0.0716 -0.3585
  163SAPE  H18Y18392   7.620   4.777   8.688  0.1930  1.1017 -0.1917
  163SAPE  H18Z18393   7.651   4.855   8.527 -2.7060  0.6031  0.3078
  164SAPE     N18394   4.665   0.694   6.204  0.6876  0.2437 -0.1975
  164SAPE   HN118395   4.671   0.768   6.131  1.5132  0.5289  0.1482
  164SAPE   HN218396   4.650   0.733   6.299  2.7860  2.3329 -0.6159
  164SAPE   HN318397   4.766   0.667   6.205  1.0067  1.1838 -1.9341
  164SAPE   C1218398   4.578   0.575   6.158 -0.5063  0.8979 -0.4757
  164SAPE  H12A18399   4.573   0.522   6.255  0.9394  0.7625 -0.4537
  164SAPE  H12B18400   4.623   0.508   6.082  1.8457  0.1488  1.4556
  164SAPE   C1118401   4.439   0.627   6.113 -0.1098  0.8294  0.6931
  164SAPE  H11A18402   4.387   0.674   6.199 -1.4953 -1.1581  1.0247
  164SAPE  H11B18403   4.381   0.533   6.094  0.2874  0.9096 -1.1151
  164SAPE     P18404   4.306   0.766   5.949  0.0802  0.3245 -0.0495
  164SAPE   O1318405   4.319   0.859   5.840  0.6188  0.1630  0.0492
  164SAPE   O1418406   4.202   0.664   5.937 -0.5649 -0.4621 -0.3881
  164SAPE   O1218407   4.445   0.701   5.986 -0.1166 -0.4343  0.7773
  164SAPE   O1118408   4.261   0.845   6.078  0.0581 -0.0133  0.5106
  164SAPE    C118409   4.335   0.942   6.143  0.0835  0.1470 -0.6817
  164SAPE    HA18410   4.443   0.933   6.118  0.0101 -0.2044 -0.8722
  164SAPE    HB18411   4.311   1.044   6.108  0.9661  0.4496 -0.4435
  164SAPE    C218412   4.321   0.939   6.303  0.5845 -0.0840 -0.0794
  164SAPE    HS18413   4.369   0.843   6.331 -0.7906 -0.6110  0.5930
  164SAPE   O2118414   4.185   0.955   6.348 -0.1670  0.6008 -0.1153
  164SAPE   C2118415   4.123   0.841   6.355 -0.6223  0.3476  0.3159
  164SAPE   O2218416   4.171   0.729   6.336  0.1141  0.0668  0.0855
  164SAPE   C2218417   3.977   0.864   6.402  0.4035  0.1622 -0.3618
  164SAPE   H2R18418   3.975   0.937   6.486  1.3255  0.3280 -0.4791
  164SAPE   H2S18419   3.912   0.913   6.327  0.3671  1.6177  0.5717
  164SAPE    C318420   4.395   1.059   6.369 -0.1994  0.2115  0.2019
  164SAPE    HX18421   4.338   1.152   6.349 -1.6921 -0.7708 -0.3319
  164SAPE    HY18422   4.495   1.064   6.321  0.4117 -2.1767  1.0386
  164SAPE   O3118423   4.423   1.030   6.513 -0.5965 -0.1027 -0.1841
  164SAPE   C3118424   4.340   1.092   6.597  0.0309  0.2011 -0.9049
  164SAPE   O3218425   4.282   1.196   6.586  0.9375 -0.3752  0.0453
  164SAPE   C3218426   4.314   1.000   6.719  0.1903  0.1316 -0.2632
  164SAPE   H2X18427   4.409   0.956   6.755 -1.0208 -1.0473  1.6492
  164SAPE   H2Y18428   4.238   0.922   6.694  0.1914 -0.1459  0.5689
  164SAPE   C2318429   3.906   0.728   6.442 -0.1425  0.4854 -0.8383
  164SAPE   H3R18430   3.926   0.653   6.362 -1.6000 -0.7608 -0.0994
  164SAPE   H3S18431   3.796   0.744   6.430 -0.6731 -1.6542  0.5943
  164SAPE   C2418432   3.938   0.653   6.577  0.5344 -0.3706 -0.0414
  164SAPE   H4R18433   4.045   0.628   6.591  1.0160  2.0899  1.2045
  164SAPE   H4S18434   3.881   0.558   6.582  0.4772 -0.3610 -0.4751
  164SAPE   C2518435   3.900   0.743   6.687  0.7597 -0.3102 -0.6271
  164SAPE   H5R18436   3.858   0.843   6.666 -1.2225 -0.7653  0.8990
  164SAPE   C2618437   3.912   0.724   6.821 -0.1407  0.1664  0.8372
  164SAPE   H6R18438   3.881   0.797   6.897  0.7046 -1.1800  2.5204
  164SAPE   C2718439   3.973   0.608   6.880  0.2600 -0.6294 -0.5442
  164SAPE   H7R18440   3.946   0.516   6.824 -3.3400  0.7053 -1.2470
  164SAPE   H7S18441   3.931   0.599   6.983  0.6492 -0.3644 -0.3586
  164SAPE   C2818442   4.121   0.612   6.900 -0.1882 -0.0116 -0.4437
  164SAPE   H8R18443   4.167   0.708   6.871 -0.8168  0.4474  0.0444
  164SAPE   C2918444   4.192   0.504   6.946 -0.2662 -0.1188 -0.2716
  164SAPE   H9R18445   4.301   0.509   6.950 -0.1321 -2.0589 -0.6349
  164SAPE  C21018446   4.138   0.373   6.997  0.2930  0.6955 -0.4110
  164SAPE  H10R18447   4.039   0.347   6.954  1.0823 -0.9928 -1.2793
  164SAPE  H10S18448   4.107   0.399   7.101 -3.4251  1.6247 -1.5994
  164SAPE  C21118449   4.219   0.248   6.976  0.4891  0.1275  0.0386
  164SAPE  H11R18450   4.226   0.217   6.870 -2.4443  0.2889 -0.2776
  164SAPE  C21218451   4.280   0.177   7.074 -0.3054  0.1426 -0.4534
  164SAPE  H12R18452   4.342   0.095   7.035 -1.5661 -0.5783 -1.0389
  164SAPE  C21318453   4.278   0.204   7.221  0.0750 -0.1516 -0.2118
  164SAPE  H13R18454   4.205   0.281   7.254 -0.6509 -1.1434  0.5197
  164SAPE  H13S18455   4.379   0.247   7.241  0.7377 -2.5104  2.1386
  164SAPE  C21418456   4.250   0.078   7.302 -0.2116  0.1053  0.0857
  164SAPE  H14R18457   4.186   0.003   7.252  0.8500 -2.0561  1.7740
  164SAPE  C21518458   4.287   0.068   7.429  0.6636  0.1409 -0.3480
  164SAPE  H15R18459   4.250  -0.014   7.492 -1.2128  0.6681 -0.7195
  164SAPE  C21618460   4.362   0.169   7.509  0.0313  0.4460  0.3765
  164SAPE  H16R18461   4.344   0.272   7.471  0.9215  1.8094  3.3701
  164SAPE  H16S18462   4.472   0.159   7.504 -0.0298 -0.1439  0.2390
  164SAPE  C21718463   4.333   0.146   7.663 -0.6450 -0.0806  0.9251
  164SAPE  H17R18464   4.382   0.052   7.696 -1.9545 -1.9412 -1.9549
  164SAPE  H17S18465   4.227   0.117   7.681 -0.4351 -2.2436 -0.8021
  164SAPE  C21818466   4.391   0.257   7.761 -0.3893  0.0361  0.2174
  164SAPE  H18R18467   4.359   0.353   7.715  1.1587  0.8173  0.7064
  164SAPE  H18S18468   4.502   0.247   7.755 -0.3088 -0.4950  2.0188
  164SAPE  C21918469   4.352   0.246   7.909 -0.3751  0.1975 -0.2715
  164SAPE  H19R18470   4.409   0.319   7.971  1.0096 -1.1641  0.1115
  164SAPE  H19S18471   4.387   0.146   7.941 -0.5704 -0.0802 -0.9311
  164SAPE  C22018472   4.205   0.229   7.950 -0.5639  0.3733  0.5970
  164SAPE  H20R18473   4.203   0.207   8.059 -1.1182 -0.0508  0.5031
  164SAPE  H20S18474   4.138   0.159   7.896 -1.0233  0.7767  0.6259
  164SAPE  H20T18475   4.140   0.319   7.943 -1.4213  0.0128  2.9402
  164SAPE   C3318476   4.262   1.089   6.837  0.4798 -0.0678  0.6219
  164SAPE   H3X18477   4.316   1.181   6.867 -0.3890  0.7561 -0.2508
  164SAPE   H3Y18478   4.279   1.026   6.927  0.1832 -0.6878  0.2494
  164SAPE   C3418479   4.114   1.126   6.841 -0.3385 -0.3938 -0.2683
  164SAPE   H4X18480   4.051   1.038   6.819  2.4712 -2.7867  0.6764
  164SAPE   H4Y18481   4.102   1.193   6.753  1.1166  0.1074 -0.1055
  164SAPE   C3518482   4.070   1.197   6.970  0.5279  0.5227 -0.5662
  164SAPE   H5X18483   3.960   1.209   6.962  0.5333 -0.2739 -2.3051
  164SAPE   H5Y18484   4.131   1.289   6.986  1.7663  0.0078 -2.0632
  164SAPE   C3618485   4.073   1.099   7.091 -0.6425 -0.3569  0.2174
  164SAPE   H6X18486   4.024   1.151   7.175  0.3346  1.9990 -0.5936
  164SAPE   H6Y18487   4.178   1.075   7.120 -1.0272 -1.6694  0.6032
  164SAPE   C3718488   4.015   0.958   7.064  0.0410 -0.3438 -0.3406
  164SAPE   H7X18489   4.094   0.907   7.005  1.2226 -0.3847  1.2276
  164SAPE   H7Y18490   3.917   0.962   7.012  0.0956 -2.7695 -0.7294
  164SAPE   C3818491   4.000   0.867   7.188  0.3729 -0.4208  0.7194
  164SAPE   H8X18492   4.101   0.842   7.227  1.0975  1.2382 -0.0160
  164SAPE   H8Y18493   3.969   0.767   7.152  0.7666 -0.6670  1.0552
  164SAPE   C3918494   3.919   0.926   7.303  0.4550 -0.1219 -0.1412
  164SAPE   H9X18495   3.814   0.949   7.273  0.4046 -0.8275 -0.5289
  164SAPE   H9Y18496   3.961   1.022   7.340 -2.1464  0.3214  1.9524
  164SAPE  C31018497   3.929   0.844   7.428 -0.8502  0.0979  0.3833
  164SAPE  H10X18498   4.038   0.823   7.437 -0.3286  2.4121  0.1072
  164SAPE  H10Y18499   3.879   0.746   7.417  1.5103 -1.0911 -0.4197
  164SAPE  C31118500   3.898   0.909   7.559 -0.2377  0.5218  0.2818
  164SAPE  H11X18501   3.788   0.923   7.569 -0.4942 -1.0299 -0.1642
  164SAPE  H11Y18502   3.938   1.011   7.582 -1.9010  1.3645 -0.3792
  164SAPE  C31218503   3.929   0.823   7.684  0.1378 -0.2164  1.1397
  164SAPE  H12X18504   4.039   0.828   7.697  0.3908 -1.2648 -0.3575
  164SAPE  H12Y18505   3.895   0.721   7.657  3.5198 -1.1086 -0.3590
  164SAPE  C31318506   3.851   0.872   7.808  0.0543  0.2331 -0.1440
  164SAPE  H13X18507   3.846   0.982   7.813  3.5791  0.4654  1.9698
  164SAPE  H13Y18508   3.926   0.851   7.888  0.4485 -0.2903 -0.6369
  164SAPE  C31418509   3.720   0.794   7.830  0.0992  0.5482  0.4769
  164SAPE  H14X18510   3.747   0.687   7.816 -0.4977  0.4716 -0.1453
  164SAPE  H14Y18511   3.634   0.815   7.763 -1.3714  0.2238  2.1799
  164SAPE  C31518512   3.674   0.817   7.980  0.4266 -0.0988  0.1833
  164SAPE  H15X18513   3.760   0.783   8.041  1.5694  1.1429 -0.6715
  164SAPE  H15Y18514   3.591   0.750   8.012  2.1374 -1.3106  2.3856
  164SAPE  C31618515   3.621   0.957   8.008  0.2883 -0.4039  0.3240
  164SAPE  H16X18516   3.570   0.987   7.915 -0.1335 -0.6591  0.4711
  164SAPE  H16Y18517   3.711   1.017   8.034 -0.2461 -0.1401  1.6417
  164SAPE  C31718518   3.525   0.974   8.131  0.3198 -1.0775  0.9303
  164SAPE  H17X18519   3.586   0.936   8.215  1.6028 -0.2407  0.4144
  164SAPE  H17Y18520   3.434   0.911   8.122 -0.9421  0.6694  0.9844
  164SAPE  C31818521   3.483   1.120   8.161  0.4296 -0.0028  0.0392
  164SAPE  H18X18522   3.427   1.167   8.078  0.4638  0.8101  0.4596
  164SAPE  H18Y18523   3.577   1.173   8.188  1.7088 -0.5987 -2.8643
  164SAPE  H18Z18524   3.420   1.122   8.253  1.9153  0.9054  1.0849
  165SAPE     N18525   2.115   4.141   6.303  0.2617  0.1684  0.1646
  165SAPE   HN118526   2.122   4.236   6.344  2.0562  1.2988 -2.4907
  165SAPE   HN218527   2.090   4.155   6.203 -1.3171 -0.7314  0.4069
  165SAPE   HN318528   2.037   4.091   6.350 -1.0868  1.7297 -0.3062
  165SAPE   C1218529   2.249   4.080   6.319 -0.2276 -0.9123 -0.2865
  165SAPE  H12A18530   2.232   3.976   6.355 -3.1972 -0.1857  0.6601
  165SAPE  H12B18531   2.300   4.138   6.399 -1.5302 -1.4681  0.9870
  165SAPE   C1118532   2.336   4.095   6.189 -0.3081  0.5232 -0.6016
  165SAPE  H11A18533   2.365   4.199   6.161  1.0871  0.8286  1.7263
  165SAPE  H11B18534   2.267   4.059   6.109 -2.6424  0.5889  1.2661
  165SAPE     P18535   2.566   4.009   6.282 -0.1539 -0.2097  0.2835
  165SAPE   O1318536   2.673   3.937   6.210 -0.1830  0.0404 -0.4525
  165SAPE   O1418537   2.587   4.147   6.323  0.0172 -0.3130 -0.0622
  165SAPE   O1218538   2.447   4.005   6.186  0.2664 -0.2767  0.6084
  165SAPE   O1118539   2.517   3.920   6.402 -0.0409 -0.3500 -0.5276
  165SAPE    C118540   2.462   3.783   6.363 -0.8277 -1.1132 -0.0630
  165SAPE    HA18541   2.359   3.794   6.323 -0.3479  0.8224 -0.8504
  165SAPE    HB18542   2.527   3.738   6.285 -0.4325  0.6457 -0.7989
  165SAPE    C218543   2.447   3.688   6.479 -0.4516  1.1168 -0.8665
  165SAPE    HS18544   2.398   3.595   6.445  1.2928  0.7291 -2.5209
  165SAPE   O2118545   2.375   3.748   6.593  0.0308  0.3877 -0.4213
  165SAPE   C2118546   2.339   3.653   6.685 -0.0108  0.1900  0.0157
  165SAPE   O2218547   2.344   3.533   6.662  0.4109 -0.1872  0.0456
  165SAPE   C2218548   2.286   3.722   6.820  0.5159 -0.3146 -0.0156
  165SAPE   H2R18549   2.356   3.802   6.852 -0.1452  0.4121 -0.3640
  165SAPE   H2S18550   2.187   3.766   6.794  0.5812 -0.0294  0.2177
  165SAPE    C318551   2.589   3.641   6.526  0.4708  0.0784 -0.0234
  165SAPE    HX18552   2.639   3.589   6.441 -2.6928 -0.3449 -1.7828
  165SAPE    HY18553   2.590   3.571   6.613 -1.4145 -0.4181 -0.3593
  165SAPE   O3118554   2.678   3.754   6.544 -0.8607  0.3186 -0.0723
  165SAPE   C3118555   2.678   3.803   6.661  0.2003  0.1458  0.2722
  165SAPE   O3218556   2.625   3.753   6.757  0.0956  0.5457 -0.1299
  165SAPE   C3218557   2.747   3.943   6.665  0.7598 -0.3737  0.4343
  165SAPE   H2X18558   2.702   3.988   6.574  0.0022 -0.9214  0.5341
  165SAPE   H2Y18559   2.853   3.917   6.646  0.8905  0.6166 -0.3094
  165SAPE   C2318560   2.258   3.624   6.928  0.4415  0.1184  0.1603
  165SAPE   H3R18561   2.359   3.583   6.952  0.3335 -0.2765 -0.0564
  165SAPE   H3S18562   2.193   3.535   6.910  2.9199 -2.0325  1.1084
  165SAPE   C2418563   2.194   3.683   7.054  0.2216  0.0306 -0.0540
  165SAPE   H4R18564   2.169   3.596   7.119 -1.9532 -0.9011 -2.0005
  165SAPE   H4S18565   2.092   3.724   7.035  0.0698 -0.0987  0.4605
  165SAPE   C2518566   2.275   3.782   7.127 -0.7310 -0.9520 -0.2366
  165SAPE   H5R18567   2.336   3.850   7.065 -0.2342 -0.4108  0.8194
  165SAPE   C2618568   2.269   3.809   7.263 -0.1828  0.3937 -0.6316
  165SAPE   H6R18569   2.331   3.888   7.309 -0.1808 -0.5218  0.9883
  165SAPE   C2718570   2.180   3.731   7.358  0.1097  0.1061 -0.1646
  165SAPE   H7R18571   2.233   3.654   7.419 -1.3657 -1.0806 -0.3311
  165SAPE   H7S18572   2.113   3.661   7.303 -0.0807 -0.1201  0.3455
  165SAPE   C2818573   2.097   3.822   7.441 -0.0509  0.0914 -0.0788
  165SAPE   H8R18574   2.001   3.848   7.393 -1.2412 -0.1769  2.0045
  165SAPE   C2918575   2.128   3.872   7.567 -0.8705 -0.1473 -0.2657
  165SAPE   H9R18576   2.059   3.937   7.623 -0.9430 -2.0613  2.0543
  165SAPE  C21018577   2.256   3.838   7.645 -0.2817  0.1224  0.3153
  165SAPE  H10R18578   2.314   3.929   7.672 -0.1675 -0.6012  2.7309
  165SAPE  H10S18579   2.320   3.763   7.593  0.1747 -0.0277  1.0842
  165SAPE  C21118580   2.235   3.762   7.763 -0.2010 -0.3428 -0.7451
  165SAPE  H11R18581   2.203   3.659   7.741 -3.8334  0.0841  1.6692
  165SAPE  C21218582   2.246   3.797   7.897 -0.4561 -0.2814  0.7947
  165SAPE  H12R18583   2.236   3.712   7.967  2.1989 -0.9236  0.4705
  165SAPE  C21318584   2.270   3.929   7.960 -0.6785  0.1562  0.0015
  165SAPE  H13R18585   2.318   3.998   7.888  2.1034 -0.7103  0.8874
  165SAPE  H13S18586   2.347   3.917   8.039 -0.6276 -0.5365 -0.1477
  165SAPE  C21418587   2.136   3.983   8.013 -0.8949  0.8491  0.2176
  165SAPE  H14R18588   2.054   4.012   7.945  0.4783  1.4071 -1.2540
  165SAPE  C21518589   2.123   4.017   8.146 -0.1987  0.0407 -0.0595
  165SAPE  H15R18590   2.028   4.049   8.192  0.2219  0.4100  0.5787
  165SAPE  C21618591   2.235   4.007   8.252 -0.1975 -0.0486  0.3778
  165SAPE  H16R18592   2.305   4.092   8.233 -0.4336  0.1373  0.3381
  165SAPE  H16S18593   2.283   3.908   8.237  1.2212  0.8721 -1.6872
  165SAPE  C21718594   2.195   4.021   8.397  0.3948  0.2411 -0.4789
  165SAPE  H17R18595   2.280   3.979   8.455  0.2031 -0.6422 -0.8124
  165SAPE  H17S18596   2.112   3.952   8.420 -0.2557  0.8545 -0.9419
  165SAPE  C21818597   2.156   4.161   8.446 -0.4035 -0.8256  0.0308
  165SAPE  H18R18598   2.079   4.204   8.379  0.3747  1.4092  0.4963
  165SAPE  H18S18599   2.241   4.227   8.422 -2.2240  1.5906 -0.1778
  165SAPE  C21918600   2.121   4.149   8.594  0.1225  0.2441  0.4383
  165SAPE  H19R18601   2.213   4.126   8.651  2.3212 -0.2509 -2.9802
  165SAPE  H19S18602   2.052   4.063   8.605  0.8253 -0.8781 -2.7993
  165SAPE  C22018603   2.051   4.280   8.639  0.5075  0.0066 -0.3755
  165SAPE  H20R18604   2.021   4.270   8.746 -4.0727 -0.0703 -1.4805
  165SAPE  H20S18605   1.957   4.305   8.586 -0.2162  4.0173  2.3500
  165SAPE  H20T18606   2.123   4.365   8.629 -2.5280  2.6964 -0.9232
  165SAPE   C3318607   2.714   4.010   6.800 -0.3316  0.2750 -0.1276
  165SAPE   H3X18608   2.610   3.993   6.834  0.1879  1.2062  2.1211
  165SAPE   H3Y18609   2.729   4.119   6.790  1.4974  0.2882  1.8977
  165SAPE   C3418610   2.810   3.958   6.907  0.0515 -0.0606  0.2499
  165SAPE   H4X18611   2.913   3.978   6.873 -0.2258 -0.1320 -0.6521
  165SAPE   H4Y18612   2.813   3.849   6.927  1.9419 -0.1895 -0.5467
  165SAPE   C3518613   2.783   4.020   7.052  0.1305 -0.8258  0.2394
  165SAPE   H5X18614   2.679   3.994   7.078 -0.4125  0.5519 -0.4753
  165SAPE   H5Y18615   2.788   4.130   7.035 -3.3807 -0.7326 -0.8174
  165SAPE   C3618616   2.879   3.975   7.159  0.1563  0.6090  0.1983
  165SAPE   H6X18617   2.985   4.002   7.139  0.2024 -0.6751 -1.5682
  165SAPE   H6Y18618   2.886   3.864   7.152  2.5135  0.7810 -1.2596
  165SAPE   C3718619   2.825   4.013   7.297 -0.2030  0.4257  0.3758
  165SAPE   H7X18620   2.721   3.973   7.302 -0.8151  1.7333 -1.2591
  165SAPE   H7Y18621   2.811   4.123   7.303  1.9731  0.6679  2.5713
  165SAPE   C3818622   2.903   3.959   7.414  0.2535  0.0429  0.1767
  165SAPE   H8X18623   3.000   4.011   7.428  1.0073 -0.8085 -1.6118
  165SAPE   H8Y18624   2.914   3.849   7.402 -2.0612 -0.2682  0.3659
  165SAPE   C3918625   2.840   3.960   7.555 -0.6571  0.1109 -0.0457
  165SAPE   H9X18626   2.740   3.913   7.555 -1.2809  1.3746  0.8612
  165SAPE   H9Y18627   2.831   4.063   7.595  1.5754  0.0696  0.7376
  165SAPE  C31018628   2.933   3.893   7.663  0.9442 -0.7389 -0.5247
  165SAPE  H10X18629   3.030   3.946   7.668  0.5445 -0.0892  0.7302
  165SAPE  H10Y18630   2.951   3.785   7.641  0.8920 -0.4917 -1.8664
  165SAPE  C31118631   2.878   3.904   7.805  0.2589  0.3467 -0.2693
  165SAPE  H11X18632   2.774   3.867   7.810  1.0168 -1.9193  0.3779
  165SAPE  H11Y18633   2.869   4.011   7.831 -2.0180  0.3500 -0.8729
  165SAPE  C31218634   2.972   3.830   7.901  0.5975  0.8758 -0.2198
  165SAPE  H12X18635   3.078   3.852   7.877  1.4365 -1.4243  1.0665
  165SAPE  H12Y18636   2.967   3.719   7.896 -0.8585  0.9783 -3.2206
  165SAPE  C31318637   2.950   3.878   8.049  0.1976 -1.5218 -0.3688
  165SAPE  H13X18638   2.846   3.856   8.079  0.6332 -0.7015  1.9487
  165SAPE  H13Y18639   2.972   3.986   8.062 -0.7619 -1.4513  0.8051
  165SAPE  C31418640   3.028   3.799   8.155 -0.3166  0.2467  0.0642
  165SAPE  H14X18641   3.128   3.802   8.105 -0.8351 -0.6885 -1.0867
  165SAPE  H14Y18642   3.004   3.690   8.155 -0.8005  0.2921  2.7315
  165SAPE  C31518643   3.027   3.873   8.289 -0.0782  0.3815 -0.4327
  165SAPE  H15X18644   2.928   3.861   8.338 -1.3314  1.4128 -2.5685
  165SAPE  H15Y18645   3.042   3.979   8.258 -0.0949 -0.0943 -2.1926
  165SAPE  C31618646   3.144   3.826   8.372 -0.2382  0.2597  0.8195
  165SAPE  H16X18647   3.228   3.832   8.300  0.1955 -0.3841  1.2632
  165SAPE  H16Y18648   3.138   3.721   8.407 -0.8032 -0.2447 -0.6880
  165SAPE  C31718649   3.173   3.918   8.493  0.1360  0.0345 -0.8290
  165SAPE  H17X18650   3.195   4.026   8.481  1.3448 -0.2151 -1.0095
  165SAPE  H17Y18651   3.263   3.873   8.539 -1.0308 -0.9318  0.6065
  165SAPE  C31818652   3.064   3.901   8.598 -0.0519 -0.1208  0.8425
  165SAPE  H18X18653   3.105   3.934   8.696  1.5759 -3.7723  1.5607
  165SAPE  H18Y18654   3.030   3.796   8.613 -1.1943  0.1415  0.2369
  165SAPE  H18Z18655   2.968   3.949   8.569 -0.8711  0.0248  3.5516
  166SAPE     N18656   2.814   1.688   5.618 -0.2327  0.5116  0.0725
  166SAPE   HN118657   2.849   1.712   5.523 -0.2277  1.9999  0.4205
  166SAPE   HN218658   2.774   1.593   5.608  2.2508 -0.6804  0.8679
  166SAPE   HN318659   2.734   1.750   5.643 -0.0043 -0.0389  2.3781
  166SAPE   C1218660   2.920   1.691   5.722 -0.0537 -0.2014  0.2779
  166SAPE  H12A18661   2.975   1.786   5.732  0.5520 -0.6284  1.1650
  166SAPE  H12B18662   3.002   1.623   5.691  0.3436  0.6929 -0.6600
  166SAPE   C1118663   2.857   1.643   5.856 -0.4977  0.3220  0.6781
  166SAPE  H11A18664   2.934   1.640   5.936 -1.1193  0.8545  1.3122
  166SAPE  H11B18665   2.826   1.536   5.853 -1.5548  0.6303 -0.0743
  166SAPE     P18666   2.745   1.846   5.988  0.0667 -0.2121  0.0123
  166SAPE   O1318667   2.817   1.961   5.926 -0.5653  0.1632 -0.1178
  166SAPE   O1418668   2.606   1.876   6.008 -0.2576  0.0746 -0.4768
  166SAPE   O1218669   2.745   1.723   5.893  0.5096 -0.1159 -0.1112
  166SAPE   O1118670   2.813   1.803   6.126 -0.7250 -0.0777  0.8814
  166SAPE    C118671   2.758   1.693   6.197  0.1682 -0.8809  0.7318
  166SAPE    HA18672   2.658   1.725   6.233 -0.9136 -2.3987 -0.7965
  166SAPE    HB18673   2.733   1.602   6.139 -0.5394 -1.6599  2.2245
  166SAPE    C218674   2.851   1.651   6.314  0.8163 -0.1498 -0.4446
  166SAPE    HS18675   2.811   1.563   6.368 -0.5306  0.4065 -0.4888
  166SAPE   O2118676   2.879   1.765   6.405 -0.2809  0.2160  0.5585
  166SAPE   C2118677   2.784   1.796   6.491 -0.3883  0.3617 -0.2379
  166SAPE   O2218678   2.681   1.741   6.516  0.0190  0.3497  0.2395
  166SAPE   C2218679   2.848   1.903   6.584  0.4475  0.1412 -0.0754
  166SAPE   H2R18680   2.936   1.855   6.633  0.2229  0.6572  0.8678
  166SAPE   H2S18681   2.888   1.981   6.516 -0.4811 -0.0519 -0.8626
  166SAPE    C318682   2.987   1.610   6.252  0.1345 -0.0692  0.6855
  166SAPE    HX18683   3.031   1.695   6.195 -0.8453  1.8784  2.6876
  166SAPE    HY18684   2.966   1.532   6.175 -1.4820  1.2952 -0.3324
  166SAPE   O3118685   3.078   1.556   6.351 -0.1087  0.7457 -0.0545
  166SAPE   C3118686   3.150   1.640   6.421  0.4629 -0.8785 -0.8125
  166SAPE   O3218687   3.167   1.756   6.388 -0.4186 -0.0203 -0.4927
  166SAPE   C3218688   3.217   1.564   6.540 -0.1256 -0.2204 -0.1392
  166SAPE   H2X18689   3.276   1.492   6.481  0.8845  0.2666  0.2429
  166SAPE   H2Y18690   3.138   1.521   6.605  0.1165 -0.2249  0.1522
  166SAPE   C2318691   2.756   1.958   6.693  0.0238 -0.4578  0.7149
  166SAPE   H3R18692   2.664   1.983   6.637  1.6595  1.0257 -1.5166
  166SAPE   H3S18693   2.794   2.054   6.736  1.1203 -0.5823  0.0816
  166SAPE   C2418694   2.722   1.862   6.810 -0.1514 -0.4453  0.0719
  166SAPE   H4R18695   2.815   1.838   6.866 -0.1520  3.0071  1.7897
  166SAPE   H4S18696   2.693   1.764   6.767  0.4903 -1.1723  1.2395
  166SAPE   C2518697   2.610   1.913   6.894  0.0155 -0.4161 -0.3730
  166SAPE   H5R18698   2.507   1.915   6.855 -0.8878  2.3524  1.7904
  166SAPE   C2618699   2.630   1.957   7.020 -0.3425  0.2175 -0.4983
  166SAPE   H6R18700   2.545   2.005   7.069 -0.4800  0.4960 -1.0081
  166SAPE   C2718701   2.768   1.967   7.092  0.3346  0.5910 -0.0753
  166SAPE   H7R18702   2.849   1.931   7.026  1.5348  0.4106  1.4450
  166SAPE   H7S18703   2.764   1.882   7.164  0.9646 -0.6581 -1.4716
  166SAPE   C2818704   2.797   2.102   7.146  0.1151  0.7221  0.4141
  166SAPE   H8R18705   2.847   2.167   7.072  0.8875 -1.6191 -1.2374
  166SAPE   C2918706   2.772   2.146   7.272 -0.4707 -0.2242 -0.2859
  166SAPE   H9R18707   2.783   2.255   7.285 -0.5421  0.1746 -2.8566
  166SAPE  C21018708   2.708   2.073   7.388  0.4982  0.1753  0.2193
  166SAPE  H10R18709   2.758   1.973   7.391  0.2448  0.0721  2.2078
  166SAPE  H10S18710   2.600   2.061   7.368  0.4443  1.3311 -0.2490
  166SAPE  C21118711   2.736   2.153   7.512  0.2707  0.3533  0.1168
  166SAPE  H11R18712   2.813   2.103   7.573  2.0848  0.4414 -1.9729
  166SAPE  C21218713   2.675   2.270   7.555 -0.1405 -0.3765  0.3816
  166SAPE  H12R18714   2.703   2.313   7.653 -0.4001  0.1945  0.2064
  166SAPE  C21318715   2.570   2.346   7.485  0.1620  0.0116 -0.3087
  166SAPE  H13R18716   2.467   2.320   7.516 -0.6585  3.1024 -0.1434
  166SAPE  H13S18717   2.583   2.327   7.376  1.3551 -2.9087  0.2434
  166SAPE  C21418718   2.603   2.496   7.505  0.4740 -0.4254 -0.1301
  166SAPE  H14R18719   2.683   2.529   7.438  1.0669 -0.0993  0.7201
  166SAPE  C21518720   2.567   2.578   7.606 -0.8057 -0.4231  0.2294
  166SAPE  H15R18721   2.612   2.678   7.611  0.8153 -1.0584 -0.9395
  166SAPE  C21618722   2.489   2.535   7.726  0.5242  0.2816  0.0323
  166SAPE  H16R18723   2.428   2.442   7.718 -0.3145  0.6686  1.5008
  166SAPE  H16S18724   2.411   2.611   7.750 -1.2522 -1.4630  0.1153
  166SAPE  C21718725   2.577   2.531   7.847  0.3465  0.1032 -0.1758
  166SAPE  H17R18726   2.662   2.463   7.829  0.6351  0.1763  0.8445
  166SAPE  H17S18727   2.521   2.499   7.938  0.2897  1.8255  0.4452
  166SAPE  C21818728   2.650   2.662   7.883 -0.3230 -0.1144  0.0558
  166SAPE  H18R18729   2.567   2.733   7.905 -0.5873 -0.6117  0.6843
  166SAPE  H18S18730   2.715   2.697   7.800  1.4499  1.0994  1.8647
  166SAPE  C21918731   2.728   2.653   8.010  0.4023 -0.3052 -0.2464
  166SAPE  H19R18732   2.809   2.577   8.002  0.2653 -0.7231  1.8049
  166SAPE  H19S18733   2.656   2.619   8.087  1.6323 -0.4310  0.8699
  166SAPE  C22018734   2.791   2.794   8.045 -1.1031  1.1617  0.1692
  166SAPE  H20R18735   2.882   2.814   7.985 -1.0735 -0.6674 -0.4501
  166SAPE  H20S18736   2.839   2.801   8.145  0.6046  1.9391 -0.6682
  166SAPE  H20T18737   2.708   2.868   8.038 -3.0817 -0.8760  0.5816
  166SAPE   C3318738   3.292   1.658   6.638  0.3326  0.9540  0.2799
  166SAPE   H3X18739   3.219   1.723   6.691 -0.6803  0.8162 -0.8986
  166SAPE   H3Y18740   3.357   1.723   6.575  1.2559 -0.0936  0.1288
  166SAPE   C3418741   3.370   1.574   6.745  0.1082 -0.3025 -0.2280
  166SAPE   H4X18742   3.425   1.637   6.818 -1.7604 -1.0943  1.9661
  166SAPE   H4Y18743   3.456   1.525   6.695  1.6391  0.2954  1.6856
  166SAPE   C3518744   3.292   1.469   6.814  0.6150  0.0350  0.3619
  166SAPE   H5X18745   3.232   1.410   6.741  1.1981  1.9019 -1.7398
  166SAPE   H5Y18746   3.221   1.522   6.881 -0.4784  0.3350 -0.9926
  166SAPE   C3618747   3.380   1.386   6.905  0.5204  0.0984  0.1951
  166SAPE   H6X18748   3.469   1.370   6.840 -0.6204  1.8672 -1.9509
  166SAPE   H6Y18749   3.334   1.285   6.912 -1.2892  0.7210 -1.6935
  166SAPE   C3718750   3.415   1.457   7.035  0.5485  0.9687  0.8573
  166SAPE   H7X18751   3.417   1.567   7.024  1.2341  0.8329 -0.7473
  166SAPE   H7Y18752   3.514   1.430   7.075 -0.0909 -0.6235  1.4399
  166SAPE   C3818753   3.327   1.427   7.159  0.3000 -0.1008  0.0016
  166SAPE   H8X18754   3.357   1.338   7.218  1.3037  1.6825  2.3650
  166SAPE   H8Y18755   3.220   1.418   7.134 -0.0511  0.4145  1.2171
  166SAPE   C3918756   3.341   1.537   7.271 -0.5427 -0.2954  0.3180
  166SAPE   H9X18757   3.297   1.631   7.232 -0.9304 -0.7081 -0.2471
  166SAPE   H9Y18758   3.449   1.556   7.287 -0.8548  1.1487  0.8289
  166SAPE  C31018759   3.272   1.492   7.404 -0.2872 -0.7812  0.3631
  166SAPE  H10X18760   3.314   1.395   7.436  0.7468 -1.2718 -2.2408
  166SAPE  H10Y18761   3.162   1.489   7.390 -0.3805 -2.3258  1.2598
  166SAPE  C31118762   3.299   1.608   7.505  0.5932 -0.1787  0.2934
  166SAPE  H11X18763   3.264   1.704   7.460  0.4329  0.0460  0.8911
  166SAPE  H11Y18764   3.410   1.614   7.500  0.5053  0.5973 -2.1381
  166SAPE  C31218765   3.234   1.592   7.640 -0.3969  0.3966 -0.6844
  166SAPE  H12X18766   3.285   1.656   7.716  0.1454 -1.5651  0.6770
  166SAPE  H12Y18767   3.260   1.493   7.682 -0.8416  0.2229 -0.8203
  166SAPE  C31318768   3.087   1.606   7.632 -0.3702 -0.3348 -0.2525
  166SAPE  H13X18769   3.030   1.536   7.567 -1.6961  0.8616 -0.4336
  166SAPE  H13Y18770   3.066   1.706   7.588  1.7737  0.7160  0.9613
  166SAPE  C31418771   3.004   1.592   7.761 -0.1218  0.3177 -1.1209
  166SAPE  H14X18772   3.009   1.488   7.800 -0.7157  0.1755 -1.4162
  166SAPE  H14Y18773   2.900   1.606   7.724  0.5407 -1.1772 -3.8231
  166SAPE  C31518774   3.065   1.675   7.880 -0.2357  0.1986  0.0197
  166SAPE  H15X18775   3.078   1.780   7.849 -1.5407 -0.2006 -2.1025
  166SAPE  H15Y18776   3.168   1.647   7.912 -0.5900  1.1019  2.0907
  166SAPE  C31618777   2.970   1.682   8.000 -0.1248  0.2121 -0.4065
  166SAPE  H16X18778   2.957   1.578   8.036 -1.0518  0.3051 -0.4373
  166SAPE  H16Y18779   2.866   1.710   7.974  0.5355  0.6556 -2.8060
  166SAPE  C31718780   3.006   1.780   8.107 -0.6520  0.2592  0.1481
  166SAPE  H17X18781   2.930   1.814   8.180  0.5286  0.8220  1.1541
  166SAPE  H17Y18782   3.038   1.875   8.060 -1.0002 -0.0040 -0.6352
  166SAPE  C31818783   3.128   1.745   8.193 -0.0853 -0.5440  0.0015
  166SAPE  H18X18784   3.158   1.830   8.258  1.6688  0.1931 -1.6704
  166SAPE  H18Y18785   3.216   1.711   8.134  0.0967  0.1881 -0.1684
  166SAPE  H18Z18786   3.094   1.667   8.263 -0.0378 -0.3730  0.2167
  167SAPE     N18787   4.245   6.652   5.888 -0.0134  0.1227  0.4989
  167SAPE   HN118788   4.304   6.571   5.860  0.4658  1.4265 -2.6184
  167SAPE   HN218789   4.164   6.601   5.927  0.2997 -0.2802  0.6276
  167SAPE   HN318790   4.222   6.717   5.810  0.9063 -0.0731  0.0563
  167SAPE   C1218791   4.316   6.731   5.998 -0.3874  0.3553 -0.1551
  167SAPE  H12A18792   4.394   6.795   5.951  1.8133 -0.5103  2.0855
  167SAPE  H12B18793   4.361   6.653   6.063 -0.8220 -2.1875 -2.6949
  167SAPE   C1118794   4.213   6.811   6.080 -0.6082  1.1188 -0.7081
  167SAPE  H11A18795   4.137   6.738   6.115  2.6701 -1.1360  2.4116
  167SAPE  H11B18796   4.157   6.883   6.016 -1.9666  0.4426 -0.3022
  167SAPE     P18797   4.363   6.999   6.178 -0.1741 -0.5648 -0.1180
  167SAPE   O1318798   4.503   6.971   6.206  0.0328  0.2224  0.3589
  167SAPE   O1418799   4.330   7.073   6.054  0.5695  0.3142 -0.7184
  167SAPE   O1218800   4.271   6.876   6.195  0.1235  0.7276 -0.2163
  167SAPE   O1118801   4.299   7.081   6.301 -0.4279  0.4803  0.1575
  167SAPE    C118802   4.346   7.049   6.435  0.1203 -0.3566 -0.4317
  167SAPE    HA18803   4.328   6.941   6.453 -2.3214 -0.0327 -0.5183
  167SAPE    HB18804   4.451   7.079   6.454 -0.0819  0.0660  0.0534
  167SAPE    C218805   4.262   7.123   6.543 -0.0932 -0.5695  0.9550
  167SAPE    HS18806   4.298   7.091   6.643  1.6439 -0.1998  0.4632
  167SAPE   O2118807   4.123   7.091   6.527  0.4911 -0.5735 -0.1983
  167SAPE   C2118808   4.080   6.978   6.573  0.6170  0.1856  0.3764
  167SAPE   O2218809   4.144   6.904   6.634  0.3909  0.0041 -0.1240
  167SAPE   C2218810   3.929   6.972   6.553  0.1701 -0.5454  0.0195
  167SAPE   H2R18811   3.886   7.041   6.629  0.6016  1.9308 -1.8541
  167SAPE   H2S18812   3.906   7.024   6.458  0.5084 -1.3481 -0.5154
  167SAPE    C318813   4.298   7.273   6.537  0.1400 -0.0631 -0.4907
  167SAPE    HX18814   4.231   7.318   6.613  0.9834  0.3224  0.0387
  167SAPE    HY18815   4.272   7.313   6.436 -0.1854 -0.0078 -0.3867
  167SAPE   O3118816   4.439   7.291   6.573 -0.1233 -0.2727 -0.0024
  167SAPE   C3118817   4.466   7.418   6.607  0.9167 -0.3271 -0.1576
  167SAPE   O3218818   4.391   7.509   6.578 -0.2884 -0.0432  0.6257
  167SAPE   C3218819   4.603   7.421   6.667  0.1110 -0.4269 -0.4479
  167SAPE   H2X18820   4.674   7.431   6.582 -0.6860  1.3486 -0.9412
  167SAPE   H2Y18821   4.614   7.319   6.709 -1.4724 -1.1757 -1.7459
  167SAPE   C2318822   3.877   6.827   6.557  0.5083 -0.1184  0.8618
  167SAPE   H3R18823   3.954   6.749   6.538  1.1108  0.8734 -1.0663
  167SAPE   H3S18824   3.810   6.808   6.471  0.1173  0.2813  1.0737
  167SAPE   C2418825   3.804   6.793   6.689  0.8957 -0.4659 -0.4004
  167SAPE   H4R18826   3.750   6.699   6.666  1.6122 -0.9168 -0.2597
  167SAPE   H4S18827   3.731   6.877   6.694 -0.5040 -1.4555 -2.7438
  167SAPE   C2518828   3.895   6.766   6.805  0.7126  0.1438 -0.1417
  167SAPE   H5R18829   3.960   6.678   6.787 -0.6531 -0.6848 -1.2756
  167SAPE   C2618830   3.880   6.823   6.929  0.1582  0.2490  0.6623
  167SAPE   H6R18831   3.957   6.800   7.005  1.3687 -0.0786 -0.6279
  167SAPE   C2718832   3.776   6.919   6.975 -0.3243  0.6355 -0.8043
  167SAPE   H7R18833   3.707   6.933   6.889 -1.4300  1.2274  0.1486
  167SAPE   H7S18834   3.840   7.010   6.972  1.3038 -0.4690 -0.8514
  167SAPE   C2818835   3.703   6.896   7.106  0.4745  0.0584 -0.3949
  167SAPE   H8R18836   3.630   6.814   7.112  1.1335 -0.4683  1.2062
  167SAPE   C2918837   3.714   6.982   7.210  0.3870 -0.2581  0.8441
  167SAPE   H9R18838   3.648   6.963   7.296  2.4487 -0.6047  2.4439
  167SAPE  C21018839   3.806   7.098   7.225 -0.4554 -0.5527  0.4327
  167SAPE  H10R18840   3.760   7.188   7.273  1.0612  0.5919 -0.1586
  167SAPE  H10S18841   3.852   7.134   7.130 -0.0787 -1.4624  0.2659
  167SAPE  C21118842   3.920   7.056   7.318 -0.2677  0.5245  0.0751
  167SAPE  H11R18843   3.998   7.006   7.258  0.7194  1.8948  0.1770
  167SAPE  C21218844   3.933   7.058   7.455 -0.5534 -1.2212  0.3236
  167SAPE  H12R18845   4.026   7.030   7.506 -0.1144  0.7784  0.6962
  167SAPE  C21318846   3.834   7.112   7.555 -0.1104 -0.6619 -0.3315
  167SAPE  H13R18847   3.799   7.025   7.614  1.2121  0.2597  1.9462
  167SAPE  H13S18848   3.746   7.160   7.506 -0.5048  0.5110  1.4155
  167SAPE  C21418849   3.900   7.206   7.640 -1.0015 -0.9093 -0.8195
  167SAPE  H14R18850   3.988   7.262   7.603  1.1073 -2.6768  1.2380
  167SAPE  C21518851   3.852   7.236   7.762  0.0464 -0.5870  0.1215
  167SAPE  H15R18852   3.911   7.306   7.822  0.1501  1.1480 -1.8662
  167SAPE  C21618853   3.735   7.177   7.831 -0.5999  0.0577  0.2884
  167SAPE  H16R18854   3.673   7.121   7.758  1.2299 -0.7230 -0.7292
  167SAPE  H16S18855   3.678   7.263   7.872 -0.6434  0.0153  0.3172
  167SAPE  C21718856   3.754   7.086   7.955  0.7137  0.1029 -0.1139
  167SAPE  H17R18857   3.784   6.991   7.905 -0.9403 -1.2311  1.2967
  167SAPE  H17S18858   3.653   7.073   7.999 -0.8267  1.6888 -2.8449
  167SAPE  C21818859   3.860   7.124   8.058 -0.0068  0.2378 -0.5560
  167SAPE  H18R18860   3.834   7.207   8.126 -0.4076 -1.3704  1.3416
  167SAPE  H18S18861   3.946   7.146   7.991  0.2057 -0.8261 -0.6654
  167SAPE  C21918862   3.883   7.005   8.162  0.0729 -0.7258 -0.1268
  167SAPE  H19R18863   3.805   7.019   8.241  0.7308  0.3842  0.3461
  167SAPE  H19S18864   3.977   7.031   8.214 -0.1310  2.4001 -1.1209
  167SAPE  C22018865   3.884   6.868   8.102 -0.0468 -0.9065 -0.3819
  167SAPE  H20R18866   3.794   6.852   8.038 -0.3509 -0.9814  0.0651
  167SAPE  H20S18867   3.898   6.783   8.172 -0.5141 -0.6188  0.0698
  167SAPE  H20T18868   3.977   6.865   8.041 -0.8825 -1.3603 -1.6772
  167SAPE   C3318869   4.616   7.517   6.790 -0.3451  0.1574  0.7204
  167SAPE   H3X18870   4.617   7.620   6.748 -1.4626 -0.6173 -1.3725
  167SAPE   H3Y18871   4.710   7.494   6.843  0.4315  0.5820 -0.4426
  167SAPE   C3418872   4.511   7.511   6.904  0.2706  0.2245 -0.0253
  167SAPE   H4X18873   4.474   7.406   6.898  1.2139 -0.0542 -1.7076
  167SAPE   H4Y18874   4.428   7.576   6.869 -1.0569 -2.2850 -1.8787
  167SAPE   C3518875   4.540   7.553   7.052 -0.0830 -0.3694  0.5996
  167SAPE   H5X18876   4.557   7.663   7.051 -5.3527  0.7132 -1.5504
  167SAPE   H5Y18877   4.631   7.504   7.093 -0.1898 -0.9703  0.1458
  167SAPE   C3618878   4.423   7.515   7.148  0.0246  0.7647 -0.3258
  167SAPE   H6X18879   4.382   7.412   7.134 -2.2685  1.5448  0.2752
  167SAPE   H6Y18880   4.340   7.587   7.132 -0.8062 -0.2951 -0.9208
  167SAPE   C3718881   4.471   7.529   7.294  0.0577 -0.1038  0.2292
  167SAPE   H7X18882   4.480   7.639   7.306 -0.8506  0.1550 -1.1877
  167SAPE   H7Y18883   4.569   7.480   7.313  0.3370  0.2270 -0.3209
  167SAPE   C3818884   4.364   7.482   7.389 -0.2226 -0.2702  0.0445
  167SAPE   H8X18885   4.347   7.374   7.370 -0.7518 -0.0913 -0.5526
  167SAPE   H8Y18886   4.273   7.541   7.364  2.3988  2.9001 -3.0124
  167SAPE   C3918887   4.399   7.483   7.536 -0.2788 -0.3060 -0.1706
  167SAPE   H9X18888   4.436   7.582   7.570  0.1288 -0.6448  0.4013
  167SAPE   H9Y18889   4.482   7.410   7.550 -0.4631 -0.9482 -2.0378
  167SAPE  C31018890   4.275   7.458   7.626  0.0124 -0.1444  0.6275
  167SAPE  H10X18891   4.232   7.359   7.604 -1.8149 -0.0027  3.1713
  167SAPE  H10Y18892   4.218   7.547   7.592 -1.2071 -0.9460  0.5407
  167SAPE  C31118893   4.297   7.462   7.774 -0.8407  0.2118 -0.8909
  167SAPE  H11X18894   4.325   7.566   7.801  3.1891 -0.5686 -1.3442
  167SAPE  H11Y18895   4.384   7.396   7.793 -1.9129 -1.3208 -1.1102
  167SAPE  C31218896   4.185   7.423   7.863  0.3991 -0.2620 -1.0449
  167SAPE  H12X18897   4.163   7.315   7.862  0.0821 -0.2188  0.0531
  167SAPE  H12Y18898   4.092   7.478   7.837  0.9716  1.3669  0.1415
  167SAPE  C31318899   4.223   7.466   8.009 -0.6628  0.5952  0.4969
  167SAPE  H13X18900   4.225   7.577   8.017 -0.4849  0.7242 -1.1730
  167SAPE  H13Y18901   4.326   7.430   8.033 -0.7014  0.7613  0.9171
  167SAPE  C31418902   4.127   7.417   8.115  0.7470  0.8309  0.3235
  167SAPE  H14X18903   4.108   7.307   8.119 -1.9963  1.2661  1.9410
  167SAPE  H14Y18904   4.030   7.462   8.085  1.1511  0.8045 -1.0829
  167SAPE  C31518905   4.146   7.461   8.260  0.0541 -0.1029  0.7830
  167SAPE  H15X18906   4.051   7.434   8.310 -0.6993  1.0300  0.0097
  167SAPE  H15Y18907   4.138   7.571   8.271  0.7958  0.2846 -1.8429
  167SAPE  C31618908   4.271   7.396   8.320 -0.4472  0.3545  0.3216
  167SAPE  H16X18909   4.362   7.432   8.268 -0.9901  0.4537 -0.5928
  167SAPE  H16Y18910   4.252   7.287   8.305 -1.0532  0.7529 -2.5210
  167SAPE  C31718911   4.287   7.432   8.467 -0.1837  0.6290 -0.9078
  167SAPE  H17X18912   4.204   7.391   8.529  1.6339 -1.5120  0.2677
  167SAPE  H17Y18913   4.285   7.543   8.476  2.5643  0.8185 -1.6955
  167SAPE  C31818914   4.407   7.363   8.533 -0.9888 -0.7157 -0.3594
  167SAPE  H18X18915   4.396   7.252   8.536  0.7598 -0.9390 -0.8292
  167SAPE  H18Y18916   4.409   7.397   8.638  1.2138  0.3730 -0.6931
  167SAPE  H18Z18917   4.496   7.400   8.477 -1.7307  1.9803  0.1152
  168SAPE     N18918   5.211   2.146   6.183  0.5289 -0.0393  0.4731
  168SAPE   HN118919   5.127   2.153   6.243  0.2035  1.7866 -0.1531
  168SAPE   HN218920   5.223   2.240   6.141 -0.4762  0.0680  0.4253
  168SAPE   HN318921   5.202   2.080   6.103  0.5930 -0.3812  0.7445
  168SAPE   C1218922   5.328   2.108   6.265  0.2781 -0.5439  0.2956
  168SAPE  H12A18923   5.353   2.175   6.350  0.7144 -1.4684  0.9117
  168SAPE  H12B18924   5.413   2.112   6.193 -1.3499 -1.1888 -1.7821
  168SAPE   C1118925   5.327   1.959   6.308  0.4079 -0.2015 -0.0736
  168SAPE  H11A18926   5.235   1.934   6.366 -0.1371  1.9061  0.0542
  168SAPE  H11B18927   5.417   1.938   6.370  0.9469 -2.7598 -1.5760
  168SAPE     P18928   5.343   1.719   6.215 -0.4063  0.2008  0.2204
  168SAPE   O1318929   5.210   1.654   6.201 -0.0276 -0.2552  0.0690
  168SAPE   O1418930   5.461   1.661   6.144  0.1669 -0.1482  0.6819
  168SAPE   O1218931   5.341   1.872   6.195 -0.5459  0.1805  0.0096
  168SAPE   O1118932   5.372   1.707   6.376  0.1978  0.6863  0.6831
  168SAPE    C118933   5.303   1.606   6.449  0.3435 -0.2193 -0.0459
  168SAPE    HA18934   5.194   1.621   6.438  0.2005 -0.5105  0.9200
  168SAPE    HB18935   5.338   1.510   6.406  2.2224  1.1350 -1.7618
  168SAPE    C218936   5.335   1.624   6.602  0.1046 -0.0202 -0.0971
  168SAPE    HS18937   5.444   1.602   6.614  0.8951  2.8960 -1.1405
  168SAPE   O2118938   5.261   1.538   6.687 -0.4038  0.4180 -0.6883
  168SAPE   C2118939   5.273   1.405   6.670  0.0037 -0.4707  1.0473
  168SAPE   O2218940   5.358   1.356   6.597 -0.2553 -0.3951  0.4344
  168SAPE   C2218941   5.160   1.330   6.738  1.0746 -0.6509  0.0865
  168SAPE   H2R18942   5.061   1.368   6.706  1.1657 -1.1481 -0.8188
  168SAPE   H2S18943   5.174   1.228   6.696 -1.9183  0.5190 -4.4121
  168SAPE    C318944   5.314   1.771   6.650 -0.6731 -0.6543 -1.0044
  168SAPE    HX18945   5.211   1.797   6.617 -1.3207 -3.0891 -1.1280
  168SAPE    HY18946   5.382   1.839   6.596 -0.2749  0.0534  0.3475
  168SAPE   O3118947   5.332   1.791   6.797  0.4584 -0.1255  0.3347
  168SAPE   C3118948   5.224   1.823   6.868  0.1196  0.3138 -1.2873
  168SAPE   O3218949   5.112   1.833   6.823 -0.1290 -0.0232  0.5060
  168SAPE   C3218950   5.261   1.842   7.015  0.5225 -0.2130 -0.7157
  168SAPE   H2X18951   5.330   1.928   7.031 -0.2601  0.0735  1.5553
  168SAPE   H2Y18952   5.324   1.754   7.037  2.0213  0.7119 -1.1558
  168SAPE   C2318953   5.164   1.319   6.892 -0.0918 -0.0156 -0.2928
  168SAPE   H3R18954   5.253   1.276   6.942  0.0414  0.2141 -0.3301
  168SAPE   H3S18955   5.081   1.247   6.912 -0.0483 -0.4981 -1.6882
  168SAPE   C2418956   5.156   1.458   6.954 -0.0773  0.2151 -0.0641
  168SAPE   H4R18957   5.222   1.527   6.898  0.2170 -1.2626 -1.6138
  168SAPE   H4S18958   5.190   1.452   7.060 -1.3376 -1.8647  0.3045
  168SAPE   C2518959   5.018   1.514   6.944 -0.4029 -0.6418 -0.9654
  168SAPE   H5R18960   4.980   1.540   6.844 -0.6959 -2.1209 -1.2728
  168SAPE   C2618961   4.930   1.527   7.052  0.3927  0.2446  0.7007
  168SAPE   H6R18962   4.824   1.548   7.035  0.0480 -2.0675 -0.4946
  168SAPE   C2718963   4.974   1.482   7.190 -0.1155 -0.7075 -0.5386
  168SAPE   H7R18964   5.082   1.502   7.208 -0.6055  0.4318  1.5020
  168SAPE   H7S18965   4.951   1.375   7.205 -0.6265 -0.4410  0.6952
  168SAPE   C2818966   4.905   1.566   7.303 -0.5224  0.4766  0.0828
  168SAPE   H8R18967   4.860   1.662   7.272 -2.6171 -0.7461 -0.9048
  168SAPE   C2918968   4.873   1.528   7.429 -0.2052 -0.2369 -0.2112
  168SAPE   H9R18969   4.845   1.604   7.504 -0.4930 -0.8790  0.3450
  168SAPE  C21018970   4.904   1.395   7.495  0.5615  0.2678 -0.3267
  168SAPE  H10R18971   4.970   1.407   7.583  0.0597  1.5503 -0.0917
  168SAPE  H10S18972   4.963   1.335   7.423 -2.1049 -0.9265 -1.6290
  168SAPE  C21118973   4.780   1.324   7.539  0.3023  0.0595  0.0439
  168SAPE  H11R18974   4.725   1.278   7.455 -0.0272  1.3858 -0.4950
  168SAPE  C21218975   4.723   1.318   7.662  0.0248 -0.0740 -0.0986
  168SAPE  H12R18976   4.633   1.257   7.682  0.4120 -0.3012  1.0431
  168SAPE  C21318977   4.772   1.385   7.789 -0.0148  0.1130 -0.2291
  168SAPE  H13R18978   4.704   1.467   7.821  1.8887  1.5372  0.3982
  168SAPE  H13S18979   4.873   1.432   7.779  0.5100 -0.5943  1.4277
  168SAPE  C21418980   4.800   1.281   7.892  0.8114  1.0884  0.5437
  168SAPE  H14R18981   4.837   1.186   7.851 -1.4001  0.5201 -0.2458
  168SAPE  C21518982   4.781   1.297   8.026  0.9504  0.2293 -0.2001
  168SAPE  H15R18983   4.809   1.216   8.095  0.4878  0.8099  0.6907
  168SAPE  C21618984   4.729   1.421   8.097 -0.8038  0.4331  0.6148
  168SAPE  H16R18985   4.753   1.515   8.041  0.0916 -0.1367  0.0167
  168SAPE  H16S18986   4.785   1.427   8.193 -0.0877 -0.1713  0.2458
  168SAPE  C21718987   4.576   1.399   8.127  0.1382 -0.3724  0.0395
  168SAPE  H17R18988   4.537   1.298   8.154 -2.9008  0.5196 -0.5541
  168SAPE  H17S18989   4.524   1.411   8.030 -1.9209 -1.3982  0.9377
  168SAPE  C21818990   4.523   1.487   8.237 -0.0951  0.4569  0.0920
  168SAPE  H18R18991   4.513   1.593   8.205 -1.5218  0.3731  0.1665
  168SAPE  H18S18992   4.600   1.494   8.317  0.5930 -1.1601 -0.4115
  168SAPE  C21918993   4.394   1.443   8.306  0.3278  0.5488 -0.2834
  168SAPE  H19R18994   4.403   1.332   8.307  1.2820  0.6093  1.0160
  168SAPE  H19S18995   4.318   1.461   8.228  0.3166 -0.7206 -0.5862
  168SAPE  C22018996   4.360   1.520   8.429 -0.1209  0.0659 -0.2891
  168SAPE  H20R18997   4.455   1.527   8.486 -0.5533  0.2354  0.4297
  168SAPE  H20S18998   4.269   1.480   8.479 -0.1946  0.3103 -0.2252
  168SAPE  H20T18999   4.350   1.628   8.405  1.6412  0.8727  2.1976
  168SAPE   C3319000   5.142   1.846   7.117 -0.2179  0.3036  0.1902
  168SAPE   H3X19001   5.080   1.754   7.120 -0.7968  0.7033  1.7663
  168SAPE   H3Y19002   5.068   1.925   7.089 -0.3246 -0.1199 -0.7395
  168SAPE   C3419003   5.188   1.875   7.257 -0.1673 -0.1412 -0.1752
  168SAPE   H4X19004   5.265   1.955   7.264  2.1534 -2.1661 -1.2539
  168SAPE   H4Y19005   5.233   1.783   7.300  1.2619  1.0034  0.8945
  168SAPE   C3519006   5.079   1.919   7.354 -0.0660 -0.3593  0.4196
  168SAPE   H5X19007   5.012   1.832   7.375  1.4205 -1.2292  1.7957
  168SAPE   H5Y19008   5.020   2.002   7.309  1.6686  0.1165 -1.0759
  168SAPE   C3619009   5.129   1.974   7.489 -0.6290 -0.7157 -0.6948
  168SAPE   H6X19010   5.177   2.074   7.480  1.0750 -1.1606  2.3628
  168SAPE   H6Y19011   5.207   1.906   7.529  0.7119  0.7353 -0.7674
  168SAPE   C3719012   5.016   1.976   7.590  0.0752 -0.4544 -0.4669
  168SAPE   H7X19013   4.984   1.875   7.622  1.2395 -0.0307  2.3338
  168SAPE   H7Y19014   4.929   2.040   7.562 -0.0430 -1.0823 -1.5932
  168SAPE   C3819015   5.070   2.038   7.724 -0.4209 -0.4570 -0.5260
  168SAPE   H8X19016   5.153   1.970   7.753 -0.9688 -1.2761 -0.8462
  168SAPE   H8Y19017   4.986   2.034   7.796 -2.3828 -0.0369 -2.6517
  168SAPE   C3919018   5.113   2.186   7.717 -0.2166  0.0943 -0.7239
  168SAPE   H9X19019   5.188   2.196   7.636  0.1692  0.5935 -0.3054
  168SAPE   H9Y19020   5.145   2.201   7.822  0.6118 -0.5706 -0.8747
  168SAPE  C31019021   4.991   2.280   7.688  0.0256  0.0864 -0.1598
  168SAPE  H10X19022   4.912   2.255   7.762  1.2502  0.3643  1.2749
  168SAPE  H10Y19023   4.956   2.245   7.588  1.2289  0.1043 -0.6012
  168SAPE  C31119024   5.026   2.430   7.700  0.5506 -0.3308  0.2425
  168SAPE  H11X19025   5.106   2.448   7.625  0.9641  0.1496  0.7938
  168SAPE  H11Y19026   5.070   2.444   7.800 -0.7528  1.1588  0.6458
  168SAPE  C31219027   4.903   2.520   7.680  0.6153 -0.2016 -0.0896
  168SAPE  H12X19028   4.941   2.624   7.678 -1.0044  0.4630  1.4134
  168SAPE  H12Y19029   4.823   2.490   7.751  0.8802 -0.2054  0.2126
  168SAPE  C31319030   4.832   2.498   7.545 -0.1064 -0.6776 -0.3742
  168SAPE  H13X19031   4.743   2.563   7.534 -0.1494 -0.7199 -0.2802
  168SAPE  H13Y19032   4.790   2.396   7.541  0.7634 -1.1052  0.6557
  168SAPE  C31419033   4.924   2.512   7.425 -0.2447 -0.5016  0.1060
  168SAPE  H14X19034   4.999   2.431   7.425  3.0196  2.2802  1.8272
  168SAPE  H14Y19035   4.983   2.606   7.425  0.1205 -0.7297  0.3253
  168SAPE  C31519036   4.856   2.522   7.284  0.4434 -0.2797  0.6533
  168SAPE  H15X19037   4.807   2.621   7.283  1.7674  0.3980  0.9283
  168SAPE  H15Y19038   4.766   2.456   7.281 -0.5709  1.0934 -1.7894
  168SAPE  C31619039   4.964   2.498   7.177 -0.3776 -0.6773  0.7033
  168SAPE  H16X19040   5.016   2.402   7.200  2.0082  0.7202  1.4522
  168SAPE  H16Y19041   5.039   2.579   7.176 -2.2208  1.1130  1.1229
  168SAPE  C31719042   4.903   2.481   7.042  0.3397  0.4247  0.1018
  168SAPE  H17X19043   4.818   2.551   7.043  0.3558  0.4927  2.7634
  168SAPE  H17Y19044   4.851   2.385   7.019  0.5606  0.5414 -0.9379
  168SAPE  C31819045   4.991   2.521   6.925 -0.1484  0.2671 -0.1380
  168SAPE  H18X19046   4.972   2.455   6.837  0.4680 -0.3889  0.2114
  168SAPE  H18Y19047   5.098   2.504   6.948  0.0881  2.9684  1.1200
  168SAPE  H18Z19048   4.984   2.628   6.894 -0.8491  0.2687  0.0212
  169SAPE     N19049   4.058   5.012   6.344  0.6406  0.2238  0.0430
  169SAPE   HN119050   4.099   5.078   6.275  1.5364 -0.7899 -0.4254
  169SAPE   HN219051   3.967   5.053   6.373  0.8151  0.9525 -0.4277
  169SAPE   HN319052   4.118   4.993   6.427  0.6807 -1.1596 -0.2718
  169SAPE   C1219053   4.042   4.884   6.266 -0.5355 -0.1540  0.3141
  169SAPE  H12A19054   4.102   4.900   6.174  2.4988 -0.4622  2.1135
  169SAPE  H12B19055   3.935   4.866   6.242 -0.0076 -0.6234 -1.8224
  169SAPE   C1119056   4.114   4.774   6.349 -0.2952  0.0313 -0.2876
  169SAPE  H11A19057   4.117   4.686   6.281  0.3734 -0.5380  0.4729
  169SAPE  H11B19058   4.052   4.748   6.438  1.2720  0.6880  1.0284
  169SAPE     P19059   4.368   4.773   6.331 -0.0509  0.1735 -0.2368
  169SAPE   O1319060   4.354   4.798   6.187  0.0654  0.1545  0.6045
  169SAPE   O1419061   4.478   4.845   6.399 -0.5242  0.0313 -0.8402
  169SAPE   O1219062   4.235   4.815   6.402 -0.7213 -0.2570  0.0784
  169SAPE   O1119063   4.378   4.620   6.364 -0.2528 -0.4473  0.1316
  169SAPE    C119064   4.315   4.573   6.488  0.3067  0.3567  0.5586
  169SAPE    HA19065   4.323   4.651   6.567  0.0861  1.2543 -0.2933
  169SAPE    HB19066   4.210   4.539   6.474  0.7888 -0.7881 -0.4604
  169SAPE    C219067   4.393   4.449   6.544  0.7992  0.1686  0.0244
  169SAPE    HS19068   4.371   4.362   6.478  3.0700  1.4129 -2.5886
  169SAPE   O2119069   4.363   4.427   6.681  0.3648  0.3767 -0.5121
  169SAPE   C2119070   4.253   4.358   6.709 -0.1983 -0.2085  0.0705
  169SAPE   O2219071   4.172   4.318   6.627 -0.1199  0.9757  0.5963
  169SAPE   C2219072   4.252   4.322   6.852 -0.2320  0.1448 -0.3213
  169SAPE   H2R19073   4.157   4.363   6.893  0.2937  3.4662 -2.0284
  169SAPE   H2S19074   4.254   4.213   6.869  1.2683  0.3241  0.9229
  169SAPE    C319075   4.541   4.476   6.530 -0.3111  0.1906 -0.3779
  169SAPE    HX19076   4.561   4.556   6.605  0.3527 -2.0234  1.9638
  169SAPE    HY19077   4.550   4.509   6.425  1.6952  0.5958 -0.1194
  169SAPE   O3119078   4.626   4.368   6.574 -0.1744 -0.2817  0.2742
  169SAPE   C3119079   4.661   4.279   6.489 -0.1706  0.3495  0.0655
  169SAPE   O3219080   4.664   4.288   6.368 -0.3955  0.6191  0.1369
  169SAPE   C3219081   4.725   4.169   6.579 -0.1408  0.1711 -0.6268
  169SAPE   H2X19082   4.766   4.234   6.660 -1.3279  0.7758 -0.4893
  169SAPE   H2Y19083   4.810   4.122   6.525  1.9713 -0.7829  3.1412
  169SAPE   C2319084   4.369   4.378   6.938  0.2531  0.1352 -0.0051
  169SAPE   H3R19085   4.367   4.489   6.933  1.2784  0.1748  0.2419
  169SAPE   H3S19086   4.470   4.335   6.921  0.4457  0.4813  0.2464
  169SAPE   C2419087   4.321   4.364   7.085 -0.6979  0.2069  0.2945
  169SAPE   H4R19088   4.218   4.397   7.111 -1.0436 -2.3481  2.7065
  169SAPE   H4S19089   4.390   4.433   7.138  0.1249 -0.3543 -0.0275
  169SAPE   C2519090   4.333   4.230   7.144 -1.2138  0.8527  0.0592
  169SAPE   H5R19091   4.331   4.140   7.080  1.3366  1.0347 -0.3658
  169SAPE   C2619092   4.372   4.194   7.271 -0.0485  0.1437  0.5385
  169SAPE   H6R19093   4.361   4.090   7.305 -0.0140  0.7274  2.4888
  169SAPE   C2719094   4.403   4.293   7.385  0.0367  0.4637 -0.1033
  169SAPE   H7R19095   4.322   4.297   7.461  0.9266 -0.3100  0.9330
  169SAPE   H7S19096   4.413   4.399   7.355  3.0888  0.0349 -0.9874
  169SAPE   C2819097   4.540   4.269   7.448 -0.1396  0.0299  0.4248
  169SAPE   H8R19098   4.625   4.302   7.387  0.8089 -2.1660  0.4863
  169SAPE   C2919099   4.566   4.238   7.577  0.1158  0.3330  0.9667
  169SAPE   H9R19100   4.668   4.226   7.618 -0.1110 -1.8880  0.9696
  169SAPE  C21019101   4.464   4.217   7.685  0.4125  0.4467  0.0876
  169SAPE  H10R19102   4.414   4.122   7.659 -0.1517  0.6391  0.4377
  169SAPE  H10S19103   4.384   4.294   7.683 -0.1505 -0.1141  0.5297
  169SAPE  C21119104   4.511   4.215   7.830 -0.1691 -0.2253  0.0174
  169SAPE  H11R19105   4.519   4.113   7.872 -3.0946 -0.1231  1.0974
  169SAPE  C21219106   4.511   4.322   7.908 -0.5660  0.3488  0.9910
  169SAPE  H12R19107   4.551   4.310   8.009 -0.0754  0.8033  0.8549
  169SAPE  C21319108   4.474   4.469   7.877  0.0281 -0.6732 -0.2672
  169SAPE  H13R19109   4.456   4.474   7.767  1.7034  1.2528 -0.5070
  169SAPE  H13S19110   4.569   4.523   7.893  0.5218 -1.6109  0.0622
  169SAPE  C21419111   4.355   4.524   7.959 -0.0343 -0.0374  0.3944
  169SAPE  H14R19112   4.261   4.480   7.923 -0.1197  0.6199 -0.2190
  169SAPE  C21519113   4.349   4.618   8.059  0.2748  0.5514  0.1154
  169SAPE  H15R19114   4.250   4.644   8.099 -0.2917 -0.5023 -0.5475
  169SAPE  C21619115   4.472   4.692   8.120  0.2243  0.2165  0.4194
  169SAPE  H16R19116   4.435   4.796   8.127 -1.9536 -0.3872 -1.0406
  169SAPE  H16S19117   4.557   4.704   8.049  0.3346 -0.9541  0.3336
  169SAPE  C21719118   4.524   4.641   8.252  0.1913 -0.2592  0.0336
  169SAPE  H17R19119   4.630   4.665   8.275 -0.4199  1.7675  1.0408
  169SAPE  H17S19120   4.508   4.532   8.260 -2.8266  0.1045  0.0092
  169SAPE  C21819121   4.434   4.685   8.369 -0.1024 -0.1632 -0.0881
  169SAPE  H18R19122   4.329   4.651   8.375 -0.7854  1.9642  0.8953
  169SAPE  H18S19123   4.422   4.796   8.362 -2.4931 -0.2860  1.0802
  169SAPE  C21919124   4.508   4.659   8.497 -0.4191  0.4771 -0.3133
  169SAPE  H19R19125   4.609   4.706   8.495  0.1928 -0.7624 -2.9128
  169SAPE  H19S19126   4.525   4.549   8.499  1.0867  0.6370 -1.6676
  169SAPE  C22019127   4.449   4.703   8.629 -0.2542  0.4956  0.0247
  169SAPE  H20R19128   4.347   4.663   8.645 -0.4205  0.7830 -0.3241
  169SAPE  H20S19129   4.428   4.812   8.631  1.5815  0.8957  2.5606
  169SAPE  H20T19130   4.525   4.688   8.709  1.6042  1.9958 -1.3698
  169SAPE   C3319131   4.630   4.057   6.627  0.4515 -0.3505  0.1195
  169SAPE   H3X19132   4.587   3.998   6.543 -0.0590 -0.1141  0.2130
  169SAPE   H3Y19133   4.537   4.095   6.674  0.0618 -0.1348 -0.8045
  169SAPE   C3419134   4.688   3.967   6.738  0.0744  0.1853  0.6299
  169SAPE   H4X19135   4.796   3.952   6.719 -0.4946 -0.5168 -2.6650
  169SAPE   H4Y19136   4.649   3.863   6.739  1.6770 -0.4393  0.1803
  169SAPE   C3519137   4.658   4.026   6.876  1.0209 -0.5001  0.3973
  169SAPE   H5X19138   4.549   4.010   6.891  0.5955  2.3396  0.9308
  169SAPE   H5Y19139   4.681   4.135   6.874  1.1642 -0.5348  0.0760
  169SAPE   C3619140   4.741   3.957   6.984 -0.1867  0.0623  0.1613
  169SAPE   H6X19141   4.849   3.955   6.959 -0.5433 -0.3587 -1.4596
  169SAPE   H6Y19142   4.708   3.852   6.996  0.5509 -0.1520  0.3776
  169SAPE   C3719143   4.729   4.030   7.121  0.0720  0.6121 -0.1911
  169SAPE   H7X19144   4.621   4.048   7.141 -0.2290 -0.5818 -0.6549
  169SAPE   H7Y19145   4.780   4.129   7.122  0.8660  0.2186 -0.6668
  169SAPE   C3819146   4.782   3.941   7.240  0.2168 -0.4790  0.5057
  169SAPE   H8X19147   4.891   3.925   7.221  0.2517  0.7757 -0.4937
  169SAPE   H8Y19148   4.732   3.842   7.241  1.4862 -1.1395  1.1346
  169SAPE   C3919149   4.771   4.005   7.377  0.4332 -0.0105 -0.3529
  169SAPE   H9X19150   4.667   4.031   7.404  0.0870 -2.8488  1.4719
  169SAPE   H9Y19151   4.829   4.099   7.386  2.9603 -1.6695  2.9898
  169SAPE  C31019152   4.838   3.918   7.487 -0.1190 -0.2818  0.5967
  169SAPE  H10X19153   4.949   3.915   7.477 -0.0420  1.5541  0.4552
  169SAPE  H10Y19154   4.798   3.815   7.488  0.0613 -0.3957 -1.1012
  169SAPE  C31119155   4.804   3.973   7.625 -0.7461 -0.3734  0.4956
  169SAPE  H11X19156   4.694   3.985   7.638 -0.8041 -1.3944  1.0522
  169SAPE  H11Y19157   4.851   4.073   7.641  1.7790 -0.8914 -2.7281
  169SAPE  C31219158   4.857   3.881   7.730  0.0560 -0.0639  0.6629
  169SAPE  H12X19159   4.967   3.888   7.721 -0.2068  3.3144 -2.7239
  169SAPE  H12Y19160   4.823   3.777   7.711  0.8211 -0.1459 -0.3069
  169SAPE  C31319161   4.820   3.921   7.876  0.0765  0.5549  0.3462
  169SAPE  H13X19162   4.878   3.853   7.943 -0.1674 -1.1252 -1.0738
  169SAPE  H13Y19163   4.715   3.889   7.885  0.7644 -2.3628 -0.8223
  169SAPE  C31419164   4.830   4.074   7.908 -0.0639  0.6216 -0.4169
  169SAPE  H14X19165   4.771   4.134   7.835  0.5317  1.1611 -0.4692
  169SAPE  H14Y19166   4.939   4.096   7.899 -0.1891  1.0605 -0.9634
  169SAPE  C31519167   4.797   4.117   8.054  0.1555 -0.0971 -0.0169
  169SAPE  H15X19168   4.840   4.048   8.129  0.5546  1.1260  0.9151
  169SAPE  H15Y19169   4.687   4.106   8.061  0.3848 -2.2580  0.8687
  169SAPE  C31619170   4.829   4.263   8.098  0.6659  1.0481  0.2313
  169SAPE  H16X19171   4.771   4.332   8.033 -0.4757 -0.0693  0.0387
  169SAPE  H16Y19172   4.939   4.269   8.082  1.2817  0.7225  3.6403
  169SAPE  C31719173   4.786   4.281   8.243  0.3495  0.3852 -0.6501
  169SAPE  H17X19174   4.828   4.209   8.317  1.3405  1.3676 -0.2149
  169SAPE  H17Y19175   4.677   4.263   8.242  0.4976 -0.5481 -1.3428
  169SAPE  C31819176   4.816   4.420   8.296 -0.0519  0.2848  0.6667
  169SAPE  H18X19177   4.787   4.441   8.401 -1.4173  1.9500 -0.0063
  169SAPE  H18Y19178   4.767   4.501   8.238  0.9335  1.0038  0.7878
  169SAPE  H18Z19179   4.923   4.439   8.272 -0.9958  1.5007 -3.5130
  170SAPE     N19180   6.061   0.933   6.189  0.0701 -0.3466  0.3173
  170SAPE   HN119181   6.161   0.961   6.193  0.4094 -1.4964  0.2313
  170SAPE   HN219182   6.017   0.997   6.258  3.3231  1.7986  0.6141
  170SAPE   HN319183   6.066   0.839   6.234  0.6729 -0.0721  0.8272
  170SAPE   C1219184   6.001   0.937   6.052  0.1113 -0.6158 -0.2109
  170SAPE  H12A19185   6.060   0.861   5.998  0.3269 -0.5510 -0.0667
  170SAPE  H12B19186   6.024   1.039   6.013 -1.0180 -0.1219  0.3527
  170SAPE   C1119187   5.848   0.910   6.043  0.0606  0.2899  0.3930
  170SAPE  H11A19188   5.824   0.909   5.934  0.1383  0.7893  0.3677
  170SAPE  H11B19189   5.793   0.988   6.099  1.2758  0.8349  0.8674
  170SAPE     P19190   5.680   0.726   6.100 -0.4324  0.2809  0.0771
  170SAPE   O1319191   5.611   0.805   5.991 -0.1345  0.1896  0.2624
  170SAPE   O1419192   5.680   0.577   6.098  0.2025  0.3121 -0.3726
  170SAPE   O1219193   5.820   0.788   6.106 -0.4343 -0.2214 -0.1507
  170SAPE   O1119194   5.616   0.766   6.238  0.2165  0.5302 -0.2630
  170SAPE    C119195   5.701   0.755   6.354  0.3018 -0.3619  0.4859
  170SAPE    HA19196   5.728   0.648   6.372 -2.7630 -1.6516 -1.6582
  170SAPE    HB19197   5.796   0.813   6.348 -0.6287  1.0603 -0.9876
  170SAPE    C219198   5.642   0.804   6.487  0.0088  0.1927  0.0636
  170SAPE    HS19199   5.719   0.825   6.564 -0.5076 -0.1787  0.6996
  170SAPE   O2119200   5.544   0.708   6.529  0.1354 -0.4787 -0.2409
  170SAPE   C2119201   5.591   0.602   6.590 -0.0187  0.0075 -0.1049
  170SAPE   O2219202   5.710   0.584   6.609 -0.3022  0.3568  0.4939
  170SAPE   C2219203   5.476   0.508   6.644 -0.2333  0.2568  0.2148
  170SAPE   H2R19204   5.402   0.579   6.687  0.2771  0.5859  0.5679
  170SAPE   H2S19205   5.422   0.463   6.558  0.6817  0.6525 -0.5945
  170SAPE    C319206   5.568   0.938   6.467 -0.4029  0.4273 -0.7278
  170SAPE    HX19207   5.493   0.935   6.385  0.0942  0.1072 -1.1803
  170SAPE    HY19208   5.645   1.009   6.431 -0.3985  0.4829 -0.6083
  170SAPE   O3119209   5.497   0.987   6.581 -0.7542 -0.3376 -0.6437
  170SAPE   C3119210   5.572   1.050   6.673  0.0957  0.1054  0.1937
  170SAPE   O3219211   5.694   1.062   6.667 -0.1568 -0.1295  0.6549
  170SAPE   C3219212   5.485   1.080   6.788 -0.2795  0.0662 -0.3009
  170SAPE   H2X19213   5.391   1.125   6.748 -0.5170  0.2453  0.4410
  170SAPE   H2Y19214   5.542   1.151   6.852 -1.2389  0.3210  0.2983
  170SAPE   C2319215   5.527   0.413   6.747 -0.0901  1.1304  0.2275
  170SAPE   H3R19216   5.625   0.368   6.718 -0.2977  0.7288  0.1354
  170SAPE   H3S19217   5.452   0.331   6.753  0.5050  0.5163 -0.5179
  170SAPE   C2419218   5.525   0.469   6.894  0.8905 -0.9936 -0.2069
  170SAPE   H4R19219   5.426   0.469   6.945  1.1838 -1.6207  0.3863
  170SAPE   H4S19220   5.561   0.574   6.894 -0.1639 -0.6205 -0.1635
  170SAPE   C2519221   5.622   0.377   6.964  0.5734 -0.8501 -0.0556
  170SAPE   H5R19222   5.708   0.337   6.909 -0.3573 -2.6194 -0.2802
  170SAPE   C2619223   5.617   0.345   7.098 -0.1142  0.7008 -0.0803
  170SAPE   H6R19224   5.696   0.278   7.134 -1.8851 -0.7961  1.2179
  170SAPE   C2719225   5.511   0.371   7.198  0.1971 -0.2474 -0.5112
  170SAPE   H7R19226   5.516   0.290   7.274  1.6595  0.9744  0.7858
  170SAPE   H7S19227   5.409   0.365   7.154 -1.0568  0.2699  2.0751
  170SAPE   C2819228   5.531   0.509   7.265  0.2853 -0.0357 -0.2588
  170SAPE   H8R19229   5.466   0.582   7.214 -1.6054 -2.6822 -1.9142
  170SAPE   C2919230   5.614   0.540   7.370 -0.0476  0.4256  0.0858
  170SAPE   H9R19231   5.616   0.646   7.400  0.2015  0.8943 -1.5074
  170SAPE  C21019232   5.698   0.430   7.436  0.0546 -0.2671  0.1869
  170SAPE  H10R19233   5.707   0.342   7.368 -1.2757  0.8007 -1.4494
  170SAPE  H10S19234   5.641   0.402   7.527  0.7621 -0.1352  0.6814
  170SAPE  C21119235   5.837   0.482   7.472  0.4749  0.0795 -0.0868
  170SAPE  H11R19236   5.893   0.508   7.381 -2.1466  1.0106 -1.5652
  170SAPE  C21219237   5.883   0.513   7.597 -0.1517  0.1131 -0.4161
  170SAPE  H12R19238   5.986   0.552   7.603 -0.0474 -0.2290  0.0919
  170SAPE  C21319239   5.805   0.500   7.731  0.0382 -0.0310  0.3391
  170SAPE  H13R19240   5.795   0.395   7.765 -0.5145  0.1666  0.8029
  170SAPE  H13S19241   5.702   0.534   7.707 -0.1910 -0.6229  0.4724
  170SAPE  C21419242   5.865   0.592   7.833  0.0816 -0.5319 -0.5040
  170SAPE  H14R19243   5.937   0.668   7.800  0.7267 -0.1822  1.5820
  170SAPE  C21519244   5.832   0.593   7.964 -0.6741  0.0243 -0.1660
  170SAPE  H15R19245   5.879   0.661   8.037 -4.6642  1.2688  1.4629
  170SAPE  C21619246   5.717   0.520   8.024  0.3559  0.0998  1.0144
  170SAPE  H16R19247   5.739   0.412   8.034  0.4819  0.1485  1.2665
  170SAPE  H16S19248   5.630   0.531   7.954 -0.5798  0.7898  2.2360
  170SAPE  C21719249   5.673   0.558   8.166  0.3175 -0.5081  0.5058
  170SAPE  H17R19250   5.754   0.540   8.239 -0.0751  0.9052  1.3229
  170SAPE  H17S19251   5.593   0.484   8.187  0.4538 -0.4436  1.2744
  170SAPE  C21819252   5.610   0.697   8.183  0.3971  0.2933  0.0486
  170SAPE  H18R19253   5.526   0.714   8.112  1.2710  2.8311 -0.4797
  170SAPE  H18S19254   5.687   0.771   8.152 -0.5953  0.6496 -1.7232
  170SAPE  C21919255   5.569   0.712   8.330 -0.0821  0.4235 -0.2412
  170SAPE  H19R19256   5.663   0.725   8.387 -1.0214 -0.3724  1.5779
  170SAPE  H19S19257   5.523   0.614   8.355  0.0933  0.3855 -0.0670
  170SAPE  C22019258   5.483   0.827   8.369 -0.2865  0.6201 -0.8144
  170SAPE  H20R19259   5.461   0.834   8.477 -0.1447  1.4567 -0.8334
  170SAPE  H20S19260   5.390   0.844   8.311  0.1161 -1.8977 -2.3613
  170SAPE  H20T19261   5.544   0.913   8.334  1.6327  0.1449  1.1381
  170SAPE   C3319262   5.462   0.953   6.862 -0.2908  0.3247 -0.2377
  170SAPE   H3X19263   5.553   0.905   6.905  1.3927  1.6164 -2.1770
  170SAPE   H3Y19264   5.420   0.873   6.797 -1.0933  2.0341 -1.8975
  170SAPE   C3419265   5.360   0.968   6.978 -0.5607 -0.3421 -0.5153
  170SAPE   H4X19266   5.331   0.862   6.997 -0.5533 -0.2444  0.0437
  170SAPE   H4Y19267   5.263   1.015   6.950 -1.5727 -0.6117  2.2581
  170SAPE   C3519268   5.414   1.035   7.110 -0.3318 -0.4023 -0.6576
  170SAPE   H5X19269   5.441   1.137   7.074 -1.1663  0.2042  0.4077
  170SAPE   H5Y19270   5.505   0.987   7.152 -0.1094  1.4524  1.1786
  170SAPE   C3619271   5.313   1.030   7.221  0.3289  0.7768  0.3035
  170SAPE   H6X19272   5.275   0.926   7.208  0.7208  0.9929 -4.6168
  170SAPE   H6Y19273   5.232   1.101   7.197 -0.8957  0.1133  2.2380
  170SAPE   C3719274   5.359   1.073   7.357 -0.3401 -0.1648  0.1432
  170SAPE   H7X19275   5.402   1.174   7.339  0.9979 -0.5763  0.9249
  170SAPE   H7Y19276   5.438   1.002   7.388  0.1293  0.2943  0.0079
  170SAPE   C3819277   5.239   1.091   7.449 -0.0268 -0.6860  0.1062
  170SAPE   H8X19278   5.168   1.007   7.434 -1.1480  0.5116 -1.8263
  170SAPE   H8Y19279   5.181   1.178   7.411 -2.3731 -2.0325  0.3907
  170SAPE   C3919280   5.274   1.106   7.602 -0.3323 -0.1098 -0.3333
  170SAPE   H9X19281   5.361   1.172   7.623  0.2948 -1.0709  0.1585
  170SAPE   H9Y19282   5.302   1.002   7.632 -0.9866  0.3415  2.0729
  170SAPE  C31019283   5.162   1.157   7.691  0.4480 -0.6431  0.3295
  170SAPE  H10X19284   5.075   1.097   7.655  0.3959 -0.9082  0.8873
  170SAPE  H10Y19285   5.132   1.263   7.676  0.2005  0.0469  4.4611
  170SAPE  C31119286   5.186   1.118   7.840  0.3523  0.7603  1.2648
  170SAPE  H11X19287   5.231   1.016   7.840 -0.1477  0.5298  0.3887
  170SAPE  H11Y19288   5.085   1.108   7.886  0.6273  3.9484  2.8064
  170SAPE  C31219289   5.273   1.211   7.906  0.0391 -0.0866 -0.4823
  170SAPE  H12X19290   5.244   1.314   7.874  0.8103  0.5428  0.7381
  170SAPE  H12Y19291   5.375   1.190   7.868 -0.4194  0.3091 -2.0141
  170SAPE  C31319292   5.270   1.186   8.056  0.2943 -0.3344  0.1513
  170SAPE  H13X19293   5.351   1.250   8.097 -0.4170  1.7970 -1.6199
  170SAPE  H13Y19294   5.291   1.084   8.095  0.3240  1.0699  4.4218
  170SAPE  C31419295   5.146   1.242   8.123 -0.3130 -0.2044 -0.6415
  170SAPE  H14X19296   5.051   1.192   8.094 -0.8480 -0.1311  0.8881
  170SAPE  H14Y19297   5.133   1.349   8.099 -0.3283 -0.2095 -0.6561
  170SAPE  C31519298   5.144   1.208   8.271 -0.0370 -0.3175 -0.3114
  170SAPE  H15X19299   5.215   1.277   8.321 -0.0159 -0.1524 -0.5635
  170SAPE  H15Y19300   5.170   1.102   8.288  0.3514 -0.4667 -1.6886
  170SAPE  C31619301   5.010   1.233   8.335 -0.5214  1.2553  0.1561
  170SAPE  H16X19302   4.925   1.176   8.292  0.5250  1.6779 -2.6882
  170SAPE  H16Y19303   4.972   1.336   8.324  1.5182  2.1556  1.0596
  170SAPE  C31719304   5.011   1.208   8.484  0.3391  0.3341 -0.5489
  170SAPE  H17X19305   5.087   1.276   8.528 -1.7357  2.0285  0.6659
  170SAPE  H17Y19306   5.053   1.107   8.504 -0.1349  0.0645 -0.8732
  170SAPE  C31819307   4.879   1.234   8.555 -0.4321  0.7129  0.7633
  170SAPE  H18X19308   4.790   1.200   8.496  0.1519  0.1699  0.1693
  170SAPE  H18Y19309   4.862   1.343   8.566 -0.8982  0.6326  0.8905
  170SAPE  H18Z19310   4.874   1.174   8.649 -0.6970 -3.0088 -1.3925
  171SAPE     N19311   5.595   1.412   6.055 -0.4048  0.7445 -0.3188
  171SAPE   HN119312   5.528   1.488   6.030 -2.0758 -0.8993 -1.1218
  171SAPE   HN219313   5.690   1.433   6.019  0.0657  1.9384  1.4670
  171SAPE   HN319314   5.557   1.326   6.010  0.5703 -0.6942  1.4726
  171SAPE   C1219315   5.591   1.390   6.204 -0.9077 -0.2474  0.1463
  171SAPE  H12A19316   5.484   1.387   6.235 -0.0450 -0.3202  3.5077
  171SAPE  H12B19317   5.630   1.487   6.241  0.0100 -1.0942  1.4928
  171SAPE   C1119318   5.664   1.256   6.247 -0.1585 -0.4969 -0.4122
  171SAPE  H11A19319   5.617   1.171   6.193 -1.9344  0.1489  0.0197
  171SAPE  H11B19320   5.652   1.232   6.355 -0.2409 -1.7547 -0.6918
  171SAPE     P19321   5.922   1.255   6.319 -0.1959 -0.1233 -0.2777
  171SAPE   O1319322   5.944   1.114   6.351 -0.2727  0.0729 -0.0291
  171SAPE   O1419323   6.035   1.329   6.264  0.6399 -0.6778 -0.1444
  171SAPE   O1219324   5.806   1.269   6.216  0.3230  0.6129  0.1358
  171SAPE   O1119325   5.870   1.325   6.458  0.1284  0.1912 -0.5936
  171SAPE    C119326   5.890   1.467   6.475  0.1255 -0.0245 -0.1823
  171SAPE    HA19327   5.994   1.506   6.470 -0.6250  2.3557  1.3041
  171SAPE    HB19328   5.835   1.520   6.395 -1.3122 -0.3781  0.5354
  171SAPE    C219329   5.824   1.525   6.604 -0.2753 -0.4688  0.4916
  171SAPE    HS19330   5.799   1.633   6.593  1.0395  0.0061  1.8468
  171SAPE   O2119331   5.911   1.510   6.714  0.2309 -0.3529 -0.0922
  171SAPE   C2119332   6.025   1.585   6.720  0.5211  0.8457 -0.1544
  171SAPE   O2219333   6.059   1.669   6.636 -0.4822  0.8007 -0.0827
  171SAPE   C2219334   6.106   1.538   6.844  0.5758 -0.8160  0.2086
  171SAPE   H2R19335   6.176   1.457   6.812  1.2379  0.2491 -1.1455
  171SAPE   H2S19336   6.181   1.618   6.858  0.8464 -1.2052  1.0065
  171SAPE    C319337   5.694   1.438   6.629 -0.1997  0.6262  0.0674
  171SAPE    HX19338   5.729   1.332   6.633  1.6898  1.2092  0.3993
  171SAPE    HY19339   5.637   1.446   6.534 -1.3488 -0.1633  0.6732
  171SAPE   O3119340   5.609   1.485   6.730  0.9491 -0.9335 -0.7069
  171SAPE   C3119341   5.631   1.432   6.846 -0.2183 -0.1145  0.2687
  171SAPE   O3219342   5.709   1.343   6.877  0.3635  0.1047  0.1213
  171SAPE   C3219343   5.537   1.502   6.942 -0.6198 -0.2935 -0.3158
  171SAPE   H2X19344   5.438   1.452   6.932 -1.0318  0.5815 -0.6480
  171SAPE   H2Y19345   5.526   1.612   6.933  2.2124  0.0703 -0.0396
  171SAPE   C2319346   6.028   1.499   6.968 -0.1106  0.0482 -0.0755
  171SAPE   H3R19347   5.990   1.396   6.954  2.5525 -1.2817  1.6747
  171SAPE   H3S19348   5.932   1.553   6.979 -1.3960 -2.2660  0.7452
  171SAPE   C2419349   6.107   1.506   7.107 -0.2245  0.4820 -0.0320
  171SAPE   H4R19350   6.036   1.459   7.179  1.5138 -2.7492 -0.2449
  171SAPE   H4S19351   6.109   1.612   7.139  0.1190  0.0382  1.5116
  171SAPE   C2519352   6.241   1.434   7.104  0.6868 -0.6941 -0.0051
  171SAPE   H5R19353   6.253   1.350   7.034  0.4502 -0.5883 -0.1726
  171SAPE   C2619354   6.348   1.461   7.171  0.3220  0.4347  0.6121
  171SAPE   H6R19355   6.441   1.407   7.145  0.1109  0.1856  0.3693
  171SAPE   C2719356   6.348   1.589   7.252  0.0641  0.2430  0.2032
  171SAPE   H7R19357   6.271   1.579   7.332 -0.5612  3.0647  0.0455
  171SAPE   H7S19358   6.307   1.676   7.198  0.6653  0.5630  0.2453
  171SAPE   C2819359   6.478   1.656   7.301  0.4941 -0.4001 -0.3672
  171SAPE   H8R19360   6.544   1.700   7.224  1.5074  1.2518  1.3684
  171SAPE   C2919361   6.527   1.653   7.430  0.2306  0.3147  0.0607
  171SAPE   H9R19362   6.624   1.698   7.452 -0.2294  1.1283  0.4815
  171SAPE  C21019363   6.455   1.590   7.544 -0.4634 -0.2386  0.1098
  171SAPE  H10R19364   6.351   1.563   7.518  0.0709 -0.1610 -2.2907
  171SAPE  H10S19365   6.434   1.664   7.625  0.1202  0.4431 -0.3386
  171SAPE  C21119366   6.542   1.474   7.587  0.4317  0.2736 -0.0340
  171SAPE  H11R19367   6.546   1.396   7.510  1.2889 -0.8764  1.1298
  171SAPE  C21219368   6.614   1.454   7.696 -0.4434  0.3889 -0.0660
  171SAPE  H12R19369   6.673   1.362   7.708 -2.2935 -0.6494  1.7950
  171SAPE  C21319370   6.615   1.543   7.821  0.3047  0.4740  0.3037
  171SAPE  H13R19371   6.605   1.484   7.915 -2.5210  1.7634  0.9192
  171SAPE  H13S19372   6.535   1.619   7.817  0.0431  0.2707  1.4102
  171SAPE  C21419373   6.745   1.620   7.831  0.8184  0.0365 -0.3007
  171SAPE  H14R19374   6.778   1.666   7.737 -0.7081 -2.9089 -2.4443
  171SAPE  C21519375   6.822   1.631   7.946  0.2852  0.3563  0.2007
  171SAPE  H15R19376   6.917   1.684   7.936 -0.3968  1.6447  0.4038
  171SAPE  C21619377   6.798   1.571   8.084  0.2555 -0.9879 -0.4516
  171SAPE  H16R19378   6.889   1.511   8.105  1.1863  0.4589 -0.1674
  171SAPE  H16S19379   6.717   1.495   8.084  1.0155 -1.8104 -0.4157
  171SAPE  C21719380   6.775   1.682   8.200  0.0455 -0.5292 -0.0756
  171SAPE  H17R19381   6.674   1.726   8.188  0.7169  0.6452 -1.7142
  171SAPE  H17S19382   6.854   1.760   8.198 -0.1269 -0.2541  1.8011
  171SAPE  C21819383   6.786   1.629   8.347 -0.1540 -0.3028  0.2561
  171SAPE  H18R19384   6.734   1.531   8.340  1.2990 -0.9937 -2.6036
  171SAPE  H18S19385   6.740   1.710   8.407  0.0779  0.3424 -0.4235
  171SAPE  C21919386   6.924   1.602   8.397 -0.6099 -0.4885  0.1200
  171SAPE  H19R19387   6.984   1.696   8.396  0.7731 -1.3210 -1.4388
  171SAPE  H19S19388   6.967   1.539   8.316  0.5859 -1.8332  1.7433
  171SAPE  C22019389   6.928   1.527   8.529  0.6795  0.2452 -0.4966
  171SAPE  H20R19390   6.882   1.566   8.623  1.9423 -1.9830  1.1626
  171SAPE  H20S19391   7.035   1.502   8.549  0.2380 -3.1194 -1.6671
  171SAPE  H20T19392   6.887   1.425   8.510 -0.8596  0.3101  2.0106
  171SAPE   C3319393   5.599   1.484   7.079 -0.2944  0.0760  0.8418
  171SAPE   H3X19394   5.699   1.533   7.083  0.8308 -2.1475  2.2212
  171SAPE   H3Y19395   5.609   1.377   7.107 -0.5611 -0.1553  0.0558
  171SAPE   C3419396   5.513   1.548   7.181  0.0701  0.2173  0.1622
  171SAPE   H4X19397   5.408   1.512   7.169  0.4117 -1.1460  1.0296
  171SAPE   H4Y19398   5.505   1.657   7.164 -2.8130 -0.0672 -0.8342
  171SAPE   C3519399   5.557   1.517   7.318 -0.6919  0.3098  0.1274
  171SAPE   H5X19400   5.662   1.549   7.340 -0.7817 -0.4804  1.8329
  171SAPE   H5Y19401   5.565   1.407   7.330  0.2177  0.1374 -1.6901
  171SAPE   C3619402   5.465   1.578   7.434 -0.4406  0.1423  0.6302
  171SAPE   H6X19403   5.447   1.686   7.415  1.0913  0.3795  0.3811
  171SAPE   H6Y19404   5.521   1.575   7.531 -0.0969  2.0725  0.5306
  171SAPE   C3719405   5.332   1.505   7.434 -0.2651  0.2238  0.1878
  171SAPE   H7X19406   5.356   1.405   7.476 -2.3501 -0.6286 -0.5490
  171SAPE   H7Y19407   5.295   1.484   7.332  0.8569 -1.6060  0.1187
  171SAPE   C3819408   5.228   1.577   7.525 -0.7340  0.2812  0.7043
  171SAPE   H8X19409   5.128   1.545   7.491  0.8296 -2.9863 -1.3118
  171SAPE   H8Y19410   5.237   1.686   7.503 -0.0025  0.7709  3.1212
  171SAPE   C3919411   5.248   1.558   7.675  0.3215  1.0834  1.3749
  171SAPE   H9X19412   5.343   1.593   7.721  1.6812  0.7055 -1.0009
  171SAPE   H9Y19413   5.249   1.447   7.685  0.3928  1.0611  1.1245
  171SAPE  C31019414   5.127   1.616   7.742  0.0526  0.6548  0.1165
  171SAPE  H10X19415   5.038   1.561   7.704  1.0866 -0.8968 -0.1713
  171SAPE  H10Y19416   5.116   1.723   7.713 -1.5657  0.6653  0.6470
  171SAPE  C31119417   5.131   1.609   7.901 -1.0023 -0.2822 -0.0243
  171SAPE  H11X19418   5.214   1.668   7.945 -0.8921 -1.5636  1.5580
  171SAPE  H11Y19419   5.144   1.503   7.932 -0.6252 -0.3556 -0.4254
  171SAPE  C31219420   5.011   1.676   7.957 -0.0253  0.4400 -0.5609
  171SAPE  H12X19421   4.918   1.624   7.926  0.5264 -0.7870 -0.2699
  171SAPE  H12Y19422   4.997   1.776   7.912  5.1580  0.6257 -2.4466
  171SAPE  C31319423   5.017   1.689   8.115  0.9842  0.7063 -0.0325
  171SAPE  H13X19424   5.116   1.736   8.130  1.8997 -0.8437 -0.9672
  171SAPE  H13Y19425   5.015   1.588   8.160 -0.0921  0.8904  0.3624
  171SAPE  C31419426   4.905   1.783   8.154 -0.2810 -0.4529 -0.2764
  171SAPE  H14X19427   4.809   1.742   8.115 -0.5404 -1.5287  1.4111
  171SAPE  H14Y19428   4.927   1.880   8.104 -2.4694 -0.3003 -1.0815
  171SAPE  C31519429   4.886   1.820   8.308 -0.1299 -0.0842  0.0990
  171SAPE  H15X19430   4.822   1.910   8.320 -0.4644 -0.4791  1.5132
  171SAPE  H15Y19431   4.976   1.840   8.370  1.3942  0.5908 -2.2199
  171SAPE  C31619432   4.818   1.704   8.385 -0.4461 -0.6594 -0.1772
  171SAPE  H16X19433   4.892   1.622   8.394 -1.0259 -1.0595  1.0832
  171SAPE  H16Y19434   4.736   1.666   8.322  1.7143 -4.0597 -1.1904
  171SAPE  C31719435   4.771   1.743   8.524 -0.1367 -0.5835  0.3919
  171SAPE  H17X19436   4.699   1.828   8.523  1.6937  1.0294 -0.0420
  171SAPE  H17Y19437   4.851   1.786   8.588  0.5761  1.0717 -1.5288
  171SAPE  C31819438   4.714   1.621   8.593 -0.0943 -0.6363 -0.2047
  171SAPE  H18X19439   4.646   1.567   8.523 -3.0682  2.0914  0.2953
  171SAPE  H18Y19440   4.651   1.630   8.684  0.3803 -0.8781  0.1504
  171SAPE  H18Z19441   4.797   1.559   8.632 -0.9896 -1.6453  0.1449
  172SAPE     N19442   5.971   1.124   6.627 -0.7352 -0.4850  0.1684
  172SAPE   HN119443   5.985   1.022   6.641  2.4326 -0.3994 -1.4252
  172SAPE   HN219444   5.885   1.159   6.672 -0.6265 -0.2125  0.1686
  172SAPE   HN319445   5.972   1.143   6.525 -0.4031  3.8467  0.7695
  172SAPE   C1219446   6.091   1.202   6.673 -0.1823  0.4545  0.1737
  172SAPE  H12A19447   6.097   1.198   6.784  2.3205  1.8868  0.1721
  172SAPE  H12B19448   6.084   1.309   6.645  0.0914 -0.1595 -2.4925
  172SAPE   C1119449   6.218   1.129   6.616  0.2789  0.1573  0.1580
  172SAPE  H11A19450   6.225   1.029   6.665  1.0084  0.3066  0.3639
  172SAPE  H11B19451   6.314   1.176   6.647  0.2403 -0.4720  1.3003
  172SAPE     P19452   6.329   1.106   6.375 -0.0137  0.5034  0.1063
  172SAPE   O1319453   6.292   1.032   6.250  0.7892 -0.6030 -0.1933
  172SAPE   O1419454   6.380   1.242   6.349 -0.4936 -0.4844 -0.3204
  172SAPE   O1219455   6.205   1.115   6.472  0.0791  0.2746 -0.0923
  172SAPE   O1119456   6.431   1.030   6.466 -0.1416  0.0999  0.0654
  172SAPE    C119457   6.435   0.891   6.478 -0.8718 -0.2762 -0.3354
  172SAPE    HA19458   6.329   0.860   6.495 -0.9354  0.1187  0.0071
  172SAPE    HB19459   6.483   0.847   6.388 -0.7588  1.5434 -1.2044
  172SAPE    C219460   6.522   0.840   6.591 -0.7868  0.2831  0.5138
  172SAPE    HS19461   6.496   0.732   6.598 -0.6015  0.2709  1.1217
  172SAPE   O2119462   6.491   0.913   6.713 -0.1329 -0.9627  0.2963
  172SAPE   C2119463   6.486   0.849   6.824  0.5416  1.0057 -0.0522
  172SAPE   O2219464   6.504   0.727   6.837  0.6510 -0.0980  1.1828
  172SAPE   C2219465   6.442   0.936   6.932  0.7090  0.7304 -0.2801
  172SAPE   H2R19466   6.508   1.024   6.940  1.9191 -0.1550 -0.2155
  172SAPE   H2S19467   6.340   0.967   6.899 -0.7222 -0.9981  2.1400
  172SAPE    C319468   6.676   0.849   6.570 -0.3295 -0.1868 -0.2350
  172SAPE    HX19469   6.701   0.954   6.545 -0.4386 -0.2087 -0.4335
  172SAPE    HY19470   6.704   0.783   6.485 -1.9686 -0.4506 -0.5999
  172SAPE   O3119471   6.739   0.808   6.693  0.7754  0.5743  0.2965
  172SAPE   C3119472   6.786   0.674   6.702 -0.9462  0.2809 -0.3402
  172SAPE   O3219473   6.763   0.588   6.621  0.0411 -0.3236  0.0891
  172SAPE   C3219474   6.871   0.658   6.828 -0.1304  0.6744  0.2634
  172SAPE   H2X19475   6.977   0.689   6.820 -0.0496  0.0884 -1.2965
  172SAPE   H2Y19476   6.874   0.550   6.851  3.3905  1.2706  3.5321
  172SAPE   C2319477   6.437   0.871   7.073  0.5866 -0.4592 -0.1484
  172SAPE   H3R19478   6.534   0.817   7.079  0.7763 -0.5122 -2.7425
  172SAPE   H3S19479   6.362   0.789   7.083 -0.7527  0.5720 -1.4159
  172SAPE   C2419480   6.428   0.972   7.189 -0.0446 -0.2529  0.1014
  172SAPE   H4R19481   6.391   0.924   7.282  1.2794 -0.6509  0.4467
  172SAPE   H4S19482   6.353   1.048   7.158  0.1706 -0.5955 -1.3765
  172SAPE   C2519483   6.564   1.037   7.208  0.3041  0.6549 -0.1187
  172SAPE   H5R19484   6.603   1.094   7.122  1.6149 -0.1101 -0.0516
  172SAPE   C2619485   6.635   1.024   7.326 -0.0068  0.1103  0.6065
  172SAPE   H6R19486   6.742   1.048   7.327  0.5290 -2.0466  2.3307
  172SAPE   C2719487   6.584   0.955   7.452  0.0557 -0.8698 -0.0356
  172SAPE   H7R19488   6.669   0.915   7.511  1.5086 -2.5534 -3.0383
  172SAPE   H7S19489   6.531   0.861   7.424  1.7122 -1.7531 -0.3665
  172SAPE   C2819490   6.501   1.044   7.535  0.5422 -0.1242 -0.8648
  172SAPE   H8R19491   6.423   1.099   7.482 -0.1051 -0.9572 -0.7962
  172SAPE   C2919492   6.522   1.072   7.664 -0.3105 -0.1863  0.0125
  172SAPE   H9R19493   6.446   1.139   7.706 -1.8389 -0.8224 -1.6243
  172SAPE  C21019494   6.621   1.012   7.766  0.0669 -0.3312  0.2139
  172SAPE  H10R19495   6.624   0.901   7.771  0.3498 -0.3327  0.0608
  172SAPE  H10S19496   6.594   1.060   7.862  0.5599  2.2693 -0.8692
  172SAPE  C21119497   6.768   1.053   7.752  0.1692  0.1037  0.5528
  172SAPE  H11R19498   6.809   1.036   7.652 -1.1080  2.4881 -0.4779
  172SAPE  C21219499   6.841   1.137   7.832 -0.5364  0.3609 -0.6913
  172SAPE  H12R19500   6.944   1.159   7.804 -1.1416  3.1355 -1.0485
  172SAPE  C21319501   6.804   1.205   7.965 -0.1838 -0.1124  0.2922
  172SAPE  H13R19502   6.700   1.243   7.959 -0.8630 -1.7943  0.7391
  172SAPE  H13S19503   6.863   1.297   7.983 -0.6463  0.4342 -0.9550
  172SAPE  C21419504   6.814   1.109   8.087 -0.6906 -0.9769  0.2010
  172SAPE  H14R19505   6.888   1.027   8.084 -0.5833 -0.9039  0.6688
  172SAPE  C21519506   6.741   1.129   8.196 -0.4241 -0.2449  0.1378
  172SAPE  H15R19507   6.763   1.065   8.282  0.7906 -1.2544 -0.8830
  172SAPE  C21619508   6.639   1.236   8.225 -0.3573  0.7533  0.2922
  172SAPE  H16R19509   6.606   1.298   8.139  1.0051  0.0842 -0.7501
  172SAPE  H16S19510   6.656   1.300   8.314  0.3990  1.3944 -0.3028
  172SAPE  C21719511   6.503   1.164   8.263  0.1534 -0.4376  0.2732
  172SAPE  H17R19512   6.488   1.072   8.202  0.4544 -0.1966 -0.1780
  172SAPE  H17S19513   6.416   1.230   8.240  0.1300  0.2492  2.1878
  172SAPE  C21819514   6.495   1.131   8.414  0.3293 -0.2922  0.4461
  172SAPE  H18R19515   6.504   1.231   8.462 -2.1881  0.7408 -1.0477
  172SAPE  H18S19516   6.578   1.067   8.451 -0.9138 -2.1009  0.2050
  172SAPE  C21919517   6.364   1.067   8.457 -0.0681  0.3115  0.9310
  172SAPE  H19R19518   6.372   1.048   8.566  0.8623 -0.4258  0.7458
  172SAPE  H19S19519   6.363   0.972   8.399 -1.2719  1.1226 -0.4648
  172SAPE  C22019520   6.240   1.145   8.431  1.1185 -0.0489 -0.5915
  172SAPE  H20R19521   6.149   1.081   8.438  0.6562  0.7914  1.9399
  172SAPE  H20S19522   6.246   1.204   8.337  0.4114  1.4134  0.2439
  172SAPE  H20T19523   6.226   1.214   8.517 -0.6000 -1.3361  0.2295
  172SAPE   C3319524   6.803   0.719   6.955 -0.3006 -0.0528 -0.7045
  172SAPE   H3X19525   6.703   0.672   6.962 -0.0006 -0.4072  1.8849
  172SAPE   H3Y19526   6.785   0.828   6.956  0.5058  0.1049  1.6076
  172SAPE   C3419527   6.879   0.691   7.080  0.0486  0.0502  0.4080
  172SAPE   H4X19528   6.989   0.702   7.074 -0.2048  3.3330  0.2511
  172SAPE   H4Y19529   6.847   0.586   7.097 -0.7707  0.0197 -1.0771
  172SAPE   C3519530   6.834   0.779   7.193  0.2750 -0.0229  0.3708
  172SAPE   H5X19531   6.723   0.780   7.199  0.3365  1.4044  2.2355
  172SAPE   H5Y19532   6.854   0.883   7.158  0.2045 -0.1190  0.0416
  172SAPE   C3619533   6.885   0.737   7.330  0.3201 -0.3182  0.0900
  172SAPE   H6X19534   6.828   0.663   7.391  0.4310  0.1030  0.7124
  172SAPE   H6Y19535   6.872   0.833   7.383  1.5229  0.2023 -0.4962
  172SAPE   C3719536   7.038   0.716   7.337 -0.2251 -0.4698 -0.0596
  172SAPE   H7X19537   7.096   0.801   7.295  0.2384 -1.3412 -1.2382
  172SAPE   H7Y19538   7.060   0.622   7.282 -1.7981 -0.9434  0.0571
  172SAPE   C3819539   7.105   0.686   7.468  0.1021 -0.5476  0.3105
  172SAPE   H8X19540   7.212   0.659   7.457  0.1940  0.1422 -0.6288
  172SAPE   H8Y19541   7.059   0.598   7.518 -0.6943  0.7195  1.9163
  172SAPE   C3919542   7.112   0.811   7.564 -0.0884 -0.4185  0.2320
  172SAPE   H9X19543   7.011   0.844   7.597 -0.6888 -1.8282 -0.1278
  172SAPE   H9Y19544   7.168   0.899   7.528 -2.3500  1.5116  1.1287
  172SAPE  C31019545   7.182   0.774   7.692 -0.0823 -0.0726  0.3042
  172SAPE  H10X19546   7.292   0.773   7.676  0.1445  1.3220  1.6208
  172SAPE  H10Y19547   7.162   0.670   7.726 -1.8320  0.0027 -0.3338
  172SAPE  C31119548   7.156   0.870   7.806  0.1173 -0.2466 -0.4071
  172SAPE  H11X19549   7.049   0.858   7.835  0.2238 -1.1266 -0.3493
  172SAPE  H11Y19550   7.178   0.973   7.771  0.6029 -0.5227 -0.9097
  172SAPE  C31219551   7.239   0.829   7.929  0.2953  0.2286 -0.3653
  172SAPE  H12X19552   7.340   0.857   7.893  0.3015 -0.3228 -0.7846
  172SAPE  H12Y19553   7.233   0.719   7.932 -0.4771  0.2347 -1.3002
  172SAPE  C31319554   7.203   0.890   8.062 -0.1110  0.1221 -0.1476
  172SAPE  H13X19555   7.219   0.810   8.137 -1.1570  1.3323  1.4528
  172SAPE  H13Y19556   7.094   0.911   8.070 -0.8932 -3.4487 -0.1758
  172SAPE  C31419557   7.288   1.012   8.098 -0.2732 -0.1094 -0.3376
  172SAPE  H14X19558   7.291   1.080   8.011 -1.3531 -3.0909 -2.9137
  172SAPE  H14Y19559   7.391   0.971   8.097 -1.4664 -3.4358 -0.0777
  172SAPE  C31519560   7.262   1.073   8.228  0.8481  0.0182 -0.5340
  172SAPE  H15X19561   7.157   1.109   8.231  0.5795 -0.7261 -0.8026
  172SAPE  H15Y19562   7.328   1.162   8.235  0.3891  0.4481 -1.5124
  172SAPE  C31619563   7.288   0.978   8.349  0.1564 -0.2362 -0.2544
  172SAPE  H16X19564   7.381   0.925   8.323  0.3542  0.5462 -1.2384
  172SAPE  H16Y19565   7.203   0.907   8.355 -0.6312  0.8115  1.5937
  172SAPE  C31719566   7.311   1.046   8.487  0.2066 -0.3574  0.4728
  172SAPE  H17X19567   7.412   1.092   8.484  0.2945 -0.3800  2.3632
  172SAPE  H17Y19568   7.320   0.958   8.554  1.4949 -2.1484 -1.8817
  172SAPE  C31819569   7.192   1.142   8.540 -0.3707 -0.2587  0.9018
  172SAPE  H18X19570   7.237   1.180   8.635  0.2776 -0.0475  0.5135
  172SAPE  H18Y19571   7.101   1.080   8.544 -0.2757 -0.6424 -1.4868
  172SAPE  H18Z19572   7.178   1.228   8.471  0.3175  0.1630  1.2693
  173SOPE     N19573   1.232   4.702  11.303 -0.4676  0.1394  0.1038
  173SOPE   HN119574   1.302   4.720  11.378  2.1875 -0.1487 -2.1506
  173SOPE   HN219575   1.145   4.756  11.325 -1.0620 -0.2564 -1.1833
  173SOPE   HN319576   1.210   4.601  11.304 -0.6882  0.1799 -0.3487
  173SOPE   C1219577   1.291   4.744  11.177  0.4515 -0.3812 -0.2979
  173SOPE  H12A19578   1.381   4.682  11.156 -0.0825 -0.7115 -1.7488
  173SOPE  H12B19579   1.308   4.853  11.183 -0.0258 -0.3210 -0.0109
  173SOPE   C1119580   1.196   4.711  11.055  0.0875 -0.4355 -0.2920
  173SOPE  H11A19581   1.243   4.761  10.968 -2.5379  2.5474 -0.2066
  173SOPE  H11B19582   1.104   4.773  11.066 -0.6495 -1.3049 -1.4353
  173SOPE     P19583   1.055   4.540  10.930 -0.2607 -0.1846  0.0022
  173SOPE   O1319584   0.936   4.630  10.930 -0.1058  0.3811 -0.0994
  173SOPE   O1419585   1.032   4.396  10.922  0.1526  0.3062 -0.4170
  173SOPE   O1219586   1.164   4.573  11.050 -0.2914 -0.1336  0.4210
  173SOPE   O1119587   1.138   4.562  10.796 -0.6241  0.3541 -0.2638
  173SOPE    C119588   1.125   4.684  10.722  0.1756 -0.1176  0.7899
  173SOPE    HA19589   1.193   4.761  10.762 -0.1875  0.8656 -0.4365
  173SOPE    HB19590   1.026   4.733  10.731  0.7096  1.4965 -1.3721
  173SOPE    C219591   1.155   4.660  10.575  0.3485 -0.0571  0.6146
  173SOPE    HS19592   1.214   4.567  10.566  1.0904  0.5510 -1.2946
  173SOPE   O2119593   1.231   4.772  10.527  0.4504  0.5410 -0.2591
  173SOPE   C2119594   1.356   4.786  10.567  0.3335  0.2510 -0.4699
  173SOPE   O2219595   1.417   4.713  10.642 -0.4623 -0.2197 -0.2869
  173SOPE   C2219596   1.427   4.905  10.502 -0.3999 -0.3172  0.3064
  173SOPE   H2R19597   1.445   4.969  10.590 -1.4817 -0.1474  0.4215
  173SOPE   H2S19598   1.353   4.955  10.436  1.3559  0.3617 -1.2193
  173SOPE    C319599   1.024   4.650  10.490 -0.4000  1.1077  0.6481
  173SOPE    HX19600   0.965   4.744  10.497 -0.8585  0.9471 -0.7675
  173SOPE    HY19601   0.957   4.569  10.526  1.0399 -0.3956  0.0538
  173SOPE   O3119602   1.047   4.648  10.350  0.3500 -0.3155 -0.6841
  173SOPE   C3119603   1.088   4.529  10.307 -0.0373 -0.2814  0.9415
  173SOPE   O3219604   1.090   4.424  10.367  0.3024  0.0844 -0.0802
  173SOPE   C3219605   1.138   4.536  10.166 -0.1499 -0.4286  0.0796
  173SOPE   H2X19606   1.242   4.499  10.177 -0.6191 -3.3288 -3.4182
  173SOPE   H2Y19607   1.142   4.636  10.116  1.2748 -1.5743 -2.2712
  173SOPE   C2319608   1.555   4.876  10.420 -0.5175  0.3282  0.1084
  173SOPE   H3R19609   1.631   4.849  10.495 -2.1655 -1.8930  1.0889
  173SOPE   H3S19610   1.598   4.960  10.361 -1.6641  1.0525  0.2601
  173SOPE   C2419611   1.539   4.762  10.312 -0.0002  0.5126  0.2608
  173SOPE   H4R19612   1.636   4.737  10.265 -0.8723 -1.8632 -0.3951
  173SOPE   H4S19613   1.510   4.672  10.370  1.0435 -0.6860 -1.0163
  173SOPE   C2519614   1.434   4.777  10.201  0.3644  0.4532 -0.0470
  173SOPE   H5R19615   1.441   4.687  10.137  1.2732  1.2026 -1.0282
  173SOPE   H5S19616   1.336   4.775  10.254  0.3508 -2.6087 -0.0301
  173SOPE   C2619617   1.445   4.910  10.121  0.4706  0.2042  0.4666
  173SOPE   H6R19618   1.450   4.999  10.187  2.4044 -0.7659  1.7290
  173SOPE   H6S19619   1.537   4.907  10.059 -1.6488  1.8818 -3.0653
  173SOPE   C2719620   1.319   4.913  10.035  0.3837 -0.1427 -0.0564
  173SOPE   H7R19621   1.232   4.890  10.101  0.3999 -1.6602 -0.5191
  173SOPE   H7S19622   1.301   5.018  10.007  0.0250  0.0565  0.8707
  173SOPE   C2819623   1.311   4.816   9.906  1.1035 -0.2346 -0.5456
  173SOPE   H8R19624   1.340   4.712   9.931  2.1834  0.1170 -0.2646
  173SOPE   H8S19625   1.204   4.817   9.875  0.3182  1.7450  1.9007
  173SOPE   C2919626   1.406   4.880   9.808 -0.2042 -0.2987  0.8136
  173SOPE   H9119627   1.508   4.884   9.850 -0.1416 -1.1643  0.7539
  173SOPE  C21019628   1.387   4.929   9.681  0.2170 -0.2049  0.2625
  173SOPE  H10119629   1.476   4.963   9.628  1.2419 -1.6815  0.9826
  173SOPE  C21119630   1.253   4.937   9.611 -0.1608 -0.1896 -0.1821
  173SOPE  H11R19631   1.208   5.035   9.640 -3.7053 -1.5003 -0.6834
  173SOPE  H11S19632   1.190   4.865   9.667  2.2327 -3.1134 -0.9815
  173SOPE  C21219633   1.256   4.919   9.456 -0.5600  0.3895  0.1898
  173SOPE  H12R19634   1.361   4.942   9.426 -0.0813 -3.1383 -1.4110
  173SOPE  H12S19635   1.192   4.991   9.402  2.1635  0.8473 -2.7654
  173SOPE  C21319636   1.252   4.769   9.400  0.0967  0.2076 -0.2773
  173SOPE  H13R19637   1.165   4.716   9.442 -0.3523  1.5611  0.5595
  173SOPE  H13S19638   1.333   4.715   9.453 -1.0386 -1.0740  0.2022
  173SOPE  C21419639   1.265   4.745   9.251  0.1171  0.1557  0.0194
  173SOPE  H14R19640   1.285   4.637   9.235  2.2248 -0.0547  3.1387
  173SOPE  H14S19641   1.359   4.795   9.221  1.2219 -1.1931  1.0523
  173SOPE  C21519642   1.148   4.786   9.176  0.9066 -0.0506  0.4649
  173SOPE  H15R19643   1.118   4.893   9.172 -0.6364 -0.4645  0.1266
  173SOPE  H15S19644   1.053   4.748   9.221  1.5290 -0.1489  1.7291
  173SOPE  C21619645   1.161   4.735   9.029  0.1088  0.1825 -0.6212
  173SOPE  H16R19646   1.152   4.624   9.036 -0.5872  0.3277  1.6805
  173SOPE  H16S19647   1.260   4.763   8.987 -0.7384 -0.2790 -3.0882
  173SOPE  C21719648   1.044   4.783   8.938 -0.1407  0.7521 -0.8118
  173SOPE  H17R19649   0.957   4.714   8.940  2.5513 -3.0861  2.9387
  173SOPE  H17S19650   1.088   4.777   8.837  2.5753  0.4412  0.2934
  173SOPE  C21819651   0.995   4.929   8.953 -0.4744 -0.9389  0.2334
  173SOPE  H18R19652   1.080   5.000   8.940 -2.1207  1.0850 -0.1440
  173SOPE  H18S19653   0.948   4.955   9.050  0.6436  0.6403  0.3853
  173SOPE  H18T19654   0.918   4.953   8.876  0.2278  2.3449  0.3804
  173SOPE   C3319655   1.075   4.427  10.078 -0.0136 -1.6287  0.1836
  173SOPE   H3X19656   0.965   4.438  10.072  0.1507 -0.4536 -1.3550
  173SOPE   H3Y19657   1.092   4.330  10.130 -1.7867 -0.4102  3.2612
  173SOPE   C3419658   1.137   4.420   9.937  0.0274 -0.5549 -1.1911
  173SOPE   H4X19659   1.182   4.518   9.909 -0.8846  0.3310  0.3395
  173SOPE   H4Y19660   1.056   4.397   9.865  0.2000  0.2183 -1.6444
  173SOPE   C3519661   1.245   4.308   9.912 -0.0729 -0.4493 -0.3738
  173SOPE   H5X19662   1.191   4.211   9.915 -2.2355  0.6619 -1.0066
  173SOPE   H5Y19663   1.332   4.318   9.980  1.8308  0.8535 -2.8226
  173SOPE   C3619664   1.316   4.329   9.783 -0.0128  0.2679  0.4560
  173SOPE   H6X19665   1.400   4.257   9.772  0.8882  1.2336  0.8024
  173SOPE   H6Y19666   1.356   4.432   9.781 -0.3005  0.5031  2.9842
  173SOPE   C3719667   1.228   4.309   9.657 -0.6140  0.5658 -1.0355
  173SOPE   H7X19668   1.154   4.234   9.692 -0.0572  0.0600 -0.9357
  173SOPE   H7Y19669   1.290   4.260   9.579  1.8409 -0.7542  1.5603
  173SOPE   C3819670   1.176   4.431   9.607  0.2338  0.0263  0.0925
  173SOPE   H8X19671   1.254   4.500   9.569  0.2547  0.7973  1.4739
  173SOPE   H8Y19672   1.132   4.493   9.688 -1.1890  0.5191 -1.0226
  173SOPE   C3919673   1.083   4.410   9.485 -1.2504 -0.1233  0.8329
  173SOPE   H9X19674   1.062   4.505   9.430 -1.6000 -0.5366  0.2359
  173SOPE   H9Y19675   0.990   4.360   9.519 -0.2456 -2.1512  0.7491
  173SOPE  C31019676   1.155   4.334   9.369 -0.2273 -0.5920 -0.8955
  173SOPE  H10X19677   1.176   4.227   9.392 -0.5135 -0.8723 -1.8843
  173SOPE  H10Y19678   1.253   4.384   9.357 -0.4746  0.2765  0.4828
  173SOPE  C31119679   1.080   4.338   9.228  0.4571 -0.1764 -0.4120
  173SOPE  H11X19680   1.085   4.445   9.198  0.4946 -0.3242 -0.9427
  173SOPE  H11Y19681   0.974   4.308   9.235  0.3261 -0.1933 -2.1607
  173SOPE  C31219682   1.158   4.252   9.122 -0.2508 -0.4583 -0.3338
  173SOPE  H12X19683   1.160   4.143   9.144 -0.8445 -0.4485 -0.2176
  173SOPE  H12Y19684   1.261   4.292   9.110  0.2057 -0.3663  2.8179
  173SOPE  C31319685   1.089   4.264   8.990  0.1337 -0.2162  0.3444
  173SOPE  H13X19686   1.078   4.372   8.966 -0.7301 -0.0658  1.3550
  173SOPE  H13Y19687   0.986   4.221   8.992 -0.5620  1.3082  3.2382
  173SOPE  C31419688   1.163   4.190   8.880  0.2737  0.4279  0.0331
  173SOPE  H14X19689   1.269   4.223   8.875  0.0668  0.9165 -1.5524
  173SOPE  H14Y19690   1.125   4.213   8.778 -0.2169  2.3016  0.6009
  173SOPE  C31519691   1.159   4.035   8.894  0.2155  0.4779  0.4786
  173SOPE  H15X19692   1.053   4.004   8.906 -0.4832  1.4727 -2.2663
  173SOPE  H15Y19693   1.211   4.013   8.989 -1.4802  1.3162  1.6685
  173SOPE  C31619694   1.213   3.965   8.769 -0.7762 -0.7572 -0.1686
  173SOPE  H16X19695   1.307   4.017   8.741 -1.7052  0.6060 -0.8346
  173SOPE  H16Y19696   1.142   4.001   8.691  0.1535 -0.0738 -0.7112
  173SOPE  C31719697   1.220   3.817   8.783  0.3864  0.1325  0.0103
  173SOPE  H17X19698   1.285   3.801   8.871  0.6760  1.1132 -0.0082
  173SOPE  H17Y19699   1.272   3.769   8.697 -0.7401  0.9915 -1.2109
  173SOPE  C31819700   1.080   3.758   8.789  0.6592 -0.7951 -0.6459
  173SOPE  H18X19701   1.020   3.810   8.711  1.9088  0.0381 -1.0837
  173SOPE  H18Y19702   1.032   3.791   8.883  0.1713  1.4360 -1.6061
  173SOPE  H18Z19703   1.081   3.647   8.792 -0.2805 -0.8752 -2.1497
  174SOPE     N19704   6.437   3.831  11.085 -0.4139  0.2696  0.6099
  174SOPE   HN119705   6.375   3.756  11.120  0.0520 -1.2362 -1.5896
  174SOPE   HN219706   6.444   3.811  10.983  0.7147  1.1746  0.4948
  174SOPE   HN319707   6.530   3.814  11.128 -0.3316 -1.2605 -0.1108
  174SOPE   C1219708   6.388   3.970  11.109  0.4980  0.1087  0.5443
  174SOPE  H12A19709   6.407   3.999  11.214  1.5857 -0.0784  0.4141
  174SOPE  H12B19710   6.282   3.978  11.078  0.3930 -1.3849  0.4534
  174SOPE   C1119711   6.466   4.072  11.019 -0.3518 -0.4954  0.9635
  174SOPE  H11A19712   6.574   4.064  11.046 -0.0197  0.1993 -0.0784
  174SOPE  H11B19713   6.438   4.176  11.044  1.1867  0.3682 -0.6501
  174SOPE     P19714   6.354   4.136  10.797  0.5460 -0.1065 -0.1629
  174SOPE   O1319715   6.375   4.280  10.836 -0.3187  0.4249  0.3711
  174SOPE   O1419716   6.215   4.077  10.800 -0.3872 -0.2907  0.2209
  174SOPE   O1219717   6.436   4.033  10.885  0.5510 -0.2605  0.1193
  174SOPE   O1119718   6.414   4.119  10.653  0.9460 -0.1952  0.3326
  174SOPE    C119719   6.545   4.129  10.611 -0.5912  0.0102  0.5245
  174SOPE    HA19720   6.577   4.024  10.592 -0.8593 -0.0152  0.2015
  174SOPE    HB19721   6.615   4.163  10.690  2.5136 -0.0551 -2.0137
  174SOPE    C219722   6.564   4.208  10.471  0.0268  0.8220 -0.5098
  174SOPE    HS19723   6.541   4.315  10.490  1.3320  0.7503  1.8368
  174SOPE   O2119724   6.490   4.145  10.362  0.1630  0.5487 -0.0206
  174SOPE   C2119725   6.387   4.208  10.318  0.2043  0.3220 -0.0632
  174SOPE   O2219726   6.352   4.315  10.361 -0.6404 -0.5272  0.6985
  174SOPE   C2219727   6.317   4.137  10.214  0.2422 -0.3041 -0.1675
  174SOPE   H2R19728   6.299   4.031  10.242  0.3795 -0.6440 -1.3161
  174SOPE   H2S19729   6.377   4.142  10.121 -0.2156  3.8645 -0.4369
  174SOPE    C319730   6.715   4.211  10.439 -0.7518 -0.0578  0.1784
  174SOPE    HX19731   6.736   4.107  10.404  1.8645  0.4767 -0.0152
  174SOPE    HY19732   6.775   4.230  10.530  3.3552  0.6566 -2.4168
  174SOPE   O3119733   6.752   4.311  10.343  0.6644  0.5903  0.3160
  174SOPE   C3119734   6.762   4.430  10.390  0.0026 -0.1431  0.8715
  174SOPE   O3219735   6.730   4.468  10.502 -0.1119  0.0311  0.5319
  174SOPE   C3219736   6.781   4.532  10.279 -0.1091  0.2724  0.3956
  174SOPE   H2X19737   6.793   4.484  10.180  0.4945  1.2718 -0.0261
  174SOPE   H2Y19738   6.875   4.589  10.293  0.2156 -0.4240  1.2143
  174SOPE   C2319739   6.187   4.213  10.167 -0.2729  0.2135 -0.1902
  174SOPE   H3R19740   6.137   4.258  10.255  0.9076 -1.8167  1.5921
  174SOPE   H3S19741   6.110   4.140  10.132 -1.3353  1.0022  0.4407
  174SOPE   C2419742   6.225   4.320  10.057  0.3598  0.2762  0.2518
  174SOPE   H4R19743   6.142   4.390  10.035  0.0369 -0.2946 -0.4132
  174SOPE   H4S19744   6.304   4.382  10.104  1.5309  0.3238 -1.6635
  174SOPE   C2519745   6.249   4.258   9.913 -0.3101 -0.1999  0.4512
  174SOPE   H5R19746   6.347   4.206   9.914  0.0062  0.3108 -1.3486
  174SOPE   H5S19747   6.159   4.194   9.900 -1.4724  1.0721  1.7775
  174SOPE   C2619748   6.274   4.371   9.806 -0.4433 -0.3724  0.9967
  174SOPE   H6R19749   6.184   4.436   9.816 -0.6119  0.0893 -2.2431
  174SOPE   H6S19750   6.370   4.426   9.817 -0.1090 -0.6997 -0.1599
  174SOPE   C2719751   6.259   4.320   9.656 -0.0290 -1.0006  0.1231
  174SOPE   H7R19752   6.345   4.258   9.622  0.4076  1.1510 -3.1539
  174SOPE   H7S19753   6.163   4.264   9.651 -1.5223  1.3290  1.1444
  174SOPE   C2819754   6.254   4.436   9.556  0.4074  0.1147 -0.0761
  174SOPE   H8R19755   6.171   4.508   9.572  0.6682 -0.2636  3.9410
  174SOPE   H8S19756   6.345   4.500   9.560  1.0464 -0.8171  0.7064
  174SOPE   C2919757   6.246   4.371   9.417 -0.2151  0.1786  0.1806
  174SOPE   H9119758   6.147   4.374   9.368 -0.6545  0.0966  1.0368
  174SOPE  C21019759   6.361   4.333   9.349 -0.4420 -0.3489 -0.3693
  174SOPE  H10119760   6.347   4.285   9.251  0.4612 -1.9924  0.2719
  174SOPE  C21119761   6.507   4.355   9.394  0.2664 -0.1344 -0.5067
  174SOPE  H11R19762   6.513   4.382   9.502  0.2253 -0.6230 -0.3809
  174SOPE  H11S19763   6.556   4.436   9.337 -3.0832  3.0163  0.6684
  174SOPE  C21219764   6.595   4.222   9.387 -0.1620 -0.2506  0.1558
  174SOPE  H12R19765   6.541   4.131   9.420  0.8296 -0.9256 -0.0438
  174SOPE  H12S19766   6.676   4.238   9.462  0.2248  3.8520 -0.8633
  174SOPE  C21319767   6.648   4.196   9.245 -0.5361 -0.0398 -0.1623
  174SOPE  H13R19768   6.565   4.204   9.171  1.9587 -1.5734 -3.3766
  174SOPE  H13S19769   6.674   4.088   9.241 -0.9775 -0.1539 -0.0455
  174SOPE  C21419770   6.752   4.290   9.192 -0.4869 -0.1941 -0.0850
  174SOPE  H14R19771   6.826   4.320   9.269  0.4657 -0.9308 -0.6871
  174SOPE  H14S19772   6.709   4.387   9.161  1.2556  0.7575  0.3302
  174SOPE  C21519773   6.846   4.235   9.089 -0.0517  0.2606  0.1803
  174SOPE  H15R19774   6.887   4.147   9.143  0.0583 -0.5074 -1.1123
  174SOPE  H15S19775   6.930   4.307   9.082 -2.6347  3.3459 -2.1361
  174SOPE  C21619776   6.796   4.215   8.947  1.0866  0.2437  0.5223
  174SOPE  H16R19777   6.706   4.150   8.945 -0.2649  2.0272 -1.0302
  174SOPE  H16S19778   6.871   4.153   8.893  0.6371  0.5731 -0.5248
  174SOPE  C21719779   6.779   4.341   8.856 -0.7795 -0.5447 -0.2201
  174SOPE  H17R19780   6.711   4.406   8.915 -1.1354 -0.4699 -0.7026
  174SOPE  H17S19781   6.722   4.323   8.762 -2.5951  0.2600  0.6592
  174SOPE  C21819782   6.910   4.404   8.814  0.0982 -0.4622  0.2288
  174SOPE  H18R19783   6.976   4.321   8.781 -1.2776 -1.7376  0.5864
  174SOPE  H18S19784   6.956   4.460   8.899  2.1098  0.3850 -1.3372
  174SOPE  H18T19785   6.889   4.479   8.735 -1.0606 -0.5029  0.4858
  174SOPE   C3319786   6.659   4.615  10.275 -0.1594 -0.1131 -0.1182
  174SOPE   H3X19787   6.634   4.672  10.368  1.7839  0.0966  0.3075
  174SOPE   H3Y19788   6.571   4.551  10.251  0.5229 -0.6876 -1.1160
  174SOPE   C3419789   6.670   4.723  10.170  0.0815 -0.5825  0.4635
  174SOPE   H4X19790   6.675   4.684  10.066  2.6621 -0.6432  0.5534
  174SOPE   H4Y19791   6.772   4.763  10.189 -0.7528  2.3606 -0.6802
  174SOPE   C3519792   6.565   4.827  10.168  0.0709  0.2413  0.2885
  174SOPE   H5X19793   6.608   4.911  10.110  2.5927 -0.3216  1.2019
  174SOPE   H5Y19794   6.553   4.870  10.269  1.6044  0.7343  0.2924
  174SOPE   C3619795   6.436   4.774  10.116  0.1998 -0.1027 -1.0438
  174SOPE   H6X19796   6.360   4.852  10.134 -0.7866 -0.5696 -2.8974
  174SOPE   H6Y19797   6.400   4.691  10.181  1.1708 -0.0954 -0.4766
  174SOPE   C3719798   6.427   4.739   9.971 -0.0298 -0.8387 -0.1973
  174SOPE   H7X19799   6.324   4.730   9.930  0.4371  0.4292 -1.7453
  174SOPE   H7Y19800   6.489   4.648   9.956 -0.9438 -1.6843  0.9046
  174SOPE   C3819801   6.498   4.851   9.878  0.4326  0.3776  0.1971
  174SOPE   H8X19802   6.598   4.881   9.914 -0.0054  1.6819  0.3970
  174SOPE   H8Y19803   6.435   4.941   9.897 -0.7517 -0.6375  1.2559
  174SOPE   C3919804   6.503   4.810   9.728  0.4599  0.0812  0.2741
  174SOPE   H9X19805   6.399   4.806   9.690  0.0528 -0.8683  1.4116
  174SOPE   H9Y19806   6.561   4.717   9.711  2.0125  1.2873 -1.3871
  174SOPE  C31019807   6.569   4.925   9.645 -0.6555  0.0221 -0.2416
  174SOPE  H10X19808   6.591   4.882   9.545  1.7067  0.3426  0.0813
  174SOPE  H10Y19809   6.668   4.961   9.681 -0.4464  1.6912 -2.2806
  174SOPE  C31119810   6.468   5.042   9.627 -0.1847  0.4256 -0.4163
  174SOPE  H11X19811   6.442   5.097   9.721  1.7862  0.6166  0.0679
  174SOPE  H11Y19812   6.376   4.989   9.596 -0.9553  0.6233  1.3727
  174SOPE  C31219813   6.499   5.153   9.530 -0.0767 -0.1026 -0.1635
  174SOPE  H12X19814   6.601   5.189   9.557 -0.0977  0.5300 -0.8649
  174SOPE  H12Y19815   6.429   5.238   9.548 -0.1669 -0.5442  1.7350
  174SOPE  C31319816   6.505   5.116   9.380  0.4723  0.0903 -0.3338
  174SOPE  H13X19817   6.406   5.076   9.349  0.9061  1.2711 -3.5766
  174SOPE  H13Y19818   6.581   5.036   9.368 -0.3805 -0.6987 -0.6216
  174SOPE  C31419819   6.545   5.234   9.297 -0.1336 -0.1733  0.6943
  174SOPE  H14X19820   6.642   5.275   9.334  0.6553 -1.2563 -0.1060
  174SOPE  H14Y19821   6.472   5.317   9.308  0.6652  0.6203  0.1830
  174SOPE  C31519822   6.579   5.198   9.150 -0.1088  0.1740 -0.1059
  174SOPE  H15X19823   6.480   5.177   9.104  0.5183 -0.2392 -1.3157
  174SOPE  H15Y19824   6.650   5.112   9.153 -1.6141 -1.0942  0.6295
  174SOPE  C31619825   6.637   5.320   9.082  0.0798  0.3810 -0.6992
  174SOPE  H16X19826   6.741   5.341   9.116  0.2988 -1.2316 -0.3308
  174SOPE  H16Y19827   6.582   5.409   9.122 -1.8268 -0.6330 -0.9650
  174SOPE  C31719828   6.637   5.320   8.927 -0.1998 -0.2086  0.0297
  174SOPE  H17X19829   6.545   5.268   8.895 -1.0780  0.7852  0.8736
  174SOPE  H17Y19830   6.728   5.256   8.920  0.0805 -0.0540  1.8916
  174SOPE  C31819831   6.654   5.463   8.873 -0.1501  0.7756 -0.4605
  174SOPE  H18X19832   6.552   5.502   8.850 -1.1016 -1.5039 -0.4398
  174SOPE  H18Y19833   6.705   5.457   8.775  2.3700  0.4799  0.8042
  174SOPE  H18Z19834   6.718   5.524   8.940  2.4450 -0.8458 -1.3230
  175SOPE     N19835   0.445   6.421  10.763 -0.4120  0.7864  0.4372
  175SOPE   HN119836   0.350   6.435  10.722 -0.6409  0.5041  0.8651
  175SOPE   HN219837   0.500   6.371  10.690  0.6200  0.0015  1.7137
  175SOPE   HN319838   0.443   6.356  10.844  0.9920  2.6456  2.0526
  175SOPE   C1219839   0.515   6.546  10.795  0.1697 -0.0543  0.0594
  175SOPE  H12A19840   0.621   6.528  10.824  1.0196  0.0210 -2.7031
  175SOPE  H12B19841   0.463   6.598  10.877  2.0244  3.1272 -0.5916
  175SOPE   C1119842   0.500   6.642  10.669  0.5003 -0.1085 -0.2688
  175SOPE  H11A19843   0.393   6.651  10.641  0.7008 -0.5844 -1.1969
  175SOPE  H11B19844   0.551   6.598  10.581 -0.5796  0.2666 -1.1103
  175SOPE     P19845   0.683   6.830  10.653 -0.0937  0.0680  0.2346
  175SOPE   O1319846   0.783   6.759  10.734 -0.2283 -0.5060 -0.2437
  175SOPE   O1419847   0.676   6.977  10.662 -0.4709 -0.2290  0.1395
  175SOPE   O1219848   0.542   6.775  10.705 -1.1527 -0.6534  0.2136
  175SOPE   O1119849   0.692   6.788  10.499 -0.2857 -0.3062 -0.4139
  175SOPE    C119850   0.634   6.879  10.402 -0.1355 -0.3629  0.0623
  175SOPE    HA19851   0.703   6.967  10.409  1.2904 -1.4769  0.6398
  175SOPE    HB19852   0.533   6.918  10.426 -0.0949 -0.1638 -0.0855
  175SOPE    C219853   0.628   6.831  10.250 -0.2462  0.0747 -0.7576
  175SOPE    HS19854   0.568   6.903  10.191 -0.3907 -1.0420 -2.0127
  175SOPE   O2119855   0.572   6.708  10.241  0.6833 -0.1458 -0.1741
  175SOPE   C2119856   0.445   6.700  10.282  0.1552 -0.2279 -0.0835
  175SOPE   O2219857   0.372   6.789  10.323  0.7255  0.0799  0.0308
  175SOPE   C2219858   0.404   6.555  10.253  0.0879  0.8194  0.4662
  175SOPE   H2R19859   0.364   6.520  10.351  0.8450  1.3400  0.9723
  175SOPE   H2S19860   0.498   6.498  10.239  0.3281  0.8094  1.9409
  175SOPE    C319861   0.770   6.836  10.186  0.0731  0.4694  0.1692
  175SOPE    HX19862   0.841   6.785  10.255 -0.8679 -0.4944  0.4540
  175SOPE    HY19863   0.802   6.943  10.192  0.1281  0.4064  5.8027
  175SOPE   O3119864   0.782   6.789  10.051 -0.4629  0.0688  0.2610
  175SOPE   C3119865   0.816   6.670  10.038 -0.0112  0.3711  0.9847
  175SOPE   O3219866   0.852   6.591  10.124 -1.0597  0.5012  0.1134
  175SOPE   C3219867   0.834   6.651   9.887  1.0648  0.0822 -0.2597
  175SOPE   H2X19868   0.895   6.558   9.880  1.5785  0.4274 -0.4980
  175SOPE   H2Y19869   0.892   6.736   9.846  1.2311 -0.3968 -1.0610
  175SOPE   C2319870   0.317   6.533  10.127 -0.0063  0.8152 -0.3027
  175SOPE   H3R19871   0.257   6.625  10.110  0.7887  1.5684  0.8257
  175SOPE   H3S19872   0.252   6.447  10.153  0.0091  0.8395 -0.1813
  175SOPE   C2419873   0.395   6.507   9.996  0.4819 -0.7005 -0.1768
  175SOPE   H4R19874   0.448   6.602   9.975  1.0520 -0.5774  1.6671
  175SOPE   H4S19875   0.462   6.421  10.017  1.2169  0.0278  0.5359
  175SOPE   C2519876   0.307   6.464   9.878  0.3277 -0.2446 -0.1989
  175SOPE   H5R19877   0.253   6.373   9.913  2.2323 -1.7039 -0.9193
  175SOPE   H5S19878   0.234   6.546   9.859  0.1613 -0.3775 -0.1429
  175SOPE   C2619879   0.381   6.410   9.755  0.6666  0.0275  0.1929
  175SOPE   H6R19880   0.425   6.496   9.701 -0.6315 -0.1319 -1.1664
  175SOPE   H6S19881   0.459   6.336   9.781  0.4904 -0.0733  0.4439
  175SOPE   C2719882   0.273   6.343   9.661 -0.3087 -0.1259  0.1660
  175SOPE   H7R19883   0.229   6.265   9.727 -0.1986 -0.0208  0.3675
  175SOPE   H7S19884   0.199   6.416   9.621  0.3829  1.0844  0.9996
  175SOPE   C2819885   0.334   6.279   9.545 -0.6790 -0.1791  0.0251
  175SOPE   H8R19886   0.422   6.226   9.587  1.6635  3.3357 -0.0936
  175SOPE   H8S19887   0.275   6.203   9.488  1.0118 -0.8854 -0.8390
  175SOPE   C2919888   0.391   6.375   9.445  0.4491 -0.0607  0.4878
  175SOPE   H9119889   0.455   6.456   9.482  1.7415 -0.7944 -0.0729
  175SOPE  C21019890   0.360   6.377   9.314  0.4055  0.3501 -0.3907
  175SOPE  H10119891   0.399   6.462   9.255 -0.4309  0.8639 -0.2172
  175SOPE  C21119892   0.256   6.290   9.243 -0.0946 -0.1727 -0.6027
  175SOPE  H11R19893   0.154   6.325   9.272  0.7917  1.2192  0.9629
  175SOPE  H11S19894   0.262   6.183   9.273  1.9939  0.1987  0.4770
  175SOPE  C21219895   0.269   6.303   9.091 -0.1739  0.1513 -0.2089
  175SOPE  H12R19896   0.321   6.398   9.063  2.0215 -0.0778  2.6696
  175SOPE  H12S19897   0.167   6.327   9.055 -0.0780  2.4685  0.8485
  175SOPE  C21319898   0.356   6.190   9.031 -0.2283  0.2830 -0.6565
  175SOPE  H13R19899   0.296   6.097   9.039 -1.0784  0.9553  1.3562
  175SOPE  H13S19900   0.444   6.186   9.098  0.1035  0.5844 -1.0636
  175SOPE  C21419901   0.401   6.222   8.889  1.0860  0.3133 -0.1071
  175SOPE  H14R19902   0.512   6.228   8.888  1.0475  1.5578  0.7145
  175SOPE  H14S19903   0.372   6.326   8.862  1.1775  0.1678 -0.7663
  175SOPE  C21519904   0.354   6.121   8.787  0.5083  0.4436 -0.2738
  175SOPE  H15R19905   0.244   6.104   8.798  0.7324  0.2687  2.5608
  175SOPE  H15S19906   0.400   6.026   8.819  0.2221  0.7909  1.2719
  175SOPE  C21619907   0.378   6.173   8.645  0.3557  0.2138 -0.3145
  175SOPE  H16R19908   0.357   6.099   8.565  0.1908 -1.7344  1.4515
  175SOPE  H16S19909   0.485   6.201   8.643  1.2623 -2.8374  0.2951
  175SOPE  C21719910   0.296   6.299   8.603  0.3101 -0.2856 -0.2833
  175SOPE  H17R19911   0.361   6.388   8.598 -0.0934 -0.0563 -4.0508
  175SOPE  H17S19912   0.232   6.300   8.694  0.9900 -1.3789  0.2390
  175SOPE  C21819913   0.210   6.279   8.483 -0.2771 -0.2127 -0.2503
  175SOPE  H18R19914   0.259   6.268   8.384 -2.4663 -0.6972 -1.3371
  175SOPE  H18S19915   0.134   6.359   8.478  0.7205  0.7513 -0.3091
  175SOPE  H18T19916   0.141   6.192   8.493  0.4846 -0.6242  1.9892
  175SOPE   C3319917   0.696   6.647   9.827 -0.2912 -0.1809 -0.2078
  175SOPE   H3X19918   0.633   6.732   9.858 -1.5843 -1.4338  0.7398
  175SOPE   H3Y19919   0.650   6.547   9.845 -0.1267 -0.6227 -2.0393
  175SOPE   C3419920   0.708   6.650   9.673  0.1748 -0.0770 -0.1876
  175SOPE   H4X19921   0.784   6.731   9.661 -0.3261  1.1023  3.4960
  175SOPE   H4Y19922   0.613   6.679   9.622 -0.6553 -0.9112  0.8447
  175SOPE   C3519923   0.765   6.521   9.610 -0.9827  0.6978  0.1116
  175SOPE   H5X19924   0.698   6.438   9.642  0.8483 -0.2421  1.7274
  175SOPE   H5Y19925   0.865   6.493   9.648 -0.7361 -1.3367 -1.8105
  175SOPE   C3619926   0.773   6.514   9.459 -1.0607 -0.4800 -0.3783
  175SOPE   H6X19927   0.673   6.541   9.418 -0.3667  0.6524 -1.3919
  175SOPE   H6Y19928   0.798   6.409   9.432 -4.0198 -1.9856  2.0950
  175SOPE   C3719929   0.874   6.619   9.403 -0.8579 -0.0262 -0.5096
  175SOPE   H7X19930   0.931   6.586   9.313 -1.3526 -2.5920  0.0240
  175SOPE   H7Y19931   0.946   6.638   9.485 -1.6828  0.6914  0.0588
  175SOPE   C3819932   0.810   6.756   9.352 -0.3698 -0.4280  0.2903
  175SOPE   H8X19933   0.890   6.832   9.364  0.3500 -0.8578 -1.4421
  175SOPE   H8Y19934   0.734   6.781   9.429 -0.7893  2.3497 -0.9142
  175SOPE   C3919935   0.740   6.758   9.216  0.0599 -0.0173  0.4531
  175SOPE   H9X19936   0.674   6.672   9.194 -0.0435  0.2575 -0.3539
  175SOPE   H9Y19937   0.818   6.773   9.138 -0.9151 -0.4610 -0.6359
  175SOPE  C31019938   0.649   6.881   9.208 -0.2171 -0.5310  0.3328
  175SOPE  H10X19939   0.711   6.970   9.230  0.8771 -1.4534  1.0794
  175SOPE  H10Y19940   0.571   6.900   9.285  0.6616  2.1238  0.6489
  175SOPE  C31119941   0.586   6.884   9.067  0.5058 -0.4276 -0.5527
  175SOPE  H11X19942   0.638   6.808   9.005  1.6818 -0.7461  0.7520
  175SOPE  H11Y19943   0.596   6.986   9.023 -0.0633  0.0028  0.2809
  175SOPE  C31219944   0.438   6.858   9.064 -0.2311  0.7461 -0.2371
  175SOPE  H12X19945   0.420   6.878   8.956 -0.1138 -2.0603 -0.8674
  175SOPE  H12Y19946   0.382   6.932   9.125  0.5752  1.9930 -0.9781
  175SOPE  C31319947   0.391   6.717   9.101 -0.4332  0.7372 -0.3340
  175SOPE  H13X19948   0.408   6.707   9.211  0.3580 -0.1072 -0.5225
  175SOPE  H13Y19949   0.456   6.644   9.048 -1.0879 -0.0631 -0.0408
  175SOPE  C31419950   0.250   6.676   9.055 -0.7104  0.1132 -0.0985
  175SOPE  H14X19951   0.221   6.578   9.098 -0.0821  0.0352  0.1718
  175SOPE  H14Y19952   0.253   6.670   8.944 -0.5004 -1.6732 -0.0289
  175SOPE  C31519953   0.135   6.773   9.086  0.1126 -0.3215  0.6854
  175SOPE  H15X19954   0.034   6.730   9.068 -1.1177  2.6545 -0.0873
  175SOPE  H15Y19955   0.147   6.856   9.013  0.5190 -0.6934  0.3200
  175SOPE  C31619956   0.135   6.823   9.227  0.6857 -0.0948  0.1526
  175SOPE  H16X19957   0.037   6.875   9.236  0.2497 -0.6276 -1.1745
  175SOPE  H16Y19958   0.214   6.898   9.245  0.4714  0.2850 -0.4596
  175SOPE  C31719959   0.130   6.717   9.333 -0.4743  0.4927  0.0248
  175SOPE  H17X19960   0.123   6.765   9.433 -2.3063  0.9544 -0.3026
  175SOPE  H17Y19961   0.220   6.652   9.339 -0.6548  0.3513  1.3858
  175SOPE  C31819962   0.010   6.623   9.323  0.4380  0.1878 -0.1383
  175SOPE  H18X19963   0.022   6.538   9.392  1.5323  0.6297  0.2387
  175SOPE  H18Y19964   0.017   6.589   9.217  0.0439  0.9096 -0.4057
  175SOPE  H18Z19965  -0.090   6.669   9.336  1.1005  1.0731  2.3890
  176SOPE     N19966   1.709   5.647  10.697 -0.0835  0.1491 -0.5216
  176SOPE   HN119967   1.776   5.692  10.763 -1.7489  1.7337  0.2159
  176SOPE   HN219968   1.625   5.619  10.753  1.0827 -1.4613  0.4935
  176SOPE   HN319969   1.760   5.569  10.652  0.5260  0.3047 -0.1106
  176SOPE   C1219970   1.652   5.742  10.595 -0.8157  0.3116  0.4332
  176SOPE  H12A19971   1.580   5.688  10.530  1.5883 -1.1542 -1.1154
  176SOPE  H12B19972   1.732   5.786  10.532 -1.3782  1.0332  0.2016
  176SOPE   C1119973   1.575   5.854  10.669  0.7659  0.2853  0.0916
  176SOPE  H11A19974   1.484   5.817  10.720  0.6041 -0.6081 -0.8032
  176SOPE  H11B19975   1.539   5.925  10.592 -0.0761 -0.5827 -0.3447
  176SOPE     P19976   1.652   6.081  10.789 -0.1207 -0.2877  0.1523
  176SOPE   O1319977   1.765   6.110  10.876  0.3237 -0.3284  0.6216
  176SOPE   O1419978   1.512   6.102  10.845  0.3667  0.8027 -0.3170
  176SOPE   O1219979   1.657   5.925  10.761 -0.0704  0.2719  0.4806
  176SOPE   O1119980   1.665   6.164  10.654 -0.1914 -0.5440  0.0969
  176SOPE    C119981   1.768   6.138  10.561  0.4613 -0.2491 -0.2602
  176SOPE    HA19982   1.799   6.031  10.565 -3.4150 -1.5659 -1.0795
  176SOPE    HB19983   1.855   6.200  10.590 -0.5266  1.0258  0.0525
  176SOPE    C219984   1.724   6.190  10.420  0.4221  0.3267  0.4786
  176SOPE    HS19985   1.683   6.293  10.431 -0.3163  0.5685 -3.3131
  176SOPE   O2119986   1.634   6.089  10.371 -0.1309 -0.2391 -0.7690
  176SOPE   C2119987   1.512   6.129  10.343  0.2721  0.1663 -0.0969
  176SOPE   O2219988   1.484   6.245  10.344 -0.3307 -0.6728  0.1058
  176SOPE   C2219989   1.412   6.011  10.321 -0.2480  0.5326 -0.3563
  176SOPE   H2R19990   1.316   6.061  10.296  0.4091  1.8581 -0.3198
  176SOPE   H2S19991   1.402   5.951  10.414  0.2436 -0.6402 -1.0288
  176SOPE    C319992   1.841   6.205  10.326  0.3317 -0.2073  0.0538
  176SOPE    HX19993   1.921   6.128  10.337 -0.9274 -1.2559  2.5446
  176SOPE    HY19994   1.895   6.298  10.357 -1.1302  1.2544 -1.5527
  176SOPE   O3119995   1.801   6.200  10.186  0.1185 -0.4325 -0.4701
  176SOPE   C3119996   1.765   6.321  10.138  0.2303  0.0347 -0.5630
  176SOPE   O3219997   1.770   6.424  10.205  0.5952  0.2979 -0.3390
  176SOPE   C3219998   1.716   6.320  10.002 -0.3015 -0.0860 -0.1342
  176SOPE   H2X19999   1.759   6.414   9.960  0.3552 -0.0383  0.6214
  176SOPE   H2Y20000   1.607   6.332   9.983  0.1198 -0.0203 -3.0236
  176SOPE   C2320001   1.442   5.906  10.212  0.0203 -0.1389 -0.2396
  176SOPE   H3R20002   1.360   5.832  10.222 -1.4885  1.7642  2.8653
  176SOPE   H3S20003   1.539   5.859  10.243 -0.2359 -1.0652 -0.7993
  176SOPE   C2420004   1.448   5.949  10.063  0.5333  0.3237 -0.8632
  176SOPE   H4R20005   1.365   6.021  10.043 -1.4472 -1.6112 -0.0516
  176SOPE   H4S20006   1.542   6.008  10.057  0.8215 -0.2863 -2.7713
  176SOPE   C2520007   1.458   5.831   9.971 -1.2508 -0.1549  0.4288
  176SOPE   H5R20008   1.558   5.785   9.989 -1.9018 -2.0434 -0.4644
  176SOPE   H5S20009   1.386   5.749   9.989 -0.5098 -0.8861  0.1576
  176SOPE   C2620010   1.452   5.887   9.823  0.4570  0.0034 -0.6955
  176SOPE   H6R20011   1.364   5.949   9.802  0.9305  1.5669  1.5170
  176SOPE   H6S20012   1.540   5.955   9.818  0.5226 -0.1442 -1.6969
  176SOPE   C2720013   1.461   5.773   9.723 -0.4976  0.0039 -0.1437
  176SOPE   H7R20014   1.543   5.702   9.746 -0.1484  0.1931 -0.7915
  176SOPE   H7S20015   1.368   5.715   9.744 -0.8109 -0.1615 -1.8772
  176SOPE   C2820016   1.484   5.828   9.577  0.8413  0.5605 -0.4349
  176SOPE   H8R20017   1.414   5.914   9.574 -1.2276 -0.9798  1.0160
  176SOPE   H8S20018   1.588   5.864   9.559  1.4629 -1.6327 -1.5489
  176SOPE   C2920019   1.459   5.720   9.479  0.3708  0.3128 -0.2587
  176SOPE   H9120020   1.527   5.633   9.490 -0.7289 -0.6813 -1.0590
  176SOPE  C21020021   1.362   5.707   9.388  0.0272  0.5822 -1.0638
  176SOPE  H10120022   1.350   5.610   9.338  0.1438 -0.1676  0.2954
  176SOPE  C21120023   1.254   5.798   9.348  0.4472 -0.0773 -0.2346
  176SOPE  H11R20024   1.235   5.887   9.412 -0.6546  0.7265 -1.6117
  176SOPE  H11S20025   1.154   5.750   9.349 -1.8735  4.1733  1.2758
  176SOPE  C21220026   1.279   5.855   9.207  0.7952 -0.7561  0.4229
  176SOPE  H12R20027   1.341   5.780   9.152 -0.0310 -2.6347  1.9682
  176SOPE  H12S20028   1.344   5.943   9.229 -0.5906 -0.1631  2.3516
  176SOPE  C21320029   1.149   5.885   9.136  0.1664  1.0531  0.0389
  176SOPE  H13R20030   1.180   5.934   9.041  1.7298  1.2953  0.6460
  176SOPE  H13S20031   1.089   5.960   9.191  1.5114  1.1085  1.4741
  176SOPE  C21420032   1.066   5.761   9.100 -0.9749 -0.0126 -0.5829
  176SOPE  H14R20033   0.983   5.745   9.172 -0.4705  1.9813  0.5284
  176SOPE  H14S20034   1.126   5.669   9.118 -2.6239 -1.1729 -0.8503
  176SOPE  C21520035   1.013   5.765   8.957 -0.5640 -0.2606 -0.9177
  176SOPE  H15R20036   0.974   5.662   8.943 -1.2001 -0.2126  0.3702
  176SOPE  H15S20037   1.096   5.785   8.885 -0.1394 -0.4203 -0.4786
  176SOPE  C21620038   0.891   5.860   8.922 -0.3998 -0.9006 -0.2606
  176SOPE  H16R20039   0.887   5.927   9.011 -0.2780 -1.7199  0.3693
  176SOPE  H16S20040   0.796   5.803   8.916  0.3536 -2.4868  1.5836
  176SOPE  C21720041   0.906   5.954   8.797 -0.3248 -0.2809  0.3239
  176SOPE  H17R20042   0.830   6.033   8.814 -0.7985 -0.7747  0.5512
  176SOPE  H17S20043   0.888   5.886   8.710 -0.1596 -0.2921  0.2999
  176SOPE  C21820044   1.034   6.040   8.782 -0.3739 -0.4637  0.8099
  176SOPE  H18R20045   0.996   6.121   8.715 -0.4139 -0.6891  0.5596
  176SOPE  H18S20046   1.105   5.979   8.723 -0.6358 -1.9911  2.0122
  176SOPE  H18T20047   1.079   6.089   8.871 -0.0527  1.0160 -0.1346
  176SOPE   C3320048   1.796   6.230   9.907  0.3353 -0.5394  0.0348
  176SOPE   H3X20049   1.764   6.126   9.929 -0.0057 -0.1730  1.3826
  176SOPE   H3Y20050   1.905   6.240   9.926  0.0024  0.7679  1.5043
  176SOPE   C3420051   1.779   6.276   9.758  0.5626 -0.1697  0.0191
  176SOPE   H4X20052   1.853   6.218   9.700  0.9575  0.4503 -0.1110
  176SOPE   H4Y20053   1.825   6.376   9.741  0.1297 -0.3266 -2.5740
  176SOPE   C3520054   1.632   6.279   9.709  0.7572 -0.8801  0.2026
  176SOPE   H5X20055   1.562   6.342   9.768  1.1370 -0.4275  0.1755
  176SOPE   H5Y20056   1.582   6.180   9.710 -0.0200 -0.4987  0.0227
  176SOPE   C3620057   1.625   6.328   9.558  0.5015  0.0842  0.6705
  176SOPE   H6X20058   1.632   6.438   9.545 -1.0080  0.2730  1.2708
  176SOPE   H6Y20059   1.529   6.290   9.518  1.1477 -2.7467  1.5916
  176SOPE   C3720060   1.735   6.271   9.472  0.3950 -0.5237 -0.0320
  176SOPE   H7X20061   1.712   6.163   9.487 -2.9632 -0.5293 -3.5772
  176SOPE   H7Y20062   1.833   6.305   9.511 -0.3465 -1.6702  3.1061
  176SOPE   C3820063   1.730   6.298   9.317 -0.9078  0.2880  0.8475
  176SOPE   H8X20064   1.741   6.407   9.297  1.1583 -0.4110 -2.5930
  176SOPE   H8Y20065   1.626   6.265   9.296 -0.8578 -0.5617  1.8116
  176SOPE   C3920066   1.826   6.208   9.239 -0.0253 -0.2271  0.0485
  176SOPE   H9X20067   1.917   6.223   9.302 -0.8820  0.1464  1.2347
  176SOPE   H9Y20068   1.839   6.233   9.132  0.1454  0.5003  0.2246
  176SOPE  C31020069   1.790   6.063   9.246  0.6200  0.1171 -0.6302
  176SOPE  H10X20070   1.762   6.018   9.344 -1.2136 -0.5146 -1.3904
  176SOPE  H10Y20071   1.878   6.002   9.218  0.7682  0.2793 -0.5179
  176SOPE  C31120072   1.672   6.034   9.155  0.1604 -0.0043  0.4405
  176SOPE  H11X20073   1.646   6.128   9.101 -0.1349 -0.8119 -0.8891
  176SOPE  H11Y20074   1.587   6.001   9.218 -3.2594  3.8646 -1.5677
  176SOPE  C31220075   1.709   5.924   9.051  0.1280  0.5710 -0.4909
  176SOPE  H12X20076   1.617   5.875   9.013 -1.3523  1.1710  2.0559
  176SOPE  H12Y20077   1.758   5.838   9.102 -1.8918 -1.3656 -1.6442
  176SOPE  C31320078   1.786   5.978   8.931  0.5047  0.4819  0.1150
  176SOPE  H13X20079   1.805   5.886   8.872 -0.3837  0.7221 -0.5785
  176SOPE  H13Y20080   1.882   6.027   8.957  0.6440 -0.0385  0.5887
  176SOPE  C31420081   1.714   6.075   8.839  0.0205  0.0788  0.1928
  176SOPE  H14X20082   1.781   6.100   8.754  0.9952  1.0358  1.2179
  176SOPE  H14Y20083   1.687   6.164   8.898  1.1112 -0.5784  1.7390
  176SOPE  C31520084   1.584   6.024   8.771 -0.5342 -0.5168  0.2265
  176SOPE  H15X20085   1.515   5.990   8.851 -0.9012  0.2218  0.2265
  176SOPE  H15Y20086   1.611   5.937   8.707  0.4874 -0.3698  0.4365
  176SOPE  C31620087   1.529   6.150   8.689 -0.3092 -0.2652  0.2227
  176SOPE  H16X20088   1.585   6.171   8.596 -1.0479  0.2037 -0.1198
  176SOPE  H16Y20089   1.527   6.246   8.745 -0.1765  0.3527 -0.8128
  176SOPE  C31720090   1.383   6.118   8.657 -0.8214  0.0821  0.0556
  176SOPE  H17X20091   1.329   6.103   8.753 -0.5862  0.6434  0.2781
  176SOPE  H17Y20092   1.385   6.021   8.604 -0.0531 -0.3228  0.8028
  176SOPE  C31820093   1.320   6.227   8.572 -0.5627 -0.5870 -0.3852
  176SOPE  H18X20094   1.398   6.250   8.496  1.4730 -1.8277  1.2253
  176SOPE  H18Y20095   1.289   6.320   8.623  1.2399 -0.2777  0.2145
  176SOPE  H18Z20096   1.231   6.177   8.528 -0.4564 -0.2618 -0.9766
  177SOPE     N20097   1.077   3.217  10.909  0.0074  0.3664  0.6683
  177SOPE   HN120098   1.149   3.143  10.897 -1.3214 -0.8899  0.1029
  177SOPE   HN220099   0.989   3.181  10.867  0.7574 -0.4426 -0.2542
  177SOPE   HN320100   1.106   3.298  10.851  0.6634  1.0351  1.8983
  177SOPE   C1220101   1.059   3.245  11.049  0.9015 -0.2993 -0.5622
  177SOPE  H12A20102   1.162   3.249  11.091  1.3641 -1.8790 -1.4747
  177SOPE  H12B20103   1.001   3.167  11.102  1.0221  0.2451  0.3889
  177SOPE   C1120104   0.989   3.381  11.068 -0.3674  0.2713 -0.1039
  177SOPE  H11A20105   1.030   3.462  11.003 -1.5990 -0.6362 -2.1152
  177SOPE  H11B20106   0.993   3.418  11.173 -0.7852  1.0458 -0.3517
  177SOPE     P20107   0.763   3.493  10.994 -0.2328  0.2284  0.1157
  177SOPE   O1320108   0.825   3.624  11.026 -0.8806  0.0248  0.2429
  177SOPE   O1420109   0.619   3.464  11.036 -0.3139 -0.5886 -0.1396
  177SOPE   O1220110   0.850   3.364  11.035 -0.1125 -0.0824 -0.3709
  177SOPE   O1120111   0.773   3.482  10.831  0.3960  0.3298 -0.3657
  177SOPE    C120112   0.676   3.551  10.755 -0.7431  0.1280 -0.2873
  177SOPE    HA20113   0.732   3.628  10.696 -0.5879 -0.1285 -0.4747
  177SOPE    HB20114   0.602   3.605  10.819 -0.2667  0.7504 -0.2493
  177SOPE    C220115   0.616   3.449  10.654  0.3709 -0.2913  0.9220
  177SOPE    HS20116   0.699   3.408  10.592 -1.8563 -0.7273 -2.0252
  177SOPE   O2120117   0.512   3.511  10.571 -0.5455  0.2521 -0.3599
  177SOPE   C2120118   0.560   3.598  10.483  0.3274 -0.4083 -0.7346
  177SOPE   O2220119   0.676   3.622  10.464 -0.1768  0.3576 -0.2340
  177SOPE   C2220120   0.440   3.661  10.414  0.0439  0.4075 -0.3261
  177SOPE   H2R20121   0.473   3.760  10.377  1.9833 -1.0400 -2.7938
  177SOPE   H2S20122   0.365   3.679  10.494  1.1361  1.8680  0.4453
  177SOPE    C320123   0.550   3.329  10.727 -0.1997  0.1601  0.2992
  177SOPE    HX20124   0.498   3.365  10.818  0.1566 -0.3543  0.7167
  177SOPE    HY20125   0.639   3.274  10.763 -1.0137 -0.4216  1.4963
  177SOPE   O3120126   0.478   3.245  10.638 -0.4125  0.2041  0.5070
  177SOPE   C3120127   0.354   3.268  10.625 -0.1482 -0.1405 -0.1186
  177SOPE   O3220128   0.295   3.355  10.686  0.2152  0.1601  0.2667
  177SOPE   C3220129   0.293   3.193  10.506  0.5548  0.1135  0.5324
  177SOPE   H2X20130   0.269   3.092  10.546 -0.7809  1.2122  2.7191
  177SOPE   H2Y20131   0.371   3.180  10.428  0.5023 -2.0291  0.7615
  177SOPE   C2320132   0.385   3.604  10.283 -0.4155 -0.2136  0.5292
  177SOPE   H3R20133   0.396   3.497  10.256 -0.1633  0.2803 -1.5130
  177SOPE   H3S20134   0.442   3.655  10.202 -0.3517  0.4303  0.9744
  177SOPE   C2420135   0.237   3.645  10.249 -0.0611  0.3380 -0.4708
  177SOPE   H4R20136   0.178   3.603  10.334  0.1187  1.2594  0.1220
  177SOPE   H4S20137   0.217   3.751  10.273 -1.0098 -0.3772  2.3302
  177SOPE   C2520138   0.198   3.592  10.111  0.0746 -0.0460 -0.5473
  177SOPE   H5R20139   0.239   3.490  10.092  0.6720 -0.0825  0.7808
  177SOPE   H5S20140   0.088   3.585  10.105 -0.0421  1.1778 -0.0204
  177SOPE   C2620141   0.250   3.679   9.994  0.0726  0.1073 -0.1966
  177SOPE   H6R20142   0.229   3.784  10.026  3.3946  0.9866 -0.5826
  177SOPE   H6S20143   0.360   3.680  10.008  0.0181  0.8012  0.2403
  177SOPE   C2720144   0.198   3.641   9.860  0.0188  0.0286  0.0302
  177SOPE   H7R20145   0.234   3.537   9.845  0.9390  0.5652 -1.7835
  177SOPE   H7S20146   0.087   3.636   9.861 -0.0238  0.9486  0.3951
  177SOPE   C2820147   0.260   3.718   9.745  0.6958 -0.1427 -0.1232
  177SOPE   H8R20148   0.370   3.724   9.760  0.8760 -1.7628 -0.6199
  177SOPE   H8S20149   0.240   3.665   9.650  1.0831  0.2198 -0.4120
  177SOPE   C2920150   0.183   3.848   9.741 -0.0201 -0.2944  0.2034
  177SOPE   H9120151   0.148   3.891   9.837 -2.5036 -1.7970  0.0683
  177SOPE  C21020152   0.156   3.936   9.645  0.5422  0.4672  0.9770
  177SOPE  H10120153   0.089   4.022   9.659 -0.1729 -0.0456  0.7407
  177SOPE  C21120154   0.203   3.913   9.506 -0.5532  0.7088  0.2782
  177SOPE  H11R20155   0.267   3.824   9.489 -0.3085  0.6980  1.1961
  177SOPE  H11S20156   0.280   3.990   9.485 -0.6476  0.9329  0.7328
  177SOPE  C21220157   0.101   3.897   9.390  0.0073  0.1671 -0.6951
  177SOPE  H12R20158   0.047   3.994   9.385 -1.1991 -0.4815 -0.5728
  177SOPE  H12S20159   0.027   3.820   9.422 -1.6209  0.7703 -2.7402
  177SOPE  C21320160   0.160   3.864   9.253  0.3818 -0.5081  0.0955
  177SOPE  H13R20161   0.254   3.807   9.269  1.3274  0.2059 -2.4182
  177SOPE  H13S20162   0.205   3.955   9.210  0.5017 -0.6835 -0.1546
  177SOPE  C21420163   0.070   3.805   9.142  0.0561  0.3534 -0.4917
  177SOPE  H14R20164  -0.019   3.870   9.124  0.3071  1.3757  1.6489
  177SOPE  H14S20165   0.017   3.711   9.167  0.1462  0.0174 -1.5147
  177SOPE  C21520166   0.141   3.785   9.010 -0.1460 -0.0016 -0.0294
  177SOPE  H15R20167   0.225   3.714   9.025 -0.9098 -0.9734 -0.1721
  177SOPE  H15S20168   0.172   3.884   8.972 -0.1833 -0.1028 -0.3281
  177SOPE  C21620169   0.047   3.731   8.909  0.6762  0.0028 -0.0736
  177SOPE  H16R20170  -0.036   3.804   8.918  1.3692  0.7271  0.5030
  177SOPE  H16S20171  -0.010   3.645   8.951 -0.5981  0.9154  0.1132
  177SOPE  C21720172   0.091   3.704   8.768  0.2266 -0.6012 -0.6601
  177SOPE  H17R20173   0.183   3.643   8.763 -0.9620 -2.5306 -0.2352
  177SOPE  H17S20174   0.118   3.804   8.729  0.7885  0.9639  3.3227
  177SOPE  C21820175  -0.020   3.634   8.692  0.2950  0.0971  0.7390
  177SOPE  H18R20176   0.025   3.574   8.610 -0.7958 -2.7729  2.1107
  177SOPE  H18S20177  -0.102   3.701   8.658  1.0413 -0.0147 -1.4432
  177SOPE  H18T20178  -0.068   3.556   8.754  1.4272 -1.7133 -0.5536
  177SOPE   C3320179   0.179   3.265  10.435 -0.6260 -0.7331 -0.5951
  177SOPE   H3X20180   0.189   3.375  10.442 -0.0307 -0.8701  0.9935
  177SOPE   H3Y20181   0.082   3.242  10.484 -1.8539  1.6845 -1.7348
  177SOPE   C3420182   0.166   3.214  10.281  1.0107 -0.2751 -0.7779
  177SOPE   H4X20183   0.166   3.103  10.290  0.2572 -0.1996  0.4459
  177SOPE   H4Y20184   0.258   3.237  10.222  0.4091  0.6626 -1.3775
  177SOPE   C3520185   0.053   3.280  10.199 -0.1752 -0.5161  0.0080
  177SOPE   H5X20186   0.068   3.385  10.234  0.9657  0.4500 -3.0404
  177SOPE   H5Y20187  -0.055   3.258  10.213 -0.6920  1.2103 -0.9393
  177SOPE   C3620188   0.072   3.272  10.045 -0.3064  0.4046 -0.5213
  177SOPE   H6X20189   0.171   3.313  10.014  0.6130 -2.0678 -1.0371
  177SOPE   H6Y20190  -0.013   3.322   9.994 -0.7108  0.8057  0.5229
  177SOPE   C3720191   0.089   3.128   9.991  0.8481  0.1518  0.0351
  177SOPE   H7X20192  -0.005   3.071  10.006  1.4796 -0.6208  1.2444
  177SOPE   H7Y20193   0.162   3.075  10.055 -0.3987 -0.6290  0.8581
  177SOPE   C3820194   0.131   3.122   9.840 -1.2665 -0.3213 -0.1715
  177SOPE   H8X20195   0.099   3.017   9.824 -1.7071 -0.2092 -0.0335
  177SOPE   H8Y20196   0.241   3.138   9.833 -1.0381 -2.0008 -0.8163
  177SOPE   C3920197   0.064   3.210   9.736 -0.0796  0.3833 -0.0648
  177SOPE   H9X20198   0.096   3.315   9.751  0.7970 -0.2622  3.4425
  177SOPE   H9Y20199  -0.045   3.208   9.757 -0.0053  0.9106  0.3733
  177SOPE  C31020200   0.084   3.157   9.591  0.1186 -0.0312 -0.3437
  177SOPE  H10X20201   0.038   3.056   9.585 -2.9580  1.2359 -0.1156
  177SOPE  H10Y20202   0.193   3.165   9.572  1.1323 -1.4726  3.8544
  177SOPE  C31120203   0.001   3.245   9.496  0.2904 -0.9315 -0.1821
  177SOPE  H11X20204   0.023   3.353   9.511 -0.9029 -0.7517  0.4251
  177SOPE  H11Y20205  -0.100   3.241   9.543  0.2534 -0.0939 -0.1742
  177SOPE  C31220206  -0.007   3.197   9.353 -0.1143 -0.6800 -0.2090
  177SOPE  H12X20207  -0.009   3.086   9.350  0.0534 -0.7193  0.6803
  177SOPE  H12Y20208   0.093   3.223   9.314  0.5102  0.7531  2.1300
  177SOPE  C31320209  -0.119   3.255   9.279 -0.1664  0.2019 -0.9901
  177SOPE  H13X20210  -0.150   3.357   9.310  0.3656 -0.1101  0.6810
  177SOPE  H13Y20211  -0.202   3.190   9.313  1.9012 -1.3750  1.4606
  177SOPE  C31420212  -0.097   3.264   9.131  0.3121  0.4255  0.9907
  177SOPE  H14X20213  -0.070   3.165   9.090  1.5289  1.7395 -1.6289
  177SOPE  H14Y20214  -0.016   3.331   9.096  0.1965 -0.1327 -0.4269
  177SOPE  C31520215  -0.224   3.312   9.066 -0.3470  0.5557  0.3563
  177SOPE  H15X20216  -0.262   3.407   9.109 -2.2663 -0.6241  1.3896
  177SOPE  H15Y20217  -0.305   3.241   9.092 -2.2075  1.6298 -2.0901
  177SOPE  C31620218  -0.205   3.311   8.912  0.6803 -0.4545  1.1517
  177SOPE  H16X20219  -0.185   3.207   8.878  1.8388  0.2488 -0.4403
  177SOPE  H16Y20220  -0.115   3.369   8.883  1.8708 -2.6587  0.1978
  177SOPE  C31720221  -0.331   3.359   8.834  0.3470 -0.1215  0.4204
  177SOPE  H17X20222  -0.411   3.290   8.867  0.1636  0.3425  0.9552
  177SOPE  H17Y20223  -0.324   3.360   8.723 -0.7157  1.1879  0.3374
  177SOPE  C31820224  -0.379   3.498   8.868 -0.3310 -0.1786  0.2629
  177SOPE  H18X20225  -0.475   3.525   8.820  0.1617  1.3241  0.0600
  177SOPE  H18Y20226  -0.306   3.575   8.834  0.4844 -1.8551 -1.9888
  177SOPE  H18Z20227  -0.387   3.509   8.978  2.2695 -1.5220  0.6535
  178SOPE     N20228   2.907   2.277  10.886  0.1315 -0.6939 -0.0783
  178SOPE   HN120229   2.998   2.240  10.920 -0.0578  0.3259  1.6461
  178SOPE   HN220230   2.833   2.215  10.926 -0.4057  1.5576  2.7424
  178SOPE   HN320231   2.907   2.269  10.782  0.9089 -1.8145 -0.0146
  178SOPE   C1220232   2.900   2.417  10.936 -0.4486  0.4071 -0.1169
  178SOPE  H12A20233   2.930   2.417  11.043  1.5995 -1.1632 -0.6278
  178SOPE  H12B20234   2.793   2.443  10.923 -0.7883 -0.6517  0.4443
  178SOPE   C1120235   2.995   2.512  10.858 -0.3484 -0.5463 -0.0287
  178SOPE  H11A20236   2.982   2.505  10.748  1.2487 -0.9618 -0.2153
  178SOPE  H11B20237   3.100   2.481  10.874  0.2000  1.3800  0.2650
  178SOPE     P20238   2.901   2.760  10.836 -0.0573  0.2389 -0.0862
  178SOPE   O1320239   2.961   2.893  10.863  0.5637  0.0301  0.5528
  178SOPE   O1420240   2.758   2.743  10.867  0.3998  0.4013 -0.5161
  178SOPE   O1220241   2.978   2.648  10.911 -0.9151  0.2512 -0.0517
  178SOPE   O1120242   2.925   2.717  10.687  0.3309 -0.4346  0.1891
  178SOPE    C120243   3.052   2.767  10.629  0.0944  0.4512 -0.1613
  178SOPE    HA20244   3.080   2.688  10.557  0.7306 -0.1171  0.6915
  178SOPE    HB20245   3.131   2.769  10.707 -0.7337  2.1002  0.6909
  178SOPE    C220246   3.024   2.900  10.551 -0.9687 -0.2689 -0.5553
  178SOPE    HS20247   2.960   2.972  10.605 -0.1314  1.0871 -1.2897
  178SOPE   O2120248   2.962   2.863  10.423 -0.6467  0.6705  0.1364
  178SOPE   C2120249   2.863   2.940  10.383  0.4130 -0.2302  0.1058
  178SOPE   O2220250   2.828   3.038  10.453  0.2073 -0.4562 -0.0047
  178SOPE   C2220251   2.805   2.891  10.255 -0.3274 -0.4591 -0.3829
  178SOPE   H2R20252   2.698   2.920  10.252 -0.8043 -1.9556  0.8012
  178SOPE   H2S20253   2.805   2.780  10.259 -1.2782 -0.4390  1.9029
  178SOPE    C320254   3.154   2.977  10.506 -0.5476 -0.8137 -0.3081
  178SOPE    HX20255   3.208   2.909  10.438  2.9916  0.3701  1.0906
  178SOPE    HY20256   3.217   3.009  10.592 -3.0499 -0.6170  1.5485
  178SOPE   O3120257   3.116   3.094  10.437  0.4382 -0.1150  0.1499
  178SOPE   C3120258   3.078   3.200  10.507  0.2699  0.1639 -0.7021
  178SOPE   O3220259   3.084   3.208  10.628 -0.2571 -0.1241  0.5321
  178SOPE   C3220260   3.039   3.307  10.413  0.5432 -0.2740 -0.4415
  178SOPE   H2X20261   2.928   3.309  10.410  0.4852  0.2398  1.0750
  178SOPE   H2Y20262   3.073   3.294  10.308  1.2687  2.1920 -0.5683
  178SOPE   C2320263   2.872   2.948  10.127 -0.4040 -0.0034  0.0025
  178SOPE   H3R20264   2.822   3.047  10.114 -2.3504 -0.8612  0.5761
  178SOPE   H3S20265   2.837   2.891  10.039 -0.8863  2.7577 -1.7141
  178SOPE   C2420266   3.023   2.945  10.130 -0.4448 -0.1368 -0.4528
  178SOPE   H4R20267   3.064   3.009  10.211 -1.4793 -1.6659  1.3592
  178SOPE   H4S20268   3.043   2.840  10.158 -2.4761 -0.2301  0.8379
  178SOPE   C2520269   3.106   2.986  10.001  1.2034 -0.2439  0.0915
  178SOPE   H5R20270   3.140   3.091  10.017 -1.7066  1.1673 -1.9676
  178SOPE   H5S20271   3.193   2.917  10.004  1.6031  0.3074  1.5713
  178SOPE   C2620272   3.038   2.968   9.864  1.0085 -0.3109 -0.5783
  178SOPE   H6R20273   2.985   2.871   9.852 -1.1774  0.6560  0.5432
  178SOPE   H6S20274   2.953   3.038   9.851  0.5319 -0.8773 -0.5527
  178SOPE   C2720275   3.123   2.984   9.739  0.2195  0.2762 -0.2662
  178SOPE   H7R20276   3.202   3.059   9.762  0.4098 -0.1665  0.5675
  178SOPE   H7S20277   3.173   2.888   9.716  1.1028  0.4354  0.8630
  178SOPE   C2820278   3.034   3.034   9.629 -0.7218  0.6589  0.0402
  178SOPE   H8R20279   2.979   2.942   9.599  1.8763 -0.5635 -1.2782
  178SOPE   H8S20280   2.968   3.113   9.671  0.6876  1.8446  0.1169
  178SOPE   C2920281   3.102   3.088   9.503 -0.1872  0.1172  0.0002
  178SOPE   H9120282   3.158   3.182   9.518 -0.4465  0.2099  0.4094
  178SOPE  C21020283   3.109   3.050   9.375  0.7626  0.6262  0.1289
  178SOPE  H10120284   3.168   3.103   9.300  0.4832  0.8491  0.0642
  178SOPE  C21120285   3.040   2.928   9.326  0.2480 -0.1519  1.1245
  178SOPE  H11R20286   2.941   2.919   9.376 -0.8514  1.1293 -0.7223
  178SOPE  H11S20287   3.113   2.846   9.344  2.3896  1.7879  1.7483
  178SOPE  C21220288   3.013   2.948   9.171 -0.2292  0.3046 -0.9401
  178SOPE  H12R20289   3.105   2.973   9.115 -1.1140 -2.0712 -3.7771
  178SOPE  H12S20290   2.939   3.030   9.157  0.5294  1.2330  0.3210
  178SOPE  C21320291   2.958   2.827   9.094  0.3896  0.3434 -0.0454
  178SOPE  H13R20292   2.864   2.795   9.145 -2.7554  1.6296 -4.3829
  178SOPE  H13S20293   3.027   2.741   9.101 -0.5647 -0.4783 -0.4531
  178SOPE  C21420294   2.927   2.869   8.951  0.4472 -0.1700 -0.2292
  178SOPE  H14R20295   3.011   2.904   8.887  0.3046 -0.5162 -0.6077
  178SOPE  H14S20296   2.857   2.955   8.955 -0.0867 -0.5484 -1.2357
  178SOPE  C21520297   2.862   2.750   8.876  0.2438 -0.2353  0.8550
  178SOPE  H15R20298   2.773   2.715   8.932 -3.0660  1.6155 -2.7492
  178SOPE  H15S20299   2.943   2.675   8.864  0.8675  0.6419 -0.8500
  178SOPE  C21620300   2.830   2.784   8.728  0.6461 -0.4270  0.1929
  178SOPE  H16R20301   2.781   2.693   8.688 -0.4103 -0.1083  0.7087
  178SOPE  H16S20302   2.927   2.800   8.676  1.6747 -1.4663  1.7138
  178SOPE  C21720303   2.741   2.909   8.715  0.1927  0.1703  0.0421
  178SOPE  H17R20304   2.787   2.996   8.766  1.3869 -0.5965  0.2992
  178SOPE  H17S20305   2.643   2.895   8.766 -1.0974  1.6764 -1.8648
  178SOPE  C21820306   2.702   2.950   8.574 -0.1178 -0.2922 -0.0152
  178SOPE  H18R20307   2.611   3.012   8.562 -0.0545 -0.2069 -0.0579
  178SOPE  H18S20308   2.670   2.860   8.517  0.3963 -1.4114  1.3773
  178SOPE  H18T20309   2.785   2.994   8.516 -0.4955  0.0968 -0.2611
  178SOPE   C3320310   3.094   3.449  10.461  0.1596  0.3556 -0.0971
  178SOPE   H3X20311   3.204   3.451  10.449  0.3225 -0.1683  1.1348
  178SOPE   H3Y20312   3.088   3.462  10.571 -1.9020 -2.0341  0.1742
  178SOPE   C3420313   3.038   3.575  10.386 -0.1522  0.0025  0.5206
  178SOPE   H4X20314   3.084   3.665  10.432  0.5394 -0.2951  0.4212
  178SOPE   H4Y20315   2.931   3.582  10.413  0.1178  0.6046  1.4946
  178SOPE   C3520316   3.079   3.573  10.237 -0.3363 -0.4699 -0.1198
  178SOPE   H5X20317   3.028   3.493  10.179 -2.0211  1.8015 -1.9738
  178SOPE   H5Y20318   3.189   3.562  10.223  0.0452 -0.4924  2.4540
  178SOPE   C3620319   3.031   3.700  10.161  0.3034 -0.5331  0.8945
  178SOPE   H6X20320   3.067   3.786  10.221 -1.0981 -0.6704  1.9829
  178SOPE   H6Y20321   2.920   3.703  10.157  0.2851 -1.8662 -0.7867
  178SOPE   C3720322   3.083   3.709  10.017  0.5218 -0.5848  0.1180
  178SOPE   H7X20323   3.025   3.780   9.954 -1.3112 -2.5164 -0.4894
  178SOPE   H7Y20324   3.064   3.611   9.970 -2.3386  0.2848 -0.7371
  178SOPE   C3820325   3.238   3.734  10.000  0.4853 -0.4515  0.1971
  178SOPE   H8X20326   3.297   3.650  10.043  1.5059 -0.4010 -1.0665
  178SOPE   H8Y20327   3.268   3.825  10.058  2.0188 -1.0626  0.4151
  178SOPE   C3920328   3.257   3.744   9.847 -0.6734 -0.6387  0.8195
  178SOPE   H9X20329   3.185   3.812   9.797  2.3406  2.1658 -0.0742
  178SOPE   H9Y20330   3.245   3.641   9.808  0.9133 -1.0064  1.2482
  178SOPE  C31020331   3.402   3.795   9.822 -0.1181 -0.1483 -0.0293
  178SOPE  H10X20332   3.446   3.740   9.736  0.4412  0.6357 -0.2570
  178SOPE  H10Y20333   3.463   3.762   9.909  2.4295  0.2496 -1.5505
  178SOPE  C31120334   3.408   3.944   9.799  0.2524  0.3318 -0.3475
  178SOPE  H11X20335   3.430   3.986   9.900 -1.7525 -0.8936  0.6729
  178SOPE  H11Y20336   3.305   3.974   9.769  0.2814  0.5834 -0.2015
  178SOPE  C31220337   3.510   3.984   9.692  0.3598 -0.5061  0.9364
  178SOPE  H12X20338   3.582   3.900   9.685 -1.4405 -2.0144 -0.6961
  178SOPE  H12Y20339   3.559   4.082   9.709  1.2277 -0.5468 -1.1088
  178SOPE  C31320340   3.437   4.007   9.556 -0.4289 -0.5952 -0.4172
  178SOPE  H13X20341   3.376   4.100   9.568  1.0727  0.6796 -2.0885
  178SOPE  H13Y20342   3.366   3.922   9.549  0.3007 -1.3355  0.8538
  178SOPE  C31420343   3.537   4.020   9.431 -0.5537  0.0877 -0.2648
  178SOPE  H14X20344   3.609   3.938   9.454  1.0755  1.7329  0.7876
  178SOPE  H14Y20345   3.599   4.110   9.449 -1.7456  0.8580  0.1012
  178SOPE  C31520346   3.464   4.006   9.299 -0.2797  0.7646 -0.6244
  178SOPE  H15X20347   3.426   3.902   9.290  2.5814 -0.3388 -0.9940
  178SOPE  H15Y20348   3.550   4.009   9.229 -0.1531  2.9555 -0.4614
  178SOPE  C31620349   3.362   4.118   9.262 -0.2561 -0.3291  0.7512
  178SOPE  H16X20350   3.415   4.211   9.233 -1.0606 -0.7086 -2.2275
  178SOPE  H16Y20351   3.306   4.133   9.357 -0.5847  0.9823  0.3684
  178SOPE  C31720352   3.258   4.070   9.156  0.0984 -0.4758  0.4847
  178SOPE  H17X20353   3.179   4.144   9.136 -1.2622 -1.8633  0.5607
  178SOPE  H17Y20354   3.232   3.973   9.205  1.7886 -3.6372 -4.1176
  178SOPE  C31820355   3.330   4.034   9.021  0.1961  0.4776  0.9119
  178SOPE  H18X20356   3.378   4.127   8.984  0.5294  0.4755  1.3393
  178SOPE  H18Y20357   3.251   4.014   8.945  0.2615  2.6948  0.1974
  178SOPE  H18Z20358   3.407   3.954   9.025 -1.3402 -1.2337 -1.2159
  179SOPE     N20359   3.300   3.770   6.375 -0.1958 -0.0561 -0.1151
  179SOPE   HN120360   3.339   3.785   6.280  0.4650  1.0706  0.3227
  179SOPE   HN220361   3.196   3.771   6.368 -0.3819 -1.5691  1.6658
  179SOPE   HN320362   3.324   3.859   6.421 -0.8042 -0.3464  0.8029
  179SOPE   C1220363   3.372   3.658   6.451 -0.3424  0.5834 -0.2077
  179SOPE  H12A20364   3.339   3.562   6.406  0.6874 -0.7455  1.6957
  179SOPE  H12B20365   3.333   3.668   6.554 -0.9991  0.1424 -0.4070
  179SOPE   C1120366   3.528   3.675   6.447 -0.0654 -0.0776 -0.2952
  179SOPE  H11A20367   3.562   3.658   6.343  0.3791  2.3554 -0.6136
  179SOPE  H11B20368   3.564   3.588   6.506 -0.9151  0.6558  1.3834
  179SOPE     P20369   3.704   3.873   6.486  0.2079  0.1585 -0.3203
  179SOPE   O1320370   3.699   3.975   6.596 -0.3005 -0.0706 -0.0634
  179SOPE   O1420371   3.731   3.923   6.349  0.0782 -0.1116 -0.1739
  179SOPE   O1220372   3.570   3.803   6.490  0.7292  0.4365 -0.6327
  179SOPE   O1120373   3.809   3.764   6.519  0.3991  0.3224  0.3850
  179SOPE    C120374   3.805   3.685   6.636  0.6357  1.0310 -0.3935
  179SOPE    HA20375   3.769   3.582   6.614 -4.0178  2.0826  1.1129
  179SOPE    HB20376   3.728   3.721   6.707  3.4480  1.5269  2.6110
  179SOPE    C220377   3.941   3.669   6.706  0.3183  0.0406  0.5713
  179SOPE    HS20378   3.930   3.619   6.805 -1.4564  1.7505  1.3015
  179SOPE   O2120379   4.002   3.791   6.733 -0.3094  0.6251 -0.8666
  179SOPE   C2120380   3.942   3.869   6.821 -0.5643 -0.1393 -0.3683
  179SOPE   O2220381   3.844   3.837   6.890  0.4667 -0.4394 -0.3048
  179SOPE   C2220382   4.008   4.009   6.831  0.7158  0.0440  0.3852
  179SOPE   H2R20383   3.981   4.058   6.735  0.7326 -0.7436 -0.0336
  179SOPE   H2S20384   4.118   3.995   6.842  0.8874  0.2307 -0.9629
  179SOPE    C320385   4.045   3.592   6.620  0.1991 -0.3612 -0.2082
  179SOPE    HX20386   4.070   3.638   6.522  2.8306 -2.2958 -0.5636
  179SOPE    HY20387   3.995   3.497   6.590  2.3515 -1.7928  0.4577
  179SOPE   O3120388   4.170   3.561   6.681  0.9170  0.0673  0.3597
  179SOPE   C3120389   4.172   3.470   6.779  0.1410 -0.0387 -0.8188
  179SOPE   O3220390   4.071   3.427   6.834  0.4208  0.4545  0.0650
  179SOPE   C3220391   4.318   3.447   6.813 -0.2464  0.2819  0.0899
  179SOPE   H2X20392   4.376   3.455   6.718  1.2361  0.8204  1.0054
  179SOPE   H2Y20393   4.330   3.345   6.856  0.3437  0.9823  1.6489
  179SOPE   C2320394   3.950   4.092   6.943 -1.0039  0.7032 -0.1258
  179SOPE   H3R20395   3.840   4.102   6.934 -1.0386  0.0221 -0.5244
  179SOPE   H3S20396   3.984   4.194   6.916  0.9361 -0.7337 -3.7137
  179SOPE   C2420397   4.006   4.061   7.082  0.5824  0.5536  0.2103
  179SOPE   H4R20398   3.987   3.957   7.114  0.6349  0.6137  0.4376
  179SOPE   H4S20399   4.115   4.074   7.096  0.4013  0.3736  2.1457
  179SOPE   C2520400   3.948   4.150   7.189 -0.6833 -0.3763  0.0110
  179SOPE   H5R20401   3.994   4.250   7.183  3.4615 -2.1158 -0.8437
  179SOPE   H5S20402   3.838   4.156   7.173 -0.3404  0.3291 -2.4761
  179SOPE   C2620403   3.979   4.105   7.328 -0.0482 -0.1033 -0.5802
  179SOPE   H6R20404   3.910   4.023   7.357  0.9478  0.1932  3.2039
  179SOPE   H6S20405   4.080   4.058   7.330  0.5737  1.1783 -0.6193
  179SOPE   C2720406   3.987   4.213   7.441  0.5618 -0.2556  0.0270
  179SOPE   H7R20407   4.072   4.284   7.431  1.4860 -1.2290  0.7491
  179SOPE   H7S20408   3.888   4.262   7.430  1.0762  0.5405 -1.1980
  179SOPE   C2820409   3.988   4.148   7.579 -0.0223  0.4648  0.2942
  179SOPE   H8R20410   3.959   4.229   7.650  2.2761  0.4460  1.3362
  179SOPE   H8S20411   3.913   4.067   7.576 -1.3846  1.6762  0.4212
  179SOPE   C2920412   4.121   4.099   7.634  0.0275 -0.2041  0.2321
  179SOPE   H9120413   4.211   4.122   7.575  1.2128  0.5212  2.2212
  179SOPE  C21020414   4.146   4.039   7.750  0.9012 -0.4076  0.0287
  179SOPE  H10120415   4.247   4.009   7.783  0.9252  0.1121  0.4605
  179SOPE  C21120416   4.044   4.001   7.861 -0.0066  0.0211 -0.1555
  179SOPE  H11R20417   4.014   3.896   7.843  1.9877 -0.6178  0.0725
  179SOPE  H11S20418   3.950   4.061   7.852 -0.9156 -1.4054 -0.4290
  179SOPE  C21220419   4.094   4.008   8.010  0.8584 -0.3580  0.1903
  179SOPE  H12R20420   4.176   3.934   8.015  1.4762  0.1960 -1.2477
  179SOPE  H12S20421   4.009   3.976   8.075 -0.1958  1.8580 -0.0080
  179SOPE  C21320422   4.146   4.140   8.055 -0.6428 -0.7642 -0.1934
  179SOPE  H13R20423   4.055   4.205   8.051  0.3993  0.9817  1.9818
  179SOPE  H13S20424   4.230   4.176   7.993 -1.1681 -1.3577 -1.2725
  179SOPE  C21420425   4.195   4.134   8.203  0.0453  0.2496  0.5112
  179SOPE  H14R20426   4.136   4.063   8.266  1.1959 -0.3165  0.9671
  179SOPE  H14S20427   4.181   4.234   8.249 -1.3239 -0.3372  1.4709
  179SOPE  C21520428   4.343   4.106   8.200 -0.2006 -0.3998  0.4950
  179SOPE  H15R20429   4.403   4.180   8.142 -0.2417 -0.3126  0.5639
  179SOPE  H15S20430   4.349   4.007   8.150  0.4928 -0.0430 -0.1456
  179SOPE  C21620431   4.411   4.099   8.336  0.8258  0.2598 -0.8754
  179SOPE  H16R20432   4.510   4.051   8.321  0.6230 -0.1110 -1.0343
  179SOPE  H16S20433   4.333   4.045   8.394  0.8979 -0.8780 -1.8148
  179SOPE  C21720434   4.428   4.246   8.397  0.0172  1.0486  0.2281
  179SOPE  H17R20435   4.327   4.292   8.393 -0.7645 -0.6749 -1.5096
  179SOPE  H17S20436   4.498   4.317   8.349 -2.0546  2.9527 -0.1262
  179SOPE  C21820437   4.469   4.242   8.543 -0.1272 -0.1775  0.4013
  179SOPE  H18R20438   4.450   4.342   8.589  0.3376  1.3115 -2.4136
  179SOPE  H18S20439   4.577   4.216   8.551 -0.1432 -0.0743  0.9617
  179SOPE  H18T20440   4.407   4.169   8.599  1.3458 -0.1240  2.2141
  179SOPE   C3320441   4.375   3.532   6.923 -0.2278 -0.0401 -0.0069
  179SOPE   H3X20442   4.477   3.495   6.948  0.4377  1.0075 -1.0158
  179SOPE   H3Y20443   4.325   3.513   7.020  2.2952 -0.2853  1.3451
  179SOPE   C3420444   4.385   3.687   6.890 -0.0522  0.1161 -0.0807
  179SOPE   H4X20445   4.310   3.723   6.816 -0.4415  2.2735  1.2840
  179SOPE   H4Y20446   4.479   3.696   6.832  0.7246 -0.2871  1.0846
  179SOPE   C3520447   4.386   3.769   7.016 -0.2001  0.8928 -0.0693
  179SOPE   H5X20448   4.436   3.867   6.999 -0.0027  1.0750  1.4157
  179SOPE   H5Y20449   4.458   3.723   7.087 -0.1354 -1.3614 -1.4648
  179SOPE   C3620450   4.249   3.773   7.085 -0.1932  0.7758 -0.4271
  179SOPE   H6X20451   4.208   3.670   7.090  0.0957  0.6825  0.1469
  179SOPE   H6Y20452   4.173   3.822   7.020  1.3476  3.1938 -0.5207
  179SOPE   C3720453   4.229   3.825   7.226 -0.0774 -0.5617 -0.5226
  179SOPE   H7X20454   4.125   3.814   7.262 -0.2355 -0.3997 -0.9274
  179SOPE   H7Y20455   4.253   3.933   7.230 -0.4004 -0.4707 -0.9838
  179SOPE   C3820456   4.316   3.755   7.328  0.1068  0.8805  0.3930
  179SOPE   H8X20457   4.422   3.781   7.309  0.3573  0.2140  0.8416
  179SOPE   H8Y20458   4.292   3.647   7.337 -0.8804  1.2774  4.9187
  179SOPE   C3920459   4.294   3.804   7.471 -0.2495 -0.1059 -0.5266
  179SOPE   H9X20460   4.189   3.776   7.492 -0.7054  0.8511 -1.4488
  179SOPE   H9Y20461   4.314   3.913   7.469  0.2287  0.0905  4.2174
  179SOPE  C31020462   4.390   3.746   7.567 -0.1138  0.1823 -0.6014
  179SOPE  H10X20463   4.497   3.765   7.543  0.6152 -1.5742  0.9845
  179SOPE  H10Y20464   4.370   3.637   7.571 -0.1987  0.2248  0.4165
  179SOPE  C31120465   4.364   3.786   7.719  0.3143  0.2083 -0.3678
  179SOPE  H11X20466   4.265   3.758   7.759  1.2381 -0.8298  1.2881
  179SOPE  H11Y20467   4.380   3.896   7.726 -1.8275  0.5275  0.2227
  179SOPE  C31220468   4.454   3.700   7.806  0.2656 -0.4497 -0.9147
  179SOPE  H12X20469   4.562   3.723   7.793  0.0652  0.6572 -0.7394
  179SOPE  H12Y20470   4.438   3.596   7.770 -0.2608 -0.9280  0.6584
  179SOPE  C31320471   4.421   3.723   7.958  0.1581 -0.4765  0.6348
  179SOPE  H13X20472   4.323   3.677   7.981 -0.2003 -0.8165 -1.3793
  179SOPE  H13Y20473   4.405   3.828   7.992  1.3921 -0.7728  2.2632
  179SOPE  C31420474   4.533   3.667   8.045  0.2529  0.1969 -0.7550
  179SOPE  H14X20475   4.628   3.720   8.019  0.5112  0.0636 -0.1128
  179SOPE  H14Y20476   4.537   3.563   8.008 -0.9802  0.0227 -0.4394
  179SOPE  C31520477   4.506   3.682   8.200  0.0762  0.3581  0.6990
  179SOPE  H15X20478   4.514   3.791   8.218  1.8338  0.6691 -1.4677
  179SOPE  H15Y20479   4.573   3.623   8.265  0.0938  0.8814  1.1590
  179SOPE  C31620480   4.364   3.637   8.237  0.2209 -0.0067  0.3929
  179SOPE  H16X20481   4.283   3.675   8.172  1.3204 -0.6225 -1.3914
  179SOPE  H16Y20482   4.353   3.672   8.342 -1.3395 -0.5614  0.4358
  179SOPE  C31720483   4.353   3.481   8.252 -0.4681 -0.0552  0.0843
  179SOPE  H17X20484   4.445   3.448   8.305 -0.7473 -0.2380  0.4611
  179SOPE  H17Y20485   4.352   3.440   8.149 -3.2862  1.5661 -0.6500
  179SOPE  C31820486   4.226   3.426   8.325 -0.1632 -0.0102 -0.0476
  179SOPE  H18X20487   4.237   3.316   8.324  3.6257  0.2295 -0.0767
  179SOPE  H18Y20488   4.136   3.455   8.267  0.3523  0.2552 -0.7332
  179SOPE  H18Z20489   4.233   3.460   8.430 -0.6327 -1.1752  0.3659
  180SOPE     N20490   3.196   2.783   6.608  0.2514  0.0584  0.0934
  180SOPE   HN120491   3.178   2.752   6.510 -0.6579  0.7675  0.0225
  180SOPE   HN220492   3.252   2.871   6.613 -1.2471  1.0536  0.2644
  180SOPE   HN320493   3.255   2.709   6.649 -0.6515 -0.1495  1.0431
  180SOPE   C1220494   3.049   2.792   6.666  1.4723  0.1517 -0.3243
  180SOPE  H12A20495   3.057   2.775   6.776 -2.9367 -2.6075 -0.2081
  180SOPE  H12B20496   2.990   2.713   6.616  2.9929 -0.6982 -0.8239
  180SOPE   C1120497   2.988   2.931   6.654  0.1610  0.9300  0.1702
  180SOPE  H11A20498   3.063   3.004   6.691 -0.2429  1.5712 -0.2418
  180SOPE  H11B20499   2.890   2.938   6.706 -0.6559  1.7236 -1.3925
  180SOPE     P20500   3.046   3.060   6.429 -0.1421  0.3198 -0.3603
  180SOPE   O1320501   2.963   3.125   6.331 -0.1292  0.6032  0.0103
  180SOPE   O1420502   3.164   2.989   6.375  0.1117  0.0994  0.0433
  180SOPE   O1220503   2.963   2.954   6.515  0.1022 -0.2794  0.6103
  180SOPE   O1120504   3.098   3.162   6.535 -0.4095 -0.2700  0.2190
  180SOPE    C120505   3.065   3.300   6.530 -0.0977 -0.2869 -0.3154
  180SOPE    HA20506   3.039   3.339   6.429 -0.3153 -1.5478 -0.7701
  180SOPE    HB20507   3.150   3.361   6.566  0.8567 -1.3049 -0.8002
  180SOPE    C220508   2.953   3.330   6.630  0.0813 -0.1418 -0.0473
  180SOPE    HS20509   2.940   3.440   6.636  1.0708 -0.0099 -0.1711
  180SOPE   O2120510   2.972   3.265   6.756  0.1496 -0.1819  0.0309
  180SOPE   C2120511   3.070   3.322   6.814  0.3919  0.0489 -0.0910
  180SOPE   O2220512   3.119   3.429   6.788 -0.2166 -0.5393  0.4115
  180SOPE   C2220513   3.126   3.223   6.917  0.4233  0.2114  0.2978
  180SOPE   H2R20514   3.210   3.173   6.865  0.6655  0.4953  0.4184
  180SOPE   H2S20515   3.041   3.154   6.939  0.0466 -0.1168 -1.9662
  180SOPE    C320516   2.810   3.286   6.576  0.0875 -0.1286 -0.0370
  180SOPE    HX20517   2.813   3.175   6.578 -1.4726 -0.2665 -2.1832
  180SOPE    HY20518   2.804   3.319   6.470 -0.3196  0.4572  0.1622
  180SOPE   O3120519   2.707   3.338   6.664  0.1759 -0.0852 -0.2855
  180SOPE   C3120520   2.664   3.257   6.767  0.0822  0.2856  0.1627
  180SOPE   O3220521   2.692   3.141   6.785 -0.3227  0.4648 -0.2755
  180SOPE   C3220522   2.594   3.342   6.870 -0.3116  0.6643  0.6868
  180SOPE   H2X20523   2.560   3.267   6.944  0.4555  1.1012  1.4973
  180SOPE   H2Y20524   2.511   3.387   6.810 -0.2626 -1.1255 -0.8066
  180SOPE   C2320525   3.172   3.289   7.044 -0.6847  0.2968 -1.1164
  180SOPE   H3R20526   3.082   3.341   7.083 -1.8982 -2.8799  0.7363
  180SOPE   H3S20527   3.250   3.367   7.034 -0.1079 -0.1479 -0.2090
  180SOPE   C2420528   3.226   3.190   7.151 -0.4779  0.6588 -0.0240
  180SOPE   H4R20529   3.150   3.111   7.165  0.1640 -0.0996 -0.7576
  180SOPE   H4S20530   3.318   3.138   7.116  0.4929 -0.6628  3.9706
  180SOPE   C2520531   3.265   3.238   7.290 -0.3271 -0.3010  0.8038
  180SOPE   H5R20532   3.335   3.321   7.269 -2.3385  0.5932 -3.2807
  180SOPE   H5S20533   3.179   3.294   7.331 -0.2924 -0.8275  1.6244
  180SOPE   C2620534   3.322   3.128   7.383  0.0279  0.3116  0.5319
  180SOPE   H6R20535   3.246   3.047   7.386  0.7636 -0.4349 -0.2956
  180SOPE   H6S20536   3.408   3.083   7.329 -0.0405  1.3762 -0.5016
  180SOPE   C2720537   3.362   3.176   7.523  0.7497  0.1246 -0.6120
  180SOPE   H7R20538   3.446   3.248   7.519  0.5300  0.5371  1.3284
  180SOPE   H7S20539   3.281   3.218   7.585  0.1307 -2.3526  0.3970
  180SOPE   C2820540   3.409   3.048   7.604 -0.9174  0.1638  0.6992
  180SOPE   H8R20541   3.404   3.079   7.711 -1.5529  0.2970  0.6357
  180SOPE   H8S20542   3.344   2.961   7.583 -0.8730 -0.0621  1.4676
  180SOPE   C2920543   3.550   3.014   7.575  0.1348 -0.1247 -0.2857
  180SOPE   H9120544   3.587   3.084   7.498 -1.2787  1.9256  0.8208
  180SOPE  C21020545   3.624   2.910   7.628 -0.1873 -0.3163 -0.4592
  180SOPE  H10120546   3.731   2.907   7.604 -0.1192  1.8250 -0.6427
  180SOPE  C21120547   3.572   2.818   7.731 -0.2281 -0.2390  0.8102
  180SOPE  H11R20548   3.611   2.719   7.699  0.2614 -0.0563  0.8401
  180SOPE  H11S20549   3.463   2.803   7.717 -0.0133 -1.2978  0.1865
  180SOPE  C21220550   3.614   2.845   7.874 -1.0995 -0.8166 -0.0317
  180SOPE  H12R20551   3.590   2.952   7.896  2.4031  0.2311 -0.7239
  180SOPE  H12S20552   3.725   2.841   7.878 -0.9356  2.0737  1.5045
  180SOPE  C21320553   3.557   2.747   7.972  0.1770 -0.0572 -0.9226
  180SOPE  H13R20554   3.597   2.644   7.964 -0.8435 -0.5079 -0.3667
  180SOPE  H13S20555   3.447   2.744   7.959  0.0922 -1.5588 -0.0928
  180SOPE  C21420556   3.585   2.801   8.109  0.1966  0.2880 -0.0335
  180SOPE  H14R20557   3.541   2.903   8.117 -1.2065 -0.2977 -0.0137
  180SOPE  H14S20558   3.696   2.807   8.110  0.2260  0.0576 -0.9950
  180SOPE  C21520559   3.529   2.706   8.223 -0.2256 -0.4685 -0.0484
  180SOPE  H15R20560   3.582   2.611   8.202  1.9686  1.2688 -3.2154
  180SOPE  H15S20561   3.418   2.706   8.217 -0.1631  1.1078 -2.3028
  180SOPE  C21620562   3.561   2.755   8.366 -0.2763  0.5553 -0.2472
  180SOPE  H16R20563   3.535   2.862   8.385 -1.8445  0.1375  0.0910
  180SOPE  H16S20564   3.669   2.739   8.388 -0.9068 -3.1681  0.7325
  180SOPE  C21720565   3.494   2.672   8.478 -0.2332 -0.5022  0.1152
  180SOPE  H17R20566   3.385   2.686   8.459  0.0783  1.0796 -0.6613
  180SOPE  H17S20567   3.516   2.721   8.575 -0.6172 -1.6776  0.8175
  180SOPE  C21820568   3.532   2.521   8.468 -0.4571 -0.0108  0.6605
  180SOPE  H18R20569   3.642   2.510   8.476 -0.3557  0.5751  0.1056
  180SOPE  H18S20570   3.503   2.486   8.367  0.4733 -0.1313  0.4251
  180SOPE  H18T20571   3.476   2.459   8.541 -2.2421  2.7809  1.8161
  180SOPE   C3320572   2.685   3.451   6.927  0.2149  0.5239 -0.5894
  180SOPE   H3X20573   2.693   3.536   6.855 -1.2588  1.6977  0.5659
  180SOPE   H3Y20574   2.788   3.410   6.932 -0.6443 -1.5838  1.4759
  180SOPE   C3420575   2.646   3.497   7.069 -0.3531  0.4249 -0.1937
  180SOPE   H4X20576   2.665   3.406   7.130 -3.5599 -0.8604 -0.9054
  180SOPE   H4Y20577   2.537   3.519   7.059 -0.5156  0.7022  1.7713
  180SOPE   C3520578   2.724   3.619   7.122  0.2007 -0.4511 -0.0992
  180SOPE   H5X20579   2.717   3.707   7.054  1.0367  0.1939  0.6201
  180SOPE   H5Y20580   2.829   3.584   7.134 -0.0245 -0.9223  0.5671
  180SOPE   C3620581   2.680   3.659   7.265  0.6890 -0.9228 -0.4821
  180SOPE   H6X20582   2.570   3.679   7.263  0.8235  0.0805  0.7109
  180SOPE   H6Y20583   2.734   3.752   7.290  0.3580  0.4645 -4.2410
  180SOPE   C3720584   2.705   3.546   7.367  0.5020  0.2933 -0.1923
  180SOPE   H7X20585   2.812   3.516   7.365  0.1224 -1.1478 -0.5003
  180SOPE   H7Y20586   2.649   3.454   7.338 -1.3454  1.7602 -1.5274
  180SOPE   C3820587   2.658   3.590   7.507 -0.4412  0.3969 -0.6649
  180SOPE   H8X20588   2.552   3.622   7.494 -0.7415  0.2712  1.2037
  180SOPE   H8Y20589   2.713   3.682   7.534  0.3218  0.0491 -1.0048
  180SOPE   C3920590   2.685   3.497   7.619 -0.0366  0.0283 -0.4825
  180SOPE   H9X20591   2.789   3.470   7.649 -0.2212 -1.4787 -1.0621
  180SOPE   H9Y20592   2.642   3.398   7.591  1.8869 -1.3709  1.2115
  180SOPE  C31020593   2.608   3.552   7.741 -0.3571  0.2722  0.7149
  180SOPE  H10X20594   2.499   3.548   7.720 -0.4671  0.6877  1.1957
  180SOPE  H10Y20595   2.642   3.654   7.771  0.4212  0.2765 -0.1528
  180SOPE  C31120596   2.641   3.463   7.860  0.0805 -0.4454  0.9940
  180SOPE  H11X20597   2.751   3.462   7.877  0.1842  1.0744  0.5698
  180SOPE  H11Y20598   2.617   3.362   7.820  0.3396  0.6929 -2.3452
  180SOPE  C31220599   2.559   3.494   7.986  0.6108 -1.0707  0.2381
  180SOPE  H12X20600   2.576   3.401   8.044  3.2694 -0.3613  0.7672
  180SOPE  H12Y20601   2.451   3.501   7.962  0.4203  2.0825  1.5430
  180SOPE  C31320602   2.615   3.614   8.061  0.0521  0.5218  0.0515
  180SOPE  H13X20603   2.601   3.698   7.990  0.5450 -0.3751 -1.1266
  180SOPE  H13Y20604   2.723   3.589   8.066 -0.4845 -2.6912 -2.0549
  180SOPE  C31420605   2.553   3.642   8.195  0.2877 -0.6636  0.7273
  180SOPE  H14X20606   2.538   3.546   8.249 -2.5903 -0.3258  0.6691
  180SOPE  H14Y20607   2.457   3.695   8.176  1.2988  2.3574  3.1438
  180SOPE  C31520608   2.636   3.745   8.272  0.0183  0.6504 -0.5190
  180SOPE  H15X20609   2.645   3.841   8.218  2.1065  0.4980 -0.5375
  180SOPE  H15Y20610   2.743   3.712   8.270 -0.0049  0.4612  0.6129
  180SOPE  C31620611   2.572   3.762   8.411 -0.0256 -0.3376 -0.5429
  180SOPE  H16X20612   2.583   3.662   8.457 -0.7447  0.2795  1.0205
  180SOPE  H16Y20613   2.466   3.792   8.397  0.2259 -0.1241 -2.2156
  180SOPE  C31720614   2.654   3.869   8.495  0.8134  0.4721 -0.6809
  180SOPE  H17X20615   2.659   3.961   8.433 -1.9664  0.7088 -0.6941
  180SOPE  H17Y20616   2.761   3.842   8.500  1.2316  1.7874 -1.6217
  180SOPE  C31820617   2.599   3.896   8.636  0.3698 -0.0273 -0.8924
  180SOPE  H18X20618   2.645   3.992   8.669  0.3773 -0.2307 -0.2895
  180SOPE  H18Y20619   2.629   3.811   8.701 -0.5349 -0.8797 -1.5662
  180SOPE  H18Z20620   2.492   3.915   8.660  0.1580 -2.2054  0.1176
  181SOPE     N20621   2.244   0.050   6.112 -0.1039 -0.8873 -0.4078
  181SOPE   HN120622   2.326   0.030   6.173  1.0582  0.0406 -1.6015
  181SOPE   HN220623   2.159   0.041   6.170  1.5126 -0.9357  2.1049
  181SOPE   HN320624   2.239  -0.022   6.036 -2.7282 -0.7131 -0.4806
  181SOPE   C1220625   2.230   0.185   6.045 -0.1431  0.2613 -0.2098
  181SOPE  H12A20626   2.236   0.253   6.132 -0.1824 -1.0074  0.8087
  181SOPE  H12B20627   2.127   0.195   6.003  0.2819  2.2880 -0.9013
  181SOPE   C1120628   2.329   0.208   5.933  0.0741 -0.4722 -0.1578
  181SOPE  H11A20629   2.303   0.289   5.862 -1.4916 -1.0275 -0.2426
  181SOPE  H11B20630   2.335   0.113   5.875  1.9724  0.8110 -2.2544
  181SOPE     P20631   2.508   0.372   6.023 -0.1094 -0.1368  0.2602
  181SOPE   O1320632   2.405   0.470   6.053  0.2767  0.0707 -0.0880
  181SOPE   O1420633   2.598   0.399   5.910  0.9113 -0.7701  0.0836
  181SOPE   O1220634   2.448   0.225   5.993 -0.2121 -0.2974  0.6644
  181SOPE   O1120635   2.603   0.357   6.151  0.1543 -0.4696 -0.5311
  181SOPE    C120636   2.704   0.264   6.162 -0.0909  0.1321  0.4577
  181SOPE    HA20637   2.784   0.321   6.213 -0.7877  0.1989  1.4983
  181SOPE    HB20638   2.745   0.216   6.071 -0.2051 -1.5889  1.2561
  181SOPE    C220639   2.672   0.141   6.256  0.1881 -0.1709 -0.4965
  181SOPE    HS20640   2.610   0.070   6.197 -1.0763  0.8806 -0.4776
  181SOPE   O2120641   2.605   0.194   6.375 -0.1651 -0.1778  0.1505
  181SOPE   C2120642   2.489   0.147   6.401  0.6913  0.0143  0.5896
  181SOPE   O2220643   2.428   0.074   6.320  0.0196 -0.1567 -0.6581
  181SOPE   C2220644   2.436   0.189   6.546  0.3363  0.1792 -0.4376
  181SOPE   H2R20645   2.413   0.298   6.543  1.7225  0.4658 -1.7150
  181SOPE   H2S20646   2.529   0.176   6.606  0.6169  2.5555 -0.2831
  181SOPE    C320647   2.807   0.065   6.296 -1.0590  0.5757 -0.5975
  181SOPE    HX20648   2.884   0.145   6.299 -0.1358 -0.2578 -1.4010
  181SOPE    HY20649   2.838   0.016   6.202  0.4643  0.4072 -0.0321
  181SOPE   O3120650   2.793  -0.022   6.411  1.0434 -0.5280 -0.0272
  181SOPE   C3120651   2.904  -0.077   6.454  0.4311 -0.1331  0.6748
  181SOPE   O3220652   3.017  -0.042   6.426 -0.3481  0.6368  0.0471
  181SOPE   C3220653   2.871  -0.198   6.542 -0.1153 -0.4013  0.0514
  181SOPE   H2X20654   2.900  -0.290   6.488 -3.0028 -1.5734  0.3167
  181SOPE   H2Y20655   2.762  -0.200   6.563  0.1194  0.6644  1.5703
  181SOPE   C2320656   2.327   0.115   6.615  0.0319  0.2068  0.6054
  181SOPE   H3R20657   2.332   0.006   6.594 -2.1067  0.2745 -0.5210
  181SOPE   H3S20658   2.229   0.143   6.571 -0.0116 -2.1203 -0.9306
  181SOPE   C2420659   2.335   0.126   6.768 -0.0058  0.8502  0.6502
  181SOPE   H4R20660   2.251   0.065   6.807 -0.1971 -0.5255 -1.7225
  181SOPE   H4S20661   2.432   0.082   6.799  0.6993  1.2014 -0.9307
  181SOPE   C2520662   2.298   0.267   6.819  0.1700  0.5142 -0.0448
  181SOPE   H5R20663   2.374   0.345   6.797 -2.5350  2.9185 -1.6962
  181SOPE   H5S20664   2.204   0.286   6.762 -0.6900 -0.5332  0.9780
  181SOPE   C2620665   2.273   0.265   6.969  0.0222  1.2851  0.5523
  181SOPE   H6R20666   2.197   0.342   6.996 -2.7307 -1.0614 -0.0001
  181SOPE   H6S20667   2.250   0.160   6.998  0.2783 -0.5953 -4.8588
  181SOPE   C2720668   2.397   0.311   7.047  0.2733  0.2836  0.2131
  181SOPE   H7R20669   2.481   0.239   7.035  1.0085  0.6478  2.6414
  181SOPE   H7S20670   2.439   0.406   7.009  0.4987 -0.1878 -0.7338
  181SOPE   C2820671   2.373   0.335   7.195 -0.4516 -0.5137 -0.3818
  181SOPE   H8R20672   2.445   0.411   7.234 -0.6249  0.2865 -1.5865
  181SOPE   H8S20673   2.269   0.375   7.205 -1.4310 -1.8299 -4.0597
  181SOPE   C2920674   2.374   0.202   7.269  0.0930 -0.1996  0.0666
  181SOPE   H9120675   2.310   0.122   7.232 -0.7687  0.1722  0.7198
  181SOPE  C21020676   2.443   0.182   7.382  0.4205  0.5770 -0.6526
  181SOPE  H10120677   2.434   0.078   7.416  1.2684  0.1136 -1.7930
  181SOPE  C21120678   2.530   0.278   7.457 -0.0650 -0.0481  0.1588
  181SOPE  H11R20679   2.514   0.383   7.424 -0.0106 -0.0609  0.0921
  181SOPE  H11S20680   2.634   0.239   7.453 -0.0810 -0.3373  1.7510
  181SOPE  C21220681   2.494   0.268   7.602  0.6360  0.3338 -0.9181
  181SOPE  H12R20682   2.478   0.162   7.631 -2.8832  0.8135 -0.7368
  181SOPE  H12S20683   2.394   0.312   7.621  0.8951  0.9965 -1.0619
  181SOPE  C21320684   2.591   0.344   7.702 -0.1944  0.1514  0.5821
  181SOPE  H13R20685   2.590   0.449   7.666  1.6643 -0.8792 -2.9730
  181SOPE  H13S20686   2.691   0.299   7.684  0.0674  0.4909  1.1919
  181SOPE  C21420687   2.557   0.331   7.852  0.3088  0.8837 -0.0725
  181SOPE  H14R20688   2.578   0.233   7.899 -0.1126  1.8863  2.3833
  181SOPE  H14S20689   2.449   0.356   7.859  0.3852  1.1129  0.3029
  181SOPE  C21520690   2.649   0.422   7.939  0.4440 -0.2984  0.8606
  181SOPE  H15R20691   2.670   0.521   7.893 -0.8480 -0.2402  0.3515
  181SOPE  H15S20692   2.749   0.373   7.937 -0.1186 -1.5155 -1.3898
  181SOPE  C21620693   2.604   0.440   8.083  0.9625  0.4815  0.3195
  181SOPE  H16R20694   2.600   0.338   8.128  0.2008  0.3525 -0.0287
  181SOPE  H16S20695   2.504   0.486   8.090  0.0607 -1.2442 -0.4430
  181SOPE  C21720696   2.704   0.527   8.162  0.4181  0.1196  0.8057
  181SOPE  H17R20697   2.708   0.621   8.104 -0.6457 -1.5873 -2.2790
  181SOPE  H17S20698   2.800   0.473   8.169  1.1636  1.3488  0.2934
  181SOPE  C21820699   2.646   0.555   8.297 -0.3765  0.3651 -0.4213
  181SOPE  H18R20700   2.705   0.622   8.364  0.0253 -1.1660  0.7987
  181SOPE  H18S20701   2.643   0.464   8.360  0.9482 -0.3699 -1.3686
  181SOPE  H18T20702   2.543   0.592   8.280 -1.1124 -1.3401  0.2148
  181SOPE   C3320703   2.954  -0.202   6.672 -0.0565 -0.0451  0.0548
  181SOPE   H3X20704   2.956  -0.108   6.731 -0.9392 -1.1681  1.9852
  181SOPE   H3Y20705   3.059  -0.237   6.660 -0.0539 -0.1959  0.4922
  181SOPE   C3420706   2.900  -0.300   6.771 -0.0407  0.7309  0.9769
  181SOPE   H4X20707   2.907  -0.402   6.727 -0.0165  1.4418 -0.7480
  181SOPE   H4Y20708   2.791  -0.283   6.781 -0.2810  1.6282 -2.0463
  181SOPE   C3520709   2.976  -0.289   6.900 -0.1745 -0.1678 -0.3654
  181SOPE   H5X20710   2.945  -0.189   6.935 -1.5844 -0.2763 -1.2542
  181SOPE   H5Y20711   3.084  -0.277   6.874 -0.1906 -0.2599 -0.4771
  181SOPE   C3620712   2.958  -0.400   7.001 -0.1297  0.2215  0.3990
  181SOPE   H6X20713   2.953  -0.496   6.945 -2.1386  1.0966 -1.0333
  181SOPE   H6Y20714   2.860  -0.400   7.052 -0.5486  0.9294 -0.3728
  181SOPE   C3720715   3.060  -0.395   7.115  0.5441  0.4414 -0.3829
  181SOPE   H7X20716   3.023  -0.321   7.189  1.1743 -0.5462  0.9327
  181SOPE   H7Y20717   3.155  -0.361   7.070  0.9076  0.4248  0.3685
  181SOPE   C3820718   3.083  -0.525   7.191  1.0059  0.2374  0.8344
  181SOPE   H8X20719   3.161  -0.587   7.142  0.0220 -2.1592  2.1023
  181SOPE   H8Y20720   2.988  -0.581   7.190  1.0787  0.1000  1.3220
  181SOPE   C3920721   3.124  -0.507   7.334 -0.1222  0.5347  0.3992
  181SOPE   H9X20722   3.170  -0.407   7.351 -0.8237  0.6753  1.6787
  181SOPE   H9Y20723   3.196  -0.584   7.369  2.4285  1.6684 -2.0362
  181SOPE  C31020724   3.000  -0.501   7.436  0.2252 -0.1476  0.6863
  181SOPE  H10X20725   2.924  -0.578   7.409 -1.5040  0.7621  2.6665
  181SOPE  H10Y20726   2.958  -0.399   7.425  1.3019  0.3626  1.1992
  181SOPE  C31120727   3.045  -0.527   7.581  0.9258 -0.4971  0.3592
  181SOPE  H11X20728   3.115  -0.444   7.607  0.1255  0.8161 -1.4112
  181SOPE  H11Y20729   3.097  -0.625   7.590 -2.5442 -2.6416 -1.2059
  181SOPE  C31220730   2.920  -0.536   7.677  0.0431  0.6544 -0.7749
  181SOPE  H12X20731   2.854  -0.621   7.647  1.5610 -1.3083  1.0902
  181SOPE  H12Y20732   2.862  -0.443   7.667 -0.7320  0.4282  1.2655
  181SOPE  C31320733   2.962  -0.564   7.818 -0.5824  0.0703  0.8223
  181SOPE  H13X20734   3.039  -0.491   7.851  1.3905 -0.2831 -2.4895
  181SOPE  H13Y20735   2.996  -0.670   7.818  2.2821  0.6628 -3.8806
  181SOPE  C31420736   2.851  -0.558   7.925 -0.5402 -0.2531  0.0895
  181SOPE  H14X20737   2.768  -0.630   7.906 -1.7707  1.1858 -0.2601
  181SOPE  H14Y20738   2.811  -0.454   7.929  0.1851  0.0250  0.1429
  181SOPE  C31520739   2.907  -0.594   8.061  0.2120  0.3840  0.4209
  181SOPE  H15X20740   3.008  -0.638   8.049 -0.1868 -0.7466  1.1078
  181SOPE  H15Y20741   2.846  -0.673   8.110 -1.0520  0.9749 -0.1632
  181SOPE  C31620742   2.930  -0.471   8.157  0.1135 -0.2181  0.1359
  181SOPE  H16X20743   2.830  -0.441   8.195  0.2711  0.4603  0.0372
  181SOPE  H16Y20744   2.975  -0.403   8.081 -1.5984  0.4222 -0.3449
  181SOPE  C31720745   3.020  -0.512   8.273  0.3424 -0.5817 -0.6895
  181SOPE  H17X20746   3.057  -0.420   8.324 -1.0983 -0.9442  1.1044
  181SOPE  H17Y20747   3.116  -0.557   8.240  1.4678 -0.1403  1.7607
  181SOPE  C31820748   2.957  -0.605   8.379 -0.7230  0.3345  0.7382
  181SOPE  H18X20749   2.926  -0.703   8.335 -0.6916  0.5044  0.3402
  181SOPE  H18Y20750   2.866  -0.554   8.416 -0.9357  0.8909 -0.4942
  181SOPE  H18Z20751   3.032  -0.625   8.459 -0.4443 -0.4988  0.2894
  182SOPE     N20752   3.013   2.447   5.952 -0.2255  0.3765  0.4728
  182SOPE   HN120753   2.995   2.529   6.013 -0.9938 -1.0222  2.2160
  182SOPE   HN220754   3.029   2.484   5.856  0.8136  0.1211  0.5349
  182SOPE   HN320755   2.937   2.377   5.943  0.7590 -0.6852  0.1906
  182SOPE   C1220756   3.138   2.379   5.997  0.1727  0.4112 -0.4542
  182SOPE  H12A20757   3.221   2.452   5.986  0.8318  0.4958  3.4994
  182SOPE  H12B20758   3.157   2.282   5.947  1.0385 -0.7334  1.9067
  182SOPE   C1120759   3.118   2.341   6.152  0.3403 -1.1470  0.6260
  182SOPE  H11A20760   3.208   2.283   6.182  2.3411  0.6018 -1.6161
  182SOPE  H11B20761   3.038   2.264   6.152  1.1761 -2.0424 -0.0769
  182SOPE     P20762   3.192   2.530   6.316 -0.0130  0.2178 -0.3933
  182SOPE   O1320763   3.124   2.596   6.433  0.3074  0.1566  0.3810
  182SOPE   O1420764   3.276   2.624   6.239 -0.4332  0.1950 -0.2227
  182SOPE   O1220765   3.086   2.452   6.234  0.2384 -0.2910 -0.1914
  182SOPE   O1120766   3.281   2.405   6.363 -1.1302  0.1391  0.6656
  182SOPE    C120767   3.385   2.417   6.459 -1.1574  0.6960  0.6360
  182SOPE    HA20768   3.419   2.522   6.477  0.7527  0.0754  0.9383
  182SOPE    HB20769   3.474   2.369   6.413 -3.7915 -1.3370 -2.8111
  182SOPE    C220770   3.342   2.352   6.589 -0.3779  0.3742  0.1572
  182SOPE    HS20771   3.246   2.392   6.627 -0.4924  0.8595 -0.6364
  182SOPE   O2120772   3.445   2.367   6.687  0.4781 -0.6500 -0.3884
  182SOPE   C2120773   3.435   2.479   6.751  0.0158 -0.7606  0.0726
  182SOPE   O2220774   3.354   2.568   6.719 -0.3360  0.3452  0.2628
  182SOPE   C2220775   3.521   2.479   6.876  0.0131 -0.3084  0.3134
  182SOPE   H2R20776   3.609   2.547   6.866  2.7176 -3.7240 -1.1152
  182SOPE   H2S20777   3.580   2.385   6.882 -1.3996 -1.2689 -0.4270
  182SOPE    C320778   3.310   2.206   6.564  0.4966  1.3227 -0.5535
  182SOPE    HX20779   3.386   2.158   6.498 -0.4049 -0.2169 -0.5284
  182SOPE    HY20780   3.223   2.212   6.494 -0.5732  2.3394  0.8027
  182SOPE   O3120781   3.276   2.129   6.678  0.2039 -0.0834 -0.0973
  182SOPE   C3120782   3.369   2.047   6.720 -0.2764  0.9096 -0.4158
  182SOPE   O3220783   3.476   2.022   6.666  0.8959  1.1089 -0.1714
  182SOPE   C3220784   3.341   1.988   6.863  1.1351 -0.1821  0.4608
  182SOPE   H2X20785   3.389   1.889   6.880 -0.9167 -1.5076 -0.9799
  182SOPE   H2Y20786   3.231   1.970   6.863  1.4870 -2.8495  1.2213
  182SOPE   C2320787   3.447   2.489   7.012 -0.5607 -0.6098  0.4543
  182SOPE   H3R20788   3.363   2.417   7.005 -2.2928  1.3038  0.8016
  182SOPE   H3S20789   3.414   2.592   7.038  0.9049 -0.0821  0.3091
  182SOPE   C2420790   3.541   2.456   7.128 -1.1293  0.6381  0.1771
  182SOPE   H4R20791   3.561   2.347   7.127  2.1231  1.1524 -0.4528
  182SOPE   H4S20792   3.630   2.521   7.114  0.3249 -1.5354 -1.2063
  182SOPE   C2520793   3.480   2.481   7.266  0.3140 -0.2219  0.2819
  182SOPE   H5R20794   3.462   2.591   7.273  0.4055 -0.0972 -1.0404
  182SOPE   H5S20795   3.379   2.436   7.277 -0.4064  0.9777 -0.9979
  182SOPE   C2620796   3.573   2.421   7.370 -0.1392  0.6594  0.4448
  182SOPE   H6R20797   3.585   2.312   7.350  1.9238  0.3981  2.6401
  182SOPE   H6S20798   3.675   2.465   7.364  1.5037 -2.9303 -1.1684
  182SOPE   C2720799   3.499   2.439   7.506 -0.4490 -0.6074  0.6728
  182SOPE   H7R20800   3.512   2.549   7.521  1.4341 -0.6508 -0.3402
  182SOPE   H7S20801   3.391   2.415   7.509 -0.6822  0.4301  2.5378
  182SOPE   C2820802   3.571   2.353   7.609  1.0856  0.8501  0.5684
  182SOPE   H8R20803   3.489   2.332   7.681 -0.3163 -0.3294 -1.3017
  182SOPE   H8S20804   3.590   2.249   7.575  3.4197  0.2389  3.3120
  182SOPE   C2920805   3.691   2.420   7.665 -0.4506 -0.8353 -1.1965
  182SOPE   H9120806   3.758   2.476   7.599  0.2775  1.4163  1.3142
  182SOPE  C21020807   3.721   2.411   7.801  0.6825  0.4476 -0.7702
  182SOPE  H10120808   3.815   2.456   7.834 -0.1117  0.9690  0.8429
  182SOPE  C21120809   3.638   2.321   7.895  0.0529  0.5478  0.7542
  182SOPE  H11R20810   3.638   2.219   7.850  1.7800 -0.1866  2.3103
  182SOPE  H11S20811   3.535   2.362   7.908  0.3269  1.1233  1.0990
  182SOPE  C21220812   3.703   2.316   8.038  0.7386 -0.6971 -0.2740
  182SOPE  H12R20813   3.688   2.422   8.070  0.7216  0.4537 -3.6926
  182SOPE  H12S20814   3.812   2.296   8.029  0.6938 -1.4707  0.7288
  182SOPE  C21320815   3.625   2.216   8.129  0.4915  0.0850 -0.1488
  182SOPE  H13R20816   3.672   2.221   8.229  2.5076  1.3037 -1.0671
  182SOPE  H13S20817   3.633   2.111   8.093 -0.8239  0.0503 -0.3910
  182SOPE  C21420818   3.475   2.247   8.134  0.1955 -0.9287 -0.8453
  182SOPE  H14R20819   3.423   2.245   8.035 -3.1510 -0.8914  0.7718
  182SOPE  H14S20820   3.474   2.341   8.193  2.2224 -1.5652  0.2897
  182SOPE  C21520821   3.399   2.147   8.219 -0.1243  0.1202 -0.3102
  182SOPE  H15R20822   3.461   2.130   8.309  0.2884  0.6430 -0.4919
  182SOPE  H15S20823   3.395   2.046   8.172  4.5131 -0.4800  0.1611
  182SOPE  C21620824   3.258   2.185   8.262 -0.5293 -0.1512 -0.4846
  182SOPE  H16R20825   3.222   2.093   8.313 -0.5897  0.3611  0.4313
  182SOPE  H16S20826   3.189   2.195   8.176  0.0620  0.9096 -0.8451
  182SOPE  C21720827   3.244   2.305   8.358 -0.1475 -0.3027  0.4433
  182SOPE  H17R20828   3.333   2.306   8.425  0.0361 -0.7692  0.2083
  182SOPE  H17S20829   3.155   2.285   8.422 -1.1193 -0.1976 -0.8334
  182SOPE  C21820830   3.205   2.449   8.295  0.0535 -0.6545 -0.6466
  182SOPE  H18R20831   3.098   2.447   8.268 -0.6772 -0.2107  1.9092
  182SOPE  H18S20832   3.267   2.472   8.206  0.8885  0.4583  0.1814
  182SOPE  H18T20833   3.211   2.540   8.359  0.5721 -1.0750 -0.0808
  182SOPE   C3320834   3.385   2.087   6.973 -1.1685  0.4445  0.0939
  182SOPE   H3X20835   3.333   2.184   6.953 -2.3094  0.0159  0.8515
  182SOPE   H3Y20836   3.495   2.100   6.964 -0.5517 -1.5456  3.4304
  182SOPE   C3420837   3.336   2.035   7.104 -0.3639 -0.6963  0.7140
  182SOPE   H4X20838   3.402   1.948   7.123  0.6507  0.3581  2.2341
  182SOPE   H4Y20839   3.228   2.006   7.106 -0.4218 -0.6006 -0.2424
  182SOPE   C3520840   3.347   2.138   7.213  0.2627  0.3406  0.2004
  182SOPE   H5X20841   3.283   2.228   7.196  0.7538  0.1224 -3.6111
  182SOPE   H5Y20842   3.443   2.194   7.205  0.1708  0.4941  0.1646
  182SOPE   C3620843   3.346   2.089   7.353 -0.4054  0.0006 -0.0877
  182SOPE   H6X20844   3.426   2.144   7.407  1.0475 -2.2648  0.1789
  182SOPE   H6Y20845   3.357   1.979   7.361 -0.8763  0.0468  1.5021
  182SOPE   C3720846   3.212   2.112   7.427  0.3964 -0.0400  0.7233
  182SOPE   H7X20847   3.134   2.049   7.379  0.7190 -0.6006  0.9143
  182SOPE   H7Y20848   3.186   2.217   7.404  1.9498  0.6292  1.8311
  182SOPE   C3820849   3.226   2.086   7.577  0.0036  0.4677  0.1802
  182SOPE   H8X20850   3.296   2.161   7.620 -0.1159  0.0042  1.2141
  182SOPE   H8Y20851   3.259   1.982   7.594 -0.7937  0.4397  1.7304
  182SOPE   C3920852   3.085   2.104   7.641 -0.0065 -1.2719  0.3334
  182SOPE   H9X20853   3.015   2.037   7.586  0.3422  0.1327 -1.9548
  182SOPE   H9Y20854   3.055   2.209   7.622 -0.0545 -0.5920  3.6223
  182SOPE  C31020855   3.094   2.086   7.793  0.7059  0.0680 -0.9301
  182SOPE  H10X20856   3.148   2.176   7.830  1.1219 -0.4946 -0.1204
  182SOPE  H10Y20857   3.157   2.007   7.838  0.9997  1.8139  2.0186
  182SOPE  C31120858   2.953   2.084   7.862  0.2283  0.3422 -0.0344
  182SOPE  H11X20859   2.919   1.981   7.881  3.8364 -1.5190 -2.4303
  182SOPE  H11Y20860   2.875   2.138   7.804 -0.6344 -0.1385  0.6543
  182SOPE  C31220861   2.953   2.151   7.997 -0.3749  0.0348  0.2441
  182SOPE  H12X20862   2.984   2.255   7.972  1.2379 -0.6216 -0.7005
  182SOPE  H12Y20863   3.030   2.098   8.057 -1.4446 -2.4022 -0.3886
  182SOPE  C31320864   2.808   2.160   8.045 -0.4286  0.7707  0.4025
  182SOPE  H13X20865   2.781   2.054   8.064  0.4699  0.5537  0.5018
  182SOPE  H13Y20866   2.734   2.208   7.977 -2.0242 -1.2547  0.5859
  182SOPE  C31420867   2.805   2.230   8.178  0.1906 -0.4310  0.0736
  182SOPE  H14X20868   2.863   2.324   8.180 -1.6620  0.7648  1.6735
  182SOPE  H14Y20869   2.843   2.159   8.255 -0.7034  0.0675  1.0064
  182SOPE  C31520870   2.659   2.260   8.207 -0.4037  0.4160  0.4124
  182SOPE  H15X20871   2.597   2.169   8.192  1.0838 -0.6537  0.4843
  182SOPE  H15Y20872   2.626   2.342   8.140  0.6760  0.4595 -0.0807
  182SOPE  C31620873   2.643   2.321   8.344  0.2885  0.3302 -0.3852
  182SOPE  H16X20874   2.744   2.313   8.390  0.4817  1.0065 -0.6754
  182SOPE  H16Y20875   2.565   2.264   8.399  2.1247 -0.8253  1.1478
  182SOPE  C31720876   2.615   2.471   8.340  0.6478  0.5916 -0.4441
  182SOPE  H17X20877   2.539   2.493   8.262  0.5561  4.3283  0.4797
  182SOPE  H17Y20878   2.705   2.527   8.308  0.6037  0.5320 -0.6750
  182SOPE  C31820879   2.569   2.543   8.470  0.3558 -0.6844 -0.6476
  182SOPE  H18X20880   2.641   2.531   8.554  0.3189  0.6363 -0.4052
  182SOPE  H18Y20881   2.466   2.509   8.493  0.5945 -0.6160  0.6179
  182SOPE  H18Z20882   2.560   2.652   8.449 -1.2296  0.1914  3.5589
  183SOPE     N20883   5.332   0.802   6.190 -0.5424  0.0945  0.1055
  183SOPE   HN120884   5.307   0.732   6.117 -2.4216  0.9391 -0.1126
  183SOPE   HN220885   5.279   0.887   6.163 -1.1013  0.4163  2.0461
  183SOPE   HN320886   5.433   0.827   6.191 -0.7697  1.0341 -0.0843
  183SOPE   C1220887   5.285   0.755   6.313  0.2980  0.5024  0.1828
  183SOPE  H12A20888   5.175   0.746   6.323  0.2887 -0.1736 -0.4944
  183SOPE  H12B20889   5.320   0.833   6.384 -0.3350  1.0057 -0.0477
  183SOPE   C1120890   5.337   0.617   6.333 -0.2607 -0.5279 -0.3304
  183SOPE  H11A20891   5.295   0.586   6.430 -2.2456 -2.1958 -1.6427
  183SOPE  H11B20892   5.448   0.615   6.342 -0.1994  1.6505 -0.0575
  183SOPE     P20893   5.218   0.408   6.224  0.1285 -0.2474 -0.4008
  183SOPE   O1320894   5.208   0.343   6.093  0.2707 -0.1383 -0.1562
  183SOPE   O1420895   5.094   0.450   6.293  0.4259  0.0426  0.3305
  183SOPE   O1220896   5.306   0.536   6.215  0.0012 -0.4372  0.0210
  183SOPE   O1120897   5.305   0.310   6.320 -0.4931  0.2033 -0.3026
  183SOPE    C120898   5.279   0.170   6.332 -0.1618 -0.0749  0.3571
  183SOPE    HA20899   5.337   0.108   6.261 -0.4255 -0.9138  0.8551
  183SOPE    HB20900   5.174   0.146   6.305 -0.3541  0.3636  0.6960
  183SOPE    C220901   5.312   0.122   6.476 -0.5128  0.1943  0.7281
  183SOPE    HS20902   5.283   0.016   6.489 -2.8081  0.7190  0.2858
  183SOPE   O2120903   5.249   0.211   6.571  0.0707  0.0201 -0.0931
  183SOPE   C2120904   5.117   0.239   6.561  0.4621  0.5475  0.1193
  183SOPE   O2220905   5.037   0.186   6.485  0.3746  0.3827 -0.3339
  183SOPE   C2220906   5.089   0.358   6.651 -0.9116 -0.0272 -0.4906
  183SOPE   H2R20907   4.988   0.401   6.637 -0.4453  1.6253  0.9821
  183SOPE   H2S20908   5.167   0.434   6.628 -0.3025  0.6279  3.1472
  183SOPE    C320909   5.472   0.128   6.506 -0.5290 -0.2173 -0.3113
  183SOPE    HX20910   5.484   0.233   6.541  0.7320  0.0014 -1.3495
  183SOPE    HY20911   5.521   0.102   6.410 -1.2731 -3.9267  0.1678
  183SOPE   O3120912   5.493   0.025   6.608 -0.2367  0.1731  0.3294
  183SOPE   C3120913   5.609   0.038   6.674 -0.4039  0.1401 -0.3631
  183SOPE   O3220914   5.694   0.121   6.654  0.2694 -0.2703  0.0296
  183SOPE   C3220915   5.635  -0.089   6.757  0.0582 -0.1555  0.5026
  183SOPE   H2X20916   5.732  -0.128   6.720  0.7641  1.1692  0.9152
  183SOPE   H2Y20917   5.550  -0.160   6.745 -0.7959  0.8642  0.2826
  183SOPE   C2320918   5.110   0.300   6.794 -0.0645 -0.0701  0.4889
  183SOPE   H3R20919   5.212   0.262   6.813  0.6544  1.8758  0.7528
  183SOPE   H3S20920   5.038   0.219   6.818 -0.9985  0.3685 -0.6879
  183SOPE   C2420921   5.096   0.419   6.892 -0.1718 -0.1168 -0.4179
  183SOPE   H4R20922   5.179   0.492   6.879 -0.1276  0.1707  1.2566
  183SOPE   H4S20923   5.001   0.474   6.871 -1.3906 -1.2270  1.8505
  183SOPE   C2520924   5.103   0.372   7.043  0.1794 -0.7990  0.3888
  183SOPE   H5R20925   5.039   0.284   7.069 -0.1099 -0.5426  0.5531
  183SOPE   H5S20926   5.208   0.344   7.064  0.6582  1.4763  1.2939
  183SOPE   C2620927   5.062   0.482   7.143  0.6303 -0.0064 -0.5148
  183SOPE   H6R20928   5.120   0.575   7.125  0.4739  0.7809  2.5938
  183SOPE   H6S20929   4.957   0.518   7.133  0.3928 -0.2108  1.0418
  183SOPE   C2720930   5.104   0.451   7.293  0.4677  0.1880  0.3707
  183SOPE   H7R20931   5.037   0.373   7.333  2.7167 -0.5896  2.9139
  183SOPE   H7S20932   5.203   0.401   7.303  0.7675  0.9152  1.2260
  183SOPE   C2820933   5.059   0.560   7.399 -0.8209 -0.0396 -0.9439
  183SOPE   H8R20934   4.961   0.603   7.369 -1.3222 -0.5792 -0.1229
  183SOPE   H8S20935   5.040   0.513   7.498 -1.4704 -0.1048 -1.0923
  183SOPE   C2920936   5.166   0.667   7.418 -0.1120  0.0772 -0.1913
  183SOPE   H9120937   5.149   0.762   7.367 -0.3001 -0.2512 -0.7458
  183SOPE  C21020938   5.268   0.659   7.504  0.5631  0.4796  0.2189
  183SOPE  H10120939   5.333   0.746   7.516 -1.4931  2.3575 -1.3108
  183SOPE  C21120940   5.297   0.549   7.598  0.9102  0.1336 -0.0980
  183SOPE  H11R20941   5.407   0.535   7.603  1.0815  1.0578 -0.9113
  183SOPE  H11S20942   5.252   0.451   7.572  0.2944  0.2630  0.4674
  183SOPE  C21220943   5.225   0.584   7.736 -0.2326  0.0454  0.3575
  183SOPE  H12R20944   5.211   0.492   7.798  0.7821 -0.2044  0.2334
  183SOPE  H12S20945   5.119   0.613   7.719 -0.9181 -2.3720  0.1204
  183SOPE  C21320946   5.291   0.697   7.816 -0.2727 -0.4217 -0.0431
  183SOPE  H13R20947   5.281   0.800   7.776  1.4972  1.0811  3.0878
  183SOPE  H13S20948   5.400   0.683   7.800 -0.3077 -1.2355  0.3846
  183SOPE  C21420949   5.268   0.711   7.965  0.1635  0.4456 -0.0860
  183SOPE  H14R20950   5.346   0.784   7.996  1.3938 -0.8596  0.0291
  183SOPE  H14S20951   5.295   0.615   8.016 -3.5966  0.0979  1.5206
  183SOPE  C21520952   5.122   0.764   8.001 -0.0940 -0.5604  0.6903
  183SOPE  H15R20953   5.047   0.714   7.936  0.3817 -0.4612  0.0580
  183SOPE  H15S20954   5.123   0.874   7.987  1.7777 -0.4829  1.1329
  183SOPE  C21620955   5.103   0.744   8.152 -0.3796  0.4078 -0.2512
  183SOPE  H16R20956   5.197   0.767   8.206  0.6480 -3.2804 -0.1579
  183SOPE  H16S20957   5.090   0.638   8.184 -2.0401  0.6835  0.0703
  183SOPE  C21720958   4.994   0.835   8.208 -0.1212  0.2368  0.2532
  183SOPE  H17R20959   4.893   0.814   8.165 -1.1137  2.2620  1.4466
  183SOPE  H17S20960   5.005   0.941   8.177 -2.5214  1.2272  2.4385
  183SOPE  C21820961   4.995   0.837   8.361  0.8284 -0.1363  0.6427
  183SOPE  H18R20962   4.971   0.734   8.394  0.9952 -0.5921 -0.5839
  183SOPE  H18S20963   4.924   0.906   8.412  0.3009 -1.5126  1.8284
  183SOPE  H18T20964   5.100   0.854   8.393  1.3148  2.5068 -1.9119
  183SOPE   C3320965   5.654  -0.065   6.903  0.2573  0.0364 -0.6075
  183SOPE   H3X20966   5.562  -0.015   6.942  1.3601  0.9780  0.8915
  183SOPE   H3Y20967   5.736   0.005   6.929  1.3503 -0.6251 -2.1619
  183SOPE   C3420968   5.672  -0.201   6.982 -0.8983 -0.3251  0.5345
  183SOPE   H4X20969   5.767  -0.248   6.949 -1.0541  0.3042 -0.8890
  183SOPE   H4Y20970   5.594  -0.272   6.946  0.5420 -1.7408  0.1099
  183SOPE   C3520971   5.652  -0.187   7.133 -0.4695  0.5211  0.4354
  183SOPE   H5X20972   5.657  -0.283   7.190 -0.6943  0.1716 -0.1236
  183SOPE   H5Y20973   5.557  -0.132   7.144 -1.0356 -0.4661  0.6124
  183SOPE   C3620974   5.749  -0.093   7.198  0.0769 -0.2593  0.2584
  183SOPE   H6X20975   5.734   0.010   7.161  0.6749 -0.3627 -0.2930
  183SOPE   H6Y20976   5.848  -0.122   7.157 -0.1539  0.1363 -0.5914
  183SOPE   C3720977   5.747  -0.098   7.351 -0.0501 -0.1635  0.0727
  183SOPE   H7X20978   5.847  -0.082   7.397 -0.9434 -0.5155  2.2373
  183SOPE   H7Y20979   5.720  -0.198   7.391  0.2452 -0.2494  0.0614
  183SOPE   C3820980   5.650   0.010   7.404  0.3223  0.4726  0.0487
  183SOPE   H8X20981   5.548  -0.016   7.367  1.1063 -1.1787 -1.0632
  183SOPE   H8Y20982   5.674   0.110   7.363  0.1553  1.3388  1.9640
  183SOPE   C3920983   5.645   0.030   7.553 -0.7514  0.1886 -0.7850
  183SOPE   H9X20984   5.637  -0.067   7.607  1.2183 -0.3894 -1.4382
  183SOPE   H9Y20985   5.560   0.097   7.579 -0.5202  0.2820 -0.2591
  183SOPE  C31020986   5.778   0.094   7.613  0.1554  0.1774  0.6307
  183SOPE  H10X20987   5.795   0.187   7.555  1.8679  0.2086  1.1167
  183SOPE  H10Y20988   5.863   0.026   7.590 -1.4717 -2.0608  0.8801
  183SOPE  C31120989   5.764   0.127   7.764  0.3535 -0.1760  0.2810
  183SOPE  H11X20990   5.704   0.220   7.780  2.5520  1.7358 -1.7006
  183SOPE  H11Y20991   5.864   0.162   7.797  0.6702 -0.9888  0.2046
  183SOPE  C31220992   5.717   0.016   7.849  0.6464 -0.3115 -1.2463
  183SOPE  H12X20993   5.779  -0.076   7.845  0.0459 -0.9224  1.3802
  183SOPE  H12Y20994   5.626  -0.025   7.799  1.0794  0.6533 -2.8847
  183SOPE  C31320995   5.668   0.064   7.985 -0.5759  0.3348 -0.2932
  183SOPE  H13X20996   5.624  -0.019   8.045 -0.2158 -0.1020 -0.6316
  183SOPE  H13Y20997   5.594   0.147   7.977 -1.0556  0.0265  0.7349
  183SOPE  C31420998   5.788   0.116   8.062  0.6199 -0.3182 -0.3739
  183SOPE  H14X20999   5.823   0.203   8.002 -2.2585  1.2216 -0.0575
  183SOPE  H14Y21000   5.868   0.040   8.061  0.3117 -0.6691  0.3946
  183SOPE  C31521001   5.757   0.164   8.202 -0.2561  0.6229 -0.0718
  183SOPE  H15X21002   5.707   0.090   8.269  0.6348  0.2983  0.2490
  183SOPE  H15Y21003   5.671   0.232   8.186  0.0978  0.7950 -1.3697
  183SOPE  C31621004   5.868   0.239   8.270  0.4267  0.5209  0.3721
  183SOPE  H16X21005   5.912   0.317   8.204  0.0593  1.2061  0.9314
  183SOPE  H16Y21006   5.936   0.156   8.298 -1.0478 -0.9296 -0.1184
  183SOPE  C31721007   5.836   0.305   8.403 -0.6929 -0.4120  0.0563
  183SOPE  H17X21008   5.821   0.239   8.491  0.2877 -0.2085  0.3817
  183SOPE  H17Y21009   5.743   0.366   8.406 -0.6352 -0.3325  0.2320
  183SOPE  C31821010   5.932   0.415   8.445  0.1635 -1.0586 -0.5687
  183SOPE  H18X21011   5.879   0.473   8.524  3.2797  1.6514 -0.2380
  183SOPE  H18Y21012   5.952   0.488   8.364  2.7438 -1.3934 -0.3071
  183SOPE  H18Z21013   6.036   0.388   8.472 -0.0151 -0.0359  1.3501
  184SOPE     N21014   4.686   1.373   5.944 -0.5396  0.2018  0.2183
  184SOPE   HN121015   4.718   1.275   5.928 -0.3692  0.0647  1.3534
  184SOPE   HN221016   4.684   1.426   5.855  0.9334  0.0209  0.0460
  184SOPE   HN321017   4.757   1.419   6.004 -0.2365 -0.7707  0.6248
  184SOPE   C1221018   4.552   1.371   6.010 -0.9514  0.0232 -0.4199
  184SOPE  H12A21019   4.474   1.338   5.938  0.1527  0.9811 -2.1318
  184SOPE  H12B21020   4.542   1.473   6.053  2.0899 -0.2492  1.1927
  184SOPE   C1121021   4.548   1.268   6.124 -0.0474  0.1272 -0.0131
  184SOPE  H11A21022   4.443   1.255   6.157 -0.2108 -0.5292 -0.7654
  184SOPE  H11B21023   4.599   1.322   6.207  0.3253  0.5311 -0.4994
  184SOPE     P21024   4.743   1.078   6.123  0.2030  0.3204  0.1133
  184SOPE   O1321025   4.845   1.161   6.054  0.2891  0.8370  0.8795
  184SOPE   O1421026   4.748   0.938   6.092 -0.7679  0.0526  0.1152
  184SOPE   O1221027   4.602   1.140   6.082  0.4475  0.8195 -0.6449
  184SOPE   O1121028   4.749   1.088   6.280 -0.0070  0.5431 -0.0496
  184SOPE    C121029   4.859   1.161   6.344 -0.1863 -0.5892 -0.3616
  184SOPE    HA21030   4.855   1.270   6.321  1.4748 -0.4237 -0.0154
  184SOPE    HB21031   4.959   1.126   6.311 -0.1182 -1.1129  0.3700
  184SOPE    C221032   4.851   1.138   6.495 -0.1998 -0.1172  0.8005
  184SOPE    HS21033   4.930   1.195   6.549 -1.1985  1.0230  1.0991
  184SOPE   O2121034   4.861   0.999   6.528 -0.1266 -0.7007 -0.6848
  184SOPE   C2121035   4.980   0.958   6.560  0.7168  0.0010  0.0713
  184SOPE   O2221036   5.086   1.022   6.554  0.0925  0.1084  0.6652
  184SOPE   C2221037   4.960   0.816   6.613 -0.4566  0.0715 -0.4540
  184SOPE   H2R21038   4.965   0.751   6.522 -0.0238  2.2388 -2.0434
  184SOPE   H2S21039   4.855   0.800   6.643 -0.0447  0.8026  1.4616
  184SOPE    C321040   4.716   1.188   6.548  0.4210 -0.2204  0.6865
  184SOPE    HX21041   4.649   1.099   6.548 -0.6648  0.5315 -1.1195
  184SOPE    HY21042   4.665   1.256   6.476  1.6568  0.1385  0.1368
  184SOPE   O3121043   4.733   1.265   6.667 -0.6345  0.0631  0.3255
  184SOPE   C3121044   4.698   1.199   6.775  0.0394  0.1508 -0.6109
  184SOPE   O3221045   4.656   1.084   6.783 -0.0445 -0.7395 -0.0320
  184SOPE   C3221046   4.721   1.294   6.897 -0.1235 -0.8353  0.4192
  184SOPE   H2X21047   4.748   1.397   6.864 -0.7087 -1.5117 -2.4508
  184SOPE   H2Y21048   4.809   1.254   6.952  1.1013 -0.1351 -0.9492
  184SOPE   C2321049   5.064   0.764   6.717 -0.5238  0.1284  0.5606
  184SOPE   H3R21050   5.163   0.753   6.668  0.5263  1.2049  2.3535
  184SOPE   H3S21051   5.047   0.659   6.750  0.0934  0.5747  2.3783
  184SOPE   C2421052   5.061   0.857   6.840 -0.0987  0.3060  0.1116
  184SOPE   H4R21053   5.140   0.827   6.913  2.6413  0.9214 -2.4052
  184SOPE   H4S21054   5.081   0.962   6.809  1.5251 -0.1303 -0.4247
  184SOPE   C2521055   4.935   0.860   6.923 -0.0718 -0.2255 -0.0053
  184SOPE   H5R21056   4.862   0.928   6.874 -1.3081 -1.4733  0.0467
  184SOPE   H5S21057   4.880   0.763   6.929  0.2237 -0.2860  2.7976
  184SOPE   C2621058   4.969   0.897   7.065 -0.2030  0.8456 -0.5020
  184SOPE   H6R21059   5.040   0.820   7.104  0.1538  0.9856 -0.8644
  184SOPE   H6S21060   5.015   0.998   7.069  0.3752  0.5596  0.3968
  184SOPE   C2721061   4.849   0.909   7.157 -0.5273 -0.3808 -0.3328
  184SOPE   H7R21062   4.765   0.962   7.108 -0.6772  0.1934  0.5187
  184SOPE   H7S21063   4.815   0.803   7.166 -1.5402 -0.3234 -2.8850
  184SOPE   C2821064   4.883   0.957   7.294 -0.0305 -0.4912  0.2482
  184SOPE   H8R21065   4.947   0.875   7.331 -0.1490  0.0658  1.7519
  184SOPE   H8S21066   4.941   1.052   7.290 -0.0422 -0.5064 -0.6002
  184SOPE   C2921067   4.759   0.975   7.369  0.6566  0.3717  0.2981
  184SOPE   H9121068   4.683   1.027   7.309  0.7460  0.4653  0.2661
  184SOPE  C21021069   4.722   0.910   7.481 -0.5773  0.7841 -1.2149
  184SOPE  H10121070   4.634   0.952   7.531  0.0721  2.6556 -1.5532
  184SOPE  C21121071   4.800   0.812   7.564 -0.2197 -0.3669  0.5983
  184SOPE  H11R21072   4.889   0.779   7.506 -0.6490 -0.9594  0.2647
  184SOPE  H11S21073   4.732   0.725   7.577  0.2012 -0.8335 -0.2821
  184SOPE  C21221074   4.849   0.878   7.695  0.0043 -0.2189 -0.1370
  184SOPE  H12R21075   4.920   0.961   7.675  0.5742 -0.2935  1.4446
  184SOPE  H12S21076   4.903   0.801   7.753 -0.1107  0.2195  0.5633
  184SOPE  C21321077   4.734   0.939   7.778 -0.4687 -0.5231 -0.1727
  184SOPE  H13R21078   4.710   1.037   7.733  0.4723  0.3738  1.1887
  184SOPE  H13S21079   4.784   0.959   7.875 -0.9498  1.4284 -0.2943
  184SOPE  C21421080   4.617   0.847   7.813  0.4256 -0.0579 -0.1531
  184SOPE  H14R21081   4.670   0.754   7.844 -0.1126 -0.7515 -1.2537
  184SOPE  H14S21082   4.546   0.829   7.730 -3.2068  3.2810  1.8587
  184SOPE  C21521083   4.537   0.897   7.930  0.0389 -0.8958 -0.5240
  184SOPE  H15R21084   4.450   0.834   7.961  2.0872 -3.1110  1.1591
  184SOPE  H15S21085   4.489   0.992   7.898 -4.3335 -2.6982 -0.0156
  184SOPE  C21621086   4.607   0.933   8.065  0.2447  0.2290  0.1466
  184SOPE  H16R21087   4.678   1.018   8.078  1.3504 -0.5572 -0.5348
  184SOPE  H16S21088   4.667   0.843   8.092 -0.7307 -1.0406 -1.6139
  184SOPE  C21721089   4.504   0.939   8.184 -0.7472  0.5070 -0.7863
  184SOPE  H17R21090   4.409   0.888   8.159 -1.3338  1.3393 -0.3092
  184SOPE  H17S21091   4.484   1.048   8.177  0.0934  0.8455  1.1644
  184SOPE  C21821092   4.574   0.919   8.312 -0.3823 -0.3502 -0.3287
  184SOPE  H18R21093   4.673   0.971   8.318  0.9107 -2.6969 -0.1027
  184SOPE  H18S21094   4.603   0.814   8.332 -2.5385 -1.2845 -1.8192
  184SOPE  H18T21095   4.518   0.968   8.394  0.4656  0.7339 -0.3598
  184SOPE   C3321096   4.599   1.284   6.991  0.3385 -0.5601 -0.0400
  184SOPE   H3X21097   4.567   1.179   7.009  1.0062 -0.7384  0.1637
  184SOPE   H3Y21098   4.512   1.331   6.941 -0.1860 -2.5756 -1.0930
  184SOPE   C3421099   4.608   1.355   7.127  0.4623 -0.6458  0.2523
  184SOPE   H4X21100   4.642   1.461   7.135 -2.3934  0.5571 -1.9368
  184SOPE   H4Y21101   4.689   1.305   7.185 -0.2720 -0.9076  1.0632
  184SOPE   C3521102   4.481   1.354   7.207  0.6342 -0.2299 -0.2605
  184SOPE   H5X21103   4.405   1.411   7.149 -0.6629 -0.2614  1.3419
  184SOPE   H5Y21104   4.495   1.407   7.304 -1.5659  0.4912 -0.2929
  184SOPE   C3621105   4.444   1.215   7.242  0.5364 -0.8294 -0.1645
  184SOPE   H6X21106   4.525   1.139   7.254  1.2688 -0.4447 -2.2066
  184SOPE   H6Y21107   4.396   1.176   7.150  0.1581 -1.7074  0.3920
  184SOPE   C3721108   4.340   1.204   7.352  0.8430  0.0610 -0.1456
  184SOPE   H7X21109   4.300   1.100   7.356  1.8337 -0.4255 -2.0696
  184SOPE   H7Y21110   4.250   1.263   7.324  0.5773  0.0211  0.5865
  184SOPE   C3821111   4.385   1.218   7.501 -0.4788  0.2100 -0.2050
  184SOPE   H8X21112   4.422   1.322   7.514 -2.7637  1.0907 -0.2428
  184SOPE   H8Y21113   4.475   1.155   7.516  0.8485  1.4612 -2.3042
  184SOPE   C3921114   4.281   1.187   7.604 -0.1349  0.1310 -0.2761
  184SOPE   H9X21115   4.284   1.080   7.634  0.1079  0.6948  1.9023
  184SOPE   H9Y21116   4.182   1.236   7.593 -0.0167  0.5610  0.4635
  184SOPE  C31021117   4.339   1.255   7.731  0.0398 -0.3744 -0.6796
  184SOPE  H10X21118   4.368   1.361   7.715  1.1938 -0.3434  1.2869
  184SOPE  H10Y21119   4.430   1.194   7.755 -0.7320 -0.5582  2.1579
  184SOPE  C31121120   4.246   1.252   7.852 -0.1673  0.1463 -0.0524
  184SOPE  H11X21121   4.175   1.335   7.833  0.6847  0.9442  0.1775
  184SOPE  H11Y21122   4.302   1.297   7.937  0.0278  3.0400 -1.6087
  184SOPE  C31221123   4.179   1.122   7.884  0.4358 -0.3999 -0.4057
  184SOPE  H12X21124   4.241   1.032   7.900  3.3451  1.3694 -0.8918
  184SOPE  H12Y21125   4.113   1.099   7.798  1.3437 -2.4695 -0.5876
  184SOPE  C31321126   4.093   1.142   8.011 -0.0454  0.5180  0.3037
  184SOPE  H13X21127   4.004   1.076   7.995 -0.0362  0.5146  0.2647
  184SOPE  H13Y21128   4.064   1.249   8.003  1.0208  1.0538  2.6180
  184SOPE  C31421129   4.169   1.108   8.142 -0.8079 -0.3332 -0.5002
  184SOPE  H14X21130   4.254   1.176   8.162  0.8936 -1.5014 -3.1457
  184SOPE  H14Y21131   4.214   1.007   8.150  5.8059  2.1786 -0.0449
  184SOPE  C31521132   4.087   1.119   8.272  1.0053  0.5152 -0.2633
  184SOPE  H15X21133   4.139   1.070   8.357 -0.3808 -0.9757 -0.2300
  184SOPE  H15Y21134   3.990   1.068   8.253  0.3414  1.9017 -0.6871
  184SOPE  C31621135   4.038   1.265   8.304  0.1872 -0.6255  0.1601
  184SOPE  H16X21136   3.970   1.302   8.225  0.2118 -0.6624  0.1210
  184SOPE  H16Y21137   4.122   1.335   8.285 -0.5316 -0.3795 -2.4266
  184SOPE  C31721138   3.968   1.279   8.439  0.0031 -0.0588  0.4628
  184SOPE  H17X21139   4.040   1.283   8.523 -0.3795  0.6470  0.7671
  184SOPE  H17Y21140   3.896   1.196   8.454  0.8502 -0.8450  0.2857
  184SOPE  C31821141   3.892   1.418   8.448  0.1791 -0.0435  0.3322
  184SOPE  H18X21142   3.923   1.478   8.360 -0.2640  0.1172  0.2852
  184SOPE  H18Y21143   3.911   1.467   8.546  0.5197  1.6456 -0.5443
  184SOPE  H18Z21144   3.782   1.414   8.457  0.2883 -0.3520  1.8702
  185SAPI   C1221145   0.495   4.296  10.931  0.2226  0.2653 -0.2105
  185SAPI    H221146   0.589   4.347  10.899  1.2980 -1.9516 -0.7356
  185SAPI    O221147   0.432   4.222  10.828  0.0826  0.1812 -0.4131
  185SAPI   HO221148   0.405   4.282  10.758 -1.5044  0.9553  0.7894
  185SAPI   C1321149   0.527   4.211  11.049  0.0404  0.4750 -0.2449
  185SAPI    H321150   0.562   4.276  11.133  0.5261  0.8598 -0.7378
  185SAPI    O321151   0.640   4.128  11.031 -0.3835 -0.4300 -1.0494
  185SAPI   HO321152   0.616   4.045  10.991 -0.5860 -2.1378  2.2920
  185SAPI   C1421153   0.409   4.130  11.117  0.0198  0.9852 -0.3913
  185SAPI    H421154   0.359   4.065  11.041 -0.7354  0.5537  0.4489
  185SAPI    O421155   0.446   4.042  11.221 -0.1625  0.0083 -0.3420
  185SAPI   HO421156   0.470   3.956  11.186  3.8821  0.3182  1.1840
  185SAPI   C1521157   0.308   4.235  11.154  0.3042 -0.2785 -0.1499
  185SAPI    H521158   0.352   4.297  11.236 -0.0698  0.3654 -0.4335
  185SAPI    O521159   0.191   4.181  11.219 -0.1708 -0.6623  0.1355
  185SAPI   HO521160   0.137   4.252  11.255 -1.6011 -1.9517  0.6521
  185SAPI   C1621161   0.271   4.328  11.042 -0.2962  0.1344  0.6636
  185SAPI    H621162   0.224   4.269  10.961 -0.8529  0.7359  0.5376
  185SAPI    O621163   0.179   4.430  11.080 -0.5571  0.6876 -0.0694
  185SAPI   HO621164   0.222   4.482  11.148  1.7311 -1.5039  0.3338
  185SAPI   C1121165   0.393   4.402  10.978  0.0079 -0.8198 -0.0172
  185SAPI    H121166   0.438   4.450  11.068  0.4360 -2.2641  0.5674
  185SAPI     P21167   0.449   4.624  10.843  0.0414  0.3886  0.1824
  185SAPI   O1321168   0.567   4.628  10.936  0.6568  0.0080 -0.0003
  185SAPI   O1421169   0.362   4.741  10.837 -0.0250 -0.0735  0.0813
  185SAPI   O1221170   0.359   4.488  10.864 -0.8571  0.5753 -0.8700
  185SAPI   O1121171   0.502   4.597  10.699  0.2048 -0.0152  0.1103
  185SAPI    C121172   0.626   4.662  10.663  0.6593 -0.4468  0.4466
  185SAPI    HA21173   0.646   4.754  10.722  1.3898  0.3546 -0.9779
  185SAPI    HB21174   0.710   4.591  10.675  2.4958  1.3326 -1.0443
  185SAPI    C221175   0.634   4.702  10.511  0.1784 -0.0887 -0.0419
  185SAPI    HS21176   0.739   4.722  10.480  0.3925 -1.2567 -0.0853
  185SAPI   O2121177   0.549   4.814  10.479  0.6793 -0.2744 -0.3004
  185SAPI   C2121178   0.616   4.928  10.451 -0.6676 -0.5454  0.1577
  185SAPI   O2221179   0.731   4.947  10.479  0.0677  0.0660 -0.1621
  185SAPI   C2221180   0.518   5.029  10.392  0.4514  0.4851  0.5916
  185SAPI   H2R21181   0.415   4.996  10.418  0.8370 -1.7765 -0.5126
  185SAPI   H2S21182   0.533   5.129  10.439 -1.4372  2.8831 -3.3717
  185SAPI    C321183   0.580   4.585  10.425 -0.5203  0.0025 -0.4946
  185SAPI    HX21184   0.472   4.584  10.451 -0.2438  3.0823  1.1955
  185SAPI    HY21185   0.618   4.489  10.466  0.3177  0.0897 -1.0390
  185SAPI   O3121186   0.597   4.619  10.289  0.1017  0.0031 -0.0868
  185SAPI   C3121187   0.707   4.563  10.237  0.8957 -0.5704  0.5839
  185SAPI   O3221188   0.775   4.478  10.289 -0.3839 -0.3134 -0.2808
  185SAPI   C3221189   0.736   4.636  10.098 -0.4499  0.5636  0.1459
  185SAPI   H2X21190   0.640   4.683  10.067 -1.6623  0.0184  2.7304
  185SAPI   H2Y21191   0.771   4.561  10.024  0.9716  0.7588  0.5968
  185SAPI   C2321192   0.514   5.031  10.240 -1.1341  0.4858  0.2491
  185SAPI   H3R21193   0.599   5.089  10.199 -0.3448 -1.2672 -0.7195
  185SAPI   H3S21194   0.425   5.090  10.209 -1.0215 -0.1772 -1.4568
  185SAPI   C2421195   0.509   4.896  10.171  0.0920  1.0148  0.9911
  185SAPI   H4R21196   0.417   4.843  10.205  0.1180  0.2658 -0.0654
  185SAPI   H4S21197   0.595   4.834  10.202  0.3054 -0.3920 -2.0496
  185SAPI   C2521198   0.503   4.903  10.022 -0.2724  0.5745 -0.4903
  185SAPI   H5R21199   0.574   4.980   9.988 -1.1175  2.1910  1.2189
  185SAPI   C2621200   0.419   4.840   9.943  0.8522  0.0007  0.3345
  185SAPI   H6R21201   0.434   4.844   9.835  2.1775  1.7938  0.5452
  185SAPI   C2721202   0.304   4.745   9.976  0.3188  0.3035  0.0218
  185SAPI   H7R21203   0.308   4.713  10.083 -2.4871  0.9274  0.3738
  185SAPI   H7S21204   0.321   4.655   9.913 -0.8022  0.0360  0.0791
  185SAPI   C2821205   0.166   4.787   9.941 -0.3111  0.4495  0.0889
  185SAPI   H8R21206   0.123   4.846  10.024 -0.6424 -1.4872  1.3604
  185SAPI   C2921207   0.092   4.771   9.829 -0.6097  0.0700 -0.0462
  185SAPI   H9R21208  -0.011   4.809   9.829 -0.6229  0.0815  1.3791
  185SAPI  C21021209   0.138   4.702   9.700  0.1216 -0.7481 -0.5978
  185SAPI  H10R21210   0.229   4.644   9.723  1.5756  2.2518  1.9590
  185SAPI  H10S21211   0.156   4.788   9.633 -1.4988  0.2042  0.1157
  185SAPI  C21121212   0.041   4.615   9.627 -0.4784  0.7454 -0.3259
  185SAPI  H11R21213   0.019   4.650   9.525  1.1581  0.0461 -0.9496
  185SAPI  C21221214  -0.015   4.494   9.661 -0.1475 -1.2494 -0.2288
  185SAPI  H12R21215  -0.082   4.446   9.588  0.2383 -0.5021 -1.0906
  185SAPI  C21321216   0.002   4.412   9.784 -0.2023  0.6189 -0.9227
  185SAPI  H13R21217   0.076   4.461   9.851 -0.9190 -1.6881  1.7540
  185SAPI  H13S21218   0.036   4.309   9.764 -1.3495  0.6647 -3.6015
  185SAPI  C21421219  -0.124   4.404   9.863  0.4450 -0.4008 -0.3976
  185SAPI  H14R21220  -0.179   4.498   9.880  0.9176 -0.7614  5.1209
  185SAPI  C21521221  -0.178   4.289   9.909  0.4438 -0.2367  0.2911
  185SAPI  H15R21222  -0.276   4.290   9.959  1.2577 -0.8090  1.9799
  185SAPI  C21621223  -0.118   4.148   9.903  0.2667  0.4492 -0.2770
  185SAPI  H16R21224  -0.007   4.150   9.910  0.2526  1.9940 -0.0721
  185SAPI  H16S21225  -0.141   4.077   9.822  0.8506 -1.0705  0.8448
  185SAPI  C21721226  -0.147   4.075  10.033 -0.2148 -0.1382  0.0453
  185SAPI  H17R21227  -0.256   4.053  10.028 -0.3688  0.6102 -0.0958
  185SAPI  H17S21228  -0.121   4.134  10.124 -0.1427  2.2302 -1.4333
  185SAPI  C21821229  -0.064   3.946  10.043 -0.6223  0.1434  0.0353
  185SAPI  H18R21230   0.038   3.959  10.002 -0.3898  1.3795  0.9428
  185SAPI  H18S21231  -0.115   3.868   9.983 -1.6814  0.7391  0.1338
  185SAPI  C21921232  -0.057   3.893  10.189  0.3427  0.4534 -0.2138
  185SAPI  H19R21233  -0.006   3.961  10.261  1.9192  1.2262 -1.9761
  185SAPI  H19S21234   0.006   3.802  10.183  0.5750  0.5364  0.7750
  185SAPI  C22021235  -0.189   3.851  10.247 -0.1471 -0.6754  0.3501
  185SAPI  H20R21236  -0.188   3.795  10.342  1.3099 -3.2819 -1.0957
  185SAPI  H20S21237  -0.238   3.775  10.182  0.3460  0.6505 -1.6791
  185SAPI  H20T21238  -0.261   3.935  10.256  1.3328  0.6655  0.1638
  185SAPI   C3321239   0.849   4.746  10.096  0.3767 -0.0535 -0.0346
  185SAPI   H3X21240   0.944   4.694  10.117 -0.1611 -1.5204 -1.0959
  185SAPI   H3Y21241   0.835   4.828  10.170 -0.7049 -0.1460 -0.1086
  185SAPI   C3421242   0.868   4.825   9.958 -0.1288  0.5198 -0.4777
  185SAPI   H4X21243   0.958   4.890   9.963 -0.6301  1.1782  3.8026
  185SAPI   H4Y21244   0.775   4.884   9.942 -1.8447 -0.9537  3.0508
  185SAPI   C3521245   0.892   4.745   9.829 -0.6501 -0.2825  0.1210
  185SAPI   H5X21246   0.826   4.655   9.829 -0.5221 -0.3859  1.2683
  185SAPI   H5Y21247   0.993   4.699   9.832 -0.3243  0.4381  0.2449
  185SAPI   C3621248   0.872   4.821   9.702  0.7409  0.3371  0.7038
  185SAPI   H6X21249   0.969   4.864   9.668 -0.6358  2.1021 -1.2531
  185SAPI   H6Y21250   0.803   4.904   9.730 -1.3355 -0.6485 -1.2458
  185SAPI   C3721251   0.827   4.735   9.588  0.6462 -1.0510  0.9325
  185SAPI   H7X21252   0.743   4.674   9.626 -0.9321  1.3334  1.5076
  185SAPI   H7Y21253   0.909   4.670   9.550  0.7823  1.0457 -2.9877
  185SAPI   C3821254   0.786   4.821   9.470  0.2808  0.4151 -0.1984
  185SAPI   H8X21255   0.776   4.749   9.386  0.2654 -2.3792  2.0420
  185SAPI   H8Y21256   0.866   4.897   9.457  0.8783  0.0973  1.4476
  185SAPI   C3921257   0.650   4.893   9.476 -0.3923  0.6961 -0.8062
  185SAPI   H9X21258   0.642   4.952   9.569 -1.5519  0.6133 -0.8458
  185SAPI   H9Y21259   0.579   4.808   9.488  0.1259  0.1172 -1.6986
  185SAPI  C31021260   0.609   4.974   9.357 -0.4410  0.9878 -0.2859
  185SAPI  H10X21261   0.692   5.047   9.357 -0.0934  0.6032  0.8120
  185SAPI  H10Y21262   0.516   5.028   9.386  0.6592  2.4806  0.5550
  185SAPI  C31121263   0.620   4.917   9.216 -0.2006  0.5014 -0.4737
  185SAPI  H11X21264   0.540   4.844   9.188  0.8382 -0.4422 -1.0610
  185SAPI  H11Y21265   0.714   4.858   9.208  0.4608  1.5538 -0.6376
  185SAPI  C31221266   0.644   5.024   9.109 -0.3984  0.2497  0.4481
  185SAPI  H12X21267   0.671   4.977   9.012  1.5057 -0.1660  1.1455
  185SAPI  H12Y21268   0.736   5.081   9.132  0.1451  0.0276 -1.0765
  185SAPI  C31321269   0.523   5.115   9.086  0.3844 -0.2299  0.1821
  185SAPI  H13X21270   0.492   5.160   9.183  1.4674  1.2694 -0.1347
  185SAPI  H13Y21271   0.439   5.053   9.048  0.6293 -1.3631  1.4096
  185SAPI  C31421272   0.541   5.231   8.976  0.1890  0.1220  0.2389
  185SAPI  H14X21273   0.578   5.192   8.879  0.0914  0.6213  0.0014
  185SAPI  H14Y21274   0.618   5.301   9.016 -1.3460  1.5797  0.7577
  185SAPI  C31521275   0.406   5.294   8.940  0.5660  0.0503  0.7701
  185SAPI  H15X21276   0.360   5.352   9.022  0.8892  0.9226  0.3426
  185SAPI  H15Y21277   0.344   5.211   8.899  0.6175  0.8610 -1.0522
  185SAPI  C31621278   0.412   5.382   8.813  0.2699 -0.4922  0.3431
  185SAPI  H16X21279   0.465   5.331   8.731 -0.2638  1.3197 -1.2110
  185SAPI  H16Y21280   0.480   5.464   8.847 -2.9199  2.8519 -0.6572
  185SAPI  C31721281   0.277   5.437   8.775 -0.5396  0.6418  0.8002
  185SAPI  H17X21282   0.233   5.497   8.858 -2.3946  0.0692  0.2808
  185SAPI  H17Y21283   0.211   5.350   8.753  1.0657 -0.4951  0.2576
  185SAPI  C31821284   0.289   5.531   8.650 -0.3658  0.1479  0.6222
  185SAPI  H18X21285   0.194   5.561   8.602  2.1367  3.6667 -2.6699
  185SAPI  H18Y21286   0.364   5.496   8.577  0.9489  0.8409  1.5862
  185SAPI  H18Z21287   0.332   5.626   8.687  0.3559  0.1830 -0.2735
  186SAPI   C1221288   0.894   2.678  10.737  0.2664  0.1690 -0.2961
  186SAPI    H221289   0.829   2.727  10.661  0.9868  0.5020 -0.7047
  186SAPI    O221290   0.827   2.571  10.800  0.2030 -0.5901  0.2517
  186SAPI   HO221291   0.761   2.606  10.861  0.0587 -0.5567  0.0756
  186SAPI   C1321292   1.023   2.627  10.670 -0.2320 -0.0186 -0.3214
  186SAPI    H321293   1.083   2.710  10.628 -1.3697 -0.4782 -3.1469
  186SAPI    O321294   0.994   2.546  10.558  0.4302 -0.0349  0.1125
  186SAPI   HO321295   1.052   2.565  10.484 -0.3354  0.1656 -0.4459
  186SAPI   C1421296   1.118   2.561  10.773 -0.3987 -0.5252  0.9588
  186SAPI    H421297   1.068   2.475  10.823 -2.2297  0.3489  0.7471
  186SAPI    O421298   1.229   2.504  10.699  0.1723  0.4937 -0.0800
  186SAPI   HO421299   1.220   2.409  10.696 -0.3672  0.5222  0.4129
  186SAPI   C1521300   1.149   2.663  10.879  0.2844  0.3807 -0.2829
  186SAPI    H521301   1.202   2.750  10.835  0.1496  2.3550  3.0567
  186SAPI    O521302   1.239   2.606  10.974  0.1730 -0.5080 -0.0930
  186SAPI   HO521303   1.274   2.674  11.032  1.3009 -0.9052 -0.2768
  186SAPI   C1621304   1.022   2.723  10.951 -0.0374  0.2171  0.2029
  186SAPI    H621305   0.964   2.647  11.006  0.4768  0.0247  0.4904
  186SAPI    O621306   1.060   2.822  11.040  0.6700 -0.3945  0.0576
  186SAPI   HO621307   1.113   2.883  10.989 -0.1471 -0.0481 -0.3967
  186SAPI   C1121308   0.929   2.786  10.839  0.0637 -0.0893 -0.3263
  186SAPI    H121309   0.996   2.855  10.783  2.0207 -0.1629  1.7802
  186SAPI     P21310   0.751   2.981  10.843  0.0691  0.0170 -0.2938
  186SAPI   O1321311   0.858   3.081  10.822  0.2004 -0.4058 -0.0996
  186SAPI   O1421312   0.641   3.033  10.931 -0.4545  0.0159 -0.1517
  186SAPI   O1221313   0.817   2.837  10.897  0.6959 -0.7570 -0.5059
  186SAPI   O1121314   0.686   2.943  10.711 -0.0924 -0.3444 -0.0629
  186SAPI    C121315   0.550   2.903  10.686  0.2112 -0.5996  0.2759
  186SAPI    HA21316   0.487   2.934  10.772  1.2546 -1.1924  1.2841
  186SAPI    HB21317   0.511   2.953  10.594 -1.8101 -0.6556  1.0644
  186SAPI    C221318   0.533   2.754  10.651  0.5591  0.3826 -0.3893
  186SAPI    HS21319   0.576   2.693  10.733 -1.9075 -1.1080 -0.1212
  186SAPI   O2121320   0.600   2.743  10.519 -0.3093 -0.6965 -0.4826
  186SAPI   C2121321   0.638   2.623  10.485 -0.0843 -0.1957 -0.4733
  186SAPI   O2221322   0.634   2.520  10.548 -0.0127  0.0722  0.1418
  186SAPI   C2221323   0.668   2.632  10.340  0.0100  0.6695  0.2231
  186SAPI   H2R21324   0.716   2.729  10.314 -0.0865  1.6168  3.1995
  186SAPI   H2S21325   0.734   2.546  10.316 -0.5220  0.6835 -1.4675
  186SAPI    C321326   0.384   2.703  10.643 -0.1229 -0.4330  0.0328
  186SAPI    HX21327   0.348   2.706  10.748  1.7287 -1.5921  0.7552
  186SAPI    HY21328   0.375   2.602  10.598 -0.4604  1.1998 -3.9422
  186SAPI   O3121329   0.304   2.804  10.569 -1.1325 -0.4263 -0.4528
  186SAPI   C3121330   0.178   2.770  10.557 -0.1090 -0.0411 -0.2232
  186SAPI   O3221331   0.127   2.684  10.620  0.5334  0.2906 -0.4748
  186SAPI   C3221332   0.117   2.864  10.454  0.5175 -0.3135  0.4034
  186SAPI   H2X21333   0.208   2.890  10.396  0.3871  0.2556  0.4437
  186SAPI   H2Y21334   0.065   2.948  10.506  0.8509 -0.0030  0.2433
  186SAPI   C2321335   0.542   2.605  10.258  0.6439 -0.6987  0.6072
  186SAPI   H3R21336   0.471   2.540  10.314 -1.5481 -1.4517 -2.7521
  186SAPI   H3S21337   0.571   2.555  10.163  1.5346  0.0581  0.4705
  186SAPI   C2421338   0.461   2.732  10.224 -0.1751 -0.7832 -1.0072
  186SAPI   H4R21339   0.527   2.786  10.152 -1.3987  0.3899 -1.2884
  186SAPI   H4S21340   0.454   2.807  10.305 -0.1002 -1.3045 -0.5177
  186SAPI   C2521341   0.329   2.698  10.168  0.1860 -0.0272 -0.3797
  186SAPI   H5R21342   0.259   2.650  10.239 -0.0680  0.4425 -0.3093
  186SAPI   C2621343   0.284   2.744  10.047 -0.7385 -0.6388  0.3196
  186SAPI   H6R21344   0.195   2.700  10.000  0.4997 -1.2493 -1.5446
  186SAPI   C2721345   0.354   2.836   9.948 -0.0551  0.3930  0.8303
  186SAPI   H7R21346   0.429   2.904   9.995 -1.9402  1.7764  1.9877
  186SAPI   H7S21347   0.274   2.885   9.889 -0.5690 -1.7795 -0.3911
  186SAPI   C2821348   0.431   2.746   9.853 -0.3821  0.2570  0.8195
  186SAPI   H8R21349   0.507   2.682   9.902 -1.5189 -0.6416  1.4551
  186SAPI   C2921350   0.419   2.744   9.715  0.3413  0.0953  0.0813
  186SAPI   H9R21351   0.479   2.675   9.655  1.7016  2.2043 -1.1204
  186SAPI  C21021352   0.325   2.827   9.632 -1.0663 -0.6549  0.2529
  186SAPI  H10R21353   0.382   2.915   9.598 -2.1619 -0.4595 -1.1605
  186SAPI  H10S21354   0.241   2.874   9.689 -1.5812 -0.3086 -0.7720
  186SAPI  C21121355   0.265   2.743   9.521 -0.5330  0.7135 -0.6300
  186SAPI  H11R21356   0.210   2.657   9.561  0.3950  1.0252  1.4477
  186SAPI  C21221357   0.277   2.767   9.386 -0.7778  0.1921 -1.3321
  186SAPI  H12R21358   0.220   2.698   9.322 -1.9913 -0.4570  0.3743
  186SAPI  C21321359   0.358   2.875   9.331  0.4278 -0.8311  0.1651
  186SAPI  H13R21360   0.431   2.923   9.399  1.9316 -2.4048 -0.2566
  186SAPI  H13S21361   0.291   2.956   9.294  0.7154 -1.7171 -2.5446
  186SAPI  C21421362   0.445   2.827   9.221  0.0627 -0.7605 -0.2152
  186SAPI  H14R21363   0.523   2.762   9.265 -0.4695 -0.6064  1.0048
  186SAPI  C21521364   0.439   2.854   9.092  0.3843  0.5097 -0.0764
  186SAPI  H15R21365   0.504   2.804   9.019 -0.2247 -0.0051 -0.2738
  186SAPI  C21621366   0.334   2.943   9.036  0.4004 -0.5845  0.2933
  186SAPI  H16R21367   0.319   3.027   9.106  0.0664 -1.7330  1.6383
  186SAPI  H16S21368   0.240   2.884   9.031 -1.1800  1.5856  1.9377
  186SAPI  C21721369   0.358   2.987   8.891 -0.2748 -0.5096  0.1750
  186SAPI  H17R21370   0.366   2.898   8.824 -0.4839 -0.4957  0.1294
  186SAPI  H17S21371   0.456   3.039   8.893 -0.8633  0.7010 -0.8564
  186SAPI  C21821372   0.248   3.084   8.841 -0.2648 -0.2104 -0.3539
  186SAPI  H18R21373   0.232   3.158   8.922  0.0797 -0.7832  0.2525
  186SAPI  H18S21374   0.156   3.022   8.838 -1.6898  1.8107 -3.5466
  186SAPI  C21921375   0.276   3.161   8.712  0.4059  0.1884 -0.3380
  186SAPI  H19R21376   0.310   3.084   8.639  1.7836  0.2649  0.1888
  186SAPI  H19S21377   0.355   3.237   8.729 -0.4716  0.8689  0.8751
  186SAPI  C22021378   0.148   3.226   8.660 -0.8841 -0.4043 -0.1255
  186SAPI  H20R21379   0.064   3.154   8.658 -1.0895 -0.3308  2.4406
  186SAPI  H20S21380   0.171   3.264   8.559  1.3997 -1.2241  0.0085
  186SAPI  H20T21381   0.122   3.319   8.715 -1.9111 -1.8116  1.9124
  186SAPI   C3321382   0.013   2.785  10.368  0.0745  0.0045  0.6518
  186SAPI   H3X21383  -0.071   2.767  10.439  1.3967 -2.6161  1.6621
  186SAPI   H3Y21384   0.053   2.684  10.348  0.8903  0.0619  1.8767
  186SAPI   C3421385  -0.033   2.863  10.251 -0.2230  0.2727  0.6754
  186SAPI   H4X21386   0.054   2.904  10.197  0.9556 -0.5699  1.8753
  186SAPI   H4Y21387  -0.095   2.953  10.269 -0.4857  0.4652 -0.9743
  186SAPI   C3521388  -0.125   2.784  10.154 -0.1413  0.8821 -0.0514
  186SAPI   H5X21389  -0.207   2.731  10.207  0.1313 -1.8519 -2.1069
  186SAPI   H5Y21390  -0.058   2.703  10.118  0.0201  0.8613  0.3030
  186SAPI   C3621391  -0.184   2.862  10.039  0.0578 -0.2914  0.3504
  186SAPI   H6X21392  -0.102   2.871   9.964 -0.3534 -1.4093 -0.2535
  186SAPI   H6Y21393  -0.224   2.964  10.057 -0.5689 -0.5591  0.4611
  186SAPI   C3721394  -0.283   2.782   9.954 -0.2461 -0.1274  0.0578
  186SAPI   H7X21395  -0.374   2.782  10.018 -0.3969 -0.2321 -0.1548
  186SAPI   H7Y21396  -0.246   2.682   9.921 -0.5034  0.0282 -0.7082
  186SAPI   C3821397  -0.311   2.852   9.814 -0.8247  0.1961 -0.3738
  186SAPI   H8X21398  -0.289   2.960   9.827  0.0127 -0.1344  1.2669
  186SAPI   H8Y21399  -0.421   2.841   9.809 -1.4411  3.6177  2.0805
  186SAPI   C3921400  -0.238   2.794   9.690 -0.2190  0.1910 -0.2585
  186SAPI   H9X21401  -0.262   2.687   9.680 -0.8777  0.4557 -1.6916
  186SAPI   H9Y21402  -0.129   2.813   9.704 -0.7733  2.6454  1.3668
  186SAPI  C31021403  -0.274   2.869   9.564 -0.1365 -0.1601  0.0638
  186SAPI  H10X21404  -0.209   2.827   9.484 -1.7588 -0.8437 -0.9580
  186SAPI  H10Y21405  -0.245   2.976   9.573 -0.7252  0.1965 -1.7080
  186SAPI  C31121406  -0.422   2.862   9.534  0.0883 -0.4959  0.7352
  186SAPI  H11X21407  -0.470   2.955   9.573 -1.7451 -0.6048 -1.1183
  186SAPI  H11Y21408  -0.473   2.778   9.586  1.4632 -0.1643  2.7508
  186SAPI  C31221409  -0.447   2.830   9.390 -0.1351 -0.8947  0.1550
  186SAPI  H12X21410  -0.552   2.823   9.353  0.4628  1.3380 -2.3312
  186SAPI  H12Y21411  -0.407   2.728   9.372  2.5070  0.2360 -0.8639
  186SAPI  C31321412  -0.378   2.927   9.293  0.2411 -0.4694  0.3299
  186SAPI  H13X21413  -0.276   2.958   9.326  1.1907 -1.5737 -1.4350
  186SAPI  H13Y21414  -0.443   3.016   9.284 -1.9961 -2.1392 -0.9953
  186SAPI  C31421415  -0.367   2.876   9.149 -0.6041 -0.4267 -0.3798
  186SAPI  H14X21416  -0.334   2.960   9.086  1.6911  0.1977  1.5126
  186SAPI  H14Y21417  -0.472   2.853   9.122 -0.4600 -1.1651 -0.3389
  186SAPI  C31521418  -0.264   2.762   9.128 -0.0642  0.3559  0.1373
  186SAPI  H15X21419  -0.280   2.720   9.027  1.8708  0.6798 -0.3336
  186SAPI  H15Y21420  -0.288   2.674   9.192 -0.9351 -0.4403 -1.2363
  186SAPI  C31621421  -0.124   2.813   9.148 -0.6113 -0.7779 -0.4719
  186SAPI  H16X21422  -0.098   2.862   9.245  2.3171 -0.4781 -1.3164
  186SAPI  H16Y21423  -0.110   2.898   9.077  2.8425 -1.4365 -0.7288
  186SAPI  C31721424  -0.012   2.705   9.131  0.0819 -0.5359 -0.3246
  186SAPI  H17X21425   0.088   2.744   9.103 -0.9073  0.6584 -2.4472
  186SAPI  H17Y21426  -0.036   2.655   9.035  0.1717 -0.8371 -0.1924
  186SAPI  C31821427  -0.008   2.610   9.251 -0.2713  0.3022 -0.4289
  186SAPI  H18X21428   0.047   2.515   9.234  2.0751  1.4051  0.4338
  186SAPI  H18Y21429  -0.108   2.588   9.293  0.3956  0.6794  1.4350
  186SAPI  H18Z21430   0.046   2.664   9.332 -0.5648 -0.2749  0.1610
  187SAPI   C1221431   5.672   3.907   6.040 -0.0389  0.5413  0.2034
  187SAPI    H221432   5.569   3.906   6.080  0.2694  1.5720  1.1024
  187SAPI    O221433   5.747   3.807   6.113 -0.8003  0.2668  0.1533
  187SAPI   HO221434   5.789   3.851   6.188  2.0984  2.5453 -2.5712
  187SAPI   C1321435   5.669   3.877   5.885 -0.2040 -0.4065 -0.0675
  187SAPI    H321436   5.609   3.958   5.837  2.3076  2.8403  1.9078
  187SAPI    O321437   5.608   3.753   5.866 -0.6273  0.0342  0.0304
  187SAPI   HO321438   5.663   3.686   5.906 -1.1359 -0.8515 -0.7293
  187SAPI   C1421439   5.816   3.881   5.835 -0.7147  0.0095 -0.1180
  187SAPI    H421440   5.878   3.812   5.896  1.7887  1.0460 -1.3360
  187SAPI    O421441   5.824   3.841   5.696 -0.1433 -0.1810 -0.3652
  187SAPI   HO421442   5.913   3.836   5.660 -0.6949 -1.2160 -1.7068
  187SAPI   C1521443   5.878   4.018   5.862 -0.3907  0.1490 -0.0948
  187SAPI    H521444   5.814   4.087   5.803 -1.0405 -2.1147 -2.2125
  187SAPI    O521445   6.011   4.027   5.821 -0.0484  0.4998 -0.1551
  187SAPI   HO521446   6.032   4.117   5.793  1.4215  0.1493 -0.2613
  187SAPI   C1621447   5.863   4.067   6.007 -0.4618 -0.5277 -0.0135
  187SAPI    H621448   5.928   4.009   6.076 -0.3873  1.9458  2.1271
  187SAPI    O621449   5.903   4.208   6.013  0.0773  0.1682  0.2584
  187SAPI   HO621450   5.846   4.243   6.082 -0.4225 -0.4092  0.1450
  187SAPI   C1121451   5.718   4.054   6.058 -0.0971 -0.3966  0.4271
  187SAPI    H121452   5.655   4.121   5.996  1.0652  1.3177  1.0295
  187SAPI     P21453   5.574   4.175   6.257 -0.2510  0.3864 -0.2832
  187SAPI   O1321454   5.453   4.102   6.214  0.0538  0.4447 -0.7259
  187SAPI   O1421455   5.581   4.318   6.223 -0.1670  0.4867  0.2695
  187SAPI   O1221456   5.712   4.096   6.196 -0.2454 -0.3526  0.0207
  187SAPI   O1121457   5.589   4.160   6.410  0.5647  0.2569 -0.3482
  187SAPI    C121458   5.595   4.025   6.468 -0.5155  0.3602 -0.1199
  187SAPI    HA21459   5.609   3.943   6.395  0.4078 -1.2991  1.8318
  187SAPI    HB21460   5.673   4.030   6.546 -1.5129  0.2054  0.9078
  187SAPI    C221461   5.457   3.990   6.544  0.2820  0.9490  0.1241
  187SAPI    HS21462   5.375   3.989   6.469 -0.1607 -2.7217  0.4375
  187SAPI   O2121463   5.429   4.091   6.642 -0.0956  0.5672  0.2012
  187SAPI   C2121464   5.314   4.081   6.703  0.0244  0.7111  0.2251
  187SAPI   O2221465   5.221   4.008   6.666  0.2752  0.2043 -0.1760
  187SAPI   C2221466   5.306   4.184   6.823  0.9414  0.6445  0.4176
  187SAPI   H2R21467   5.335   4.287   6.795  3.6702  0.1229  1.0771
  187SAPI   H2S21468   5.198   4.196   6.848  0.8997 -1.3689  1.3841
  187SAPI    C321469   5.447   3.845   6.607 -0.1397 -0.3549 -0.1540
  187SAPI    HX21470   5.492   3.785   6.525 -0.9663  1.3448 -1.9460
  187SAPI    HY21471   5.341   3.813   6.615 -0.3779 -0.3081 -2.3397
  187SAPI   O3121472   5.521   3.828   6.733 -0.1369  0.0029  0.2375
  187SAPI   C3121473   5.510   3.711   6.793  0.3399 -0.2225  1.6259
  187SAPI   O3221474   5.437   3.618   6.754  0.3681 -0.2783 -0.5509
  187SAPI   C3221475   5.579   3.717   6.925 -0.4455 -0.7008 -0.0790
  187SAPI   H2X21476   5.535   3.802   6.981 -2.2020 -1.9370  0.4940
  187SAPI   H2Y21477   5.686   3.733   6.898 -0.6854  3.0609  0.6229
  187SAPI   C2321478   5.384   4.127   6.943  0.1328 -0.4163  0.5415
  187SAPI   H3R21479   5.495   4.129   6.934  0.1414 -0.2383  0.6840
  187SAPI   H3S21480   5.355   4.020   6.950 -3.9592  0.5975  2.2004
  187SAPI   C2421481   5.346   4.206   7.061  0.2010 -0.6804 -0.2881
  187SAPI   H4R21482   5.326   4.315   7.051 -0.3732 -0.5501  1.7181
  187SAPI   H4S21483   5.437   4.211   7.125 -0.5252  3.4531  0.7401
  187SAPI   C2521484   5.234   4.138   7.137  0.1342 -0.3834  0.2145
  187SAPI   H5R21485   5.139   4.115   7.086 -0.1025  0.4234  0.2875
  187SAPI   C2621486   5.240   4.089   7.265 -0.1415  0.6016 -0.0997
  187SAPI   H6R21487   5.147   4.052   7.309 -0.0190 -0.5837 -0.7839
  187SAPI   C2721488   5.355   4.101   7.361  0.1024  0.0135 -0.0535
  187SAPI   H7R21489   5.346   4.207   7.394  1.6741  0.2941 -0.4850
  187SAPI   H7S21490   5.444   4.101   7.296  0.1821 -0.1521  0.0548
  187SAPI   C2821491   5.356   4.012   7.485  0.1633  0.0685 -1.4044
  187SAPI   H8R21492   5.358   3.907   7.452  0.2844  0.0475 -1.3293
  187SAPI   C2921493   5.364   4.047   7.612 -0.1509 -0.7764 -0.4206
  187SAPI   H9R21494   5.361   3.963   7.683  1.8563 -0.0951  0.5650
  187SAPI  C21021495   5.378   4.184   7.670  0.0197 -0.9825 -0.3258
  187SAPI  H10R21496   5.286   4.215   7.725 -0.2455  0.2828 -1.4163
  187SAPI  H10S21497   5.377   4.253   7.583  0.3556 -1.6719 -0.8819
  187SAPI  C21121498   5.508   4.206   7.737 -0.6415 -0.5416 -0.5258
  187SAPI  H11R21499   5.598   4.174   7.684 -0.1331  0.6822 -0.4420
  187SAPI  C21221500   5.531   4.243   7.867  0.5640  0.0332 -0.1404
  187SAPI  H12R21501   5.630   4.266   7.908 -0.2086 -1.4960  2.8772
  187SAPI  C21321502   5.422   4.274   7.974  0.5321 -0.0528  0.2329
  187SAPI  H13R21503   5.320   4.286   7.932  1.2830  1.0678 -1.3774
  187SAPI  H13S21504   5.465   4.373   8.002  1.2653  1.2348 -4.5752
  187SAPI  C21421505   5.436   4.175   8.087 -0.1671 -0.7032 -0.2209
  187SAPI  H14R21506   5.535   4.177   8.134 -1.5723  1.5707  2.9827
  187SAPI  C21521507   5.341   4.105   8.146  0.7186  1.5229  0.3385
  187SAPI  H15R21508   5.370   4.035   8.226 -0.5761 -1.2623 -1.4788
  187SAPI  C21621509   5.199   4.088   8.102 -0.4070  0.4048  0.4838
  187SAPI  H16R21510   5.165   4.130   8.005 -0.2687 -0.8410 -0.1334
  187SAPI  H16S21511   5.138   4.134   8.182 -0.4995  2.5359 -0.7350
  187SAPI  C21721512   5.160   3.935   8.097 -0.1149  0.7291  0.4106
  187SAPI  H17R21513   5.049   3.934   8.089 -0.0176  0.2194 -1.2280
  187SAPI  H17S21514   5.188   3.873   8.185 -0.0997  0.8680  0.5029
  187SAPI  C21821515   5.208   3.867   7.969  0.4778  0.1463 -0.5150
  187SAPI  H18R21516   5.319   3.870   7.958  0.3639  0.3399 -1.6983
  187SAPI  H18S21517   5.187   3.939   7.888  1.5642  1.6804  0.5117
  187SAPI  C21921518   5.144   3.732   7.948 -0.0862  0.3386 -0.5733
  187SAPI  H19R21519   5.148   3.710   7.839 -0.4160 -1.1726 -0.3043
  187SAPI  H19S21520   5.038   3.727   7.980  0.1579 -1.2818  0.1002
  187SAPI  C22021521   5.228   3.626   8.017  0.5771 -0.2024 -0.3817
  187SAPI  H20R21522   5.335   3.636   7.987  0.7569 -1.6696 -0.2985
  187SAPI  H20S21523   5.186   3.526   7.991 -0.6128  0.7306 -2.3005
  187SAPI  H20T21524   5.223   3.638   8.127  2.6083  0.5037 -0.3188
  187SAPI   C3321525   5.577   3.589   7.012 -0.6446  0.3363  0.1853
  187SAPI   H3X21526   5.660   3.597   7.086  0.6439  0.2272 -1.1760
  187SAPI   H3Y21527   5.607   3.502   6.949  1.0573  1.2048 -0.2741
  187SAPI   C3421528   5.441   3.552   7.074 -0.3727  0.1149 -0.4217
  187SAPI   H4X21529   5.480   3.460   7.123  1.9359  0.6865 -1.0412
  187SAPI   H4Y21530   5.359   3.519   7.007 -0.7946 -2.6430  1.2929
  187SAPI   C3521531   5.378   3.647   7.189 -0.1108 -0.0869 -0.1318
  187SAPI   H5X21532   5.327   3.732   7.139 -0.2714 -0.3362 -0.3959
  187SAPI   H5Y21533   5.458   3.673   7.261  0.8926 -1.2642 -0.7680
  187SAPI   C3621534   5.262   3.583   7.261  0.7622 -0.0139 -0.7345
  187SAPI   H6X21535   5.297   3.485   7.302 -2.1971 -0.1850  1.7571
  187SAPI   H6Y21536   5.170   3.567   7.201  0.7155  1.5747 -1.1017
  187SAPI   C3721537   5.227   3.657   7.390  0.1191 -0.2765  0.3456
  187SAPI   H7X21538   5.166   3.744   7.359 -0.3468 -0.5095  0.6049
  187SAPI   H7Y21539   5.324   3.691   7.434 -0.2004 -0.1124  0.9271
  187SAPI   C3821540   5.163   3.568   7.497 -0.5606 -0.5705  0.6619
  187SAPI   H8X21541   5.142   3.634   7.584 -2.3130 -0.6427  0.3153
  187SAPI   H8Y21542   5.236   3.494   7.537  2.0306  1.4408 -0.0128
  187SAPI   C3921543   5.027   3.501   7.456 -0.5659 -0.7828 -0.0433
  187SAPI   H9X21544   5.034   3.396   7.422 -0.6810 -1.4138  1.7438
  187SAPI   H9Y21545   4.974   3.556   7.376 -3.4736  0.1575  2.3600
  187SAPI  C31021546   4.924   3.516   7.579  0.6514  0.6930  0.2926
  187SAPI  H10X21547   4.818   3.495   7.554  0.0966  0.5771  2.4913
  187SAPI  H10Y21548   4.930   3.622   7.611  0.8901  0.3460  1.4550
  187SAPI  C31121549   4.956   3.429   7.699  0.4212 -0.7647  0.1547
  187SAPI  H11X21550   5.060   3.456   7.726 -0.3954 -0.1376  3.0600
  187SAPI  H11Y21551   4.962   3.322   7.670  0.4123 -0.6036 -0.4513
  187SAPI  C31221552   4.854   3.451   7.815  0.9809 -0.5568  0.3670
  187SAPI  H12X21553   4.757   3.418   7.774  0.6034  0.4413  0.4274
  187SAPI  H12Y21554   4.847   3.561   7.832  1.1658 -0.4225 -0.3536
  187SAPI  C31321555   4.905   3.369   7.929  0.2378  0.1607 -0.1943
  187SAPI  H13X21556   5.012   3.344   7.944 -0.0433  0.3617  2.6777
  187SAPI  H13Y21557   4.862   3.267   7.922  0.2385  0.0936  0.6701
  187SAPI  C31421558   4.853   3.435   8.055 -0.5213  0.1790  0.4393
  187SAPI  H14X21559   4.749   3.471   8.048 -0.6902 -0.5097 -0.8696
  187SAPI  H14Y21560   4.900   3.536   8.064  2.4999 -0.7455 -2.6544
  187SAPI  C31521561   4.866   3.357   8.191 -0.3817  0.3484  0.4714
  187SAPI  H15X21562   4.793   3.273   8.188  0.1820 -0.1582 -2.5562
  187SAPI  H15Y21563   4.829   3.420   8.273 -0.4524  1.1128 -0.1353
  187SAPI  C31621564   4.998   3.292   8.222 -0.4868  0.0381  0.5290
  187SAPI  H16X21565   5.077   3.366   8.200 -1.3657  0.4048 -1.7565
  187SAPI  H16Y21566   5.019   3.210   8.149  1.1915  0.1562  0.8404
  187SAPI  C31721567   5.010   3.245   8.368  0.4936 -0.1498  0.1819
  187SAPI  H17X21568   4.929   3.171   8.386 -0.5033  0.9613  0.3552
  187SAPI  H17Y21569   4.985   3.327   8.438 -0.6304 -0.6132  0.3400
  187SAPI  C31821570   5.147   3.188   8.390 -0.0144 -0.0907  0.8348
  187SAPI  H18X21571   5.223   3.268   8.397 -0.3537  0.3403 -0.1587
  187SAPI  H18Y21572   5.167   3.119   8.305 -1.2035  0.1519  0.3369
  187SAPI  H18Z21573   5.149   3.119   8.477  0.3900  0.2894  1.1323
  188SAPI   C1221574   6.532   6.256   6.631  0.0601 -0.0342  0.5801
  188SAPI    H221575   6.529   6.338   6.706 -1.9442 -1.9749  2.8012
  188SAPI    O221576   6.619   6.155   6.677 -0.1621 -0.6338  0.3296
  188SAPI   HO221577   6.701   6.202   6.697 -1.2772  1.2476  0.6517
  188SAPI   C1321578   6.392   6.211   6.616 -0.7595  0.2668 -0.2561
  188SAPI    H321579   6.326   6.293   6.579 -3.9812 -1.4771  1.1783
  188SAPI    O321580   6.343   6.176   6.747 -0.3387  0.4029 -0.1647
  188SAPI   HO321581   6.410   6.120   6.787  0.4099  1.0189 -0.5226
  188SAPI   C1421582   6.385   6.104   6.512 -1.4411 -0.5868  0.8569
  188SAPI    H421583   6.441   6.014   6.542 -2.2300 -0.4869  2.8062
  188SAPI    O421584   6.252   6.056   6.495  0.2731  0.2328  0.7967
  188SAPI   HO421585   6.261   5.961   6.480 -0.3247  0.5278 -2.0619
  188SAPI   C1521586   6.443   6.145   6.379  0.6814 -0.5754 -0.6712
  188SAPI    H521587   6.374   6.220   6.335 -2.9961 -2.7594  0.9146
  188SAPI    O521588   6.443   6.041   6.285 -0.1264  0.1748  0.2508
  188SAPI   HO521589   6.353   6.021   6.259  0.6071 -1.8874 -0.9338
  188SAPI   C1621590   6.582   6.201   6.393 -0.6418  0.3110 -0.3271
  188SAPI    H621591   6.647   6.117   6.428  1.0421  1.4685 -0.5708
  188SAPI    O621592   6.632   6.243   6.266 -0.6660  0.8596 -0.7707
  188SAPI   HO621593   6.589   6.326   6.245  0.6066  1.7418 -0.0568
  188SAPI   C1121594   6.582   6.312   6.497 -0.2951 -0.2898  0.1715
  188SAPI    H121595   6.500   6.378   6.461 -0.9428 -1.6387 -0.9082
  188SAPI     P21596   6.709   6.548   6.471  0.1412 -0.3379 -0.3312
  188SAPI   O1321597   6.665   6.556   6.330  1.0191  0.1222 -0.6017
  188SAPI   O1421598   6.843   6.610   6.505 -0.3990  0.1147 -0.1915
  188SAPI   O1221599   6.702   6.389   6.520 -0.5356  0.0550 -0.2660
  188SAPI   O1121600   6.591   6.614   6.557 -0.0877 -0.3374 -0.5002
  188SAPI    C121601   6.579   6.757   6.552  0.2704  0.0292 -0.3814
  188SAPI    HA21602   6.630   6.804   6.465  0.5260  1.3624  0.4652
  188SAPI    HB21603   6.471   6.782   6.560  0.4583  0.6047  0.4311
  188SAPI    C221604   6.636   6.821   6.678 -0.3123  0.2906 -0.1188
  188SAPI    HS21605   6.746   6.818   6.690 -0.4301  0.6251  1.1805
  188SAPI   O2121606   6.576   6.766   6.796 -0.2203 -0.0774 -0.1088
  188SAPI   C2121607   6.643   6.671   6.861  0.3323  0.1366  0.1719
  188SAPI   O2221608   6.752   6.624   6.835 -0.1157 -0.3486  0.1033
  188SAPI   C2221609   6.559   6.617   6.980  0.4651 -0.2763  1.5454
  188SAPI   H2R21610   6.497   6.534   6.938  1.8861 -1.5750  1.9232
  188SAPI   H2S21611   6.632   6.574   7.052  0.6731  1.0802  2.1643
  188SAPI    C321612   6.604   6.973   6.660 -0.5841 -1.0068  1.1453
  188SAPI    HX21613   6.497   6.979   6.631 -0.0918  3.2260 -0.5103
  188SAPI    HY21614   6.657   7.011   6.571 -0.4647 -2.3200  0.6317
  188SAPI   O3121615   6.644   7.049   6.778  0.5072  0.3007 -0.7478
  188SAPI   C3121616   6.543   7.093   6.853  0.3832  0.3456  0.3955
  188SAPI   O3221617   6.427   7.081   6.833 -0.0861 -0.2226 -0.1255
  188SAPI   C3221618   6.600   7.160   6.972  0.3028 -0.1019  0.0409
  188SAPI   H2X21619   6.611   7.268   6.949 -0.9841  0.4784  1.9348
  188SAPI   H2Y21620   6.692   7.102   6.994  0.7622  0.3638 -0.6220
  188SAPI   C2321621   6.463   6.717   7.055  0.1777 -0.1343 -1.3153
  188SAPI   H3R21622   6.359   6.681   7.043  0.5499 -2.6710  1.7200
  188SAPI   H3S21623   6.463   6.819   7.011 -1.1618  0.1980 -0.5808
  188SAPI   C2421624   6.488   6.717   7.208  0.6043 -0.3793  0.7954
  188SAPI   H4R21625   6.459   6.619   7.252 -1.9553  0.6086  1.4855
  188SAPI   H4S21626   6.416   6.784   7.259  0.4339 -1.2228  1.7006
  188SAPI   C2521627   6.628   6.768   7.250 -0.4992  0.3697  0.2548
  188SAPI   H5R21628   6.707   6.779   7.174 -0.1878  4.0281  0.9549
  188SAPI   C2621629   6.662   6.799   7.374  0.2660 -0.5684 -0.2362
  188SAPI   H6R21630   6.763   6.837   7.395  0.9367 -0.7090 -2.8032
  188SAPI   C2721631   6.579   6.781   7.493  0.4161  0.1680 -0.0444
  188SAPI   H7R21632   6.481   6.738   7.462 -0.7191  1.9780  0.8316
  188SAPI   H7S21633   6.550   6.881   7.534  1.0421  0.3415 -0.0178
  188SAPI   C2821634   6.637   6.692   7.599 -0.4199 -0.6998  0.4821
  188SAPI   H8R21635   6.679   6.602   7.550 -0.1469 -0.4893  0.3248
  188SAPI   C2921636   6.634   6.710   7.733 -0.4348  1.2157  0.1291
  188SAPI   H9R21637   6.686   6.629   7.787 -2.2434  0.1266  0.2951
  188SAPI  C21021638   6.588   6.825   7.818  0.8994 -0.3048  0.4411
  188SAPI  H10R21639   6.574   6.795   7.924  0.2682  0.1419  0.4886
  188SAPI  H10S21640   6.487   6.856   7.783  0.1650 -0.6482  2.1482
  188SAPI  C21121641   6.680   6.947   7.815 -0.1676  0.3784 -0.4787
  188SAPI  H11R21642   6.705   6.980   7.713  0.2429  0.0656 -0.4838
  188SAPI  C21221643   6.739   7.006   7.919 -0.0240  0.0386  0.4280
  188SAPI  H12R21644   6.792   7.101   7.902  1.8726 -0.9512  0.6198
  188SAPI  C21321645   6.723   6.979   8.071  0.4378  0.3996  0.6311
  188SAPI  H13R21646   6.619   6.940   8.077 -0.4583  2.8132  2.7193
  188SAPI  H13S21647   6.719   7.068   8.138  0.1009 -0.2790  1.5408
  188SAPI  C21421648   6.813   6.876   8.140  1.0056 -0.6702  0.0718
  188SAPI  H14R21649   6.902   6.843   8.084  2.9975  1.0301  2.0367
  188SAPI  C21521650   6.788   6.824   8.261  0.0694 -0.6934  0.2834
  188SAPI  H15R21651   6.873   6.764   8.296  0.5419 -1.8229 -2.5203
  188SAPI  C21621652   6.681   6.848   8.367 -0.2486 -0.5746 -0.6018
  188SAPI  H16R21653   6.647   6.749   8.404 -2.3847 -0.0760 -1.0671
  188SAPI  H16S21654   6.592   6.907   8.336  0.5360  1.3404  0.5976
  188SAPI  C21721655   6.751   6.932   8.481 -0.6701  0.2334  0.3023
  188SAPI  H17R21656   6.671   6.963   8.552 -2.6129 -1.3693 -1.0580
  188SAPI  H17S21657   6.806   7.019   8.440  0.6172 -1.6292 -2.1829
  188SAPI  C21821658   6.853   6.848   8.561 -0.0276  0.0964  0.1569
  188SAPI  H18R21659   6.951   6.832   8.510 -0.1613  1.2532 -0.5064
  188SAPI  H18S21660   6.801   6.752   8.580  1.9521 -1.0894 -0.0709
  188SAPI  C21921661   6.893   6.896   8.702  0.1902 -0.0678 -0.2818
  188SAPI  H19R21662   6.959   6.818   8.746  3.6755  2.4448 -0.6252
  188SAPI  H19S21663   6.805   6.918   8.767 -0.8435  0.8841 -1.9233
  188SAPI  C22021664   6.983   7.017   8.705 -0.2417 -0.7544 -0.0398
  188SAPI  H20R21665   7.030   7.038   8.803  3.5749 -0.9560 -1.6356
  188SAPI  H20S21666   6.936   7.108   8.662 -2.0634  1.0187  4.9269
  188SAPI  H20T21667   7.068   6.993   8.638 -0.8910  2.4414 -2.2211
  188SAPI   C3321668   6.511   7.143   7.098 -0.5646  0.0603  0.5929
  188SAPI   H3X21669   6.463   7.043   7.100  1.8167 -1.1641 -0.3637
  188SAPI   H3Y21670   6.433   7.221   7.087 -1.0010 -0.6281 -1.7727
  188SAPI   C3421671   6.593   7.152   7.227 -0.0127 -0.1028 -0.0640
  188SAPI   H4X21672   6.627   7.258   7.233 -1.7736  0.6288 -1.8426
  188SAPI   H4Y21673   6.687   7.094   7.225  0.6872  0.8462  2.0151
  188SAPI   C3521674   6.500   7.109   7.342  0.0818  0.4629 -0.0360
  188SAPI   H5X21675   6.478   7.000   7.335  1.0725  0.1027  1.8094
  188SAPI   H5Y21676   6.408   7.170   7.331  1.1076  2.6393  2.3542
  188SAPI   C3621677   6.558   7.138   7.487 -0.5296  0.7144  0.3876
  188SAPI   H6X21678   6.653   7.080   7.495 -1.3615 -0.7647  0.0728
  188SAPI   H6Y21679   6.487   7.103   7.565  0.3860  1.9721  1.8315
  188SAPI   C3721680   6.599   7.278   7.519  0.1778 -0.4282 -0.2211
  188SAPI   H7X21681   6.508   7.341   7.524 -0.3843 -1.3072  1.2168
  188SAPI   H7Y21682   6.673   7.318   7.446  0.7236  0.6622  0.8809
  188SAPI   C3821683   6.660   7.277   7.655 -0.2453  0.0946  0.6509
  188SAPI   H8X21684   6.751   7.213   7.648  0.4051  1.0991 -0.3690
  188SAPI   H8Y21685   6.588   7.237   7.730  1.2077  0.3645  2.2637
  188SAPI   C3921686   6.702   7.422   7.702  0.7571  0.8379  0.1968
  188SAPI   H9X21687   6.600   7.458   7.725 -0.2310 -1.6694 -0.0293
  188SAPI   H9Y21688   6.730   7.490   7.618 -1.3461  1.0951 -0.3619
  188SAPI  C31021689   6.789   7.448   7.826 -0.5149  0.7892 -0.1765
  188SAPI  H10X21690   6.827   7.552   7.816 -2.8464  1.5822 -1.3628
  188SAPI  H10Y21691   6.882   7.388   7.829 -0.8794  0.2445  1.1034
  188SAPI  C31121692   6.715   7.434   7.959 -0.4009 -0.0704  0.0338
  188SAPI  H11X21693   6.658   7.341   7.980  1.1172 -0.4061  3.3386
  188SAPI  H11Y21694   6.644   7.517   7.977 -0.6518 -0.3421  0.3041
  188SAPI  C31221695   6.813   7.444   8.076 -0.2887 -0.4767  0.7844
  188SAPI  H12X21696   6.891   7.520   8.052  1.3209 -1.0307  3.7739
  188SAPI  H12Y21697   6.872   7.350   8.088  0.9972  0.2695  0.5387
  188SAPI  C31321698   6.747   7.470   8.214 -0.0086  0.1553  0.4150
  188SAPI  H13X21699   6.669   7.393   8.233  0.2739  0.0799  1.2847
  188SAPI  H13Y21700   6.688   7.563   8.214  0.2057  0.3128 -0.7837
  188SAPI  C31421701   6.844   7.473   8.333  0.5055 -0.3765 -0.9654
  188SAPI  H14X21702   6.919   7.546   8.295  0.8533 -1.7854 -3.1784
  188SAPI  H14Y21703   6.902   7.378   8.340 -1.1455 -1.4523 -1.3064
  188SAPI  C31521704   6.779   7.516   8.462  0.4984  0.1472  0.0838
  188SAPI  H15X21705   6.692   7.448   8.469  0.2854  0.1878 -1.7232
  188SAPI  H15Y21706   6.736   7.616   8.444 -1.8699 -0.9456 -0.6957
  188SAPI  C31621707   6.874   7.505   8.583  0.1095 -0.5355  0.2295
  188SAPI  H16X21708   6.893   7.396   8.597 -0.2959 -1.0816 -2.7930
  188SAPI  H16Y21709   6.821   7.531   8.677  0.2567 -0.2844  0.2432
  188SAPI  C31721710   7.006   7.583   8.582 -0.1156  0.0621 -0.2259
  188SAPI  H17X21711   6.986   7.690   8.565 -0.0229  0.2345  0.6789
  188SAPI  H17Y21712   7.078   7.555   8.502 -0.4237 -1.5878  0.0232
  188SAPI  C31821713   7.078   7.572   8.721 -0.6854  0.0418  0.3781
  188SAPI  H18X21714   7.184   7.601   8.706  0.0781 -1.5804  2.2115
  188SAPI  H18Y21715   7.080   7.467   8.758 -3.0200 -0.3900 -0.4864
  188SAPI  H18Z21716   7.028   7.634   8.798  0.9960  1.0799  0.6695
  189POPC     N21717   5.325   1.657  11.026  0.6581 -1.0084  0.5994
  189POPC   C1221718   5.268   1.779  10.954 -0.0699  0.5594  0.0617
  189POPC  H12A21719   5.162   1.767  10.938  0.0070 -1.7869  1.0044
  189POPC  H12B21720   5.309   1.776  10.854 -0.7086 -1.0769 -0.1771
  189POPC   C1321721   5.284   1.529  10.945  0.4027  0.0132 -0.2834
  189POPC  H13A21722   5.177   1.520  10.932  0.1121 -1.7402  2.6130
  189POPC  H13B21723   5.324   1.531  10.844 -0.4800  1.8307 -0.6563
  189POPC  H13C21724   5.308   1.442  11.003 -1.9021  0.6393  1.7880
  189POPC   C1421725   5.475   1.651  11.030  0.3338 -0.1067 -0.4518
  189POPC  H14A21726   5.511   1.728  11.097 -1.3077  0.1934  0.1420
  189POPC  H14B21727   5.507   1.552  11.060 -0.7149 -0.2520  0.2564
  189POPC  H14C21728   5.518   1.674  10.934  1.8963 -2.0431 -0.2940
  189POPC   C1521729   5.271   1.646  11.166 -0.0074 -0.3660  0.3106
  189POPC  H15A21730   5.292   1.726  11.235  0.6569 -2.0306  2.1509
  189POPC  H15B21731   5.309   1.556  11.213  2.4481  0.9186  0.9357
  189POPC  H15C21732   5.163   1.648  11.161  0.0003  1.0140  0.3599
  189POPC   C1121733   5.302   1.911  11.018 -0.3924 -0.4302  0.1346
  189POPC  H11A21734   5.278   1.906  11.127 -1.1543 -2.2589 -0.0855
  189POPC  H11B21735   5.234   1.996  10.991  0.0464 -0.1326 -0.0350
  189POPC     P21736   5.504   2.027  10.887  0.0692  0.1624  0.2243
  189POPC   O1321737   5.618   2.106  10.933  0.2107 -0.3667 -0.5580
  189POPC   O1421738   5.396   2.092  10.806 -0.3993 -0.3884 -0.2584
  189POPC   O1221739   5.436   1.952  11.012 -0.7356 -0.2212  0.1677
  189POPC   O1121740   5.544   1.899  10.807  0.2674 -0.3406  0.4878
  189POPC    C121741   5.682   1.871  10.772  0.6359 -0.1724 -0.7404
  189POPC    HA21742   5.686   1.763  10.748 -0.6684 -0.3334 -0.3279
  189POPC    HB21743   5.761   1.905  10.842  0.2172  1.5062 -1.0454
  189POPC    C221744   5.725   1.931  10.630  0.6503 -0.5949 -0.0354
  189POPC    HS21745   5.741   2.041  10.640 -0.3484 -0.3019 -1.3983
  189POPC   O2121746   5.612   1.917  10.540  0.4361  0.3670 -0.5079
  189POPC   C2121747   5.615   1.994  10.429 -0.0353 -0.0801  0.0362
  189POPC   O2221748   5.713   2.055  10.387  0.2672 -0.1360 -0.2904
  189POPC   C2221749   5.477   1.975  10.361 -0.2680  0.4045 -0.2190
  189POPC   H2R21750   5.438   2.072  10.323 -0.5856  0.5893  0.5654
  189POPC   H2S21751   5.403   1.935  10.433 -0.4554 -0.9401 -1.1142
  189POPC    C321752   5.853   1.865  10.581 -0.0377 -0.4522 -0.2073
  189POPC    HX21753   5.927   1.871  10.663 -1.8533  1.2014  1.4112
  189POPC    HY21754   5.896   1.928  10.499  0.2612  0.2512  0.4757
  189POPC   O3121755   5.826   1.732  10.539 -0.0951  0.5202 -0.2123
  189POPC   C3121756   5.799   1.707  10.416 -0.2907 -0.0391  0.4997
  189POPC   O3221757   5.805   1.790  10.324 -0.7352  0.2803 -0.0444
  189POPC   C3221758   5.735   1.562  10.410 -0.2843 -0.7102 -0.2640
  189POPC   H2X21759   5.630   1.567  10.447 -0.0063 -1.7927  0.7338
  189POPC   H2Y21760   5.794   1.489  10.469  0.7338 -0.9189 -1.5019
  189POPC   C2321761   5.492   1.861  10.251  0.2474 -0.4343  0.6435
  189POPC   H3R21762   5.389   1.823  10.235  0.8890 -2.7543  1.6866
  189POPC   H3S21763   5.557   1.776  10.280  0.6818 -0.2678  0.1669
  189POPC   C2421764   5.555   1.918  10.117  0.0245  0.0380 -0.4811
  189POPC   H4R21765   5.660   1.952  10.132  0.3308 -0.7780 -0.7206
  189POPC   H4S21766   5.479   1.989  10.077 -0.5544 -0.5176 -0.3900
  189POPC   C2521767   5.570   1.804  10.014  0.4676 -0.6697  0.6329
  189POPC   H5R21768   5.484   1.734  10.012 -0.7234  0.5894 -3.8161
  189POPC   H5S21769   5.669   1.759  10.036  0.3403 -1.3408 -0.1365
  189POPC   C2621770   5.585   1.844   9.864 -0.2451  0.4864 -0.1793
  189POPC   H6R21771   5.657   1.929   9.855 -1.0526  1.1407 -0.6473
  189POPC   H6S21772   5.491   1.898   9.839 -0.6982  0.1749  0.8084
  189POPC   C2721773   5.610   1.731   9.765 -0.6486  0.6991 -0.9770
  189POPC   H7R21774   5.538   1.648   9.782  0.7021 -0.1812  0.7979
  189POPC   H7S21775   5.710   1.692   9.791 -1.7248 -2.6425 -1.3424
  189POPC   C2821776   5.599   1.789   9.617  0.1340 -0.5301  0.2234
  189POPC   H8R21777   5.691   1.851   9.606  0.1750 -0.6089  0.1245
  189POPC   H8S21778   5.509   1.856   9.614  1.6105  1.5479  0.0657
  189POPC   C2921779   5.603   1.686   9.510 -0.5582 -0.1397 -0.4505
  189POPC   H9121780   5.582   1.581   9.535  1.9921 -0.8722 -1.0192
  189POPC  C21021781   5.616   1.719   9.376 -0.0910  0.4188  0.2723
  189POPC  H10121782   5.606   1.636   9.305 -0.0317 -0.6218  1.4421
  189POPC  C21121783   5.642   1.852   9.318  0.2566  0.1339 -0.4496
  189POPC  H11R21784   5.651   1.935   9.391 -2.1639 -0.3876  0.5269
  189POPC  H11S21785   5.560   1.895   9.256 -1.7803 -2.2807  0.4320
  189POPC  C21221786   5.773   1.863   9.224 -0.0977  0.3271  0.3131
  189POPC  H12R21787   5.755   1.793   9.140 -0.2969  1.5559 -0.7072
  189POPC  H12S21788   5.869   1.847   9.278  0.5991  3.1112  0.0843
  189POPC  C21321789   5.796   2.002   9.164 -0.2852 -0.2328 -1.2776
  189POPC  H13R21790   5.810   2.073   9.248 -0.7906 -0.3512 -1.0880
  189POPC  H13S21791   5.704   2.031   9.109 -1.4817 -1.6061 -0.0992
  189POPC  C21421792   5.910   2.006   9.058 -0.4787 -1.0597  0.0795
  189POPC  H14R21793   5.871   1.936   8.981  1.3379 -3.6080  1.3073
  189POPC  H14S21794   6.011   1.975   9.092 -0.5492 -0.7803  0.5512
  189POPC  C21521795   5.920   2.147   8.989  0.3916 -0.0120  0.1471
  189POPC  H15R21796   5.974   2.223   9.049  1.1459  1.5820 -2.3977
  189POPC  H15S21797   5.816   2.185   8.980  0.0154 -0.3778  2.3981
  189POPC  C21621798   5.991   2.131   8.857 -0.2861  0.7015  0.4301
  189POPC  H16R21799   5.960   2.043   8.797  1.3060  0.4784 -0.1206
  189POPC  H16S21800   6.096   2.108   8.885 -0.7937  0.2303  2.1262
  189POPC  C21721801   6.001   2.264   8.774  0.6056 -0.3257  0.0086
  189POPC  H17R21802   6.062   2.340   8.829  1.6785 -1.2814  0.1714
  189POPC  H17S21803   5.897   2.303   8.778  0.8863  0.4723 -0.2834
  189POPC  C21821804   6.054   2.245   8.635  0.3742  0.0903 -0.2788
  189POPC  H18R21805   6.072   2.345   8.588 -0.9265  0.8896  0.8662
  189POPC  H18S21806   5.982   2.182   8.577 -2.0970  0.8967  1.7479
  189POPC  H18T21807   6.152   2.195   8.647  0.8450  1.0795  0.0778
  189POPC   C3321808   5.725   1.516  10.269 -0.5192  0.8815  0.0969
  189POPC   H3X21809   5.675   1.592  10.206  0.7182  0.4724 -1.4560
  189POPC   H3Y21810   5.663   1.425  10.259 -1.6721  1.2364  3.0463
  189POPC   C3421811   5.859   1.465  10.211  0.7689  0.1660 -0.5185
  189POPC   H4X21812   5.905   1.395  10.284 -0.9771  1.1230  1.5953
  189POPC   H4Y21813   5.920   1.558  10.202  0.3166  0.4086 -1.1205
  189POPC   C3521814   5.875   1.388  10.081 -0.0283 -0.1317  0.2813
  189POPC   H5X21815   5.812   1.297  10.081  0.4191 -0.4457 -0.3059
  189POPC   H5Y21816   5.980   1.355  10.066  0.2392  1.0634 -0.6572
  189POPC   C3621817   5.828   1.465   9.961 -0.4909  0.7131  0.1649
  189POPC   H6X21818   5.877   1.563   9.945 -1.3488  0.7701 -2.6049
  189POPC   H6Y21819   5.720   1.484   9.951 -0.5784  0.0132 -0.3456
  189POPC   C3721820   5.879   1.380   9.835  0.6473  0.2832 -0.2710
  189POPC   H7X21821   5.818   1.288   9.841 -0.5453  0.9925 -1.1445
  189POPC   H7Y21822   5.981   1.341   9.859  0.7956  0.2345 -0.9684
  189POPC   C3821823   5.856   1.447   9.700  0.5479 -0.0385  0.3210
  189POPC   H8X21824   5.920   1.538   9.698 -1.1318  1.2215  1.4140
  189POPC   H8Y21825   5.752   1.484   9.687  0.5855  0.3092  0.9599
  189POPC   C3921826   5.906   1.369   9.580 -0.3127  0.2141 -0.4873
  189POPC   H9X21827   5.860   1.268   9.579  0.2139 -0.1734 -4.7455
  189POPC   H9Y21828   6.017   1.359   9.584 -0.3321 -0.2345 -1.0126
  189POPC  C31021829   5.869   1.445   9.455 -0.0508 -0.2294  0.2398
  189POPC  H10X21830   5.902   1.551   9.458  2.7828 -1.0206 -0.0313
  189POPC  H10Y21831   5.760   1.448   9.433  0.5197  1.8979 -2.8763
  189POPC  C31121832   5.929   1.387   9.332 -0.2505 -0.1135 -0.3921
  189POPC  H11X21833   5.876   1.291   9.311 -0.3354 -0.0932 -0.2697
  189POPC  H11Y21834   6.039   1.377   9.343 -0.1892 -0.5100 -1.2716
  189POPC  C31221835   5.907   1.486   9.215  0.1572  0.0196 -0.2743
  189POPC  H12X21836   5.963   1.579   9.236  0.1894 -0.7421  3.8501
  189POPC  H12Y21837   5.798   1.508   9.211 -0.1149 -1.3731 -1.9197
  189POPC  C31321838   5.947   1.439   9.078 -0.0530 -0.4318 -0.6640
  189POPC  H13X21839   5.890   1.346   9.055  0.8426 -1.8541  2.2758
  189POPC  H13Y21840   6.056   1.419   9.077 -0.2825 -2.1300  1.4663
  189POPC  C31421841   5.919   1.556   8.972 -0.1172 -0.1277  0.2794
  189POPC  H14X21842   5.981   1.646   8.993  3.1929 -2.0559 -0.3621
  189POPC  H14Y21843   5.812   1.578   8.952  0.0567 -0.8392 -1.6219
  189POPC  C31521844   5.959   1.504   8.833 -0.0274 -0.1930 -0.1492
  189POPC  H15X21845   5.884   1.427   8.807 -1.3344  0.6225  1.0418
  189POPC  H15Y21846   6.065   1.469   8.836 -0.2470 -1.6720 -3.9205
  189POPC  C31621847   5.954   1.613   8.721 -0.1401  0.1699 -0.3708
  189POPC  H16X21848   6.012   1.583   8.630  0.2953  0.9772 -0.3711
  189POPC  H16Y21849   5.989   1.709   8.764 -2.8156  0.5899  1.0408
  189POPC  H16Z21850   5.853   1.634   8.681 -0.9857  0.0801  1.6227
  190POPC     N21851   1.232   4.104  10.696  0.8004 -0.4257 -0.2908
  190POPC   C1221852   1.210   4.168  10.832 -0.0323 -0.0436  0.1591
  190POPC  H12A21853   1.109   4.204  10.846  0.2458 -0.1525  3.2991
  190POPC  H12B21854   1.271   4.257  10.829 -0.7617  0.4546 -0.0730
  190POPC   C1321855   1.379   4.081  10.683 -0.7053 -0.0794  0.2185
  190POPC  H13A21856   1.439   4.170  10.679 -0.3061 -0.3637 -0.2829
  190POPC  H13B21857   1.418   4.029  10.769 -0.5153 -0.6423 -0.2041
  190POPC  H13C21858   1.403   4.036  10.588 -1.6089  0.9567 -0.5318
  190POPC   C1421859   1.156   3.973  10.691  0.0089 -0.1956 -0.5244
  190POPC  H14A21860   1.180   3.901  10.768 -5.2561 -1.8741 -0.0339
  190POPC  H14B21861   1.049   3.990  10.696  0.4261  2.9666 -0.4476
  190POPC  H14C21862   1.161   3.925  10.595 -0.1333 -0.9468 -0.1665
  190POPC   C1521863   1.185   4.190  10.576  0.8352 -0.6029 -0.8922
  190POPC  H15A21864   1.203   4.136  10.484 -1.0387 -0.4974 -1.3531
  190POPC  H15B21865   1.252   4.274  10.566 -0.3164  0.2058 -2.0782
  190POPC  H15C21866   1.083   4.215  10.599  0.9019 -1.0701 -0.0493
  190POPC   C1121867   1.239   4.087  10.962  0.1899 -0.0631  0.2789
  190POPC  H11A21868   1.165   4.005  10.971  2.1734 -1.9451  0.2051
  190POPC  H11B21869   1.216   4.150  11.050 -3.2209 -2.4056  1.2795
  190POPC     P21870   1.501   4.108  11.023  0.5705 -0.0836  0.3319
  190POPC   O1321871   1.539   4.032  11.142  0.0902  0.2747  0.3965
  190POPC   O1421872   1.477   4.255  11.043  0.0121  0.0058 -0.1513
  190POPC   O1221873   1.374   4.034  10.959 -0.1529  0.4325 -0.0153
  190POPC   O1121874   1.603   4.083  10.905 -0.1427 -0.1195 -0.5283
  190POPC    C121875   1.745   4.085  10.929  0.2080 -0.1623  0.3047
  190POPC    HA21876   1.789   4.005  10.865 -1.5173 -0.2016 -0.9145
  190POPC    HB21877   1.778   4.073  11.035  0.6361  0.0600  0.1992
  190POPC    C221878   1.802   4.216  10.870  0.0029 -0.3685  0.0867
  190POPC    HS21879   1.770   4.303  10.932  4.3799  0.7841  1.0291
  190POPC   O2121880   1.766   4.226  10.731  0.0541 -0.0122  0.4319
  190POPC   C2121881   1.760   4.354  10.684 -0.7603 -0.6985  0.2440
  190POPC   O2221882   1.764   4.456  10.760 -0.9597  0.2942 -0.1099
  190POPC   C2221883   1.735   4.350  10.531 -0.2516  0.3391  0.0171
  190POPC   H2R21884   1.624   4.339  10.527 -0.0717 -1.1254 -2.0650
  190POPC   H2S21885   1.779   4.256  10.492  1.6815  0.6267  1.4021
  190POPC    C321886   1.955   4.225  10.885  0.0848  0.0311 -0.5542
  190POPC    HX21887   1.990   4.222  10.990  1.9415 -0.5583 -1.1600
  190POPC    HY21888   1.986   4.328  10.861 -1.9835  0.5321 -1.3440
  190POPC   O3121889   2.026   4.122  10.813  0.1261 -0.1803  0.0999
  190POPC   C3121890   2.051   4.148  10.689  0.0048 -0.0729 -0.3819
  190POPC   O3221891   2.039   4.262  10.632  0.4799  0.1470  0.3320
  190POPC   C3221892   2.103   4.015  10.626  0.0561 -0.6372  1.0525
  190POPC   H2X21893   2.024   3.938  10.636  0.4909 -1.1155  0.8145
  190POPC   H2Y21894   2.188   3.987  10.693  1.7331 -1.4087 -1.2880
  190POPC   C2321895   1.784   4.479  10.459  0.5718 -0.3943  0.0342
  190POPC   H3R21896   1.876   4.526  10.500 -0.3649 -0.0836  1.9152
  190POPC   H3S21897   1.704   4.557  10.457  0.4684 -0.5091 -0.6776
  190POPC   C2421898   1.818   4.459  10.309 -0.1465  0.8896  0.9242
  190POPC   H4R21899   1.907   4.392  10.305  0.5277  1.7777  0.8756
  190POPC   H4S21900   1.834   4.562  10.271 -1.5851  1.1362  0.9524
  190POPC   C2521901   1.711   4.384  10.233  0.1653 -0.0521  0.1477
  190POPC   H5R21902   1.613   4.435  10.236  0.1807  0.0797 -1.0485
  190POPC   H5S21903   1.705   4.278  10.264  1.2286 -0.9221 -2.3923
  190POPC   C2621904   1.745   4.383  10.075  0.2901  0.1972 -0.2768
  190POPC   H6R21905   1.836   4.321  10.063  1.0784  1.6812 -2.4119
  190POPC   H6S21906   1.776   4.483  10.038  0.2511 -0.5941 -2.6119
  190POPC   C2721907   1.629   4.324   9.981 -0.2087  0.2668 -0.1054
  190POPC   H7R21908   1.543   4.392   9.961 -0.9572 -1.0987 -1.8649
  190POPC   H7S21909   1.599   4.232  10.034  1.7261 -0.7483 -0.6883
  190POPC   C2821910   1.675   4.279   9.840 -0.2810 -0.2018  0.5319
  190POPC   H8R21911   1.593   4.210   9.810 -2.1842  1.4739  1.5720
  190POPC   H8S21912   1.775   4.232   9.842  0.5500  1.3077 -1.8438
  190POPC   C2921913   1.690   4.400   9.755  0.6442  0.4546 -0.4271
  190POPC   H9121914   1.733   4.490   9.803 -0.8023  0.9844 -0.0771
  190POPC  C21021915   1.651   4.416   9.630  0.5712 -0.1001  0.0925
  190POPC  H10121916   1.665   4.518   9.590 -1.7812 -0.6305 -2.3580
  190POPC  C21121917   1.573   4.325   9.534  0.1523 -0.6540  0.3620
  190POPC  H11R21918   1.496   4.385   9.482 -1.1377 -0.8633  1.9327
  190POPC  H11S21919   1.518   4.244   9.587 -2.5959 -0.6305 -2.2182
  190POPC  C21221920   1.670   4.266   9.436  0.1381 -0.0616 -0.0085
  190POPC  H12R21921   1.610   4.203   9.369  1.1106 -2.8803  1.5993
  190POPC  H12S21922   1.743   4.192   9.477 -0.9160 -0.9709  0.2600
  190POPC  C21321923   1.739   4.371   9.347  0.3087 -0.1983  0.2725
  190POPC  H13R21924   1.805   4.327   9.269  0.5413  1.9107 -0.7752
  190POPC  H13S21925   1.798   4.440   9.410 -1.7949  1.3075  0.6926
  190POPC  C21421926   1.646   4.457   9.263 -0.2522 -0.7034  0.7173
  190POPC  H14R21927   1.702   4.542   9.218 -2.0865 -0.9983 -2.4015
  190POPC  H14S21928   1.587   4.512   9.339 -1.3318  0.0278 -0.6150
  190POPC  C21521929   1.566   4.382   9.158  0.5310 -0.2113 -0.4308
  190POPC  H15R21930   1.490   4.325   9.216 -0.2072 -0.3093 -1.4647
  190POPC  H15S21931   1.621   4.299   9.108 -2.1022 -0.7156 -2.7861
  190POPC  C21621932   1.492   4.466   9.053 -0.3749 -0.0184  0.0725
  190POPC  H16R21933   1.417   4.525   9.111 -0.6103  0.4640 -0.7043
  190POPC  H16S21934   1.441   4.395   8.984  2.3646 -0.0523 -2.0749
  190POPC  C21721935   1.590   4.558   8.977 -0.3571 -0.3365  0.7779
  190POPC  H17R21936   1.672   4.493   8.940 -0.1749  0.5677 -0.4975
  190POPC  H17S21937   1.644   4.635   9.036 -0.9991  2.2477 -1.7752
  190POPC  C21821938   1.532   4.617   8.857  0.6754 -0.9235  0.3080
  190POPC  H18R21939   1.603   4.688   8.809 -1.4795  0.7023 -0.6510
  190POPC  H18S21940   1.437   4.671   8.876  0.3371 -1.2942 -0.3095
  190POPC  H18T21941   1.512   4.540   8.780  0.6335 -0.4164 -0.1956
  190POPC   C3321942   2.153   4.037  10.474 -0.0373  0.5315  0.4230
  190POPC   H3X21943   2.209   3.947  10.439 -1.2077  0.5442 -1.6179
  190POPC   H3Y21944   2.227   4.119  10.462 -0.2101  0.2631 -3.6172
  190POPC   C3421945   2.049   4.037  10.365  0.2738 -0.1057 -0.4230
  190POPC   H4X21946   1.993   4.133  10.369 -0.0713 -0.1905 -2.2280
  190POPC   H4Y21947   1.971   3.962  10.387 -0.8635  1.4901  1.2976
  190POPC   C3521948   2.110   4.024  10.223 -0.3038 -0.0822 -0.6263
  190POPC   H5X21949   2.165   3.928  10.218  0.3040  0.2704 -0.7716
  190POPC   H5Y21950   2.187   4.104  10.218 -0.3777  0.0595  0.2638
  190POPC   C3621951   2.005   4.024  10.114 -0.4883  0.6098  0.6112
  190POPC   H6X21952   1.977   4.131  10.104 -0.1509  0.6525  0.0623
  190POPC   H6Y21953   1.907   3.982  10.146 -0.4119 -0.5847 -0.6254
  190POPC   C3721954   2.066   3.965   9.988 -0.3861  0.0950  0.7198
  190POPC   H7X21955   2.104   3.862  10.003 -3.1572 -1.1953 -0.3308
  190POPC   H7Y21956   2.146   4.036   9.960 -0.6241  0.8847  1.9788
  190POPC   C3821957   1.960   3.966   9.876 -0.2599 -0.1980 -0.2607
  190POPC   H8X21958   1.904   4.061   9.860 -1.0174 -0.6411 -0.2990
  190POPC   H8Y21959   1.893   3.884   9.910 -2.0293  0.7016 -1.3994
  190POPC   C3921960   2.027   3.933   9.743 -0.8588 -0.0120  0.8540
  190POPC   H9X21961   2.078   3.835   9.754  0.5808  0.7032  0.7857
  190POPC   H9Y21962   2.112   4.003   9.727 -1.0778 -0.5025 -3.4550
  190POPC  C31021963   1.931   3.943   9.620 -0.2779 -0.2139  0.2187
  190POPC  H10X21964   1.867   4.034   9.612  1.3901  1.0066  0.0869
  190POPC  H10Y21965   1.866   3.855   9.640  0.7942 -0.9252  0.6114
  190POPC  C31121966   1.988   3.926   9.479  0.0194 -0.9502  0.1402
  190POPC  H11X21967   2.054   3.837   9.469  0.6489 -0.8314  2.6797
  190POPC  H11Y21968   2.055   4.011   9.455 -0.7700  0.0574  1.4097
  190POPC  C31221969   1.881   3.930   9.371 -0.1211 -0.2226 -0.4323
  190POPC  H12X21970   1.837   4.031   9.361 -0.9366 -0.3939  1.2026
  190POPC  H12Y21971   1.806   3.856   9.408 -1.6646  0.7171 -1.5352
  190POPC  C31321972   1.942   3.883   9.236 -0.1307  0.1232 -0.1189
  190POPC  H13X21973   1.860   3.871   9.162 -1.1524 -2.8488  1.3451
  190POPC  H13Y21974   1.979   3.779   9.252  2.9337  0.7072 -2.5149
  190POPC  C31421975   2.048   3.968   9.172 -0.3501 -0.2094  0.4315
  190POPC  H14X21976   2.148   3.955   9.218 -0.2285  0.3183  0.3176
  190POPC  H14Y21977   2.015   4.074   9.181  1.2313  0.5743 -2.0466
  190POPC  C31521978   2.062   3.933   9.028  0.4697  0.6843  0.7832
  190POPC  H15X21979   1.966   3.955   8.976  0.1730  0.1352  1.0815
  190POPC  H15Y21980   2.070   3.822   9.026 -1.1488  0.5240  1.6011
  190POPC  C31621981   2.184   3.988   8.956 -0.4025  0.0775  0.0707
  190POPC  H16X21982   2.271   3.950   9.014 -1.1609 -1.4442  0.2518
  190POPC  H16Y21983   2.181   4.098   8.961 -1.7766  0.0950 -0.6696
  190POPC  H16Z21984   2.199   3.963   8.849 -1.4612  1.2688 -0.3759
  191POPC     N21985   2.287   5.035   6.134 -0.8442  0.6440  0.3971
  191POPC   C1221986   2.380   4.919   6.183  0.4245  0.5086  0.1241
  191POPC  H12A21987   2.482   4.949   6.164  1.0274 -0.6592  1.3369
  191POPC  H12B21988   2.351   4.831   6.127  1.0115 -0.2701  1.0043
  191POPC   C1321989   2.299   5.154   6.221 -0.5860  0.5055 -1.0154
  191POPC  H13A21990   2.402   5.186   6.229 -0.8837  1.3202 -0.1615
  191POPC  H13B21991   2.245   5.243   6.191  0.8403  1.5396 -0.6215
  191POPC  H13C21992   2.274   5.129   6.324 -3.7530 -0.0800 -1.8121
  191POPC   C1421993   2.336   5.073   5.998 -0.1897 -0.3088 -0.1321
  191POPC  H14A21994   2.342   4.995   5.924  0.6141 -0.0669 -0.3316
  191POPC  H14B21995   2.265   5.145   5.960  1.0765  0.1957 -1.5933
  191POPC  H14C21996   2.428   5.127   6.010 -0.5170  0.3816 -0.6575
  191POPC   C1521997   2.144   5.002   6.122 -0.6259  0.2673  0.3322
  191POPC  H15A21998   2.084   5.089   6.099 -0.7043  0.1062 -0.0894
  191POPC  H15B21999   2.106   4.958   6.213 -2.2374  2.0658  0.6092
  191POPC  H15C22000   2.134   4.931   6.041 -0.9967 -1.5240  1.8734
  191POPC   C1122001   2.361   4.889   6.331 -0.4061  0.3521  0.1255
  191POPC  H11A22002   2.394   4.785   6.352 -2.7487 -0.1917  1.5798
  191POPC  H11B22003   2.254   4.881   6.360 -0.6202  1.3314 -0.3357
  191POPC     P22004   2.567   4.966   6.475  0.1346 -0.4388 -0.4060
  191POPC   O1322005   2.628   5.099   6.521 -0.3083 -0.3285 -0.0588
  191POPC   O1422006   2.651   4.882   6.385 -0.3552  0.2960  0.0425
  191POPC   O1222007   2.425   4.986   6.410  0.9805  0.4371 -0.2856
  191POPC   O1122008   2.536   4.878   6.600  0.0661 -0.3644 -0.0666
  191POPC    C122009   2.403   4.855   6.648 -0.6166  0.1381  0.7960
  191POPC    HA22010   2.399   4.777   6.728 -0.3970 -1.4066 -0.6519
  191POPC    HB22011   2.329   4.814   6.577 -3.1732  1.8797  2.2844
  191POPC    C222012   2.340   4.991   6.696  0.0151 -0.7502  0.8886
  191POPC    HS22013   2.328   5.056   6.607  1.7656 -2.5299 -0.7314
  191POPC   O2122014   2.430   5.045   6.798 -1.0724 -0.6250  0.0941
  191POPC   C2122015   2.435   5.180   6.799 -0.1888 -0.0983  0.0970
  191POPC   O2222016   2.387   5.251   6.713  0.2958 -0.1722  0.1890
  191POPC   C2222017   2.517   5.226   6.915  0.2510  1.1581  0.0588
  191POPC   H2R22018   2.622   5.222   6.878  0.3534  1.2489  0.3410
  191POPC   H2S22019   2.498   5.157   7.000  0.3381  1.0274 -0.0274
  191POPC    C322020   2.207   4.968   6.773  0.3202  0.6356  0.3242
  191POPC    HX22021   2.134   4.916   6.706 -1.0249  0.8224  1.5757
  191POPC    HY22022   2.153   5.062   6.799  1.3366  2.0960 -2.4176
  191POPC   O3122023   2.223   4.874   6.879 -0.0529 -0.5390  0.3270
  191POPC   C3122024   2.256   4.932   6.992  0.4556  0.0346  0.5707
  191POPC   O3222025   2.281   5.051   7.009 -0.2508  0.3155 -0.7042
  191POPC   C3222026   2.252   4.826   7.098  0.1584  0.2107 -1.1824
  191POPC   H2X22027   2.327   4.750   7.069  2.0450  1.3264  0.5475
  191POPC   H2Y22028   2.149   4.784   7.097  0.7956 -1.7896  2.1500
  191POPC   C2322029   2.470   5.363   6.974  0.5354  0.2183 -0.1835
  191POPC   H3R22030   2.361   5.355   6.996 -0.0055 -3.2412 -3.1272
  191POPC   H3S22031   2.487   5.442   6.898 -0.4608 -0.8737 -1.5878
  191POPC   C2422032   2.545   5.402   7.107  0.0342  0.1930 -0.0241
  191POPC   H4R22033   2.534   5.512   7.117 -1.2282  0.2013 -1.1858
  191POPC   H4S22034   2.651   5.370   7.092  0.0412  0.6438 -1.0284
  191POPC   C2522035   2.481   5.345   7.233 -0.3147  0.2987  0.0586
  191POPC   H5R22036   2.474   5.234   7.234 -0.2632  0.2190 -2.1518
  191POPC   H5S22037   2.375   5.377   7.233 -0.4146 -0.0240  0.8633
  191POPC   C2622038   2.541   5.411   7.357 -0.1928 -0.2186 -0.7110
  191POPC   H6R22039   2.526   5.521   7.362  0.5185 -0.1329 -0.4053
  191POPC   H6S22040   2.647   5.379   7.362 -0.4330 -0.8600  2.5784
  191POPC   C2722041   2.480   5.345   7.486  0.1374  0.4404  0.5997
  191POPC   H7R22042   2.522   5.243   7.499  1.4515  0.6885 -1.3160
  191POPC   H7S22043   2.370   5.339   7.472  0.2829 -0.8273 -0.1556
  191POPC   C2822044   2.513   5.416   7.613 -0.6568 -0.1124  0.1619
  191POPC   H8R22045   2.625   5.416   7.613 -0.5975  0.3367 -2.0788
  191POPC   H8S22046   2.473   5.360   7.700 -1.0984 -2.1455 -1.2839
  191POPC   C2922047   2.470   5.558   7.628  0.3985  0.3330 -0.5384
  191POPC   H9122048   2.422   5.610   7.544  1.5563 -0.1988 -1.5626
  191POPC  C21022049   2.479   5.623   7.746  0.1866 -0.1261  0.2729
  191POPC  H10122050   2.430   5.721   7.760  0.4851  0.0320  0.2139
  191POPC  C21122051   2.538   5.563   7.869  0.1578 -0.3808 -0.4548
  191POPC  H11R22052   2.585   5.466   7.843 -1.7702 -1.4355 -0.2316
  191POPC  H11S22053   2.459   5.543   7.946  1.1134  1.1567  0.9823
  191POPC  C21222054   2.650   5.641   7.945  0.9384  0.3299 -0.0980
  191POPC  H12R22055   2.695   5.712   7.872 -0.6053  2.7673  1.1728
  191POPC  H12S22056   2.723   5.585   8.008 -1.4329 -0.8982  1.7274
  191POPC  C21322057   2.588   5.723   8.061 -0.0921  0.2966 -0.0804
  191POPC  H13R22058   2.529   5.661   8.131 -1.6585  1.6120 -0.1697
  191POPC  H13S22059   2.523   5.798   8.012  1.1835  1.4092 -0.1506
  191POPC  C21422060   2.704   5.806   8.121  0.2801  0.0206  0.6138
  191POPC  H14R22061   2.752   5.858   8.035 -0.8237 -0.5527 -0.3704
  191POPC  H14S22062   2.787   5.743   8.160  0.8034  1.9678  2.9142
  191POPC  C21522063   2.666   5.891   8.242  0.0977  0.0988 -0.0923
  191POPC  H15R22064   2.571   5.942   8.218  1.3155  1.6563 -1.9558
  191POPC  H15S22065   2.732   5.980   8.251  0.1063  0.5151 -3.1707
  191POPC  C21622066   2.640   5.808   8.369  0.0368  0.2441 -0.0903
  191POPC  H16R22067   2.731   5.746   8.386 -0.0869 -0.3979 -1.5860
  191POPC  H16S22068   2.564   5.731   8.344 -1.4398  1.7688 -0.4698
  191POPC  C21722069   2.583   5.893   8.485  0.7986  0.2983  0.2802
  191POPC  H17R22070   2.480   5.918   8.452  0.9149 -0.2818 -0.5325
  191POPC  H17S22071   2.653   5.979   8.493 -0.7560  1.5017  1.9922
  191POPC  C21822072   2.590   5.823   8.621 -0.0772 -0.0811 -0.7845
  191POPC  H18R22073   2.575   5.905   8.695 -0.5585 -1.4294  0.6556
  191POPC  H18S22074   2.683   5.769   8.648 -1.0738 -1.3177  0.2995
  191POPC  H18T22075   2.500   5.759   8.627 -0.7408  0.7556 -1.6258
  191POPC   C3322076   2.265   4.892   7.241 -0.0198  0.7960 -0.6297
  191POPC   H3X22077   2.203   4.985   7.250  0.0284  0.8830 -1.1582
  191POPC   H3Y22078   2.371   4.911   7.269  0.1288  1.9170 -1.8134
  191POPC   C3422079   2.207   4.806   7.359 -0.4890  0.2284  0.5623
  191POPC   H4X22080   2.270   4.716   7.374 -1.5128 -0.3672  1.4642
  191POPC   H4Y22081   2.102   4.771   7.345 -0.0251  0.1800 -4.4481
  191POPC   C3522082   2.200   4.876   7.493 -0.1768 -0.7102 -1.2216
  191POPC   H5X22083   2.155   4.976   7.473 -0.6108 -1.3134 -3.5743
  191POPC   H5Y22084   2.306   4.899   7.519 -0.8019 -0.5842  1.4719
  191POPC   C3622085   2.135   4.792   7.598 -0.4577  0.2009 -0.1282
  191POPC   H6X22086   2.205   4.708   7.620 -1.9464 -1.3667 -1.1340
  191POPC   H6Y22087   2.046   4.738   7.560 -0.6783  0.7965 -0.4623
  191POPC   C3722088   2.095   4.870   7.728 -0.1272 -0.9373 -0.1321
  191POPC   H7X22089   2.066   4.814   7.819 -0.6303  1.5544  1.3422
  191POPC   H7Y22090   2.007   4.932   7.701 -0.4718 -2.3383 -2.4949
  191POPC   C3822091   2.203   4.986   7.760  0.3083  0.0540 -0.3278
  191POPC   H8X22092   2.200   5.068   7.685  1.3611  0.2687 -0.1524
  191POPC   H8Y22093   2.304   4.939   7.757  0.2673 -0.0098 -0.7017
  191POPC   C3922094   2.191   5.049   7.896 -0.0239 -0.3809  0.1972
  191POPC   H9X22095   2.167   4.973   7.973 -0.5148 -1.3836 -0.9133
  191POPC   H9Y22096   2.098   5.109   7.897  1.9425  2.9214  0.1884
  191POPC  C31022097   2.307   5.146   7.935 -0.5512  0.0501 -0.3568
  191POPC  H10X22098   2.280   5.186   8.035  3.5166 -0.1049  0.9807
  191POPC  H10Y22099   2.316   5.229   7.861 -0.8460 -0.0538 -0.5093
  191POPC  C31122100   2.446   5.088   7.955 -0.2999  0.4960  0.2579
  191POPC  H11X22101   2.494   5.061   7.858 -1.2513  0.4182 -0.2104
  191POPC  H11Y22102   2.439   4.998   8.021 -4.5090  1.7214  1.7938
  191POPC  C31222103   2.548   5.177   8.025  0.1321 -0.4363 -0.0787
  191POPC  H12X22104   2.518   5.280   7.996  1.2910  0.1135  0.6122
  191POPC  H12Y22105   2.651   5.154   7.990 -0.2114  2.0357 -3.2383
  191POPC  C31322106   2.543   5.168   8.177  0.0602 -0.0726  0.0360
  191POPC  H13X22107   2.584   5.075   8.222  1.7956  0.3727 -0.5240
  191POPC  H13Y22108   2.438   5.190   8.205 -0.0816 -1.5234  0.7062
  191POPC  C31422109   2.622   5.287   8.243 -0.6196  0.0395  0.4156
  191POPC  H14X22110   2.602   5.373   8.176 -0.5187 -0.2540  0.0012
  191POPC  H14Y22111   2.732   5.278   8.228 -0.7002 -0.5681  0.1480
  191POPC  C31522112   2.584   5.316   8.388 -0.1622 -0.0005 -0.4745
  191POPC  H15X22113   2.676   5.308   8.449 -1.8525  0.6545  2.3361
  191POPC  H15Y22114   2.517   5.238   8.429  0.2685 -0.7182 -1.0967
  191POPC  C31622115   2.515   5.457   8.395  0.8629  0.2251 -0.0001
  191POPC  H16X22116   2.583   5.539   8.364  2.0306 -1.2268 -1.4856
  191POPC  H16Y22117   2.479   5.471   8.499  0.4310 -0.6847 -0.0168
  191POPC  H16Z22118   2.419   5.444   8.341 -1.5203 -0.4163  3.9874
  192POPC     N22119   0.597   0.675   5.878 -0.8959  0.0484 -0.2892
  192POPC   C1222120   0.543   0.625   6.015  0.4061  0.1572 -0.0349
  192POPC  H12A22121   0.491   0.531   6.001  1.5677 -0.6568  0.9336
  192POPC  H12B22122   0.461   0.690   6.039  0.0986  0.5216 -1.8738
  192POPC   C1322123   0.703   0.570   5.829  0.5328  0.3762  0.0367
  192POPC  H13A22124   0.653   0.476   5.815  0.2370  0.4444  0.6208
  192POPC  H13B22125   0.753   0.597   5.737  2.1368 -1.7007  0.2310
  192POPC  H13C22126   0.786   0.573   5.898  1.6156 -2.1895 -1.0417
  192POPC   C1422127   0.489   0.699   5.779 -0.3130  0.1667 -0.8966
  192POPC  H14A22128   0.428   0.784   5.807 -0.9271  0.2472 -2.4071
  192POPC  H14B22129   0.534   0.723   5.684 -1.3598  1.1396 -1.1685
  192POPC  H14C22130   0.446   0.600   5.772  1.7439 -0.8045 -0.4665
  192POPC   C1522131   0.678   0.804   5.887  0.0559 -0.1925 -0.7271
  192POPC  H15A22132   0.754   0.797   5.963  0.3000 -0.8755 -1.0302
  192POPC  H15B22133   0.616   0.890   5.910  1.1062 -0.1133  2.1469
  192POPC  H15C22134   0.732   0.823   5.796  2.2328 -2.1864  0.0519
  192POPC   C1122135   0.651   0.610   6.131  0.1082 -0.1544 -0.2880
  192POPC  H11A22136   0.597   0.596   6.227  1.6479  0.5170  0.7085
  192POPC  H11B22137   0.693   0.712   6.139 -1.0548  0.2521  1.1121
  192POPC     P22138   0.734   0.362   6.148  0.4133  0.0795  0.1056
  192POPC   O1322139   0.860   0.293   6.126  0.3470  0.5458 -0.0335
  192POPC   O1422140   0.616   0.315   6.080 -0.0641 -0.3689  0.5972
  192POPC   O1222141   0.756   0.516   6.105 -0.1403  0.4555  1.0793
  192POPC   O1122142   0.704   0.378   6.300 -0.2076 -0.0439  0.4915
  192POPC    C122143   0.797   0.463   6.378 -0.4725  0.5107 -0.6395
  192POPC    HA22144   0.792   0.571   6.350 -1.6270  0.3787 -1.0018
  192POPC    HB22145   0.900   0.422   6.375 -1.4340 -2.0751 -2.9127
  192POPC    C222146   0.757   0.442   6.525 -0.3088 -0.4697  0.1540
  192POPC    HS22147   0.670   0.509   6.539 -1.0627 -1.3350 -0.2729
  192POPC   O2122148   0.854   0.479   6.628 -0.2989 -0.8359  0.2724
  192POPC   C2122149   0.896   0.605   6.627 -0.0511 -0.3064 -0.3741
  192POPC   O2222150   0.845   0.703   6.572  0.1975  0.2841  0.2940
  192POPC   C2222151   1.017   0.615   6.708  0.5969  0.4062  0.5850
  192POPC   H2R22152   1.089   0.546   6.659  0.5456  1.1738 -0.5965
  192POPC   H2S22153   1.001   0.570   6.809 -1.0068 -0.7016 -0.1397
  192POPC    C322154   0.733   0.292   6.548 -0.0533  0.4835 -0.7937
  192POPC    HX22155   0.798   0.225   6.488  0.2699  0.6735 -0.6543
  192POPC    HY22156   0.634   0.261   6.509  0.4226 -1.5157 -0.5022
  192POPC   O3122157   0.729   0.255   6.687  0.4882 -0.5607 -0.1073
  192POPC   C3122158   0.628   0.292   6.760  0.1998 -0.3559 -0.3378
  192POPC   O3222159   0.530   0.348   6.718 -0.2328 -0.8261 -0.3044
  192POPC   C3222160   0.643   0.235   6.897 -0.1914  0.7060 -0.7661
  192POPC   H2X22161   0.738   0.178   6.905 -0.3524  0.5499  0.1284
  192POPC   H2Y22162   0.554   0.175   6.927 -0.5501  0.8783 -1.4624
  192POPC   C2322163   1.069   0.758   6.715 -0.2646  0.5665 -0.1753
  192POPC   H3R22164   0.987   0.827   6.744 -0.7547 -0.4091  0.8285
  192POPC   H3S22165   1.096   0.787   6.611 -0.4234  0.8484 -0.1380
  192POPC   C2422166   1.187   0.777   6.815 -0.1337  0.0425  0.6332
  192POPC   H4R22167   1.206   0.886   6.803  1.3042 -0.4357 -2.2565
  192POPC   H4S22168   1.270   0.711   6.784 -1.6567 -0.9348 -1.6339
  192POPC   C2522169   1.168   0.732   6.966  0.0302  0.0913  0.5238
  192POPC   H5R22170   1.249   0.788   7.016 -0.5088  1.8859 -0.5434
  192POPC   H5S22171   1.185   0.623   6.982 -0.4167 -0.0620 -0.0128
  192POPC   C2622172   1.025   0.767   7.025 -0.3078  0.1142  0.1256
  192POPC   H6R22173   0.954   0.727   6.950  0.6334  0.6832 -1.1039
  192POPC   H6S22174   1.027   0.878   7.026  0.1634  0.1253 -1.0490
  192POPC   C2722175   0.992   0.700   7.159 -0.0724 -0.2789 -0.4265
  192POPC   H7R22176   0.985   0.590   7.142  1.8836 -0.0811 -3.1732
  192POPC   H7S22177   0.892   0.723   7.201  0.6234  0.6491  0.7894
  192POPC   C2822178   1.092   0.729   7.277 -0.6204  0.3453  0.5016
  192POPC   H8R22179   1.193   0.703   7.236  0.2865  0.7137  2.3936
  192POPC   H8S22180   1.071   0.652   7.354  1.2172  0.9530  1.6738
  192POPC   C2922181   1.083   0.868   7.330 -0.6550  0.7689 -0.1100
  192POPC   H9122182   1.059   0.937   7.247  1.1241  2.1025  0.4207
  192POPC  C21022183   1.093   0.910   7.453 -0.0596 -0.5482 -0.3098
  192POPC  H10122184   1.055   1.012   7.469  0.2426  0.0168 -2.8141
  192POPC  C21122185   1.133   0.830   7.576 -0.0286 -0.5707 -0.3940
  192POPC  H11R22186   1.214   0.766   7.534  1.6174  2.9624 -3.1803
  192POPC  H11S22187   1.047   0.776   7.620  0.4676 -0.3072  0.9392
  192POPC  C21222188   1.191   0.902   7.703 -0.2922 -0.2628 -0.7085
  192POPC  H12R22189   1.206   0.816   7.771  2.2534  0.0532 -0.7494
  192POPC  H12S22190   1.110   0.963   7.747  1.1066  0.9875  0.2241
  192POPC  C21322191   1.309   1.001   7.677 -0.4203  1.0836 -0.8437
  192POPC  H13R22192   1.263   1.060   7.594 -0.5141  1.2507 -0.6740
  192POPC  H13S22193   1.399   0.943   7.650  0.2537  1.4427  0.5175
  192POPC  C21422194   1.332   1.097   7.790 -0.3815  0.0547 -0.8354
  192POPC  H14R22195   1.235   1.145   7.812 -0.9627 -1.1158 -0.7262
  192POPC  H14S22196   1.410   1.171   7.761  0.2096 -0.5261 -0.7726
  192POPC  C21522197   1.392   1.027   7.912 -0.0813  0.2370 -0.0780
  192POPC  H15R22198   1.468   0.949   7.887  0.0709 -0.2325  1.7127
  192POPC  H15S22199   1.316   0.961   7.959  0.8305 -0.4742  0.4452
  192POPC  C21622200   1.452   1.125   8.017  0.0568 -0.5032  0.0786
  192POPC  H16R22201   1.542   1.184   7.991  0.0348  0.0412  1.1797
  192POPC  H16S22202   1.488   1.059   8.098 -2.1743 -0.0116  1.5449
  192POPC  C21722203   1.340   1.227   8.056  0.1693 -0.1077 -0.1456
  192POPC  H17R22204   1.243   1.176   8.078 -0.5932  0.5663 -1.7637
  192POPC  H17S22205   1.330   1.293   7.967 -0.7243 -1.1028 -0.8144
  192POPC  C21822206   1.390   1.309   8.170  0.0978  0.2003 -0.5362
  192POPC  H18R22207   1.472   1.376   8.137  0.0126 -0.0094 -1.1695
  192POPC  H18S22208   1.430   1.245   8.252  0.8553  0.9192 -0.3138
  192POPC  H18T22209   1.312   1.374   8.215  0.8443 -0.3319  1.6550
  192POPC   C3322210   0.659   0.339   7.010  0.1307 -0.1344  0.5085
  192POPC   H3X22211   0.578   0.415   7.010  1.2421  1.0926  1.7068
  192POPC   H3Y22212   0.754   0.390   6.984  0.3975 -2.1185 -3.0004
  192POPC   C3422213   0.673   0.269   7.145 -0.2790 -0.5060  0.3212
  192POPC   H4X22214   0.746   0.187   7.127 -1.7555 -1.6056 -0.8403
  192POPC   H4Y22215   0.578   0.218   7.170 -0.2780 -1.2530 -1.0669
  192POPC   C3522216   0.730   0.356   7.253 -0.1064  0.2196 -0.1912
  192POPC   H5X22217   0.813   0.415   7.208  1.3340 -2.8782 -1.9951
  192POPC   H5Y22218   0.783   0.303   7.335 -0.5872  0.9780  0.6223
  192POPC   C3622219   0.629   0.461   7.315  0.1771  0.6457  0.2854
  192POPC   H6X22220   0.544   0.419   7.372  0.6285  0.8665  1.1368
  192POPC   H6Y22221   0.585   0.516   7.229  0.3930  0.9506  0.3686
  192POPC   C3722222   0.689   0.569   7.410  0.5145  0.5047 -0.6620
  192POPC   H7X22223   0.616   0.651   7.392 -0.8549 -0.5529 -0.0851
  192POPC   H7Y22224   0.793   0.592   7.379  1.4443 -2.3381  0.1327
  192POPC   C3822225   0.666   0.525   7.556  0.5538 -0.2936 -0.4184
  192POPC   H8X22226   0.691   0.417   7.567 -0.5645 -0.9798 -3.6384
  192POPC   H8Y22227   0.563   0.542   7.594  0.3471 -1.7380 -0.2779
  192POPC   C3922228   0.740   0.607   7.667  0.2426 -0.2376  0.9181
  192POPC   H9X22229   0.707   0.712   7.660  2.2752  0.4039  0.3910
  192POPC   H9Y22230   0.849   0.592   7.653  0.6334  0.5440  2.7276
  192POPC  C31022231   0.717   0.553   7.809 -0.1466  0.7057  0.5720
  192POPC  H10X22232   0.755   0.449   7.826  1.2499  0.9315 -0.9096
  192POPC  H10Y22233   0.608   0.563   7.825 -0.1270  0.1343  1.1329
  192POPC  C31122234   0.782   0.638   7.919 -0.4158 -1.2263 -0.1259
  192POPC  H11X22235   0.732   0.736   7.910 -0.4425 -1.3908 -2.3153
  192POPC  H11Y22236   0.891   0.651   7.904 -0.5386 -1.9092 -1.8311
  192POPC  C31222237   0.735   0.592   8.056 -0.3298  0.5164 -0.3444
  192POPC  H12X22238   0.739   0.481   8.058  0.3855  0.4911 -1.9389
  192POPC  H12Y22239   0.632   0.632   8.065 -0.0066  1.5719 -1.1787
  192POPC  C31322240   0.825   0.653   8.165  0.2895  0.5495 -0.8474
  192POPC  H13X22241   0.836   0.763   8.154 -2.0308  1.1253  1.5005
  192POPC  H13Y22242   0.926   0.610   8.150 -0.2994 -1.4381  0.4853
  192POPC  C31422243   0.790   0.618   8.315  0.2455 -0.3241 -0.4890
  192POPC  H14X22244   0.762   0.510   8.317  0.6818 -0.4271  0.1835
  192POPC  H14Y22245   0.704   0.684   8.337 -0.1715 -0.6417 -1.1216
  192POPC  C31522246   0.915   0.647   8.400  0.4857 -0.0607  0.3926
  192POPC  H15X22247   0.952   0.749   8.372  0.9452 -0.1522  0.6604
  192POPC  H15Y22248   0.995   0.571   8.391  2.3536  1.6471  1.6297
  192POPC  C31622249   0.887   0.662   8.552  0.5482  0.3917 -0.0004
  192POPC  H16X22250   0.819   0.580   8.585 -0.3106  1.0576 -0.0572
  192POPC  H16Y22251   0.822   0.748   8.579 -2.0611 -0.4275 -2.9906
  192POPC  H16Z22252   0.982   0.668   8.608  0.7435  0.1521 -0.3042
  193SOD    SOD22253   6.445   2.325   2.468  0.0693 -0.3301  0.3879
  194SOD    SOD22254   4.445   5.491  15.191  0.3123 -0.0320  0.2339
  195SOD    SOD22255   5.160   3.209  12.284  0.2758  0.8586 -0.3899
  196SOD    SOD22256   6.394   2.272  13.215 -0.0316 -0.1251  0.4624
  197SOD    SOD22257   0.023   2.427  12.319 -0.1683 -0.2208 -0.0200
  198SOD    SOD22258   0.488   3.823   1.276  0.5195 -0.1612 -0.8881
  199SOD    SOD22259   2.683   1.526   3.004  0.2071  0.1948 -0.4253
  200SOD    SOD22260   2.435   3.560   2.731 -0.5635 -0.3382  0.9596
  201SOD    SOD22261   4.477   5.615   3.258 -0.3400 -0.1078 -0.0243
  202SOD    SOD22262   0.221   0.012   6.127 -0.2283  0.1064 -0.0454
  203SOD    SOD22263   6.173   2.187  12.689 -0.1059 -0.1130  0.5289
  204SOD    SOD22264   6.581   4.651   0.384 -0.1004 -0.0293  0.1897
  205SOD    SOD22265   6.585   5.906  11.500 -0.6074 -0.0702  0.0216
  206SOD    SOD22266   6.131   6.741   1.363 -0.1876 -0.0339  0.0555
  207SOD    SOD22267   4.324   0.690  10.903 -0.2561  0.4796 -0.0015
  208SOD    SOD22268   1.993   3.064   6.260 -0.0412 -0.2724 -0.0205
  209SOD    SOD22269   5.816   0.358   6.311  0.2963 -0.1714 -0.5224
  210SOD    SOD22270   6.204   3.698  10.543 -0.6484  0.4396 -0.4125
  211SOD    SOD22271   1.816   3.293   0.815 -0.5489  0.2759 -0.0095
  212SOD    SOD22272   5.033   6.345   2.834  0.2116  0.1634 -0.3679
  213SOD    SOD22273   3.717   0.810  16.461 -0.5639  0.4528 -0.0380
  214SOD    SOD22274   2.246   0.395   0.670  0.3910 -0.0210  0.4630
  215SOD    SOD22275   5.568   5.357  16.753  0.0278  0.7443 -0.4117
  216SOD    SOD22276   1.993   0.306   1.748 -0.6529 -0.6868 -0.1737
  217SOD    SOD22277   6.118   1.781   1.352 -0.1657 -0.1399  0.0067
  218SOD    SOD22278   6.685   4.610  10.694  0.7047  0.0788 -0.0864
  219SOD    SOD22279   1.222   0.034   4.473 -0.1403 -0.0052  0.0050
  220SOD    SOD22280   3.686   5.891   3.482 -0.1975  0.1496 -0.4396
  221SOD    SOD22281   1.865   4.836  13.819 -0.5427 -0.1126  0.2517
  222SOD    SOD22282   1.138   6.369   5.669  0.1949  0.5200 -0.0602
  223SOD    SOD22283   0.596   6.287   3.111 -0.2883  0.5025  0.0629
  224SOD    SOD22284   6.012   1.202   2.027 -0.0480  0.5576 -0.2758
  225SOD    SOD22285   0.260   1.692   2.167  0.0011 -0.1588 -0.1344
  226SOD    SOD22286   3.099   6.783   5.213  0.1345  0.5608 -0.1599
  227SOD    SOD22287   2.225   3.784  16.789 -0.3252 -0.2459  0.6452
  228SOD    SOD22288   6.543   2.927  15.193  0.0002  0.1378  0.1787
  229SOD    SOD22289   3.456   2.628   2.862 -0.6728  0.1937  0.0725
  230SOD    SOD22290   1.671   6.343  11.854 -0.3576 -0.0867 -0.9009
  231SOD    SOD22291   3.787   6.217  12.687  0.0783 -0.7100  0.1758
  232SOD    SOD22292   1.487   5.463   4.281 -0.6277  0.1972  0.1896
  233SOD    SOD22293   2.635   3.313   5.716 -0.4944 -0.2290 -0.5359
  234SOD    SOD22294   0.142   5.319   6.006  0.0558 -0.9000 -0.5479
  235SOD    SOD22295   4.635   3.360  12.020  0.4434  0.1434 -0.1921
  236SOD    SOD22296   3.205   2.229  16.394 -0.5190  0.0735 -0.1061
  237SOD    SOD22297   4.337   4.290  11.171 -0.2320  0.6075  0.0617
  238SOD    SOD22298   2.088   5.289   1.095  0.3309  0.0561 -0.0367
  239SOD    SOD22299   3.211   3.552   1.746 -0.4282 -0.1607  0.2440
  240SOD    SOD22300   0.384   5.196  10.988 -0.2010 -0.2872 -0.0433
  241SOD    SOD22301   3.814   3.221   6.037  0.6371 -0.5150  0.2019
  242SOD    SOD22302   4.646   4.579  10.691 -0.0398 -0.2310 -0.2952
  243SOD    SOD22303   5.356   5.786  10.780 -0.3150  0.5522 -0.2819
  244SOD    SOD22304   4.771   2.822  13.408 -0.1538  0.4823  0.5145
  245SOD    SOD22305   1.390   4.612  12.482 -0.1079 -0.0875  0.0792
  246SOD    SOD22306   6.411   4.075  16.139 -0.3983  0.1374 -0.1493
  247SOD    SOD22307   5.271   4.735  14.029  0.2409 -0.3488  0.0021
  248SOD    SOD22308   6.547   6.217  13.188  0.5250 -0.4200  0.5871
  249SOD    SOD22309   2.596   3.711  10.936 -0.1897  0.1421 -0.3664
  250SOD    SOD22310   6.475   1.701   0.462  0.7526 -0.0454  0.4019
  251SOD    SOD22311   5.433   3.175  13.296 -0.5202 -0.1146  0.2874
  252SOD    SOD22312   2.612   6.060   4.816 -0.2704 -0.0904 -0.7286
  253SOD    SOD22313   6.363   3.704   3.411  0.1201 -0.2816  0.6364
  254SOD    SOD22314   4.171   3.389   5.288 -0.1702  0.1997 -0.0932
  255SOD    SOD22315   0.998   3.074   5.476 -0.1572  0.3083  0.0086
  256SOD    SOD22316   3.711   4.931  12.855  0.0275  0.4011  0.0465
  257SOD    SOD22317   5.605   2.693   5.661 -0.7931 -0.3874 -0.2389
  258SOD    SOD22318   2.958   6.206  14.132  0.2836 -0.1770 -0.5256
  259SOD    SOD22319   3.879   4.046  12.108 -0.5679  0.0600 -0.4051
  260SOD    SOD22320   2.603   0.228  10.500  0.1752  0.1277 -0.5547
  261SOD    SOD22321   2.029   2.493  16.921  0.0786  0.0420  0.0136
  262SOD    SOD22322   0.508   6.743  14.375  0.1931  0.1461 -0.4069
  263SOD    SOD22323   5.105   2.130   5.092 -0.1578 -0.1529  0.2213
  264SOD    SOD22324   2.321   0.442  12.205 -0.4830  0.0320 -0.1511
  265SOD    SOD22325   0.661   4.502  12.715 -0.2742 -0.0597 -0.1029
  266SOD    SOD22326   2.932   5.147  13.914  0.1250  0.0320 -0.0210
  267SOD    SOD22327   4.714   2.234  15.492  0.1451  0.3743 -0.3311
  268SOD    SOD22328   4.574   1.397   2.755  0.0146  0.0190  0.1279
  269SOD    SOD22329   5.963   5.608   5.664  0.1312 -0.0102 -0.0251
  270CLA    CLA22330   5.300   1.102   0.735  0.0829  0.2646 -0.2293
  271CLA    CLA22331   1.814   2.628   2.353 -0.3741 -0.2061  0.3640
  272CLA    CLA22332   6.136   0.318   0.109 -0.0847 -0.3588  0.1699
  273CLA    CLA22333   4.600   5.131   2.499 -0.5121  0.4690 -0.3819
  274CLA    CLA22334   5.378   3.090  15.468 -0.1164  0.2153  0.1683
  275CLA    CLA22335   5.240   3.059  16.458 -0.2288  0.0864 -0.3896
  276CLA    CLA22336   4.417   0.634  13.347 -0.4952 -0.0387 -0.1883
  277CLA    CLA22337   4.811   1.360   1.629 -0.0658 -0.2780  0.4369
  278CLA    CLA22338   4.207   4.762   4.146 -0.2271 -0.1884  0.0463
  279CLA    CLA22339   5.934   3.845  15.587 -0.3033  0.2941 -0.1912
  280CLA    CLA22340   3.933   5.939   2.527 -0.2405  0.0537 -0.0490
  281CLA    CLA22341   2.053   5.173  13.365 -0.2258  0.0149  0.1546
  282CLA    CLA22342   6.783   0.091   2.844  0.0681 -0.4752 -0.2038
  283CLA    CLA22343   2.795   6.635   4.770  0.1272 -0.2060  0.0953
  284CLA    CLA22344   0.734   3.116   0.905 -0.0429 -0.0714 -0.0732
  285CLA    CLA22345   0.302   0.141   0.608  0.0545 -0.0807  0.2305
  286CLA    CLA22346   2.055   3.974  12.106 -0.0282  0.0481 -0.1748
  287CLA    CLA22347   2.246   0.869   2.449 -0.1977  0.5975 -0.4408
  288CLA    CLA22348   0.947   6.630   4.027 -0.1985 -0.1271  0.0613
  289CLA    CLA22349   3.114   3.879  12.677  0.1572 -0.1223  0.4282
  290CLA    CLA22350   2.796   3.140   2.997 -0.0019 -0.1157  0.0177
  291CLA    CLA22351   1.724   3.350  17.147 -0.2268  0.6384 -0.1599
  292CLA    CLA22352   3.042   5.447  12.834  0.3000  0.3026  0.1979
  293CLA    CLA22353   0.539   0.875  14.872 -0.0604  0.3688 -0.1375
  294CLA    CLA22354   2.347   5.689   1.626 -0.1991 -0.0990 -0.2524
  295CLA    CLA22355   4.919   6.651  12.602  0.0116  0.3159 -0.0714
  296CLA    CLA22356   6.249   4.632   0.785  0.4694 -0.1761  0.2869
  297CLA    CLA22357   0.640   5.893  16.719  0.1615 -0.0664 -0.3267
  298CLA    CLA22358   0.925   3.679  11.816  0.3172  0.4132 -0.0799
  299CLA    CLA22359   5.186   2.725  13.177  0.0609 -0.1330 -0.0302
  300CLA    CLA22360   6.243   6.768   3.077 -0.2605 -0.0865 -0.3617
  301CLA    CLA22361   6.427   2.431   2.717 -0.1904 -0.0387  0.3993
  302CLA    CLA22362   2.630   5.066  15.581 -0.1154 -0.0320 -0.2888
  303CLA    CLA22363   2.622   3.166   0.248 -0.2243 -0.1185  0.0257
  304CLA    CLA22364   6.411   3.088   4.715 -0.0723  0.0915 -0.2015
  305CLA    CLA22365   4.190   4.105   2.370 -0.2667 -0.1040 -0.2449
  306CLA    CLA22366   6.252   3.700  12.929 -0.2898 -0.3317 -0.0383
  307CLA    CLA22367   0.316   1.139   5.063 -0.2529 -0.2667  0.2597
  308CLA    CLA22368   2.489   4.097  12.969 -0.0303 -0.0343  0.0106
  309CLA    CLA22369   5.499   5.428  13.923  0.1108  0.1689  0.0253
  310CLA    CLA22370   4.987   4.356  11.778 -0.0729  0.0892 -0.3357
  311CLA    CLA22371   5.746   0.171   2.150 -0.0990 -0.2519 -0.2053
  312CLA    CLA22372   2.794   2.458  16.790 -0.0902 -0.0448 -0.1542
  313CLA    CLA22373   2.002   0.942  15.178 -0.2848  0.5383  0.0418
  314CLA    CLA22374   2.743   2.044  16.336 -0.1857  0.1655  0.0998
  315CLA    CLA22375   3.965   1.596   2.469  0.1179 -0.2400 -0.0421
  316CLA    CLA22376   4.465   6.435  11.339 -0.1973  0.3219 -0.4984
  317CLA    CLA22377   0.004   5.192   1.348  0.1810 -0.1402 -0.1379
  318CLA    CLA22378   5.485   6.304  11.928 -0.0744  0.0139  0.0423
  319CLA    CLA22379   4.826   6.405  15.193  0.2736 -0.2070  0.1586
  320CLA    CLA22380   1.303   6.286  12.857 -0.0155  0.1880  0.0714
  321CLA    CLA22381   4.990   3.875  13.677 -0.0924 -0.6123  0.0678
  322CLA    CLA22382   4.929   5.099  12.732  0.1874 -0.1767 -0.2084
  323TIP3   OH222383   3.461   6.286  13.796 -0.6466  0.8011  0.1421
  323TIP3    H122384   3.498   6.241  13.872 -0.0712 -0.4452 -0.8396
  323TIP3    H222385   3.481   6.378  13.811  2.8559  0.2450 -0.2426
  324TIP3   OH222386   6.674   5.658   2.720 -0.5730 -0.0710 -0.2150
  324TIP3    H122387   6.724   5.735   2.693 -0.2767 -0.0848  0.2806
  324TIP3    H222388   6.585   5.675   2.690 -0.2261 -0.1521 -1.3284
  325TIP3   OH222389   5.687   2.251  12.088 -0.2792 -0.5820  0.1591
  325TIP3    H122390   5.637   2.203  12.154 -0.9219 -0.5013 -0.2584
  325TIP3    H222391   5.634   2.329  12.069  1.2394  0.9094  1.6152
  326TIP3   OH222392   2.150   3.738  11.940  0.5736 -0.1670  0.1315
  326TIP3    H122393   2.103   3.790  12.005 -0.3780 -1.6634  0.6959
  326TIP3    H222394   2.235   3.780  11.932 -0.6165  2.3300 -0.5172
  327TIP3   OH222395   4.067   0.174  14.627  0.0065  0.0468  0.1278
  327TIP3    H122396   4.139   0.121  14.592 -1.0491 -1.2710 -0.1103
  327TIP3    H222397   4.027   0.214  14.550  0.3609  0.6522  0.2480
  328TIP3   OH222398   2.867   0.184  12.480  0.0871  0.2767  0.3261
  328TIP3    H122399   2.799   0.234  12.435  0.8704  1.3990  0.3360
  328TIP3    H222400   2.820   0.117  12.530 -0.9853  0.9179  0.1851
  329TIP3   OH222401   3.381   6.103   1.335 -0.4961  0.1155 -0.0669
  329TIP3    H122402   3.358   6.089   1.427 -2.9100  0.5585 -0.5287
  329TIP3    H222403   3.341   6.029   1.290  0.1537  0.2203 -0.8215
  330TIP3   OH222404   4.059   0.418   5.348 -0.0578  0.2148  0.0552
  330TIP3    H122405   4.145   0.439   5.311 -0.2722 -0.1065 -0.6336
  330TIP3    H222406   4.000   0.482   5.309 -0.7246 -1.5679 -2.0901
  331TIP3   OH222407   2.987   3.911  13.069  0.3529 -0.7304 -0.2730
  331TIP3    H122408   2.982   3.846  12.999  1.6943 -0.0970 -1.0039
  331TIP3    H222409   3.080   3.914  13.092  0.2184  0.4546  0.1849
  332TIP3   OH222410   3.314   5.482  15.538 -0.1124  0.0639 -0.6771
  332TIP3    H122411   3.344   5.401  15.497  0.1404  0.4153 -1.1927
  332TIP3    H222412   3.390   5.541  15.534 -0.2378  0.2719 -0.1469
  333TIP3   OH222413   5.694   4.031  14.708  0.4764  0.1095  0.4952
  333TIP3    H122414   5.649   4.029  14.623 -1.7243  0.4581  1.5899
  333TIP3    H222415   5.753   3.956  14.704  0.1936 -0.0761 -1.2257
  334TIP3   OH222416   2.926   1.033  15.472 -0.1845 -0.3823 -0.0116
  334TIP3    H122417   2.910   1.025  15.566 -0.4187  0.2697  0.0079
  334TIP3    H222418   2.841   1.059  15.435  0.1351  0.3007 -0.2777
  335TIP3   OH222419   0.780   2.490  12.987  0.3531 -0.2350  0.7187
  335TIP3    H122420   0.759   2.521  13.075  0.9527 -1.8868  1.4885
  335TIP3    H222421   0.847   2.423  13.001  1.2352  0.2288 -1.0991
  336TIP3   OH222422   5.665   4.405  14.035 -0.2246  0.1441 -0.0234
  336TIP3    H122423   5.574   4.377  14.033 -0.1151 -0.1949 -0.6666
  336TIP3    H222424   5.716   4.325  14.020  0.1912  0.2913  0.5575
  337TIP3   OH222425   2.738   3.485  13.590  0.2009 -1.0536  0.0927
  337TIP3    H122426   2.681   3.558  13.563 -1.5744 -2.0389  1.0024
  337TIP3    H222427   2.803   3.526  13.648  0.4103  0.0886 -0.8991
  338TIP3   OH222428   1.066   0.621   0.932  0.1028 -0.5977 -0.6212
  338TIP3    H122429   1.133   0.676   0.893 -0.6214 -1.0256 -2.6026
  338TIP3    H222430   1.108   0.535   0.943  1.2168  0.2027  2.4270
  339TIP3   OH222431   3.000   6.256  15.838 -0.1156 -0.4420  0.2002
  339TIP3    H122432   3.087   6.283  15.809 -0.4415 -1.6005 -2.0036
  339TIP3    H222433   2.991   6.296  15.925  1.1727  2.7507 -0.9661
  340TIP3   OH222434   3.903   6.674  13.110  0.4339  0.8202 -0.1284
  340TIP3    H122435   3.932   6.763  13.088 -0.1111  1.2055  0.6688
  340TIP3    H222436   3.948   6.654  13.193  1.8616 -0.3104 -1.1281
  341TIP3   OH222437   4.424   1.133  15.234 -0.1823  0.2523 -0.0900
  341TIP3    H122438   4.364   1.178  15.174  1.0839  0.3476 -1.3559
  341TIP3    H222439   4.435   1.046  15.196 -0.2029 -0.0654  0.6206
  342TIP3   OH222440   1.553   1.449  13.929 -0.4398 -0.4661  0.1211
  342TIP3    H122441   1.634   1.483  13.967 -0.7645  1.0828 -0.4912
  342TIP3    H222442   1.487   1.515  13.952 -1.1445 -0.7791 -0.9639
  343TIP3   OH222443   4.635   1.678   4.795 -0.3281 -0.4072 -0.4621
  343TIP3    H122444   4.682   1.727   4.728 -0.3782 -1.3575 -1.2052
  343TIP3    H222445   4.701   1.624   4.837 -0.1126  0.8989  0.9433
  344TIP3   OH222446   4.822   0.162  16.692 -0.5660 -0.1093 -0.5672
  344TIP3    H122447   4.816   0.159  16.788 -3.3171  0.8677 -0.6260
  344TIP3    H222448   4.880   0.236  16.674 -0.7146  0.2487  0.3469
  345TIP3   OH222449   0.256   2.694   2.774  0.3252  0.1621  0.9321
  345TIP3    H122450   0.213   2.686   2.689  1.8698 -0.6031  0.1836
  345TIP3    H222451   0.217   2.772   2.813 -1.5223 -0.3369  0.2071
  346TIP3   OH222452   4.684   6.467  12.509 -0.4875  0.2643  0.4702
  346TIP3    H122453   4.670   6.432  12.597 -1.0521 -0.6043  0.0507
  346TIP3    H222454   4.760   6.524  12.518  0.6082 -1.2304  1.1510
  347TIP3   OH222455   1.271   5.122  15.833 -0.0953  0.4999 -0.4962
  347TIP3    H122456   1.348   5.066  15.840 -0.5010 -0.0136 -0.0724
  347TIP3    H222457   1.197   5.063  15.850 -0.4606  1.4375  1.4069
  348TIP3   OH222458   3.362   4.117  15.857  1.0494  0.4497 -0.2953
  348TIP3    H122459   3.368   4.065  15.777 -1.8723 -1.5971  0.6455
  348TIP3    H222460   3.384   4.206  15.829  1.0997 -0.3448 -3.1408
  349TIP3   OH222461   2.373   4.170   4.757  0.2516 -0.7556 -0.0543
  349TIP3    H122462   2.335   4.103   4.700  1.3366 -1.5669  0.1350
  349TIP3    H222463   2.307   4.183   4.825 -0.3583 -0.9663 -0.5906
  350TIP3   OH222464   6.281   0.644  16.716  0.1660  0.1453  0.8854
  350TIP3    H122465   6.297   0.601  16.632  0.7968 -2.2435  2.1222
  350TIP3    H222466   6.188   0.631  16.732 -0.0769  1.1213  0.3086
  351TIP3   OH222467   4.544   3.557  16.977  0.0848  0.1818 -0.0336
  351TIP3    H122468   4.611   3.573  16.910  0.4076  0.3420  0.3171
  351TIP3    H222469   4.483   3.496  16.937  0.8564 -0.5633 -0.1031
  352TIP3   OH222470   3.212   0.691  15.661 -0.4393  0.0776  0.4101
  352TIP3    H122471   3.211   0.663  15.753  0.6691  1.4374  0.8642
  352TIP3    H222472   3.234   0.611  15.612 -0.2229 -0.4887  1.3939
  353TIP3   OH222473   0.858   0.053   0.325 -0.0346  0.0028 -0.0723
  353TIP3    H122474   0.816  -0.023   0.285 -2.5127  1.1247  0.2252
  353TIP3    H222475   0.846   0.040   0.419 -0.1476  0.5619 -0.0070
  354TIP3   OH222476   1.375   1.937  16.292  0.1018 -0.5630 -0.2584
  354TIP3    H122477   1.404   1.914  16.204 -1.7493 -1.9313 -0.5876
  354TIP3    H222478   1.426   1.880  16.350  1.4639  0.4764 -0.3907
  355TIP3   OH222479   3.658   0.908  16.883  0.3464 -0.2684  1.0650
  355TIP3    H122480   3.706   0.989  16.866  1.6741 -1.3226 -0.5673
  355TIP3    H222481   3.715   0.857  16.940 -0.0869 -0.4210  1.3703
  356TIP3   OH222482   5.028   5.394  14.089  0.2168  0.0779  0.3197
  356TIP3    H122483   5.030   5.326  14.022 -0.6473  1.7990 -1.5528
  356TIP3    H222484   5.098   5.454  14.065  0.2299  0.4686  1.2848
  357TIP3   OH222485   1.054   5.530   2.728  0.1294 -0.2339 -0.4094
  357TIP3    H122486   0.960   5.534   2.740  0.4882  1.3129  3.3143
  357TIP3    H222487   1.068   5.454   2.672 -3.2495 -1.1085 -0.2648
  358TIP3   OH222488   0.935   6.573  12.477  0.1855 -0.4613 -0.5573
  358TIP3    H122489   0.861   6.540  12.425 -1.6166 -0.5221  1.8831
  358TIP3    H222490   0.910   6.663  12.498 -0.4007 -1.1912  2.2425
  359TIP3   OH222491   5.048   5.768   0.337  0.0815  0.1797  0.3101
  359TIP3    H122492   5.005   5.820   0.404 -2.2575 -1.7906  0.4663
  359TIP3    H222493   4.990   5.774   0.261  0.8246 -0.4970 -0.3326
  360TIP3   OH222494   3.466   4.721  14.495 -0.0421 -0.0949 -0.1951
  360TIP3    H122495   3.532   4.769  14.545  0.7328 -0.3804 -0.9281
  360TIP3    H222496   3.479   4.748  14.405 -0.6473 -0.4850 -0.4042
  361TIP3   OH222497   1.019   4.039   0.017 -0.3737 -0.1724 -0.4665
  361TIP3    H122498   1.051   4.080   0.097  1.0664 -1.3080 -0.4105
  361TIP3    H222499   1.007   4.111  -0.044 -0.7380  0.6275  0.5083
  362TIP3   OH222500   1.789   1.770   4.844 -0.0208  0.0482 -0.4000
  362TIP3    H122501   1.855   1.837   4.861  0.4190 -0.1960 -1.0972
  362TIP3    H222502   1.711   1.820   4.821 -0.3085  0.3542  1.1442
  363TIP3   OH222503   3.819   1.455   3.976  0.3680 -0.1491  0.0876
  363TIP3    H122504   3.893   1.512   3.994 -1.1440  2.6503 -1.7335
  363TIP3    H222505   3.764   1.461   4.054  0.0718  1.2587 -0.1959
  364TIP3   OH222506   6.363   0.507  11.994  0.6545  0.2138  0.3758
  364TIP3    H122507   6.296   0.485  11.930  0.1976 -0.0056  0.9211
  364TIP3    H222508   6.329   0.585  12.039  0.4763 -0.2573  1.0677
  365TIP3   OH222509   1.296   6.584  11.872  0.0975  0.0948 -0.1970
  365TIP3    H122510   1.340   6.627  11.945 -0.2533  0.5558 -0.2570
  365TIP3    H222511   1.364   6.529  11.832 -0.0856 -1.4070  1.4237
  366TIP3   OH222512   2.829   4.671  11.518  0.2422  0.3112  0.2338
  366TIP3    H122513   2.734   4.666  11.529  0.4809  0.6131  3.0552
  366TIP3    H222514   2.856   4.580  11.504 -0.4330  0.2283 -0.6377
  367TIP3   OH222515   3.286   4.033   2.842 -0.5728 -0.1522  0.9585
  367TIP3    H122516   3.267   4.122   2.812  1.4322  0.8897  2.5331
  367TIP3    H222517   3.380   4.032   2.857 -0.2055 -3.1397 -0.7214
  368TIP3   OH222518   0.646   3.605  13.962  0.5360  0.1339 -0.0944
  368TIP3    H122519   0.695   3.635  13.885 -0.3007  0.5768 -0.4623
  368TIP3    H222520   0.690   3.523  13.986  2.5466  1.3425  0.6382
  369TIP3   OH222521   5.193   4.906  13.383  0.1721  0.2728 -0.1628
  369TIP3    H122522   5.223   4.995  13.362  0.0830  0.2444 -0.4154
  369TIP3    H222523   5.223   4.853  13.310  0.2246  0.0944 -0.0102
  370TIP3   OH222524   3.128   0.700  14.837 -0.3579  0.0629 -0.1018
  370TIP3    H122525   3.143   0.606  14.832 -0.5786  0.0571 -0.7926
  370TIP3    H222526   3.163   0.726  14.923 -2.2987 -1.0100  1.0859
  371TIP3   OH222527   4.504   4.371  12.060  0.1335  0.0247 -0.6667
  371TIP3    H122528   4.577   4.313  12.080 -1.2079 -1.9039 -1.0734
  371TIP3    H222529   4.512   4.442  12.124  1.5510 -0.8678  0.2084
  372TIP3   OH222530   1.968   2.879  14.642 -0.0902  0.3730 -0.4753
  372TIP3    H122531   1.958   2.835  14.727 -1.7744 -0.5182 -1.0859
  372TIP3    H222532   1.919   2.960  14.651 -3.0218 -1.1488 -1.5044
  373TIP3   OH222533   0.831   1.748  16.075  0.2308 -0.1259 -0.0640
  373TIP3    H122534   0.838   1.657  16.046 -0.0767  0.0876 -0.8537
  373TIP3    H222535   0.770   1.788  16.012  0.5031  0.6667  0.1643
  374TIP3   OH222536   6.315   2.171   0.701  0.5738  0.6696 -0.3586
  374TIP3    H122537   6.355   2.256   0.723  0.9755  0.8647 -1.7923
  374TIP3    H222538   6.249   2.192   0.635 -0.3445  0.0286  0.3177
  375TIP3   OH222539   6.169   4.465   1.220 -0.4491 -0.2839  0.1529
  375TIP3    H122540   6.234   4.406   1.181  0.0467  0.2533  0.1529
  375TIP3    H222541   6.134   4.416   1.295 -0.2610 -0.6932 -0.0230
  376TIP3   OH222542   6.387   6.085  11.580  0.1839 -0.4758  0.2442
  376TIP3    H122543   6.430   6.140  11.645 -0.2826  0.8929 -0.5739
  376TIP3    H222544   6.323   6.034  11.630 -1.1710  1.5625  0.7152
  377TIP3   OH222545   2.549   0.353   3.330 -0.7466 -0.2896  0.2288
  377TIP3    H122546   2.516   0.443   3.336  1.5527  0.8805 -2.7388
  377TIP3    H222547   2.514   0.320   3.248 -0.1266 -1.5095  0.4346
  378TIP3   OH222548   5.517   4.139   3.039  0.1140  0.3411 -0.7531
  378TIP3    H122549   5.434   4.176   3.011 -1.0038 -1.2111  0.3229
  378TIP3    H222550   5.494   4.083   3.114  1.8927 -1.3146 -1.3705
  379TIP3   OH222551   0.959   4.816   6.374  0.1738  0.0796 -0.1748
  379TIP3    H122552   0.965   4.902   6.417 -2.1197  0.5057 -0.5306
  379TIP3    H222553   0.882   4.775   6.414  0.6517 -1.3954 -0.7245
  380TIP3   OH222554   5.990   2.611   0.689 -0.2018 -0.0283  0.2115
  380TIP3    H122555   5.976   2.704   0.705 -1.2399 -0.2877  0.9210
  380TIP3    H222556   6.033   2.607   0.603  1.4003  1.1679  0.9122
  381TIP3   OH222557   4.422   4.020  16.121 -0.0108 -0.3372  0.0446
  381TIP3    H122558   4.344   4.060  16.158 -0.0388 -0.7509  0.4443
  381TIP3    H222559   4.420   4.044  16.028 -0.0123  0.5844  0.2810
  382TIP3   OH222560   2.714   5.552  13.435  0.2450  0.5686  0.1594
  382TIP3    H122561   2.771   5.588  13.367  0.8882 -2.0367 -0.8036
  382TIP3    H222562   2.657   5.491  13.387 -0.7214  0.2366  1.6753
  383TIP3   OH222563   1.286   5.769  13.914  0.4492  0.3626 -0.4214
  383TIP3    H122564   1.354   5.702  13.914 -0.9394 -1.1021 -0.0834
  383TIP3    H222565   1.282   5.799  14.005  1.7678  1.6964 -0.7636
  384TIP3   OH222566   0.109   4.379  14.145  0.4703 -0.3446 -0.1945
  384TIP3    H122567   0.117   4.451  14.208  0.9286  0.3627 -1.0434
  384TIP3    H222568   0.045   4.411  14.081  0.4418 -0.8202 -0.4013
  385TIP3   OH222569   2.127   2.605   0.990  0.0738 -0.4008 -0.0917
  385TIP3    H122570   2.145   2.515   1.017  0.9322 -1.3892 -3.5637
  385TIP3    H222571   2.088   2.597   0.903 -1.9447  2.5383  0.4180
  386TIP3   OH222572   3.014   0.335  11.575 -0.2034  0.4230  0.3387
  386TIP3    H122573   2.974   0.358  11.491 -0.7179 -1.5249 -0.0142
  386TIP3    H222574   2.942   0.344  11.638 -0.6684 -0.9548  0.0530
  387TIP3   OH222575   3.599   3.864   0.806  0.2702  0.4212  0.0566
  387TIP3    H122576   3.625   3.854   0.715 -1.2085 -0.6513 -0.2761
  387TIP3    H222577   3.639   3.947   0.833  2.6483 -0.3223 -0.8463
  388TIP3   OH222578   5.391   3.719  15.685 -0.0639  0.2338 -0.5450
  388TIP3    H122579   5.351   3.806  15.683  2.6216  1.6022  0.7554
  388TIP3    H222580   5.483   3.733  15.663  0.4670 -2.2995 -0.3387
  389TIP3   OH222581   3.072   4.664   1.217 -0.1419  0.0277 -0.0517
  389TIP3    H122582   3.161   4.685   1.189  0.2192 -0.6225  0.5790
  389TIP3    H222583   3.066   4.697   1.307 -0.3182 -0.5156  0.1414
  390TIP3   OH222584   6.373   5.646  12.707  0.0623 -0.6962  0.7892
  390TIP3    H122585   6.429   5.723  12.696 -0.2417 -0.7652 -2.0295
  390TIP3    H222586   6.388   5.618  12.797 -0.1506  2.8747  2.0928
  391TIP3   OH222587   1.803   3.776  14.592 -0.5564 -0.5100 -0.5629
  391TIP3    H122588   1.851   3.697  14.616 -1.3083 -0.0990  2.7367
  391TIP3    H222589   1.866   3.828  14.542  0.9211 -1.9291 -0.2550
  392TIP3   OH222590   2.807   6.390   4.073 -0.3699 -0.1679  0.0283
  392TIP3    H122591   2.829   6.308   4.028 -0.4999 -0.3457  0.2835
  392TIP3    H222592   2.757   6.362   4.150  0.4616  0.0817  0.6702
  393TIP3   OH222593   2.898   1.509  10.848  0.0015 -0.6052  0.3655
  393TIP3    H122594   2.992   1.502  10.865  0.1639 -0.3167 -0.3751
  393TIP3    H222595   2.891   1.519  10.753 -0.8798 -2.2975  0.2126
  394TIP3   OH222596   2.352   0.926  15.714 -0.1045  0.0336 -0.2678
  394TIP3    H122597   2.434   0.914  15.666  0.5141 -1.2841  1.0483
  394TIP3    H222598   2.371   0.896  15.803 -2.2323 -1.1119 -0.1231
  395TIP3   OH222599   4.803   2.282  13.149  0.6844  0.9332 -0.4785
  395TIP3    H122600   4.865   2.245  13.212  1.0610 -0.5864 -1.6599
  395TIP3    H222601   4.769   2.361  13.191  1.0806  0.1005  1.5060
  396TIP3   OH222602   3.397   1.258  16.833  0.0481 -0.2788 -0.1660
  396TIP3    H122603   3.492   1.262  16.827 -0.0234  0.5130 -1.0870
  396TIP3    H222604   3.371   1.346  16.860 -0.4569 -0.3037 -0.5518
  397TIP3   OH222605   6.765   3.995  11.772  0.2432 -0.7771 -0.6476
  397TIP3    H122606   6.767   4.055  11.698  2.9587  1.5937  1.1447
  397TIP3    H222607   6.856   3.989  11.801 -0.7546 -0.9972  2.8806
  398TIP3   OH222608   4.332   2.053   5.585 -0.0735 -0.1542 -0.2812
  398TIP3    H122609   4.292   2.015   5.663  1.8128 -0.0044  0.7952
  398TIP3    H222610   4.340   1.979   5.525 -0.9342 -0.4044 -0.1073
  399TIP3   OH222611   4.467   0.761  12.103  0.2609  0.7450  0.1122
  399TIP3    H122612   4.482   0.701  12.030 -1.5922  2.0351 -1.4358
  399TIP3    H222613   4.386   0.730  12.143  1.5126 -0.2626  2.0795
  400TIP3   OH222614   3.143   1.085  16.964 -0.4898  0.3289 -0.0876
  400TIP3    H122615   3.230   1.046  16.970 -0.1393  1.2850  2.6454
  400TIP3    H222616   3.159   1.174  16.932 -0.6029  0.1423 -0.6689
  401TIP3   OH222617   1.746   2.491   1.578  0.4283 -0.0116 -0.4788
  401TIP3    H122618   1.736   2.398   1.598  0.6275  0.7194  4.3444
  401TIP3    H222619   1.682   2.508   1.510  0.0086 -3.5534 -1.1542
  402TIP3   OH222620   5.647   3.319   4.908 -0.4861  0.2141 -0.3394
  402TIP3    H122621   5.686   3.233   4.926  0.9656  0.7383 -0.8085
  402TIP3    H222622   5.694   3.351   4.831 -0.6419  1.6443  0.1218
  403TIP3   OH222623   6.713   2.553   4.854  0.7069  0.0938 -0.2729
  403TIP3    H122624   6.757   2.471   4.876 -1.3129 -1.1532 -0.5260
  403TIP3    H222625   6.714   2.556   4.758 -1.9064 -1.3473 -0.4512
  404TIP3   OH222626   4.226   6.374  15.519  0.3703 -0.3229  0.4691
  404TIP3    H122627   4.240   6.333  15.433 -0.0154 -1.4190  0.9082
  404TIP3    H222628   4.305   6.425  15.535  0.3633  0.0624 -0.6204
  405TIP3   OH222629   0.570   1.091  10.665 -0.1057  0.4547 -0.2786
  405TIP3    H122630   0.602   1.059  10.750 -1.4525  0.0496  0.0997
  405TIP3    H222631   0.628   1.164  10.644  2.1384 -1.3032 -0.4722
  406TIP3   OH222632   3.853   1.388   4.962 -0.4145 -0.4152  0.1653
  406TIP3    H122633   3.828   1.298   4.941 -0.4802 -0.5988  0.9982
  406TIP3    H222634   3.947   1.392   4.945 -0.0701 -1.1384  1.7527
  407TIP3   OH222635   0.607   5.691  13.056  0.5227 -0.4900  0.2837
  407TIP3    H122636   0.515   5.687  13.031  0.8985  0.1643 -1.3332
  407TIP3    H222637   0.613   5.768  13.112 -0.3581 -2.0475  2.6496
  408TIP3   OH222638   2.027   3.624  11.233 -0.4833  0.0433 -0.0071
  408TIP3    H122639   1.935   3.648  11.221 -0.0962  1.1758 -0.8411
  408TIP3    H222640   2.043   3.636  11.326 -0.4038  2.8409 -0.3027
  409TIP3   OH222641   1.042   5.095  13.393  0.2579  0.3533  0.2440
  409TIP3    H122642   1.015   5.011  13.428  1.9723 -0.4241 -0.1702
  409TIP3    H222643   0.963   5.131  13.352  0.0836 -2.3993 -2.1753
  410TIP3   OH222644   3.017   3.640  16.240 -0.3682  0.3366  0.1444
  410TIP3    H122645   3.030   3.603  16.327 -1.0469 -0.2238  0.0187
  410TIP3    H222646   2.971   3.572  16.191 -0.9697  1.0451 -0.3197
  411TIP3   OH222647   4.023   3.424   1.732  0.5459  0.3422 -0.0494
  411TIP3    H122648   3.948   3.440   1.788  1.0607 -1.3471  1.2403
  411TIP3    H222649   3.995   3.450   1.644 -0.9701  1.1980  0.6607
  412TIP3   OH222650   5.717   4.065  10.636  0.5431 -0.1086  0.0404
  412TIP3    H122651   5.640   4.015  10.662  2.6409 -4.2520 -0.7541
  412TIP3    H222652   5.739   4.118  10.712 -0.3971 -2.5541  2.1547
  413TIP3   OH222653   6.129   4.858   1.151  0.0247  0.4477  0.8577
  413TIP3    H122654   6.180   4.932   1.185  0.3318  1.0362 -0.7991
  413TIP3    H222655   6.189   4.783   1.158  0.5064  0.7931  0.5376
  414TIP3   OH222656   2.524   2.233  13.506  0.8237  0.0079  0.2525
  414TIP3    H122657   2.488   2.145  13.496  0.0141  0.3757 -0.1876
  414TIP3    H222658   2.618   2.223  13.493  0.4636 -0.4018 -2.5348
  415TIP3   OH222659   3.972   3.233  14.201  0.0072  0.8443  0.2651
  415TIP3    H122660   4.039   3.261  14.264  1.1081  0.1673 -0.5786
  415TIP3    H222661   3.918   3.311  14.188 -0.4287  0.9311  2.2448
  416TIP3   OH222662   1.850   5.588   5.622 -0.1906  0.6956  0.2105
  416TIP3    H122663   1.839   5.677   5.656  1.2482 -0.3428  3.7746
  416TIP3    H222664   1.944   5.579   5.609 -0.4103 -0.0536 -1.0618
  417TIP3   OH222665   6.378   1.312   5.186  0.0634  0.0327  0.2963
  417TIP3    H122666   6.468   1.309   5.152 -0.0018  0.8873 -0.0004
  417TIP3    H222667   6.374   1.395   5.233 -0.4667 -0.1742  0.6126
  418TIP3   OH222668   3.359   0.115  16.967 -0.8427 -0.2620  0.0123
  418TIP3    H122669   3.401   0.030  16.950 -1.0238 -0.1708 -0.9378
  418TIP3    H222670   3.268   0.093  16.983 -1.2691 -0.1281 -1.9687
  419TIP3   OH222671   6.379   6.534   0.357  0.5513  0.4717  0.0060
  419TIP3    H122672   6.430   6.456   0.381  0.7105  0.9080  1.1453
  419TIP3    H222673   6.401   6.550   0.265 -2.2048 -2.9413 -1.5305
  420TIP3   OH222674   1.082   4.533  16.343  0.0826 -0.2905  0.0549
  420TIP3    H122675   1.037   4.556  16.424  0.8261 -0.4651  0.5234
  420TIP3    H222676   1.097   4.439  16.349 -0.3259 -0.3960 -0.5252
  421TIP3   OH222677   0.408   4.452  12.658 -0.2006 -0.5170 -0.0872
  421TIP3    H122678   0.315   4.469  12.670  0.3126  2.7460  0.2879
  421TIP3    H222679   0.420   4.450  12.563 -0.5246  0.1046 -0.1458
  422TIP3   OH222680   3.852   1.494  15.565  0.0054 -0.1280 -0.2007
  422TIP3    H122681   3.767   1.464  15.533  0.0764 -0.6390  0.0774
  422TIP3    H222682   3.848   1.483  15.660  1.0626 -2.0456 -0.3176
  423TIP3   OH222683   2.936   3.160  13.662  0.8075  0.3206  0.4361
  423TIP3    H122684   2.937   3.192  13.572  0.6959 -0.4476  0.1477
  423TIP3    H222685   2.903   3.070  13.654 -0.5255  0.7026  1.4038
  424TIP3   OH222686   2.236   5.629   2.866 -0.0690 -0.1057 -0.1732
  424TIP3    H122687   2.169   5.629   2.935 -0.7454  1.5246 -0.7738
  424TIP3    H222688   2.190   5.597   2.788 -0.3198  1.3942 -0.6849
  425TIP3   OH222689   4.769   0.868  11.125 -0.2809  0.1824 -0.0259
  425TIP3    H122690   4.775   0.958  11.094  0.2044 -0.4388 -1.8641
  425TIP3    H222691   4.860   0.837  11.125 -0.2099  0.2175  2.3828
  426TIP3   OH222692   4.937   3.781   2.129  0.4661  0.5734 -0.1899
  426TIP3    H122693   4.929   3.874   2.146 -2.2628  0.5913 -1.1600
  426TIP3    H222694   4.854   3.743   2.158  1.0337 -1.3651 -0.9220
  427TIP3   OH222695   2.567   3.806  13.541 -0.3862  0.3106  0.2194
  427TIP3    H122696   2.617   3.860  13.602  0.1164  1.4664 -1.1525
  427TIP3    H222697   2.625   3.796  13.465 -0.8594 -1.3683  0.0516
  428TIP3   OH222698   2.214   0.996  16.521  0.7474  0.5487 -0.6309
  428TIP3    H122699   2.302   0.985  16.558  0.5303  1.6894  0.2860
  428TIP3    H222700   2.216   0.945  16.440  1.6396 -1.0158  0.3208
  429TIP3   OH222701   3.952   5.485  14.721 -1.2302  0.4564 -0.0692
  429TIP3    H122702   3.910   5.405  14.690  1.8215 -1.1786 -0.3366
  429TIP3    H222703   3.992   5.523  14.642 -1.1227  1.2809  0.3742
  430TIP3   OH222704   3.644   6.682  11.288 -0.8072 -0.6113  0.4291
  430TIP3    H122705   3.676   6.772  11.284 -0.1789 -0.8588 -0.2376
  430TIP3    H222706   3.570   6.680  11.227 -2.4900  0.0880  2.3312
  431TIP3   OH222707   4.716   3.779  11.324 -0.0668  0.0910 -0.4391
  431TIP3    H122708   4.724   3.757  11.417 -1.0047  2.2244  0.1942
  431TIP3    H222709   4.806   3.794  11.296  0.5177 -2.9522 -0.6066
  432TIP3   OH222710   5.094   2.403  13.172  0.0482  0.4429 -0.3495
  432TIP3    H122711   5.117   2.494  13.193 -0.0111  0.6955 -1.3301
  432TIP3    H222712   5.076   2.404  13.078 -2.8438  0.0532  0.1127
  433TIP3   OH222713   0.431   3.241   3.472  0.1650 -0.4047  0.1597
  433TIP3    H122714   0.389   3.322   3.502 -1.0550 -0.9940  0.1329
  433TIP3    H222715   0.454   3.194   3.552 -2.8667 -1.8649  0.3105
  434TIP3   OH222716   3.186   3.873  15.009 -0.0939  0.1829  0.2725
  434TIP3    H122717   3.230   3.907  14.932 -1.3285 -0.7860 -0.9210
  434TIP3    H222718   3.170   3.949  15.064  1.1884  0.8274 -0.2143
  435TIP3   OH222719   3.991   3.430  11.147 -0.0802 -0.9356  0.2521
  435TIP3    H122720   3.993   3.411  11.053  1.2674  0.0488  0.0379
  435TIP3    H222721   4.046   3.363  11.187  0.6418 -0.4477  0.1119
  436TIP3   OH222722   5.543   6.751  15.761  0.2626  0.2506 -0.6301
  436TIP3    H122723   5.622   6.802  15.741  0.2629  0.2230 -0.6972
  436TIP3    H222724   5.572   6.660  15.760  0.3137  0.2592 -0.2799
  437TIP3   OH222725   1.632   3.927   5.270 -0.3746 -0.6225  0.0161
  437TIP3    H122726   1.554   3.870   5.274  0.4391 -1.7774 -0.0434
  437TIP3    H222727   1.621   3.988   5.342 -2.2431  0.4488 -1.0973
  438TIP3   OH222728   0.042   6.127   5.111  0.2904  0.2085 -0.4834
  438TIP3    H122729  -0.039   6.161   5.149  0.6138 -1.1097  1.5015
  438TIP3    H222730   0.025   6.123   5.017 -2.7979 -2.1422  0.0306
  439TIP3   OH222731   2.140   4.520  13.281  0.5281  0.2359  0.3254
  439TIP3    H122732   2.216   4.492  13.230  1.0364  2.0363  0.0398
  439TIP3    H222733   2.125   4.448  13.343  0.4325 -1.6078 -1.7203
  440TIP3   OH222734   0.318   0.063   2.002  0.1846  0.1580  0.3760
  440TIP3    H122735   0.318   0.131   2.069 -1.4713 -0.0305  0.6155
  440TIP3    H222736   0.247   0.004   2.028 -0.1953 -0.1787 -1.2904
  441TIP3   OH222737   1.446   0.842  15.686  0.5711  1.0983  0.4877
  441TIP3    H122738   1.418   0.917  15.633 -0.3324  1.1733  1.0513
  441TIP3    H222739   1.527   0.871  15.727  0.2709  1.7449  0.6388
  442TIP3   OH222740   2.411   1.860   2.447  0.1996 -0.0397  0.5993
  442TIP3    H122741   2.393   1.824   2.360  0.8487 -0.0711  0.4704
  442TIP3    H222742   2.442   1.785   2.498  0.6310  0.1432  0.6098
  443TIP3   OH222743   5.813   3.051   2.304  0.5275 -0.0430  0.4500
  443TIP3    H122744   5.744   3.087   2.360 -0.2058  2.9661 -2.0897
  443TIP3    H222745   5.786   2.961   2.287 -2.0527  0.6113  0.6820
  444TIP3   OH222746   1.586   0.025   4.106  1.1365 -0.1527 -0.3699
  444TIP3    H122747   1.593  -0.027   4.186  1.4700  0.6924  0.1574
  444TIP3    H222748   1.492   0.043   4.098  1.3040  1.7711  1.1719
  445TIP3   OH222749   3.274   2.921  13.569 -0.0918 -0.3530  0.0370
  445TIP3    H122750   3.203   2.878  13.617 -0.5671  0.2836 -0.0913
  445TIP3    H222751   3.231   2.967  13.498  0.3764  0.5866  0.3479
  446TIP3   OH222752   1.583   4.756  14.498  0.2478 -0.0346 -0.8763
  446TIP3    H122753   1.503   4.776  14.451 -0.0547 -2.0504 -1.3085
  446TIP3    H222754   1.558   4.755  14.590  0.3175  1.6087 -0.8245
  447TIP3   OH222755   3.285   4.963   5.588 -0.1191 -0.3103  0.1430
  447TIP3    H122756   3.365   4.947   5.638  0.5160  0.9382 -0.4476
  447TIP3    H222757   3.310   5.026   5.521 -0.8175 -2.2488 -2.0952
  448TIP3   OH222758   5.799   4.251   3.841 -0.2335 -1.0121  0.1597
  448TIP3    H122759   5.804   4.331   3.788  0.4665 -1.1536  0.0025
  448TIP3    H222760   5.736   4.196   3.794  0.1842 -1.0298 -0.3993
  449TIP3   OH222761   4.039   3.773  12.366 -0.2094 -0.0604 -0.0326
  449TIP3    H122762   4.124   3.764  12.324 -0.5457 -0.8712 -0.5802
  449TIP3    H222763   4.032   3.696  12.423 -0.7276 -0.2055 -0.2845
  450TIP3   OH222764   2.594   3.911  12.765  0.4647 -0.3431  0.0071
  450TIP3    H122765   2.537   3.924  12.689  1.7226  0.0499 -0.8989
  450TIP3    H222766   2.551   3.959  12.835 -0.0155  0.4721 -0.8226
  451TIP3   OH222767   4.121   4.885  12.128  0.5152  0.3043  0.4896
  451TIP3    H122768   4.177   4.918  12.057  0.1636  0.1716  0.1447
  451TIP3    H222769   4.134   4.791  12.127 -2.1652 -0.1811 -1.8013
  452TIP3   OH222770   0.836   4.152  13.339 -0.3429 -0.4327  0.2092
  452TIP3    H122771   0.788   4.175  13.418 -0.6193 -0.0144 -0.0742
  452TIP3    H222772   0.796   4.072  13.308 -1.7851  0.6126 -0.7663
  453TIP3   OH222773   0.777   3.926   1.873  0.0015 -0.3789 -0.4620
  453TIP3    H122774   0.683   3.942   1.862  0.0198 -0.6833 -1.1354
  453TIP3    H222775   0.792   3.843   1.827  0.5456 -0.4780 -0.1081
  454TIP3   OH222776   0.317   6.473  14.825  0.3525 -0.0740  1.0373
  454TIP3    H122777   0.380   6.515  14.885  3.5916 -1.2556 -1.2564
  454TIP3    H222778   0.271   6.546  14.785  1.0282  0.9193  1.9906
  455TIP3   OH222779   2.066   2.828  11.578  0.2675  0.0284 -0.1571
  455TIP3    H122780   2.009   2.896  11.615  2.5825  1.8130  0.3352
  455TIP3    H222781   2.029   2.746  11.612 -0.8787  1.2283  1.6950
  456TIP3   OH222782   6.150   2.510  16.116  0.0422  0.5930 -0.3573
  456TIP3    H122783   6.136   2.605  16.122 -1.5635  0.5353 -2.1817
  456TIP3    H222784   6.118   2.476  16.199  0.8926  1.6441  0.4337
  457TIP3   OH222785   4.656   6.700   3.666  0.0150 -0.3582  0.3249
  457TIP3    H122786   4.565   6.679   3.648  0.0239 -0.4224  0.3565
  457TIP3    H222787   4.663   6.698   3.761 -0.5055  1.8789  0.4703
  458TIP3   OH222788   4.103   2.047   5.462 -0.0698  0.2772  0.3463
  458TIP3    H122789   4.103   2.121   5.401 -0.1945  1.2083  1.4432
  458TIP3    H222790   4.182   2.059   5.514 -0.2143 -0.2455  0.6923
  459TIP3   OH222791   1.366   1.272   1.153 -0.2657 -0.1711 -0.5161
  459TIP3    H122792   1.456   1.240   1.153 -0.7110 -1.5221 -0.9045
  459TIP3    H222793   1.333   1.252   1.240 -0.0069  0.9161 -0.1584
  460TIP3   OH222794   5.067   1.553  14.064 -0.3517  0.5802 -0.6266
  460TIP3    H122795   5.097   1.602  13.988 -0.0162 -0.4689 -1.1922
  460TIP3    H222796   5.141   1.552  14.124 -0.8243  1.9507  0.0138
  461TIP3   OH222797   5.985   3.510  16.576  0.0190  0.3204  0.1987
  461TIP3    H122798   6.030   3.443  16.525  0.5595  0.9364 -0.1603
  461TIP3    H222799   6.039   3.519  16.655 -1.4253 -1.4333  1.4738
  462TIP3   OH222800   4.012   0.257   4.379  0.4700 -0.3056  0.0738
  462TIP3    H122801   4.050   0.263   4.466  2.4108 -2.6079 -0.5173
  462TIP3    H222802   4.081   0.287   4.320  0.6453 -2.3886 -0.8850
  463TIP3   OH222803   5.469   3.749  10.838 -0.3103  0.4519  0.4180
  463TIP3    H122804   5.546   3.805  10.825  0.3934 -0.5590  0.1189
  463TIP3    H222805   5.503   3.671  10.881 -1.3182  0.3290  1.0243
  464TIP3   OH222806   4.266   5.353  15.142  0.1956  0.1241  0.2913
  464TIP3    H122807   4.190   5.388  15.097  0.1202  0.1606  0.4446
  464TIP3    H222808   4.270   5.261  15.117 -0.4404 -0.1043  1.0212
  465TIP3   OH222809   6.561   5.115  14.262  0.4386 -0.6296 -0.0759
  465TIP3    H122810   6.620   5.176  14.305 -0.1110 -1.3076  1.7318
  465TIP3    H222811   6.618   5.059  14.209  1.6721 -2.1344  2.6393
  466TIP3   OH222812   3.567   4.830   2.691 -0.7303 -0.0005 -0.1301
  466TIP3    H122813   3.625   4.783   2.749 -0.4343 -0.6427 -0.9249
  466TIP3    H222814   3.622   4.899   2.652 -0.7476 -0.0021 -0.1579
  467TIP3   OH222815   0.723   3.158  15.051 -0.5903 -0.3576 -0.1578
  467TIP3    H122816   0.761   3.167  15.138  0.3587 -1.6755 -0.4095
  467TIP3    H222817   0.795   3.176  14.991 -1.6150  2.2079 -0.7567
  468TIP3   OH222818   5.159   0.328   4.067  0.0549 -0.0374  0.9993
  468TIP3    H122819   5.113   0.299   4.146  1.2234 -2.9160  0.7567
  468TIP3    H222820   5.233   0.378   4.099  0.6690 -1.3974  1.8156
  469TIP3   OH222821   1.621   0.014   1.755 -0.1782 -0.0826 -0.4214
  469TIP3    H122822   1.621   0.032   1.849 -0.2520 -1.2072 -0.1918
  469TIP3    H222823   1.689   0.070   1.719 -1.8624  2.2920 -0.0967
  470TIP3   OH222824   3.020   5.477   4.431  0.0090  0.1353  0.2487
  470TIP3    H122825   2.949   5.444   4.486  0.0296  1.1163  0.8928
  470TIP3    H222826   2.978   5.502   4.349 -0.2131 -0.2687  0.2381
  471TIP3   OH222827   3.709   6.648   1.436  0.0958 -0.2164  0.3889
  471TIP3    H122828   3.657   6.672   1.359  1.3676  0.3787 -0.3256
  471TIP3    H222829   3.754   6.567   1.411  1.2831  0.5049  0.0888
  472TIP3   OH222830   4.661   5.824  11.931 -0.4413 -0.8808  0.1262
  472TIP3    H122831   4.642   5.793  11.842  1.0508 -1.2747 -0.0846
  472TIP3    H222832   4.635   5.916  11.930 -2.0020 -1.2971 -0.1935
  473TIP3   OH222833   4.336   0.285   1.703 -0.0204 -0.4113 -0.6302
  473TIP3    H122834   4.262   0.261   1.759  0.0229 -2.1550 -1.2628
  473TIP3    H222835   4.391   0.341   1.758 -2.2038  1.6758 -0.4200
  474TIP3   OH222836   5.665   0.074  16.054 -0.3785  0.1758 -0.0500
  474TIP3    H122837   5.626   0.149  16.008  1.1344  0.6826 -0.5409
  474TIP3    H222838   5.645  -0.001  15.998  3.7212  1.0751 -3.2241
  475TIP3   OH222839   2.337   2.424   4.723  0.3370  0.0318  0.3389
  475TIP3    H122840   2.380   2.509   4.718  0.2220  0.0309 -1.0928
  475TIP3    H222841   2.408   2.363   4.743  0.3611  0.4843  1.7517
  476TIP3   OH222842   3.137   6.559  11.802  0.0711  0.2767 -0.2843
  476TIP3    H122843   3.056   6.576  11.755  0.5926  0.7317 -1.0289
  476TIP3    H222844   3.117   6.579  11.894 -0.9719 -0.6960 -0.2796
  477TIP3   OH222845   4.243   3.487   4.014 -0.4404 -0.0772 -0.6480
  477TIP3    H122846   4.255   3.538   4.094  0.0583 -0.4358 -0.4920
  477TIP3    H222847   4.205   3.404   4.044  2.6276 -1.5048 -0.3590
  478TIP3   OH222848   5.644   0.146   1.711 -0.1167 -0.0819  1.3718
  478TIP3    H122849   5.654   0.051   1.718 -0.7400 -0.1812  0.9516
  478TIP3    H222850   5.584   0.159   1.638  1.7391  0.7047 -0.1306
  479TIP3   OH222851   6.179   0.296   2.044 -0.2183  0.7067 -0.4137
  479TIP3    H122852   6.109   0.292   2.109 -0.5029 -1.5833 -0.7701
  479TIP3    H222853   6.227   0.214   2.055  1.5423  1.5811 -1.1480
  480TIP3   OH222854   2.586   0.354  15.584  0.0099  0.0708  0.1036
  480TIP3    H122855   2.629   0.335  15.667 -0.9722  0.8950  0.8402
  480TIP3    H222856   2.498   0.318  15.595 -1.1072  2.7022  0.6183
  481TIP3   OH222857   5.585   3.210   0.256 -0.2160 -0.3059 -0.4370
  481TIP3    H122858   5.659   3.162   0.293 -1.1794 -1.0958  0.5342
  481TIP3    H222859   5.523   3.142   0.229 -1.6560  0.3337  1.0576
  482TIP3   OH222860   5.207   0.145  16.580  0.0190  0.0920 -0.1881
  482TIP3    H122861   5.272   0.140  16.509 -2.3704  0.6060 -2.5727
  482TIP3    H222862   5.213   0.236  16.611  0.4270  0.1411 -0.3961
  483TIP3   OH222863   0.240   3.611  13.230  0.2972  0.4161  0.9821
  483TIP3    H122864   0.195   3.531  13.205 -1.6347  1.2013  1.6943
  483TIP3    H222865   0.287   3.588  13.310  0.6373 -0.2587  0.5961
  484TIP3   OH222866   1.019   3.363   1.526 -0.0365  0.3548  0.4315
  484TIP3    H122867   0.941   3.372   1.581 -0.6166 -1.4929 -0.0210
  484TIP3    H222868   1.054   3.277   1.548  1.3062  0.7390 -0.1189
  485TIP3   OH222869   6.712   4.970  14.065  0.4217  0.0167  0.3101
  485TIP3    H122870   6.678   4.885  14.093  1.1549 -0.4123 -0.0670
  485TIP3    H222871   6.802   4.952  14.037  0.2993  0.7566 -0.6245
  486TIP3   OH222872   1.675   0.888   3.623  0.5963 -0.0972 -0.1236
  486TIP3    H122873   1.658   0.811   3.569  1.5381  0.2588 -0.9322
  486TIP3    H222874   1.674   0.962   3.562  2.0472  0.2685  0.2592
  487TIP3   OH222875   6.062   4.388   3.191  0.0934  0.1548 -0.1375
  487TIP3    H122876   6.071   4.411   3.284 -2.1147  1.8702 -0.2584
  487TIP3    H222877   6.003   4.312   3.191  0.2134  0.0613 -0.1345
  488TIP3   OH222878   3.443   0.876   0.337 -0.3305 -0.3031  0.1220
  488TIP3    H122879   3.381   0.897   0.408  0.7168  1.2599  0.6415
  488TIP3    H222880   3.388   0.872   0.259 -1.1272  1.1593  0.5498
  489TIP3   OH222881   5.856   0.990   4.830 -0.6058 -0.1422  0.1477
  489TIP3    H122882   5.906   0.951   4.759 -3.3585 -2.5586 -0.6358
  489TIP3    H222883   5.785   1.038   4.787 -0.5668  0.9837  1.2564
  490TIP3   OH222884   3.074   2.850  12.557 -0.2990 -0.5488 -0.1009
  490TIP3    H122885   3.027   2.785  12.506 -1.2112  1.0349 -1.3716
  490TIP3    H222886   3.131   2.895  12.494  0.7431 -0.4606  0.8477
  491TIP3   OH222887   5.884   0.702  13.337  0.4522  0.0456 -0.4805
  491TIP3    H122888   5.971   0.699  13.376  1.9547  1.3250 -3.4080
  491TIP3    H222889   5.866   0.611  13.312  0.6087 -0.3313  0.7213
  492TIP3   OH222890   1.891   6.468   4.461  0.1220  0.1791 -0.4271
  492TIP3    H122891   1.971   6.517   4.480  1.7795 -2.0894 -1.1070
  492TIP3    H222892   1.866   6.497   4.373 -0.0180  1.0876 -0.1087
  493TIP3   OH222893   1.692   2.211  14.111  0.4212  0.1902  0.2951
  493TIP3    H122894   1.735   2.183  14.030  0.6267 -1.2646  0.8693
  493TIP3    H222895   1.757   2.196  14.179  0.4484  1.9294  0.6890
  494TIP3   OH222896   0.502   1.198   1.949 -0.1032 -1.0301  0.6984
  494TIP3    H122897   0.496   1.279   1.900  0.4354 -0.3592  1.6997
  494TIP3    H222898   0.594   1.173   1.945 -0.4305 -2.2040 -0.5039
  495TIP3   OH222899   3.980   0.220  13.797 -0.2164  0.3335  0.1905
  495TIP3    H122900   4.070   0.226  13.830  0.2972  1.7060 -1.3263
  495TIP3    H222901   3.989   0.226  13.702 -1.8638 -0.3341 -0.0372
  496TIP3   OH222902   6.229   0.920   4.067  0.6735 -0.0088  0.1879
  496TIP3    H122903   6.216   1.006   4.027  0.2405 -0.4294 -0.5993
  496TIP3    H222904   6.321   0.919   4.092  1.1801  0.0065 -1.5028
  497TIP3   OH222905   1.778   4.914  11.972  0.0597  0.2163  0.1604
  497TIP3    H122906   1.780   4.819  11.966  1.5559  0.2064  0.3226
  497TIP3    H222907   1.847   4.935  12.036  0.2304  1.4343 -0.3975
  498TIP3   OH222908   1.958   0.440  13.921  0.8211  1.0173  0.0028
  498TIP3    H122909   1.934   0.525  13.958 -0.8760  0.6651 -0.2274
  498TIP3    H222910   2.016   0.462  13.848  0.4165  1.9792 -0.0514
  499TIP3   OH222911   2.922   5.568  11.887  0.0458 -0.2062 -0.1572
  499TIP3    H122912   3.004   5.524  11.910  0.3200 -0.3073 -1.2649
  499TIP3    H222913   2.881   5.587  11.971  1.1332 -0.2926  0.4200
  500TIP3   OH222914   5.142   0.178  12.886 -0.1038  0.1989 -0.0104
  500TIP3    H122915   5.143   0.142  12.797  1.0811 -2.4066  0.9565
  500TIP3    H222916   5.211   0.244  12.886 -1.0468  1.2348 -1.3534
  501TIP3   OH222917   1.331   3.008   0.440  0.3519 -0.3439 -0.0574
  501TIP3    H122918   1.374   2.923   0.448 -0.2717 -0.5270  1.7845
  501TIP3    H222919   1.355   3.055   0.520 -0.0513  0.8760 -0.6270
  502TIP3   OH222920   6.238   2.770   1.098 -0.5335  0.2396  0.1967
  502TIP3    H122921   6.159   2.816   1.126 -0.6116 -0.2184  0.7439
  502TIP3    H222922   6.249   2.795   1.006 -0.5529  1.3599  0.4866
  503TIP3   OH222923   0.215   4.556  10.516 -0.5111  0.0602  0.1930
  503TIP3    H122924   0.126   4.588  10.500  0.4148  1.9887 -1.6717
  503TIP3    H222925   0.247   4.607  10.590 -0.2475  0.9515 -0.5214
  504TIP3   OH222926   1.870   4.606   1.650  0.4177 -0.2327  0.1143
  504TIP3    H122927   1.952   4.584   1.694  0.7336 -0.5060 -0.5912
  504TIP3    H222928   1.802   4.566   1.705  0.8589 -1.2873 -0.0753
  505TIP3   OH222929   3.550   4.203   5.755 -0.2392  0.3021 -0.4763
  505TIP3    H122930   3.557   4.290   5.718 -0.2901  1.2311  1.5731
  505TIP3    H222931   3.636   4.164   5.741 -0.2501  0.6184 -1.4992
  506TIP3   OH222932   4.056   1.855  13.531 -0.3945 -0.1828  0.1691
  506TIP3    H122933   4.011   1.912  13.594 -2.5674  1.1255 -2.3721
  506TIP3    H222934   4.112   1.914  13.481  0.3867 -1.0074  0.0368
  507TIP3   OH222935   2.954   3.028  11.090  0.1874  0.0442  0.0650
  507TIP3    H122936   2.982   2.988  11.008  1.2893 -0.3667  0.6134
  507TIP3    H222937   2.910   3.109  11.064  0.9528  0.1700 -0.9125
  508TIP3   OH222938   2.733   2.274  10.659 -0.4383 -0.1682 -0.1748
  508TIP3    H122939   2.813   2.248  10.614 -0.6347  1.2966 -1.4471
  508TIP3    H222940   2.665   2.268  10.592 -0.9172  1.1731  0.1625
  509TIP3   OH222941   1.005   1.347   1.963 -0.2007  0.1154  0.4854
  509TIP3    H122942   0.988   1.437   1.991  0.8086  0.3745  0.3249
  509TIP3    H222943   1.039   1.357   1.874  4.0035  0.0044  1.8724
  510TIP3   OH222944   5.624   2.255   1.169  0.2115 -0.5494 -0.1637
  510TIP3    H122945   5.652   2.276   1.080  0.9607 -1.3471 -0.1294
  510TIP3    H222946   5.620   2.339   1.214 -0.7737 -0.0709 -1.1093
  511TIP3   OH222947   5.416   6.221   1.223 -0.1830 -0.1705 -0.3651
  511TIP3    H122948   5.402   6.196   1.314 -0.2501 -0.0190 -0.3335
  511TIP3    H222949   5.376   6.308   1.215  0.2222  0.0119 -0.4251
  512TIP3   OH222950   5.906   2.987   1.493  0.6391 -0.0330  0.1662
  512TIP3    H122951   5.873   3.071   1.522  0.6517  0.0209  0.0273
  512TIP3    H222952   5.865   2.923   1.551 -0.8808 -0.0966 -0.9294
  513TIP3   OH222953   5.723   4.826   6.599 -0.5768 -0.8061 -0.0975
  513TIP3    H122954   5.786   4.869   6.657 -2.0111 -0.5306  1.3391
  513TIP3    H222955   5.739   4.732   6.611 -0.2489 -0.7303  0.0486
  514TIP3   OH222956   1.001   0.232  11.845 -0.2128  0.3299  0.1143
  514TIP3    H122957   1.064   0.197  11.782 -2.6671 -1.9876 -1.2665
  514TIP3    H222958   1.030   0.199  11.930 -0.2462 -1.8847 -0.6641
  515TIP3   OH222959   0.718   5.558   0.489  0.5169  0.0675  0.1343
  515TIP3    H122960   0.643   5.601   0.447 -0.2541 -1.5732 -0.2569
  515TIP3    H222961   0.791   5.575   0.430  0.2147  0.7839 -0.0415
  516TIP3   OH222962   0.665   6.749   0.723  0.3046 -0.1990 -0.7391
  516TIP3    H122963   0.631   6.835   0.700 -0.7570 -0.0317  1.2470
  516TIP3    H222964   0.601   6.713   0.784  2.3610 -0.9615  1.1205
  517TIP3   OH222965   0.286   6.647   0.241  0.6314  0.1711 -0.2062
  517TIP3    H122966   0.284   6.554   0.219  0.3674  0.3145 -0.8178
  517TIP3    H222967   0.334   6.688   0.168 -2.1577  0.9530 -1.7322
  518TIP3   OH222968   2.564   5.534   4.273 -0.1313  0.2508 -0.2184
  518TIP3    H122969   2.614   5.459   4.242  0.3241  1.0905 -1.5631
  518TIP3    H222970   2.522   5.503   4.354  0.9781 -1.0695 -0.1243
  519TIP3   OH222971   2.555   1.055  11.149 -0.4061  0.1201  0.2254
  519TIP3    H122972   2.512   0.972  11.128  0.0118 -0.1372  0.3619
  519TIP3    H222973   2.485   1.119  11.149 -0.3936  0.2299 -2.3219
  520TIP3   OH222974   6.573   0.906  12.666 -0.3939  0.1975 -0.4972
  520TIP3    H122975   6.659   0.874  12.641 -0.1422  0.3679  0.1363
  520TIP3    H222976   6.539   0.840  12.726  0.0758  1.0239  0.7160
  521TIP3   OH222977   3.199   2.619   3.380  0.4289  0.1055  0.4527
  521TIP3    H122978   3.246   2.687   3.332 -0.2397  0.1504 -0.1645
  521TIP3    H222979   3.110   2.652   3.387 -0.5241 -1.6504 -1.8912
  522TIP3   OH222980   5.825   1.028   5.501 -0.6959  0.0735 -0.5365
  522TIP3    H122981   5.884   1.054   5.572 -1.4225  1.1458 -0.2971
  522TIP3    H222982   5.780   0.951   5.534 -2.1382  1.4341  0.8309
  523TIP3   OH222983   0.237   3.174   3.285  0.3657  0.1499  0.5244
  523TIP3    H122984   0.260   3.210   3.199  0.0517  1.6827  1.0496
  523TIP3    H222985   0.307   3.206   3.343  0.3730 -0.5620  0.9129
  524TIP3   OH222986   6.562   4.066   2.932 -0.2098 -0.3092  0.2090
  524TIP3    H122987   6.592   4.148   2.970 -2.5056  0.9367 -0.4511
  524TIP3    H222988   6.538   4.011   3.007  1.2959 -0.3966  0.6500
  525TIP3   OH222989   6.744   5.449   0.255 -0.1155  0.2801  0.1354
  525TIP3    H122990   6.817   5.447   0.193  0.0246  0.2422  0.3024
  525TIP3    H222991   6.763   5.379   0.317 -0.0690  0.5627  0.4397
  526TIP3   OH222992   3.077   4.812  16.944  0.5548  0.2840 -0.1977
  526TIP3    H122993   3.007   4.843  16.887 -1.2232 -1.5545  0.8191
  526TIP3    H222994   3.114   4.891  16.983 -0.0787  1.3778 -1.7477
  527TIP3   OH222995   3.004   3.425   5.614 -0.0733  0.1947  0.6262
  527TIP3    H122996   2.934   3.361   5.625 -1.4680  1.6800  0.6288
  527TIP3    H222997   2.992   3.487   5.685 -0.6384  2.1396 -1.0731
  528TIP3   OH222998   2.233   3.334  12.090  0.2693 -0.7410 -0.1789
  528TIP3    H122999   2.258   3.256  12.041  0.2131 -1.1208  0.4016
  528TIP3    H223000   2.312   3.389  12.090  0.0841 -0.4384 -1.2525
  529TIP3   OH223001   4.658   3.305   2.749 -0.0607  0.3462 -0.0507
  529TIP3    H123002   4.642   3.395   2.776  2.0047  1.0366 -0.9508
  529TIP3    H223003   4.631   3.302   2.658  1.3501  0.5234 -0.4934
  530TIP3   OH223004   2.591   3.365  11.125  0.3403 -0.0913  0.5750
  530TIP3    H123005   2.627   3.341  11.210 -2.2566 -0.2049  1.7375
  530TIP3    H223006   2.588   3.460  11.126  1.1572 -0.0507  0.1942
  531TIP3   OH223007   1.934   6.447  16.743  0.0662 -0.5316 -0.4070
  531TIP3    H123008   1.905   6.538  16.745  1.0741 -0.2035  0.0977
  531TIP3    H223009   1.936   6.420  16.835  1.5037 -0.4727 -0.3999
  532TIP3   OH223010   1.612   3.447   1.711 -0.6008  0.4291  0.1318
  532TIP3    H123011   1.645   3.378   1.768  0.4535  1.1722  0.4363
  532TIP3    H223012   1.593   3.402   1.628  0.4975 -0.1438  0.1782
  533TIP3   OH223013   1.417   6.480  14.696 -0.1950  0.1033  0.1347
  533TIP3    H123014   1.366   6.521  14.625  1.3739  1.5240 -0.2090
  533TIP3    H223015   1.484   6.544  14.718  0.3456 -0.9930  1.8328
  534TIP3   OH223016   0.214   3.585   0.027  0.5058 -0.5783 -0.0162
  534TIP3    H123017   0.277   3.653   0.003  1.0438 -1.1867 -0.3695
  534TIP3    H223018   0.245   3.551   0.110 -0.8856  0.9462  1.1958
  535TIP3   OH223019   3.698   0.140   1.110 -0.0769  0.6417  0.1562
  535TIP3    H123020   3.713   0.225   1.150  0.6778  0.2312  0.7777
  535TIP3    H223021   3.782   0.117   1.069 -0.6149  0.7190 -1.0519
  536TIP3   OH223022   1.634   2.913   6.163 -0.7687  1.2837  0.9590
  536TIP3    H123023   1.722   2.889   6.193 -1.7014 -1.0681  2.0435
  536TIP3    H223024   1.640   2.916   6.068  0.1945 -0.2008  0.9499
  537TIP3   OH223025   5.754   3.481  11.858  0.1479 -0.5837 -0.3119
  537TIP3    H123026   5.701   3.506  11.934  0.5657  0.8364 -0.4529
  537TIP3    H223027   5.843   3.507  11.882 -0.0994  2.8156 -2.3825
  538TIP3   OH223028   3.736   0.399  10.665 -0.1200 -0.2272 -0.1299
  538TIP3    H123029   3.797   0.333  10.698 -1.0023 -0.9193  0.1750
  538TIP3    H223030   3.677   0.350  10.608 -1.2989  0.1283  0.7451
  539TIP3   OH223031   2.459   1.860   0.734 -0.2020 -0.4944 -0.4758
  539TIP3    H123032   2.500   1.779   0.703 -1.2094 -0.6036 -1.6118
  539TIP3    H223033   2.522   1.896   0.796  2.4692  0.1851 -3.2905
  540TIP3   OH223034   4.583   4.294   4.354 -0.0965 -0.1745  0.0673
  540TIP3    H123035   4.628   4.337   4.428  0.8839 -0.5353 -0.2980
  540TIP3    H223036   4.574   4.203   4.382 -0.8970 -0.0425  0.2609
  541TIP3   OH223037   2.616   6.412   3.678 -0.0153 -0.5032 -0.0450
  541TIP3    H123038   2.565   6.454   3.609  0.7151 -2.2556 -1.7596
  541TIP3    H223039   2.679   6.479   3.705  1.7384 -0.6168 -3.3430
  542TIP3   OH223040   6.758   4.373   0.810  0.0223  0.2839 -0.1401
  542TIP3    H123041   6.765   4.281   0.783  0.2317  0.0188  0.8016
  542TIP3    H223042   6.823   4.418   0.756  0.6355 -0.2823  0.1156
  543TIP3   OH223043   4.873   5.722  16.385  0.5131 -0.1724  0.2556
  543TIP3    H123044   4.865   5.799  16.328 -0.0350 -0.1952  0.2924
  543TIP3    H223045   4.923   5.659  16.334  0.1708 -0.1296 -0.1388
  544TIP3   OH223046   1.934   6.128   6.162 -0.0838 -0.2634  0.2730
  544TIP3    H123047   1.881   6.052   6.188 -0.5292 -0.0946 -0.1139
  544TIP3    H223048   1.894   6.202   6.207 -1.7828  0.2680 -1.9328
  545TIP3   OH223049   3.303   1.857   4.610  0.0878 -0.5518 -0.1253
  545TIP3    H123050   3.242   1.784   4.617 -1.6094  0.7064 -0.7683
  545TIP3    H223051   3.386   1.818   4.585 -1.2392 -2.1394 -2.4607
  546TIP3   OH223052   5.986   6.403  12.652  0.3178  0.6658  0.3832
  546TIP3    H123053   5.950   6.317  12.632  0.6606  0.9940 -1.9066
  546TIP3    H223054   5.960   6.419  12.742  0.1928 -1.7855  0.8514
  547TIP3   OH223055   0.148   0.185   0.335 -0.1505 -0.1984  0.0989
  547TIP3    H123056   0.167   0.157   0.424  0.7560 -2.1310 -0.6330
  547TIP3    H223057   0.092   0.116   0.299  0.3953 -0.0267 -1.1619
  548TIP3   OH223058   6.145   3.217  11.004 -0.2692  0.0720  0.6166
  548TIP3    H123059   6.107   3.189  11.087  1.2165  0.9702  1.6631
  548TIP3    H223060   6.080   3.277  10.966 -1.4462 -1.2027  0.5654
  549TIP3   OH223061   4.930   4.693  12.769 -0.3619 -0.6131 -0.4536
  549TIP3    H123062   4.856   4.753  12.763  0.5757  0.6115 -0.1175
  549TIP3    H223063   4.940   4.675  12.862  0.7056  0.4817 -0.3285
  550TIP3   OH223064   2.603   5.393  14.492  0.3014  0.5606  0.2328
  550TIP3    H123065   2.659   5.340  14.435 -0.7506  0.1196 -0.4172
  550TIP3    H223066   2.542   5.330  14.531  0.0107  1.0838  0.6359
  551TIP3   OH223067   6.780   1.029   1.920 -0.5292  0.1505 -1.0381
  551TIP3    H123068   6.808   1.024   2.012  1.6403  1.4241 -1.5582
  551TIP3    H223069   6.730   0.949   1.906  0.1976 -0.7060  0.8979
  552TIP3   OH223070   0.588   2.991   2.378 -0.5738  0.3333  0.1496
  552TIP3    H123071   0.524   3.011   2.446 -2.5581 -1.3093 -1.1117
  552TIP3    H223072   0.663   3.046   2.398 -1.4855  0.6572  3.0423
  553TIP3   OH223073   1.457   3.345  15.853  0.2261 -0.4752  0.2954
  553TIP3    H123074   1.543   3.319  15.818 -0.1727 -0.7510 -0.4997
  553TIP3    H223075   1.438   3.280  15.921  0.3652 -0.7793  0.0456
  554TIP3   OH223076   0.593   1.003  16.160 -0.0395  0.0856  0.0717
  554TIP3    H123077   0.598   1.098  16.169  0.4071  0.1503 -0.8207
  554TIP3    H223078   0.589   0.988  16.066 -0.0933 -0.7899  0.2087
  555TIP3   OH223079   6.752   3.847  13.987  0.3083 -0.3342  0.6145
  555TIP3    H123080   6.782   3.914  14.048  1.3966  0.0223 -0.2900
  555TIP3    H223081   6.831   3.801  13.960 -0.2808 -1.1789  0.2586
  556TIP3   OH223082   2.534   4.001   2.188  0.1933 -0.8323  0.2173
  556TIP3    H123083   2.591   4.059   2.240  1.3218 -1.3662 -0.3894
  556TIP3    H223084   2.461   3.981   2.247  0.0643  0.7265  0.6492
  557TIP3   OH223085   5.330   1.704  15.847 -0.0147  0.3327 -0.1400
  557TIP3    H123086   5.369   1.666  15.768 -0.1083  2.2459 -1.1582
  557TIP3    H223087   5.378   1.785  15.862  0.1952 -0.1095  1.9799
  558TIP3   OH223088   5.689   3.809  15.760 -0.1426  0.7992 -0.2162
  558TIP3    H123089   5.764   3.833  15.705  0.5032  1.0847  0.7642
  558TIP3    H223090   5.676   3.885  15.816 -1.5310  0.9691 -0.7456
  559TIP3   OH223091   3.142   0.562  13.274  0.1347  0.1335 -0.5030
  559TIP3    H123092   3.061   0.592  13.232  1.1641  2.8923 -0.7676
  559TIP3    H223093   3.141   0.604  13.361  0.5732 -1.0589  0.0988
  560TIP3   OH223094   1.181   1.926   0.178 -0.0486  0.0266  0.5403
  560TIP3    H123095   1.147   1.962   0.261  1.5961 -1.3237  1.8625
  560TIP3    H223096   1.103   1.898   0.131 -1.3170  3.6723  0.1425
  561TIP3   OH223097   4.117   6.202  12.393 -0.7326  0.1793 -0.4765
  561TIP3    H123098   4.074   6.237  12.316  4.2818  0.5127 -3.6067
  561TIP3    H223099   4.135   6.110  12.371  0.4191  0.1564  0.4204
  562TIP3   OH223100   5.849   4.751   5.049  0.4288 -0.5775  0.1377
  562TIP3    H123101   5.834   4.658   5.033  1.4529 -0.6089 -0.7383
  562TIP3    H223102   5.840   4.761   5.144 -0.5276 -1.4049  0.1408
  563TIP3   OH223103   2.656   2.895   6.203 -0.2595 -0.3398  0.6522
  563TIP3    H123104   2.722   2.846   6.253  0.0065 -1.7481 -0.9687
  563TIP3    H223105   2.698   2.912   6.118 -1.3841  0.2343  0.1859
  564TIP3   OH223106   5.910   4.447   1.720  0.1837 -0.1113  0.0906
  564TIP3    H123107   5.977   4.380   1.706 -1.1755 -1.3433 -0.9164
  564TIP3    H223108   5.956   4.530   1.709  2.0309 -0.8259  1.8729
  565TIP3   OH223109   6.120   5.342  11.168  0.3958  0.1593  0.3786
  565TIP3    H123110   6.089   5.253  11.152 -0.8511  0.4049  1.3107
  565TIP3    H223111   6.214   5.338  11.147  0.0484 -0.9408 -1.1862
  566TIP3   OH223112   6.280   6.190  12.349 -0.0963 -0.1106  0.4116
  566TIP3    H123113   6.316   6.105  12.375  1.8225  0.5578  0.0258
  566TIP3    H223114   6.234   6.220  12.428 -0.9020 -1.5303  0.5216
  567TIP3   OH223115   6.315   4.048   5.945 -0.7375 -0.1087  0.2709
  567TIP3    H123116   6.221   4.058   5.955 -0.4717  2.1801  1.0294
  567TIP3    H223117   6.353   4.120   5.996  1.4450 -1.2920  0.4339
  568TIP3   OH223118   0.495   2.970  15.019  0.1766  0.0728  0.2534
  568TIP3    H123119   0.566   3.034  15.022  1.1542 -0.8955 -0.9080
  568TIP3    H223120   0.421   3.018  14.981  0.6759  0.6930  0.0455
  569TIP3   OH223121   3.846   5.362   0.012 -0.0150 -0.0630  0.2269
  569TIP3    H123122   3.914   5.413  -0.032  0.7891 -1.6875 -0.4888
  569TIP3    H223123   3.765   5.387  -0.033  0.8408 -2.1371 -2.7798
  570TIP3   OH223124   5.204   3.811  10.805  0.1079 -0.0091  0.1909
  570TIP3    H123125   5.293   3.784  10.829  0.0601 -1.0183 -0.7000
  570TIP3    H223126   5.196   3.900  10.839  1.8845  0.5475 -0.7020
  571TIP3   OH223127   2.791   5.973   3.311  0.4113  0.0341  0.5166
  571TIP3    H123128   2.773   6.005   3.223  0.1670 -1.8838 -0.1686
  571TIP3    H223129   2.860   5.908   3.299  0.4457 -0.1894  1.7756
  572TIP3   OH223130   4.928   4.177   5.518  0.1659  0.5303  0.1564
  572TIP3    H123131   4.850   4.192   5.571  0.3937 -1.8262  1.2951
  572TIP3    H223132   4.919   4.086   5.488  0.9997  1.1790 -2.2918
  573TIP3   OH223133   5.204   4.828  10.653 -0.9776 -0.2398 -0.1709
  573TIP3    H123134   5.176   4.741  10.623  2.1796 -1.1343 -0.8582
  573TIP3    H223135   5.278   4.850  10.597  0.3352  1.4864  2.0735
  574TIP3   OH223136   6.280   4.582  10.376  0.4784 -0.2041 -0.2718
  574TIP3    H123137   6.184   4.578  10.374  0.4586 -0.0119  0.1451
  574TIP3    H223138   6.307   4.491  10.380  0.3126 -0.2601 -0.3922
  575TIP3   OH223139   2.121   0.521  15.885  1.0202 -0.0937 -0.4301
  575TIP3    H123140   2.162   0.533  15.971 -0.7489  0.4493  0.3745
  575TIP3    H223141   2.150   0.596  15.834  0.6582  0.5303  0.2773
  576TIP3   OH223142   0.412   3.011   2.916 -0.6347 -0.2485  0.3699
  576TIP3    H123143   0.463   2.931   2.922  0.5345  0.4701  0.4183
  576TIP3    H223144   0.321   2.982   2.915 -0.2184 -1.6006 -0.2433
  577TIP3   OH223145   5.980   5.225  12.261  0.6476  0.0243 -0.3328
  577TIP3    H123146   5.958   5.190  12.347 -0.3452 -1.3709 -1.1084
  577TIP3    H223147   5.998   5.318  12.276  2.3125 -0.5384  1.6451
  578TIP3   OH223148   2.453   1.531   0.875  0.2004  0.4535  0.2491
  578TIP3    H123149   2.538   1.564   0.847  0.6253 -0.1660  0.7846
  578TIP3    H223150   2.466   1.437   0.887 -0.8753  0.1488 -0.8031
  579TIP3   OH223151   4.280   6.275  15.264  0.2587 -0.0709  0.2903
  579TIP3    H123152   4.234   6.315  15.190 -2.4804  0.5549  2.1621
  579TIP3    H223153   4.372   6.289  15.245 -0.3542  4.7156 -0.6521
  580TIP3   OH223154   3.574   5.652  11.899 -1.0211  0.2931 -0.0947
  580TIP3    H123155   3.525   5.722  11.856 -1.7965 -0.4556 -0.4644
  580TIP3    H223156   3.605   5.598  11.826 -0.3959  0.2742  0.1865
  581TIP3   OH223157   0.363   5.324   1.403  0.8865 -0.5158 -0.2250
  581TIP3    H123158   0.329   5.355   1.487 -1.0575 -1.1643 -0.7175
  581TIP3    H223159   0.325   5.237   1.393  1.8941 -0.8458 -1.3347
  582TIP3   OH223160   6.071   4.251   2.518 -0.6901 -0.1242  0.1897
  582TIP3    H123161   6.017   4.177   2.492 -0.5672 -0.3399  0.5357
  582TIP3    H223162   6.156   4.235   2.476 -0.7998  0.0501 -0.0970
  583TIP3   OH223163   0.615   1.193   0.891  0.0617 -0.5719  0.5406
  583TIP3    H123164   0.629   1.286   0.870 -0.6415 -0.7377 -0.7197
  583TIP3    H223165   0.703   1.155   0.889  0.1184 -0.4492 -1.6015
  584TIP3   OH223166   1.930   0.625   3.897 -0.3922  0.5397 -0.7144
  584TIP3    H123167   1.929   0.705   3.845 -1.5944 -0.4709 -2.3554
  584TIP3    H223168   2.010   0.579   3.872 -0.9457  0.0786 -1.6790
  585TIP3   OH223169   4.122   5.394   1.026  0.6683  0.0193  0.3555
  585TIP3    H123170   4.092   5.428   0.942 -2.0810 -0.0557  1.2089
  585TIP3    H223171   4.115   5.299   1.018  0.2485  0.0165  0.6917
  586TIP3   OH223172   0.582   0.935   1.868 -0.5381  0.3124  0.3980
  586TIP3    H123173   0.571   0.841   1.882  3.5732 -0.5398 -0.7116
  586TIP3    H223174   0.523   0.955   1.796 -1.4240 -1.4288  0.5756
  587TIP3   OH223175   0.176   2.124  14.384  0.2784  0.5786  0.0975
  587TIP3    H123176   0.174   2.204  14.331 -4.0545 -0.1725 -1.2206
  587TIP3    H223177   0.117   2.141  14.457  1.5205 -0.5239  1.4410
  588TIP3   OH223178   5.124   5.684  15.537 -0.0565  0.1954  0.0932
  588TIP3    H123179   5.172   5.672  15.619 -1.7966 -0.0527  1.1256
  588TIP3    H223180   5.188   5.663  15.469  0.8289 -1.8098  1.4429
  589TIP3   OH223181   1.515   5.032  11.980 -0.2336  0.3987  0.3577
  589TIP3    H123182   1.600   4.991  11.967 -1.1879 -1.1675 -1.6232
  589TIP3    H223183   1.502   5.085  11.901 -1.4914 -0.1877  0.1489
  590TIP3   OH223184   4.511   1.655   5.352  0.0912  0.4105  0.1181
  590TIP3    H123185   4.450   1.638   5.424  0.4381  0.1843  0.3600
  590TIP3    H223186   4.592   1.683   5.394  0.2618  0.3850 -0.1872
  591TIP3   OH223187   4.081   6.606  16.127 -0.6058 -0.0007  0.0588
  591TIP3    H123188   3.988   6.618  16.107 -0.6727 -0.7482 -0.0960
  591TIP3    H223189   4.120   6.583  16.043  0.1428  2.5236 -0.3814
  592TIP3   OH223190   2.284   2.014   5.501  0.6027  0.7875  0.0177
  592TIP3    H123191   2.290   1.956   5.576  0.5582  0.0339 -0.5578
  592TIP3    H223192   2.299   1.958   5.425  1.4658  1.6812 -0.4943
  593TIP3   OH223193   5.863   6.784  15.102 -0.0008  0.5826  0.5203
  593TIP3    H123194   5.852   6.745  15.189  0.7832  1.6095  1.1078
  593TIP3    H223195   5.840   6.714  15.041  0.8750 -0.6330  1.5296
  594TIP3   OH223196   0.785   1.171   5.938 -0.4277 -0.4117 -0.1100
  594TIP3    H123197   0.843   1.235   5.897 -0.3245 -0.2953  0.2126
  594TIP3    H223198   0.841   1.122   5.999 -0.8265  0.2652  0.8322
  595TIP3   OH223199   5.772   6.482   3.884  0.3722 -0.1461  0.4842
  595TIP3    H123200   5.824   6.412   3.846 -0.2827  0.5263 -1.8702
  595TIP3    H223201   5.742   6.533   3.808 -0.7226  1.5703  1.9788
  596TIP3   OH223202   4.501   4.429  10.780  0.3543  0.1804  0.1218
  596TIP3    H123203   4.535   4.340  10.773  1.7182  0.6908 -0.0422
  596TIP3    H223204   4.433   4.424  10.847  0.7381 -0.8831  0.4429
  597TIP3   OH223205   0.821   3.786  14.347 -0.0058  0.2746  0.3366
  597TIP3    H123206   0.765   3.798  14.424 -0.0864  1.2269  0.1418
  597TIP3    H223207   0.885   3.857  14.352 -1.6413  2.0646 -1.8748
  598TIP3   OH223208   2.106   5.410   0.895  0.0857 -0.4612 -0.2275
  598TIP3    H123209   2.050   5.404   0.818 -3.2983  2.0749  1.7534
  598TIP3    H223210   2.150   5.495   0.887  0.8509 -0.8229 -0.0025
  599TIP3   OH223211   5.551   6.547   3.129 -0.1200  0.1722  0.6160
  599TIP3    H123212   5.625   6.606   3.137  0.2506 -0.0866 -0.6884
  599TIP3    H223213   5.477   6.596   3.162  0.0575  1.6380 -1.0289
  600TIP3   OH223214   1.677   4.337   5.575 -0.4540  0.0511 -0.0885
  600TIP3    H123215   1.617   4.358   5.503 -1.3182 -0.0034  0.5888
  600TIP3    H223216   1.764   4.355   5.540 -0.4128 -3.5818 -2.5361
  601TIP3   OH223217   1.560   6.450   3.222 -0.2705  0.1690 -0.4463
  601TIP3    H123218   1.558   6.542   3.247 -0.1279  0.0699 -0.0675
  601TIP3    H223219   1.569   6.403   3.305 -0.5119 -0.1911 -0.6260
  602TIP3   OH223220   6.203   3.414  13.449 -0.2197  0.0578 -0.2050
  602TIP3    H123221   6.215   3.449  13.361  2.0231 -0.4931 -0.1728
  602TIP3    H223222   6.246   3.328  13.447  0.0263  0.1068  1.4561
  603TIP3   OH223223   0.191   2.039  11.304 -0.1729 -0.2426 -0.5075
  603TIP3    H123224   0.214   2.132  11.305  0.1723 -0.2780  2.2304
  603TIP3    H223225   0.098   2.038  11.284 -0.2285  0.7362 -0.3565
  604TIP3   OH223226   4.551   1.258   1.757 -0.1438 -0.7076  0.8978
  604TIP3    H123227   4.555   1.336   1.813  2.3149 -0.3673  0.3306
  604TIP3    H223228   4.625   1.267   1.697 -2.1024 -1.5295 -1.8514
  605TIP3   OH223229   0.603   6.597  17.142  0.5593 -0.0750  0.2234
  605TIP3    H123230   0.556   6.562  17.218 -1.4675  1.9300  0.0066
  605TIP3    H223231   0.559   6.558  17.066  1.3143 -0.5623  0.0162
  606TIP3   OH223232   3.110   2.926  16.155 -0.1953 -0.9586  0.0446
  606TIP3    H123233   3.099   2.926  16.250  0.1514  0.1566  0.0984
  606TIP3    H223234   3.170   2.853  16.139  0.3624 -0.6861  0.7796
  607TIP3   OH223235   0.912   0.098  17.149 -0.5805  0.2558 -0.2244
  607TIP3    H123236   0.939   0.049  17.071 -0.4769 -0.4410  0.2462
  607TIP3    H223237   0.981   0.080  17.213  0.1018  1.9796 -0.4162
  608TIP3   OH223238   0.387   0.800  13.103 -0.0965  0.1620  0.3661
  608TIP3    H123239   0.441   0.722  13.117  1.6318  1.1244 -0.5266
  608TIP3    H223240   0.312   0.769  13.052  0.7890 -0.8693 -0.3594
  609TIP3   OH223241   4.071   2.871   1.939 -0.1221  0.2720 -0.4121
  609TIP3    H123242   4.051   2.808   2.008  2.7064  1.0832  1.3234
  609TIP3    H223243   4.162   2.850   1.914 -0.7682  0.5051 -3.4252
  610TIP3   OH223244   0.732   3.743   0.367  0.4722 -0.0119  0.3915
  610TIP3    H123245   0.780   3.788   0.437  1.0392 -0.4081  0.2646
  610TIP3    H223246   0.688   3.670   0.411 -2.8734  2.2299  1.1804
  611TIP3   OH223247   4.272   1.360  16.048 -0.1801  0.2591  0.3619
  611TIP3    H123248   4.194   1.354  16.104 -0.7550 -0.1277 -0.4480
  611TIP3    H223249   4.237   1.380  15.961  0.7412  1.4890  0.2583
  612TIP3   OH223250   4.657   4.010  13.703  0.2616  0.0017 -0.6549
  612TIP3    H123251   4.745   3.981  13.681  0.4187 -1.4004  1.4521
  612TIP3    H223252   4.620   3.938  13.755 -1.0982  1.6589  0.8301
  613TIP3   OH223253   1.426   5.564  14.382  0.1242  0.6573  0.1623
  613TIP3    H123254   1.343   5.548  14.338  1.1079  0.7665 -1.8180
  613TIP3    H223255   1.411   5.535  14.472 -1.7780 -0.1504 -0.3677
  614TIP3   OH223256   5.984   2.356  15.634  0.0771  0.2307 -0.3340
  614TIP3    H123257   5.962   2.448  15.620  1.6766  0.5599 -0.8435
  614TIP3    H223258   5.999   2.349  15.729  0.0480  0.5174 -0.3083
  615TIP3   OH223259   5.777   0.385  11.725  0.3729 -0.2776  0.4641
  615TIP3    H123260   5.696   0.367  11.773  1.2195 -2.8721  1.0872
  615TIP3    H223261   5.798   0.476  11.747 -1.8594  0.1803  1.0031
  616TIP3   OH223262   5.763   5.854  11.954 -0.8560  0.1288  0.8931
  616TIP3    H123263   5.684   5.824  11.909 -0.1340 -0.6623  0.1436
  616TIP3    H223264   5.806   5.911  11.891  1.6786 -3.2335 -0.7068
  617TIP3   OH223265   5.659   1.170  16.651  0.5727 -0.0137 -0.0666
  617TIP3    H123266   5.728   1.188  16.586  1.0814 -1.9355 -0.1117
  617TIP3    H223267   5.707   1.154  16.732 -0.0719  2.7184  0.9571
  618TIP3   OH223268   1.298   6.063  13.322 -0.5965  0.0551 -0.0520
  618TIP3    H123269   1.234   6.072  13.392 -0.5427  0.3942 -0.0444
  618TIP3    H223270   1.257   6.107  13.247  0.2972  1.7272  0.3909
  619TIP3   OH223271   3.437   2.785  12.318 -0.2929  0.1609  0.5934
  619TIP3    H123272   3.362   2.746  12.363  0.1552 -2.7320 -0.8739
  619TIP3    H223273   3.402   2.812  12.233  0.0802 -0.2185  0.3128
  620TIP3   OH223274   5.473   0.728   4.951  0.0055 -0.1699  0.5344
  620TIP3    H123275   5.502   0.813   4.984 -2.4175  0.6544  0.7754
  620TIP3    H223276   5.384   0.719   4.984 -0.8554 -1.4546 -1.9119
  621TIP3   OH223277   3.521   1.288  16.287 -0.6208  0.1252 -0.0438
  621TIP3    H123278   3.574   1.337  16.350 -1.1395 -0.1566  0.6186
  621TIP3    H223279   3.433   1.322  16.296 -0.5853  0.5499 -1.1103
  622TIP3   OH223280   1.411   1.853  16.004 -0.4094  0.0254 -0.1805
  622TIP3    H123281   1.436   1.805  15.925  2.6430 -1.1343  1.3211
  622TIP3    H223282   1.373   1.935  15.971  0.6217 -0.4648 -2.8515
  623TIP3   OH223283   5.358   1.636  16.897  0.6066 -0.4943  0.6395
  623TIP3    H123284   5.445   1.613  16.931  0.6938 -0.9813  0.1038
  623TIP3    H223285   5.373   1.651  16.804  0.4053  0.9913  0.8222
  624TIP3   OH223286   2.964   1.700   0.742  0.0806 -0.6049 -0.0901
  624TIP3    H123287   2.900   1.665   0.680  0.5131 -2.1722  0.3094
  624TIP3    H223288   3.027   1.746   0.687  0.2428 -1.6294 -0.7857
  625TIP3   OH223289   0.232   6.643   6.702 -0.6258 -0.1153  0.4150
  625TIP3    H123290   0.157   6.662   6.759 -1.4417  3.3429 -1.5052
  625TIP3    H223291   0.193   6.624   6.617  0.5026  2.6795 -0.8665
  626TIP3   OH223292   2.159   2.117   2.738 -0.2008 -0.0794 -0.3998
  626TIP3    H123293   2.081   2.170   2.754  0.3588 -0.1301  3.1422
  626TIP3    H223294   2.132   2.054   2.671 -2.4620  1.2993 -0.9052
  627TIP3   OH223295   3.751   5.194  13.803  0.2414  0.1452  0.2662
  627TIP3    H123296   3.829   5.150  13.771  0.5881 -0.2761  1.6145
  627TIP3    H223297   3.780   5.282  13.825  0.0087  0.4273 -0.5124
  628TIP3   OH223298   0.183   0.815   5.767 -0.4913  0.1840 -0.2844
  628TIP3    H123299   0.246   0.886   5.773  0.7560 -0.8467 -0.7251
  628TIP3    H223300   0.197   0.777   5.680 -0.8868 -0.8061  0.0674
  629TIP3   OH223301   5.571   5.814  15.937 -0.1968 -0.2003  0.0298
  629TIP3    H123302   5.499   5.787  15.995  1.2337 -1.2628  1.3963
  629TIP3    H223303   5.626   5.737  15.930 -0.4857 -0.2379 -3.1470
  630TIP3   OH223304   3.619   0.134   0.620  0.5397  0.2018 -0.2234
  630TIP3    H123305   3.705   0.156   0.583 -0.6037 -0.1931 -3.4672
  630TIP3    H223306   3.582   0.219   0.644  0.9247  0.6464 -1.1068
  631TIP3   OH223307   2.672   4.533  12.460 -0.1856 -0.3455 -0.6976
  631TIP3    H123308   2.733   4.599  12.427 -0.2596  0.5202  0.8448
  631TIP3    H223309   2.716   4.449  12.441  0.7334  0.2034 -1.0775
  632TIP3   OH223310   3.164   1.939  12.873  0.2251 -0.3167 -0.0731
  632TIP3    H123311   3.120   1.979  12.798 -1.5466  0.1251  1.1380
  632TIP3    H223312   3.244   1.990  12.884 -0.4802  0.9278 -0.4491
  633TIP3   OH223313   4.821   2.593  15.796 -0.4498 -0.1817 -0.1056
  633TIP3    H123314   4.905   2.616  15.757 -0.4232 -0.1118 -0.0068
  633TIP3    H223315   4.840   2.518  15.852 -0.7867 -1.3522 -1.4992
  634TIP3   OH223316   6.374   1.056   4.499 -0.4667  0.3234 -0.2209
  634TIP3    H123317   6.338   1.007   4.573 -0.5951  0.7134 -0.0258
  634TIP3    H223318   6.439   1.114   4.539 -1.9030  1.9442 -0.1486
  635TIP3   OH223319   5.882   1.408   4.863  0.0492 -0.1321  0.2700
  635TIP3    H123320   5.840   1.348   4.802 -1.9294  0.3436  1.0868
  635TIP3    H223321   5.956   1.445   4.814 -2.4653  1.5880 -2.5480
  636TIP3   OH223322   0.046   6.205   2.536 -0.3179  0.3930  0.2954
  636TIP3    H123323  -0.045   6.215   2.563 -0.7567  0.3720 -1.1299
  636TIP3    H223324   0.042   6.189   2.442  1.2728  3.1403 -0.3576
  637TIP3   OH223325   4.326   1.685  12.511 -0.1168 -0.1161  1.0347
  637TIP3    H123326   4.333   1.606  12.458 -0.2893  0.4304  0.1802
  637TIP3    H223327   4.233   1.706  12.512  0.1323  1.3463 -0.7005
  638TIP3   OH223328   5.158   6.062   5.121 -0.9970 -0.4440 -0.3518
  638TIP3    H123329   5.217   5.994   5.152  0.5191  0.8018 -0.3798
  638TIP3    H223330   5.179   6.138   5.174 -0.3759  0.9253 -2.4319
  639TIP3   OH223331   1.490   6.003   2.889 -0.1852 -0.2277  0.2400
  639TIP3    H123332   1.567   6.041   2.847 -0.1402 -1.3485 -0.7704
  639TIP3    H223333   1.522   5.921   2.927 -0.6673 -0.1927  0.7263
  640TIP3   OH223334   0.695   0.961  16.758  0.0351  0.0159 -0.0320
  640TIP3    H123335   0.689   1.019  16.683 -2.0490  0.5762  0.4913
  640TIP3    H223336   0.713   0.875  16.721 -0.7092  0.3328 -1.1639
  641TIP3   OH223337   3.219   3.108   4.408 -0.0146 -0.4611  0.0784
  641TIP3    H123338   3.298   3.059   4.430  0.6790  1.6584  2.8719
  641TIP3    H223339   3.148   3.047   4.425  0.9058 -1.3263  1.0236
  642TIP3   OH223340   5.292   1.623   3.704  0.0899  0.2732 -0.1137
  642TIP3    H123341   5.281   1.528   3.707  1.4652  0.1141  1.7803
  642TIP3    H223342   5.385   1.636   3.686  0.3505  1.1750  1.6193
  643TIP3   OH223343   3.314   0.690  16.803  0.1288 -0.0451  0.1428
  643TIP3    H123344   3.382   0.754  16.825  0.8871 -0.9544  0.5163
  643TIP3    H223345   3.360   0.606  16.802 -0.8355 -0.5830 -0.4019
  644TIP3   OH223346   2.670   3.098  10.677  0.3149 -0.1454 -0.4671
  644TIP3    H123347   2.623   3.179  10.656 -0.2024 -0.4830 -0.6096
  644TIP3    H223348   2.742   3.095  10.614  0.4314  0.2808 -0.3618
  645TIP3   OH223349   4.748   4.349  13.037 -0.0035  0.0508  0.3108
  645TIP3    H123350   4.749   4.272  13.094 -1.2866 -0.2705 -0.0648
  645TIP3    H223351   4.656   4.360  13.014  0.2770  1.2010 -0.3283
  646TIP3   OH223352   4.922   1.666   1.632  0.1284 -0.2896  0.3403
  646TIP3    H123353   4.932   1.671   1.727  0.6822 -0.5607  0.3003
  646TIP3    H223354   4.885   1.579   1.616  0.6372 -0.4892  0.2595
  647TIP3   OH223355   6.177   1.202  10.625 -0.2256  0.6691 -0.4490
  647TIP3    H123356   6.173   1.109  10.647 -0.5367  0.4666 -1.3268
  647TIP3    H223357   6.270   1.223  10.625 -0.2088  0.6571  0.9323
  648TIP3   OH223358   0.712   4.152  16.282 -0.2770  0.3163  0.3054
  648TIP3    H123359   0.696   4.092  16.209  1.5364  0.4677 -0.2688
  648TIP3    H223360   0.646   4.221  16.271 -1.4631 -0.8053  0.1382
  649TIP3   OH223361   5.683   5.493  15.087 -0.0801 -0.1669 -0.6513
  649TIP3    H123362   5.706   5.400  15.076 -0.5784 -0.4554  0.6168
  649TIP3    H223363   5.670   5.524  14.997 -1.2539 -1.6899 -1.0600
  650TIP3   OH223364   1.980   3.267   1.367 -0.3797  0.6839  0.0815
  650TIP3    H123365   2.058   3.320   1.349  1.1004 -1.8075 -1.4478
  650TIP3    H223366   1.920   3.287   1.295  0.3037  0.1120 -0.6665
  651TIP3   OH223367   1.520   5.681  12.281  0.2250  0.0213 -0.0999
  651TIP3    H123368   1.524   5.749  12.214 -0.9776 -1.1285 -1.4197
  651TIP3    H223369   1.568   5.607  12.243  2.2572  0.3318  1.6600
  652TIP3   OH223370   6.109   5.452   0.316 -0.0677  0.2361  0.4913
  652TIP3    H123371   6.088   5.390   0.246  0.5724  0.0027  0.5065
  652TIP3    H223372   6.054   5.424   0.390  0.5014 -0.5638  0.6261
  653TIP3   OH223373   5.554   3.375   2.554 -0.3161 -0.0298  0.0915
  653TIP3    H123374   5.555   3.458   2.601 -1.5709  0.2058 -0.2518
  653TIP3    H223375   5.560   3.400   2.462 -1.7672 -0.2274 -0.0796
  654TIP3   OH223376   1.588   2.610   6.366  0.8371  0.0831 -0.1580
  654TIP3    H123377   1.642   2.655   6.431  0.4834 -0.2854  0.4054
  654TIP3    H223378   1.521   2.673   6.343 -0.2329 -0.4316  1.3443
  655TIP3   OH223379   1.361   6.494   2.506 -0.2374  0.1957 -0.0206
  655TIP3    H123380   1.355   6.546   2.587  2.1503 -2.7371  2.2921
  655TIP3    H223381   1.433   6.533   2.457  0.7303 -0.1412  1.0925
  656TIP3   OH223382   3.085   6.349  16.487  0.0479 -0.2293  0.1730
  656TIP3    H123383   3.124   6.340  16.400  2.2160  1.9433  0.8257
  656TIP3    H223384   3.072   6.443  16.499 -1.6538 -0.5925  1.6197
  657TIP3   OH223385   1.915   5.939  12.757 -0.3633 -0.5037  0.1735
  657TIP3    H123386   1.961   5.860  12.787  0.1381 -0.4027 -0.3195
  657TIP3    H223387   1.822   5.916  12.763 -0.2556 -0.7856  0.9767
  658TIP3   OH223388   5.925   6.215   3.779 -0.6152 -0.0788 -0.3918
  658TIP3    H123389   5.951   6.265   3.701  0.6897  0.4023  0.3042
  658TIP3    H223390   5.982   6.250   3.849 -1.3227 -0.9230  0.6331
  659TIP3   OH223391   3.283   5.277   4.922  1.0040  0.0193  0.0674
  659TIP3    H123392   3.303   5.330   4.845  0.8424  1.2413  0.8361
  659TIP3    H223393   3.272   5.188   4.888  1.0475  0.5122 -1.2907
  660TIP3   OH223394   5.926   6.778  16.447  0.5943  0.1263 -0.8432
  660TIP3    H123395   5.866   6.732  16.388 -2.8997  1.6160  1.2557
  660TIP3    H223396   5.911   6.871  16.430  1.6339  0.5525  0.3828
  661TIP3   OH223397   2.652   0.403   4.208  0.4752  0.0114  0.0633
  661TIP3    H123398   2.698   0.446   4.136  0.1634 -0.3117 -0.3280
  661TIP3    H223399   2.620   0.476   4.262  1.8357  0.2445  0.6055
  662TIP3   OH223400   2.999   6.402   3.192  0.0011  0.5921  0.0939
  662TIP3    H123401   2.956   6.342   3.131  0.3758 -0.5650  0.9367
  662TIP3    H223402   2.934   6.471   3.207 -1.4825 -0.9307  1.0453
  663TIP3   OH223403   5.308   2.205  13.141  0.2152  0.4242 -0.9225
  663TIP3    H123404   5.265   2.290  13.153 -0.6949  0.1389 -2.0078
  663TIP3    H223405   5.250   2.142  13.184  1.0424  0.3651  0.1489
  664TIP3   OH223406   4.230   6.024  16.511  0.2593 -0.3980 -0.1797
  664TIP3    H123407   4.221   6.072  16.429  1.1668 -2.9168 -1.8973
  664TIP3    H223408   4.315   5.979  16.503  0.6700 -0.2377  2.4464
  665TIP3   OH223409   2.705   2.686   4.912 -0.0233 -0.7829  0.2571
  665TIP3    H123410   2.632   2.645   4.867  0.1510  0.3980 -1.1779
  665TIP3    H223411   2.731   2.759   4.855  1.6187 -0.5583  1.2116
  666TIP3   OH223412   1.008   5.168  14.685  0.2851 -0.5002  0.0929
  666TIP3    H123413   0.972   5.207  14.605 -1.3643 -1.1969  0.4598
  666TIP3    H223414   1.076   5.230  14.713 -0.1659  0.5318 -1.0086
  667TIP3   OH223415   3.660   0.336   5.510 -0.0998  0.1273  0.6067
  667TIP3    H123416   3.710   0.408   5.471  0.4446 -0.9781 -0.8225
  667TIP3    H223417   3.679   0.342   5.604  1.0306  1.0040  0.3451
  668TIP3   OH223418   5.711   0.143   4.263  0.1661 -0.0083  0.6160
  668TIP3    H123419   5.617   0.132   4.277 -0.2934  1.0199 -1.3572
  668TIP3    H223420   5.722   0.236   4.244  1.5792 -0.1380  0.6938
  669TIP3   OH223421   5.099   5.033  16.478 -0.1063  0.0992  0.4206
  669TIP3    H123422   5.190   5.061  16.484  0.4900 -1.6211 -0.1904
  669TIP3    H223423   5.073   5.059  16.389  0.0300 -0.1132  0.3183
  670TIP3   OH223424   2.405   2.692  13.570  1.0219  0.1982 -0.5664
  670TIP3    H123425   2.484   2.729  13.609  2.1009 -2.0553 -0.4677
  670TIP3    H223426   2.384   2.616  13.624 -1.4512  0.9138 -0.4008
  671TIP3   OH223427   5.536   2.254   4.147  0.5241 -0.2799  0.7004
  671TIP3    H123428   5.613   2.308   4.167  0.8098  0.0618 -1.1791
  671TIP3    H223429   5.468   2.317   4.125  0.8104 -0.6291 -1.3420
  672TIP3   OH223430   4.063   5.776   5.470 -0.3027  0.9780  0.5737
  672TIP3    H123431   4.028   5.797   5.556 -0.4540  0.7673  0.5643
  672TIP3    H223432   4.153   5.750   5.486 -0.4759  0.4629  0.7284
  673TIP3   OH223433   3.776   3.246   3.584 -0.0343  0.0426  0.1759
  673TIP3    H123434   3.723   3.239   3.505  1.0180  0.7965 -0.6125
  673TIP3    H223435   3.788   3.340   3.598  1.8225 -0.1033 -0.1809
  674TIP3   OH223436   3.162   4.949   0.277 -0.0769  0.2978 -0.8115
  674TIP3    H123437   3.239   5.002   0.296  0.7181 -1.5927  1.8198
  674TIP3    H223438   3.197   4.871   0.234 -0.9519  0.7261 -2.3978
  675TIP3   OH223439   5.873   2.131   0.405 -0.0429  0.1682 -0.0369
  675TIP3    H123440   5.885   2.209   0.459  0.5317  0.4156 -0.5023
  675TIP3    H223441   5.781   2.107   0.416 -0.3185  1.1208 -0.1685
  676TIP3   OH223442   4.181   3.166   4.977  0.3869  0.0509 -0.1051
  676TIP3    H123443   4.226   3.248   4.956 -1.3845  1.4597  1.2276
  676TIP3    H223444   4.134   3.143   4.897 -0.3130  1.2139 -0.0547
  677TIP3   OH223445   0.930   4.439   1.151 -0.2109 -0.0230  0.0919
  677TIP3    H123446   1.022   4.443   1.179 -0.5336  1.2859  1.0809
  677TIP3    H223447   0.934   4.430   1.056  0.9386 -0.2088  0.1414
  678TIP3   OH223448   4.357   6.051  10.556 -0.2741  0.1616 -0.0478
  678TIP3    H123449   4.300   6.113  10.600  0.3099  2.9426 -2.8542
  678TIP3    H223450   4.444   6.090  10.561  0.6087 -1.7123  0.1922
  679TIP3   OH223451   4.920   1.044   1.606  0.1467 -0.5346  0.0734
  679TIP3    H123452   4.854   1.012   1.668  0.4789 -2.1399 -0.3440
  679TIP3    H223453   4.911   1.139   1.608  0.1078 -0.5115  2.5249
  680TIP3   OH223454   3.779   1.476  15.820  0.2201  0.3049 -0.0010
  680TIP3    H123455   3.737   1.410  15.876  0.7334 -0.0662 -0.0447
  680TIP3    H223456   3.754   1.560  15.859 -0.4884  0.0931  0.0203
  681TIP3   OH223457   5.434   6.009  10.780  0.0618 -0.2831  0.5674
  681TIP3    H123458   5.524   6.035  10.758 -0.3468 -0.0375 -0.8966
  681TIP3    H223459   5.399   6.084  10.830  0.5732 -0.2705  0.9174
  682TIP3   OH223460   5.999   0.441  15.586 -0.3016  0.5351 -0.4897
  682TIP3    H123461   5.945   0.457  15.663  0.2988 -1.3079  0.3771
  682TIP3    H223462   5.941   0.398  15.524 -0.1646 -0.3370 -0.0304
  683TIP3   OH223463   6.256   3.173  11.893  0.1052  0.3571  0.5199
  683TIP3    H123464   6.350   3.186  11.883  0.4341 -0.8932  1.7292
  683TIP3    H223465   6.235   3.102  11.832  0.0394  0.2894  0.6207
  684TIP3   OH223466   2.696   1.509  13.396 -0.7300 -0.2772  0.4660
  684TIP3    H123467   2.780   1.546  13.370 -0.6982 -0.9419 -0.4230
  684TIP3    H223468   2.703   1.416  13.375 -1.5089 -0.4319  0.8460
  685TIP3   OH223469   3.470   6.115  11.833  0.0910  0.5443  0.0011
  685TIP3    H123470   3.548   6.142  11.783  1.6251 -1.4713  1.1806
  685TIP3    H223471   3.470   6.172  11.909  2.5461 -1.6186  1.7957
  686TIP3   OH223472   3.097   3.724   4.434 -0.2651  0.2789  0.0161
  686TIP3    H123473   3.058   3.733   4.521 -0.7039  1.5479 -0.2971
  686TIP3    H223474   3.050   3.787   4.380 -0.2746 -0.7706 -1.2571
  687TIP3   OH223475   1.874   5.806  13.040 -0.3021  0.0681 -0.3361
  687TIP3    H123476   1.809   5.875  13.047 -0.2524  0.0178  0.7760
  687TIP3    H223477   1.825   5.729  13.012 -1.1326 -0.4694  2.2866
  688TIP3   OH223478   2.973   6.052   1.307 -0.6221 -0.2006 -1.0654
  688TIP3    H123479   2.937   6.074   1.221  0.6845  1.4000 -1.2583
  688TIP3    H223480   2.960   6.131   1.359 -0.1317 -0.6517 -0.2289
  689TIP3   OH223481   1.938   5.109  14.650 -0.2246  0.1654  0.0962
  689TIP3    H123482   1.905   5.058  14.576 -1.1806  1.5172 -0.4509
  689TIP3    H223483   1.986   5.046  14.704  1.4250 -0.6768 -2.2144
  690TIP3   OH223484   4.827   0.160  17.009  0.6467  0.3374  0.2783
  690TIP3    H123485   4.762   0.228  17.027  1.2324  0.7915  0.7397
  690TIP3    H223486   4.801   0.086  17.064 -0.5476 -0.1841 -0.9394
  691TIP3   OH223487   0.110   3.199  13.263  0.1532 -0.4049  0.3899
  691TIP3    H123488   0.064   3.136  13.208  0.5561 -0.6646  0.3514
  691TIP3    H223489   0.095   3.284  13.220 -0.3526 -0.4775  0.4210
  692TIP3   OH223490   2.770   0.800  15.743 -0.4752  0.4456  0.0290
  692TIP3    H123491   2.776   0.790  15.838 -4.5076  0.0673  0.4314
  692TIP3    H223492   2.804   0.717  15.708  2.9247  1.3267  0.8523
  693TIP3   OH223493   5.067   0.554  12.465 -0.4606  0.0190  0.3356
  693TIP3    H123494   5.128   0.596  12.404 -0.4314 -1.2154 -0.5221
  693TIP3    H223495   5.035   0.625  12.520  1.8282  0.6850  0.8978
  694TIP3   OH223496   3.707   1.755   3.593 -0.2716 -0.0019 -0.0665
  694TIP3    H123497   3.738   1.665   3.594 -2.9097 -1.0010 -1.0285
  694TIP3    H223498   3.634   1.756   3.655  0.2720  1.7260  0.6092
  695TIP3   OH223499   2.907   2.592  12.820  0.3470  0.8759  0.4450
  695TIP3    H123500   2.968   2.518  12.829  0.2068  0.6179 -0.6413
  695TIP3    H223501   2.957   2.667  12.854  1.3998  0.7247 -0.7016
  696TIP3   OH223502   4.333   6.470   6.227 -0.4020  0.2668  0.0657
  696TIP3    H123503   4.413   6.438   6.186 -0.5876  0.8756 -0.7954
  696TIP3    H223504   4.270   6.399   6.216 -0.1241 -0.0299  0.3409
  697TIP3   OH223505   0.748   2.059  15.696  0.4471  0.5823  0.2574
  697TIP3    H123506   0.663   2.074  15.655 -0.4319 -0.6702  1.5299
  697TIP3    H223507   0.784   2.147  15.710  0.2352  1.0908 -1.9463
  698TIP3   OH223508   1.115   2.956   2.384 -0.4942 -0.0263  0.3105
  698TIP3    H123509   1.050   2.956   2.314  0.2146 -0.1752 -0.3618
  698TIP3    H223510   1.087   2.887   2.443 -0.3727 -0.8237 -0.5394
  699TIP3   OH223511   6.194   1.494  12.299 -0.8942 -0.5079  0.2087
  699TIP3    H123512   6.188   1.506  12.204 -0.8607  0.7765  0.3431
  699TIP3    H223513   6.274   1.444  12.312 -1.6868 -2.0196 -0.5182
  700TIP3   OH223514   0.465   0.636   3.635  0.3063 -0.0106  0.0136
  700TIP3    H123515   0.436   0.555   3.593  0.9788 -0.3985  0.2716
  700TIP3    H223516   0.500   0.689   3.563 -2.2421  1.0534 -0.5189
  701TIP3   OH223517   0.746   3.597   1.842 -0.4108 -0.3770 -0.2337
  701TIP3    H123518   0.711   3.610   1.930  0.9245 -2.8526  0.7419
  701TIP3    H223519   0.841   3.599   1.852 -0.1759 -3.1024 -1.1016
  702TIP3   OH223520   3.197   3.326   1.275  0.0899  0.3588  0.0630
  702TIP3    H123521   3.155   3.308   1.191  0.8177  1.5924 -0.5984
  702TIP3    H223522   3.194   3.243   1.322 -0.4650 -0.3129 -1.1199
  703TIP3   OH223523   6.380   5.451  11.127 -1.0362  0.6868 -0.4182
  703TIP3    H123524   6.362   5.532  11.079  0.3408  0.4623 -1.3475
  703TIP3    H223525   6.382   5.383  11.060  0.8232  0.3529 -0.0829
  704TIP3   OH223526   0.148   3.009  12.820  0.6198  0.6027  0.0264
  704TIP3    H123527   0.159   2.914  12.817  0.4008  0.5471  0.8887
  704TIP3    H223528   0.238   3.043  12.826  0.6382  0.2973  3.0563
  705TIP3   OH223529   2.187   0.355   1.915  0.0572  0.1826  0.1651
  705TIP3    H123530   2.252   0.289   1.890 -0.1588  0.6059 -1.6771
  705TIP3    H223531   2.230   0.406   1.983  1.2851 -0.1839 -0.3032
  706TIP3   OH223532   0.627   0.573  15.934 -0.2115 -0.6566 -0.4014
  706TIP3    H123533   0.698   0.563  15.870 -0.3480 -1.9399 -0.3910
  706TIP3    H223534   0.671   0.579  16.018 -0.0663 -0.0579 -0.5207
  707TIP3   OH223535   5.441   2.021   5.393  0.6039  0.6348  0.7420
  707TIP3    H123536   5.485   2.067   5.464  0.3344  0.6509  0.8980
  707TIP3    H223537   5.477   1.933   5.396  0.5622  0.6236  0.9240
  708TIP3   OH223538   5.550   5.902   1.105 -0.5429  0.6830  0.1046
  708TIP3    H123539   5.530   5.927   1.195  2.3343  2.1351  0.4781
  708TIP3    H223540   5.529   5.980   1.053  1.0463  1.1396  0.0924
  709TIP3   OH223541   2.336   2.168   4.270  0.5120 -0.0854  0.1892
  709TIP3    H123542   2.305   2.176   4.361  0.0505 -0.3339  0.0535
  709TIP3    H223543   2.288   2.235   4.222  2.9032  2.1531  0.6512
  710TIP3   OH223544   4.803   4.102   6.206 -0.2615  0.4025 -0.2951
  710TIP3    H123545   4.723   4.049   6.212  0.9127 -1.3272  0.9718
  710TIP3    H223546   4.782   4.182   6.254 -1.5809  0.4725 -0.9317
  711TIP3   OH223547   4.150   6.246   6.191  0.1048  0.1763  0.0834
  711TIP3    H123548   4.084   6.212   6.251 -0.9529  1.8322 -0.0908
  711TIP3    H223549   4.118   6.224   6.104  0.2064  0.2444  0.0282
  712TIP3   OH223550   1.770   5.014   6.100 -0.3440  0.0497 -0.2048
  712TIP3    H123551   1.703   5.025   6.033  1.5752 -0.1111 -2.2919
  712TIP3    H223552   1.807   5.101   6.111 -0.3878 -0.0017  0.3439
  713TIP3   OH223553   3.644   5.977  12.020  0.4545  0.0664 -0.3194
  713TIP3    H123554   3.709   5.998  11.953  1.2591 -0.2232  0.3497
  713TIP3    H223555   3.579   5.923  11.974  0.2018  1.0962 -1.2035
  714TIP3   OH223556   5.408   0.006   1.094 -0.0543 -0.4734 -0.3632
  714TIP3    H123557   5.431   0.097   1.076  0.5084 -0.6136 -0.3859
  714TIP3    H223558   5.385  -0.030   1.009  0.0616 -0.4415 -0.4088
  715TIP3   OH223559   5.758   6.075  15.255 -0.5228 -0.8184 -0.2790
  715TIP3    H123560   5.735   6.163  15.285  0.5019 -0.9985  1.1600
  715TIP3    H223561   5.677   6.025  15.260 -1.3997  0.2801 -2.2241
  716TIP3   OH223562   5.494   0.265   1.041 -0.0209 -0.0393  0.2682
  716TIP3    H123563   5.492   0.219   0.958  2.0218  0.2299  0.0276
  716TIP3    H223564   5.548   0.342   1.025 -0.2795  0.4545  1.6264
  717TIP3   OH223565   5.510   1.035   0.517 -0.6503  0.2711  0.2643
  717TIP3    H123566   5.435   1.031   0.576 -1.6614  0.2047 -0.9685
  717TIP3    H223567   5.560   1.111   0.546 -0.8002 -0.1062  1.5514
  718TIP3   OH223568   2.691   1.885   4.544 -0.4084 -0.1359 -0.6352
  718TIP3    H123569   2.627   1.926   4.486 -1.0186  0.9413  0.7463
  718TIP3    H223570   2.674   1.923   4.630  1.6288 -0.3730 -0.0762
  719TIP3   OH223571   0.815   2.991   4.232 -0.5052  0.2585  0.0408
  719TIP3    H123572   0.796   3.016   4.142 -0.8331  1.4415  0.4215
  719TIP3    H223573   0.889   3.046   4.258 -0.0257 -0.4991  0.3118
  720TIP3   OH223574   1.507   6.779  12.673 -0.2937  0.7686 -0.1286
  720TIP3    H123575   1.461   6.706  12.631  1.3195  0.6319 -1.7624
  720TIP3    H223576   1.594   6.779  12.633  1.3751  0.6994  3.1425
  721TIP3   OH223577   3.817   4.756  15.589  0.5446  0.2435 -0.4124
  721TIP3    H123578   3.794   4.786  15.677 -0.1575 -0.9037 -0.1743
  721TIP3    H223579   3.869   4.677  15.603 -1.6963 -1.4453 -0.9699
  722TIP3   OH223580   0.687   4.414   2.559 -0.6973 -0.4408  0.0307
  722TIP3    H123581   0.608   4.465   2.540  0.7278  1.9321  0.0545
  722TIP3    H223582   0.683   4.398   2.653 -1.5413 -1.1374 -0.1027
  723TIP3   OH223583   4.103   5.938   2.782 -0.3427  0.0288 -0.0697
  723TIP3    H123584   4.045   5.951   2.707  0.4729  0.6674 -0.6103
  723TIP3    H223585   4.159   5.865   2.757  0.7185  1.0066 -0.5906
  724TIP3   OH223586   1.747   1.849  13.541  0.0113  0.4502 -0.6376
  724TIP3    H123587   1.818   1.913  13.553 -0.6883  1.3281 -1.0744
  724TIP3    H223588   1.751   1.827  13.448 -0.8260  1.1729 -0.8614
  725TIP3   OH223589   1.951   1.795  15.077  0.6043  0.0765 -0.3935
  725TIP3    H123590   1.888   1.833  15.017  0.3046  0.1633 -0.0303
  725TIP3    H223591   1.911   1.806  15.164  0.7320 -0.6297 -0.2364
  726TIP3   OH223592   3.949   1.442  14.580  0.3654 -0.4600 -0.5754
  726TIP3    H123593   4.011   1.431  14.652 -1.3886 -0.6505  1.0120
  726TIP3    H223594   3.924   1.353  14.556  0.9458 -0.3941 -1.4295
  727TIP3   OH223595   5.834   5.787  16.533  0.1686  0.0289 -0.0277
  727TIP3    H123596   5.824   5.825  16.620  1.0506  0.2927 -0.0324
  727TIP3    H223597   5.911   5.731  16.540  2.8002  3.1047 -1.6205
  728TIP3   OH223598   4.840   5.065   0.389  0.7210 -0.0133 -0.1502
  728TIP3    H123599   4.843   5.143   0.334 -0.4455  0.9561  1.0748
  728TIP3    H223600   4.929   5.056   0.423  0.5388  1.7647  0.9417
  729TIP3   OH223601   3.188   1.578   0.336  0.1554 -0.0174 -0.3308
  729TIP3    H123602   3.257   1.586   0.270 -1.1411 -1.0068 -1.8761
  729TIP3    H223603   3.157   1.668   0.349 -1.0958  0.0175 -2.8479
  730TIP3   OH223604   2.305   5.600   4.215 -0.6994 -0.1780  0.5537
  730TIP3    H123605   2.389   5.573   4.252 -0.3998  0.9820  0.7588
  730TIP3    H223606   2.240   5.568   4.277 -0.2432  1.1371  1.7803
  731TIP3   OH223607   3.277   3.725   5.375  0.1009 -0.0205 -0.1353
  731TIP3    H123608   3.198   3.674   5.358  0.0633 -1.1128  2.7946
  731TIP3    H223609   3.256   3.775   5.454  1.8165  0.9034 -0.2200
  732TIP3   OH223610   2.714   2.005  15.669  0.0191 -0.1043 -0.0025
  732TIP3    H123611   2.747   2.086  15.708  1.3192  0.0614 -1.3601
  732TIP3    H223612   2.766   1.994  15.589 -0.4125 -2.0610 -0.0643
  733TIP3   OH223613   2.219   0.895   4.879  0.0407 -0.0130  0.3526
  733TIP3    H123614   2.306   0.910   4.844 -0.4789  0.0376 -0.9823
  733TIP3    H223615   2.160   0.912   4.806 -1.1069  0.1208  1.2721
  734TIP3   OH223616   2.045   4.726  13.015 -0.1929 -0.1392  0.1419
  734TIP3    H123617   1.993   4.804  13.033 -1.6751 -1.2941  1.0902
  734TIP3    H223618   2.131   4.760  12.989 -1.1208  1.8077 -0.5766
  735TIP3   OH223619   4.145   1.205   2.637 -0.6615 -0.1246 -1.0402
  735TIP3    H123620   4.150   1.232   2.546  2.4134 -1.1280 -1.2792
  735TIP3    H223621   4.171   1.283   2.687  0.8870 -0.4569 -1.2772
  736TIP3   OH223622   2.094   1.092   1.668  0.1988 -0.0165  0.3976
  736TIP3    H123623   2.115   1.009   1.711  1.4727  0.3518  0.5517
  736TIP3    H223624   2.015   1.123   1.711 -0.6780 -1.4623 -0.1152
  737TIP3   OH223625   1.683   2.114   2.875 -0.4790  0.3419 -0.0072
  737TIP3    H123626   1.733   2.056   2.933 -0.7434 -0.4460 -0.5510
  737TIP3    H223627   1.642   2.177   2.934 -1.4626 -0.9805  0.7819
  738TIP3   OH223628   3.450   2.826   1.328 -0.2159 -0.2910  0.0217
  738TIP3    H123629   3.494   2.742   1.335  1.4798  0.4189 -1.4261
  738TIP3    H223630   3.359   2.804   1.306  0.4463 -1.7381 -1.4526
  739TIP3   OH223631   4.410   2.713  13.718  0.2506  0.2205 -0.1970
  739TIP3    H123632   4.394   2.786  13.778 -0.9539  0.0252 -0.2456
  739TIP3    H223633   4.347   2.726  13.648  0.3705 -0.5895 -0.4632
  740TIP3   OH223634   1.869   3.734  14.124 -0.4052 -0.2158  0.0942
  740TIP3    H123635   1.933   3.793  14.163  0.1231 -1.0235  0.4815
  740TIP3    H223636   1.911   3.701  14.045 -0.4401 -0.5514  0.2125
  741TIP3   OH223637   4.887   1.456  17.227 -0.1176  0.3596 -0.0985
  741TIP3    H123638   4.970   1.494  17.197 -0.5509  1.1919 -0.2587
  741TIP3    H223639   4.828   1.466  17.152  0.2970 -2.5528 -0.9795
  742TIP3   OH223640   3.663   2.738  11.110  1.2249 -0.2754 -0.6922
  742TIP3    H123641   3.638   2.824  11.074 -2.5153 -1.2679 -0.9304
  742TIP3    H223642   3.713   2.697  11.040 -0.9526  0.0403 -2.5773
  743TIP3   OH223643   3.077   3.849   5.506 -0.0398  0.7441 -0.1019
  743TIP3    H123644   3.039   3.893   5.430  0.2004  0.3988 -0.4236
  743TIP3    H223645   3.102   3.920   5.565 -0.5166  0.9996 -0.2079
  744TIP3   OH223646   1.483   2.100   2.702  0.2348  0.0507 -0.0600
  744TIP3    H123647   1.539   2.113   2.778 -0.4924  1.8651  0.2108
  744TIP3    H223648   1.542   2.065   2.635  1.0597 -0.7813  1.0714
  745TIP3   OH223649   2.968   1.846  14.422  0.3676  0.0605  0.7181
  745TIP3    H123650   2.880   1.879  14.406  0.7544  1.6484  1.6230
  745TIP3    H223651   2.957   1.778  14.488 -0.1011  0.9235  1.5506
  746TIP3   OH223652   1.602   1.631   4.436 -0.0705 -0.3972  0.1663
  746TIP3    H123653   1.625   1.568   4.504 -0.6815 -0.5262  0.2642
  746TIP3    H223654   1.660   1.705   4.450 -0.2277 -0.4038  0.8655
  747TIP3   OH223655   5.934   1.348   1.463 -0.0195  0.4160  0.2232
  747TIP3    H123656   5.925   1.291   1.387 -0.9434  1.1322 -0.2159
  747TIP3    H223657   5.881   1.306   1.531 -1.2653  1.0823 -0.3086
  748TIP3   OH223658   5.425   5.031   3.255  0.1273  0.2709 -0.3534
  748TIP3    H123659   5.405   4.941   3.229  0.3647  0.3423 -0.8096
  748TIP3    H223660   5.467   5.068   3.177  1.2963  0.3545  0.3004
  749TIP3   OH223661   6.267   2.296   3.152  0.9154  0.4863  0.0641
  749TIP3    H123662   6.202   2.345   3.202 -0.0532  1.1564 -1.7799
  749TIP3    H223663   6.229   2.209   3.141  1.7425 -0.1150  1.5971
  750TIP3   OH223664   1.889   0.019   4.593 -0.4515  0.5320  0.6747
  750TIP3    H123665   1.846   0.020   4.678 -0.9494 -0.3894  0.4581
  750TIP3    H223666   1.953  -0.052   4.599 -0.8906  0.0653  0.1197
  751TIP3   OH223667   5.210   2.836  16.975  0.6302 -0.1199  0.3350
  751TIP3    H123668   5.233   2.910  17.030 -0.3361  0.5012 -0.0742
  751TIP3    H223669   5.115   2.838  16.970  0.6807 -0.2324 -1.2423
  752TIP3   OH223670   3.529   4.926  13.051  1.2078 -0.0146 -0.3186
  752TIP3    H123671   3.540   4.835  13.079  0.0460 -0.0679  0.0123
  752TIP3    H223672   3.449   4.926  12.999 -0.8605  1.3634  2.5229
  753TIP3   OH223673   3.582   0.486  13.092  0.4508 -0.4600  0.2754
  753TIP3    H123674   3.508   0.427  13.104 -0.3365  0.8833  2.7053
  753TIP3    H223675   3.643   0.437  13.037 -1.6250 -2.1354 -0.6634
  754TIP3   OH223676   6.322   5.085  16.225 -0.3758  0.5216  0.5170
  754TIP3    H123677   6.340   5.079  16.131 -0.2078  0.3868  0.5593
  754TIP3    H223678   6.226   5.087  16.230 -0.3928  0.2058  0.3655
  755TIP3   OH223679   2.145   4.914  16.120  0.0429 -0.1602 -0.1864
  755TIP3    H123680   2.137   4.900  16.026 -1.3712  0.1388 -0.1292
  755TIP3    H223681   2.074   4.974  16.142 -0.0565 -0.7238  1.1672
  756TIP3   OH223682   5.187   3.604  15.472  0.0601 -0.1313 -0.7684
  756TIP3    H123683   5.158   3.594  15.381  0.1503 -0.8994 -0.7242
  756TIP3    H223684   5.277   3.633  15.465  0.0574 -0.1572 -0.9268
  757TIP3   OH223685   1.615   4.771   5.362  0.3531 -0.0810 -0.2178
  757TIP3    H123686   1.685   4.764   5.428 -0.3133  1.5360  0.7277
  757TIP3    H223687   1.538   4.733   5.405 -0.1089  1.0697  0.0009
  758TIP3   OH223688   0.348   0.096   2.927  0.8400  0.0820  0.3673
  758TIP3    H123689   0.279   0.160   2.942  0.7526 -0.4109  2.2383
  758TIP3    H223690   0.304   0.022   2.885  0.8243  0.9389 -1.2024
  759TIP3   OH223691   1.224   5.937  11.266  0.3948  0.2193 -0.1103
  759TIP3    H123692   1.196   5.979  11.184 -0.2826 -0.6040 -0.3108
  759TIP3    H223693   1.163   5.866  11.279 -1.0388  1.7518  2.3875
  760TIP3   OH223694   3.929   4.038   0.472 -0.3341  0.0042 -0.1111
  760TIP3    H123695   3.995   3.973   0.498  0.8357  1.8220  1.8177
  760TIP3    H223696   3.956   4.066   0.385 -0.6785 -1.7993 -0.8425
  761TIP3   OH223697   6.350   3.088  11.517 -0.1424 -0.3459  0.4800
  761TIP3    H123698   6.379   3.178  11.511 -2.5198  0.4169 -1.2321
  761TIP3    H223699   6.428   3.036  11.497  1.9036  1.0968  3.8559
  762TIP3   OH223700   6.592   4.085   4.591  0.3316 -0.3622 -0.7901
  762TIP3    H123701   6.637   4.157   4.634 -0.5208 -0.3812  0.1484
  762TIP3    H223702   6.530   4.052   4.656 -0.2474 -1.0640 -1.6696
  763TIP3   OH223703   2.136   2.840  16.298  0.4631 -0.0303  0.0438
  763TIP3    H123704   2.154   2.864  16.389 -1.3610  2.6569 -0.1727
  763TIP3    H223705   2.213   2.791  16.270  0.3247 -2.6145  3.4952
  764TIP3   OH223706   2.944   6.786  14.805 -0.5822  0.6302 -0.0913
  764TIP3    H123707   2.884   6.723  14.766  0.4990  0.1724 -1.0598
  764TIP3    H223708   3.001   6.813  14.733  0.3940  1.0208  0.7983
  765TIP3   OH223709   3.608   1.395  15.516  0.1477  0.4288  0.5848
  765TIP3    H123710   3.533   1.434  15.472 -0.1780 -0.3340  0.4410
  765TIP3    H223711   3.627   1.317  15.465  0.5513  0.2035  1.0717
  766TIP3   OH223712   3.953   4.218   6.515  0.6563 -0.3920  0.5196
  766TIP3    H123713   4.033   4.252   6.554  1.1976 -2.0632  0.9725
  766TIP3    H223714   3.964   4.123   6.517  1.1248 -0.7293 -4.5159
  767TIP3   OH223715   3.974   5.955   6.148 -0.2191  0.4352  0.4230
  767TIP3    H123716   3.939   6.019   6.085  0.1426  0.1881 -0.0398
  767TIP3    H223717   4.059   5.931   6.112 -1.3457 -2.1506 -0.7581
  768TIP3   OH223718   2.026   4.981  13.625  0.4246 -0.0907  0.3896
  768TIP3    H123719   2.053   5.060  13.578  0.2053  0.5561  1.3369
  768TIP3    H223720   1.963   4.939  13.566 -0.0104  0.8199  0.1907
  769TIP3   OH223721   1.456   5.464   3.211 -0.0191  0.2066 -0.0183
  769TIP3    H123722   1.467   5.532   3.145  0.3633  0.3155  0.1551
  769TIP3    H223723   1.494   5.501   3.291  0.2147 -0.2154  0.0696
  770TIP3   OH223724   5.718   5.261   0.498 -0.2792  0.6032 -0.2660
  770TIP3    H123725   5.671   5.342   0.514 -1.7320 -0.3825  0.7376
  770TIP3    H223726   5.739   5.228   0.585  0.2691 -0.1083 -0.6580
  771TIP3   OH223727   0.989   4.452  13.649 -0.2385 -0.1412  0.1396
  771TIP3    H123728   1.032   4.374  13.615  0.0288 -0.3188  0.8613
  771TIP3    H223729   0.989   4.514  13.576  0.8645 -0.2874  0.0038
  772TIP3   OH223730   2.467   6.636   4.661 -0.8232  0.3807 -0.0800
  772TIP3    H123731   2.440   6.702   4.597 -1.2195  0.6161  0.3132
  772TIP3    H223732   2.543   6.675   4.705 -1.3093  0.7802  0.4404
  773TIP3   OH223733   4.289   4.820  15.069  0.3246  0.8505 -0.6190
  773TIP3    H123734   4.196   4.831  15.052 -0.2109 -0.0944  1.3525
  773TIP3    H223735   4.309   4.731  15.039  0.0414  0.2379  0.9285
  774TIP3   OH223736   2.666   0.683   3.179 -0.8310  0.3738  0.0281
  774TIP3    H123737   2.735   0.747   3.160  1.8699 -2.2821  0.1813
  774TIP3    H223738   2.628   0.663   3.093  0.0051  0.3863 -0.3515
  775TIP3   OH223739   4.857   3.831  13.958  0.1172 -0.1116  0.8074
  775TIP3    H123740   4.919   3.848  13.886  0.0434 -0.0321  0.7613
  775TIP3    H223741   4.795   3.904  13.953 -0.7442 -0.8667  0.0358
  776TIP3   OH223742   5.706   3.614   5.566  0.2769  0.3481  0.1975
  776TIP3    H123743   5.763   3.548   5.605  0.2356 -0.3354 -0.8443
  776TIP3    H223744   5.725   3.694   5.615 -0.0751 -0.5421  1.8565
  777TIP3   OH223745   4.286   6.077   2.491 -0.1750 -0.0221 -0.4056
  777TIP3    H123746   4.214   6.020   2.464 -0.0864  1.0398 -3.1476
  777TIP3    H223747   4.250   6.165   2.486  0.7371  0.3968  0.1911
  778TIP3   OH223748   4.032   2.571   4.886 -0.2072 -0.8633 -0.4373
  778TIP3    H123749   3.939   2.570   4.865  0.3781  0.5207 -3.6221
  778TIP3    H223750   4.059   2.479   4.879 -1.1675 -1.1714 -0.2297
  779TIP3   OH223751   4.446   0.191   1.283  0.4514  0.0414 -0.4050
  779TIP3    H123752   4.374   0.172   1.342 -1.3613  2.7495 -1.5505
  779TIP3    H223753   4.463   0.285   1.295  0.8900  0.4061 -3.1998
  780TIP3   OH223754   2.840   0.600   2.911 -0.4130  0.0425 -0.2866
  780TIP3    H123755   2.880   0.625   2.994 -1.1923 -0.3971  0.2213
  780TIP3    H223756   2.832   0.683   2.863 -0.2942  0.3462  0.2136
  781TIP3   OH223757   6.392   1.989  14.100  0.0779  0.2708 -0.1460
  781TIP3    H123758   6.339   1.996  14.179 -1.1245 -1.7206 -0.7163
  781TIP3    H223759   6.467   2.046  14.117 -0.4729  0.4139  2.1434
  782TIP3   OH223760   1.335   2.526  14.944  0.2929 -0.0632 -0.7922
  782TIP3    H123761   1.258   2.584  14.941 -0.5381 -1.1064 -0.0392
  782TIP3    H223762   1.357   2.512  14.852  0.0837  0.8828 -1.0022
  783TIP3   OH223763   2.339   5.553  15.948  0.0144  0.4326 -0.6348
  783TIP3    H123764   2.369   5.643  15.959  1.7502  0.2946 -3.3171
  783TIP3    H223765   2.247   5.561  15.924  0.0747  1.4898 -0.5591
  784TIP3   OH223766   5.124   0.403  14.811 -0.0359  0.1729 -0.1710
  784TIP3    H123767   5.031   0.383  14.819  0.4069 -1.8047  0.4377
  784TIP3    H223768   5.159   0.337  14.752  1.0066  0.8945 -0.3999
  785TIP3   OH223769   6.459   4.697   5.905  0.2328  0.1628 -0.0984
  785TIP3    H123770   6.455   4.790   5.928  0.6270  0.1370  0.0791
  785TIP3    H223771   6.524   4.660   5.965 -0.6925 -0.4427  0.5401
  786TIP3   OH223772   3.788   1.282   2.293 -0.5986  0.4950  0.4531
  786TIP3    H123773   3.774   1.264   2.386 -0.2611 -1.8019  0.1399
  786TIP3    H223774   3.701   1.280   2.254 -0.6271  0.1420  0.5340
  787TIP3   OH223775   2.266   5.305  12.632 -0.3258  0.0240 -0.2504
  787TIP3    H123776   2.291   5.213  12.634  1.5492  0.4841 -0.6816
  787TIP3    H223777   2.333   5.349  12.684 -0.1489  1.3475 -1.5482
  788TIP3   OH223778   1.952   2.512  14.562 -0.9149 -0.0772 -0.5286
  788TIP3    H123779   1.884   2.567  14.603 -1.6951 -0.7109 -0.9532
  788TIP3    H223780   1.931   2.423  14.590  1.0485 -0.0845  1.1433
  789TIP3   OH223781   0.486   3.619  12.422  0.1204  0.1558  0.3425
  789TIP3    H123782   0.479   3.598  12.515 -1.2879  0.7643  0.3924
  789TIP3    H223783   0.441   3.546  12.378 -0.3370  0.5079  0.2209
  790TIP3   OH223784   4.829   0.502   4.782  0.3502  0.2013  1.1445
  790TIP3    H123785   4.800   0.412   4.790  0.0977  0.2113  0.4239
  790TIP3    H223786   4.825   0.537   4.871  0.7164 -0.5725  1.4708
  791TIP3   OH223787   3.087   4.145   4.186  0.0263  0.6417 -0.6710
  791TIP3    H123788   3.083   4.144   4.282  0.7391 -0.2891 -0.6303
  791TIP3    H223789   3.166   4.194   4.166  1.2356 -1.2078 -0.6769
  792TIP3   OH223790   0.348   1.824   0.235 -0.0843 -0.0464 -0.1369
  792TIP3    H123791   0.430   1.800   0.277 -0.1216 -1.2588 -0.7319
  792TIP3    H223792   0.342   1.919   0.246  0.4503 -0.1806  1.6027
  793TIP3   OH223793   0.847   4.596   5.789 -0.1093 -0.5980  0.1547
  793TIP3    H123794   0.903   4.609   5.865 -0.9550  3.7693  0.2931
  793TIP3    H223795   0.787   4.671   5.790 -1.4840 -1.4209 -3.6880
  794TIP3   OH223796   0.017   3.702  15.645  0.0718  0.3391  0.6074
  794TIP3    H123797  -0.037   3.704  15.725 -0.4918  1.5761  0.2301
  794TIP3    H223798  -0.047   3.696  15.574  0.5609 -0.5062  0.2290
  795TIP3   OH223799   6.147   3.143  14.297 -0.6119  0.3714  0.3741
  795TIP3    H123800   6.153   3.173  14.207  1.8073  0.0890  0.3860
  795TIP3    H223801   6.177   3.218  14.349 -0.3604 -0.0318  0.8160
  796TIP3   OH223802   3.077   1.368   3.857  0.1908 -0.2262  0.1579
  796TIP3    H123803   3.109   1.450   3.895 -2.8506  0.4490  1.6002
  796TIP3    H223804   3.150   1.308   3.864  2.0032  1.9031  0.5557
  797TIP3   OH223805   2.750   1.759   0.124 -0.1958 -0.5747  0.1103
  797TIP3    H123806   2.832   1.809   0.122  0.3475 -1.4177  0.5254
  797TIP3    H223807   2.705   1.792   0.202 -0.1826 -0.2188 -0.0296
  798TIP3   OH223808   4.348   0.181  11.431 -0.7163  0.1348 -0.3014
  798TIP3    H123809   4.328   0.182  11.524  1.2835  1.3439  0.1708
  798TIP3    H223810   4.365   0.088  11.411  2.8167  0.2019  1.5650
  799TIP3   OH223811   6.770   2.095  13.849  0.1408  0.0234 -0.0112
  799TIP3    H123812   6.791   2.006  13.820  0.1226  0.3800 -1.1434
  799TIP3    H223813   6.739   2.139  13.771 -0.0001  0.9944  0.5789
  800TIP3   OH223814   5.224   3.042  13.339 -0.1408  0.0296  0.4380
  800TIP3    H123815   5.203   2.981  13.269 -0.6141  1.2828 -0.5591
  800TIP3    H223816   5.193   3.000  13.419 -2.0879 -0.2791 -0.4265
  801TIP3   OH223817   3.799   0.293   2.613  0.2543 -0.2094  0.0663
  801TIP3    H123818   3.821   0.383   2.589  0.6467 -0.2046  0.4200
  801TIP3    H223819   3.724   0.302   2.673  0.8196 -0.0519  0.7668
  802TIP3   OH223820   3.150   5.294  16.030  0.1949 -0.4996  0.1881
  802TIP3    H123821   3.114   5.272  15.944  1.1451 -1.0271 -0.0853
  802TIP3    H223822   3.075   5.289  16.090 -0.8048  1.3504 -0.8236
  803TIP3   OH223823   6.217   5.575  11.778  0.0191  0.3401 -0.5421
  803TIP3    H123824   6.288   5.633  11.807  0.9715 -0.4332 -1.2501
  803TIP3    H223825   6.228   5.496  11.831 -0.3884  0.2630 -0.5730
  804TIP3   OH223826   5.332   2.700  11.070  0.6605  0.0147 -0.3751
  804TIP3    H123827   5.371   2.670  10.988  0.3154  1.3060 -1.0402
  804TIP3    H223828   5.263   2.636  11.088  1.0030 -0.5056 -0.8778
  805TIP3   OH223829   4.979   1.811   0.223 -0.2578  0.2771 -0.1224
  805TIP3    H123830   5.039   1.852   0.161  0.6175 -0.7672 -0.0128
  805TIP3    H223831   4.907   1.873   0.232 -0.1501  0.6910 -1.7766
  806TIP3   OH223832   0.562   4.467  15.544 -0.0095 -0.0101  0.1436
  806TIP3    H123833   0.523   4.484  15.458 -2.2888 -1.0510  0.8788
  806TIP3    H223834   0.534   4.541  15.598  0.5095  0.1031  0.2596
  807TIP3   OH223835   1.546   5.412  10.672  0.5127 -0.0609 -0.1759
  807TIP3    H123836   1.454   5.430  10.655  0.1784  1.1380  2.4876
  807TIP3    H223837   1.546   5.342  10.736  1.4912 -0.3968 -0.5242
  808TIP3   OH223838   5.897   1.327   3.077 -0.1554 -0.1531  0.3132
  808TIP3    H123839   5.878   1.257   3.015 -0.2192 -0.9292  1.1772
  808TIP3    H223840   5.914   1.404   3.023 -1.3763 -0.5172 -0.6258
  809TIP3   OH223841   1.509   0.392   6.173  0.4212  0.4121  0.0577
  809TIP3    H123842   1.595   0.405   6.214 -0.1607  2.4159  0.7274
  809TIP3    H223843   1.455   0.356   6.243  0.6097 -0.6043 -0.2948
  810TIP3   OH223844   1.691   2.360   6.403 -0.0306  0.6576 -0.3417
  810TIP3    H123845   1.729   2.400   6.482  1.0939 -2.2894  0.7669
  810TIP3    H223846   1.623   2.421   6.376  1.0109  2.8717  1.6115
  811TIP3   OH223847   3.182   0.912  12.931  0.7491 -0.1573 -0.2508
  811TIP3    H123848   3.206   0.912  12.838 -0.2765  0.9302 -0.5473
  811TIP3    H223849   3.087   0.903  12.930  0.2135  3.5469  0.4532
  812TIP3   OH223850   6.012   2.213   2.382 -0.8857  0.1164 -0.0949
  812TIP3    H123851   5.978   2.266   2.310 -1.9220 -0.7684 -0.2819
  812TIP3    H223852   5.940   2.155   2.406  0.2127 -1.2588  0.0617
  813TIP3   OH223853   3.578   6.149  11.206 -0.1090  0.1786  0.3406
  813TIP3    H123854   3.530   6.101  11.138  1.6745 -2.0638  0.5484
  813TIP3    H223855   3.516   6.215  11.237 -1.2081  0.8988 -2.9883
  814TIP3   OH223856   1.216   2.509   2.622 -0.4113 -0.3374  0.7377
  814TIP3    H123857   1.280   2.484   2.688 -0.3595 -1.7262  0.1900
  814TIP3    H223858   1.230   2.448   2.549 -0.1125  1.4553 -0.7973
  815TIP3   OH223859   4.542   2.233   2.266 -0.0029  0.4926  0.2953
  815TIP3    H123860   4.504   2.146   2.253 -0.7369  0.7992  0.3073
  815TIP3    H223861   4.473   2.293   2.237  0.5652  1.0657  0.1164
  816TIP3   OH223862   2.741   6.766  12.642  0.3895 -0.2590 -0.3823
  816TIP3    H123863   2.827   6.765  12.683  0.0582  0.7692  0.4041
  816TIP3    H223864   2.680   6.777  12.716 -0.2702  0.9690 -1.0698
  817TIP3   OH223865   1.655   6.661  13.270 -0.0162  0.1137 -0.0272
  817TIP3    H123866   1.573   6.663  13.321 -0.1129 -1.2241 -0.0808
  817TIP3    H223867   1.674   6.567  13.261  0.1643  0.3217 -2.1847
  818TIP3   OH223868   1.875   2.718  10.916 -0.4721 -0.0181  0.0249
  818TIP3    H123869   1.953   2.693  10.866 -1.0816  1.2399 -1.6573
  818TIP3    H223870   1.878   2.814  10.916 -0.0930  0.0645  3.1397
  819TIP3   OH223871   6.120   1.076   4.690 -0.6967 -0.1281  0.0921
  819TIP3    H123872   6.131   1.087   4.784 -1.8637 -0.6169  0.3009
  819TIP3    H223873   6.101   0.983   4.679 -2.9645  0.3241 -0.3435
  820TIP3   OH223874   1.020   2.483  16.143 -0.1327 -0.2199  0.1561
  820TIP3    H123875   0.961   2.545  16.186  0.6184 -0.2494  1.2941
  820TIP3    H223876   1.001   2.492  16.050 -0.4947  1.2465  0.3421
  821TIP3   OH223877   2.481   5.097  11.635 -0.1465 -0.6543  0.5092
  821TIP3    H123878   2.552   5.154  11.666  0.3336 -1.8082  1.5947
  821TIP3    H223879   2.518   5.053  11.559 -0.1641 -0.2820  0.2819
  822TIP3   OH223880   3.534   6.058  16.194  0.3407  0.2548  0.5221
  822TIP3    H123881   3.561   6.078  16.284  1.2407  1.3832  0.0336
  822TIP3    H223882   3.614   6.027  16.151  0.1248  0.5661 -0.1148
  823TIP3   OH223883   1.802   1.837  13.885  0.1783  0.2315  0.9304
  823TIP3    H123884   1.848   1.919  13.873  2.2882 -0.8273  1.3888
  823TIP3    H223885   1.731   1.839  13.820  1.4511  1.5195 -0.4772
  824TIP3   OH223886   3.690   1.026  15.669 -0.3984 -0.0470 -0.1682
  824TIP3    H123887   3.725   1.000  15.584 -0.6007  1.3103 -0.6946
  824TIP3    H223888   3.761   1.009  15.731 -0.4776 -1.6701 -0.4814
  825TIP3   OH223889   3.923   6.118   0.219  0.0176  0.6751  0.4082
  825TIP3    H123890   4.012   6.082   0.219 -0.4749 -0.5823  0.3784
  825TIP3    H223891   3.931   6.201   0.266  0.9768 -0.0337  1.5610
  826TIP3   OH223892   5.118   1.673  16.174 -0.1019  0.1044  0.4128
  826TIP3    H123893   5.084   1.604  16.230 -1.2069  0.7394  0.5497
  826TIP3    H223894   5.040   1.714  16.136  0.5906  0.1708 -1.0118
  827TIP3   OH223895   0.173   2.641  16.019 -0.2804 -0.1691  0.1275
  827TIP3    H123896   0.126   2.663  16.100  2.7561  0.6272  1.8394
  827TIP3    H223897   0.253   2.598  16.049  0.5878 -0.5569 -2.5275
  828TIP3   OH223898   0.406   0.919  14.262 -0.2610 -0.0545  0.3343
  828TIP3    H123899   0.373   0.852  14.204  0.9877 -1.1123  0.8008
  828TIP3    H223900   0.341   0.925  14.332 -0.4888 -0.6255  0.1729
  829TIP3   OH223901   1.772   0.315  13.639  0.3014 -0.3909  0.7977
  829TIP3    H123902   1.772   0.223  13.662  1.2664 -0.7137 -0.4045
  829TIP3    H223903   1.744   0.317  13.547 -2.5430  0.7642  1.5836
  830TIP3   OH223904   5.390   0.480  12.000 -0.1386  0.0811  0.1705
  830TIP3    H123905   5.314   0.532  11.974 -0.7317 -0.6116  0.4585
  830TIP3    H223906   5.464   0.539  11.991 -0.2852 -0.0091 -2.8829
  831TIP3   OH223907   3.730   0.736  15.753 -0.0680  0.2501 -0.1101
  831TIP3    H123908   3.672   0.808  15.730 -1.1104 -0.5943 -0.2188
  831TIP3    H223909   3.774   0.713  15.671 -0.7274 -0.0839 -0.3839
  832TIP3   OH223910   6.756   4.281  11.015 -0.3286 -0.6103 -0.0320
  832TIP3    H123911   6.705   4.236  11.083  0.2170 -0.8780  0.2074
  832TIP3    H223912   6.809   4.344  11.064 -0.2126 -0.5411 -0.2477
  833TIP3   OH223913   0.945   3.680  16.198 -0.5318 -0.6034 -0.2314
  833TIP3    H123914   0.878   3.624  16.236 -2.4899  1.0794 -1.0124
  833TIP3    H223915   0.902   3.765  16.187  1.1710  0.0800 -2.3713
  834TIP3   OH223916   0.015   3.061   6.094 -0.5870  0.3429  0.2965
  834TIP3    H123917   0.058   2.975   6.104  0.3700  0.9217  1.3114
  834TIP3    H223918   0.051   3.095   6.012 -0.3614  0.1111  0.2948
  835TIP3   OH223919   3.054   4.597  11.892 -0.4508  0.5660  0.6866
  835TIP3    H123920   3.052   4.531  11.823  0.1513  2.7726 -1.5719
  835TIP3    H223921   2.964   4.630  11.897 -0.0939  1.8004 -0.5357
  836TIP3   OH223922   6.330   5.937  12.525  0.5117 -0.1492  0.3705
  836TIP3    H123923   6.418   5.965  12.552  0.7071 -0.6446  0.2497
  836TIP3    H223924   6.271   5.988  12.581  0.8859 -0.2575  0.8731
  837TIP3   OH223925   0.798   5.529  16.669 -0.2289  0.2179 -0.0172
  837TIP3    H123926   0.705   5.543  16.653 -0.2925 -0.5380 -0.3657
  837TIP3    H223927   0.835   5.510  16.583  0.1658  0.1013  0.1756
  838TIP3   OH223928   4.486   1.015  16.479  0.2403 -0.2579  0.0047
  838TIP3    H123929   4.423   1.018  16.550 -0.7906 -2.3111 -0.7576
  838TIP3    H223930   4.485   0.925  16.448  3.6142 -0.4331 -0.0184
  839TIP3   OH223931   0.285   5.019   0.239 -0.5932  0.6281  0.2059
  839TIP3    H123932   0.379   5.000   0.242 -0.2565  1.7369 -1.4727
  839TIP3    H223933   0.259   5.028   0.331  0.7369 -0.5932  0.7363
  840TIP3   OH223934   5.765   1.006   1.050  0.4798 -0.0653 -0.2262
  840TIP3    H123935   5.832   1.069   1.025  0.4050  0.5436  1.0182
  840TIP3    H223936   5.764   0.942   0.979  2.8589 -0.4668  0.0152
  841TIP3   OH223937   5.408   5.876   1.784 -0.4218 -0.3386 -0.2174
  841TIP3    H123938   5.499   5.889   1.811 -0.9547  0.5165  1.2556
  841TIP3    H223939   5.365   5.959   1.803 -1.3362 -0.4103 -1.7736
  842TIP3   OH223940   5.407   6.610  11.277  0.2011 -0.1465  0.7416
  842TIP3    H123941   5.379   6.691  11.233 -0.8953 -1.8530 -1.9705
  842TIP3    H223942   5.356   6.608  11.358  1.0761  2.3487  1.4611
  843TIP3   OH223943   1.926   6.536   2.227 -0.2676 -0.2978  0.0566
  843TIP3    H123944   1.997   6.500   2.281 -1.3375  0.8030  2.3054
  843TIP3    H223945   1.862   6.466   2.222  0.8573 -1.2713 -1.9224
  844TIP3   OH223946   4.348   0.266   3.624  0.5414  0.1610 -0.4010
  844TIP3    H123947   4.295   0.322   3.567 -0.8938  0.9256  1.5898
  844TIP3    H223948   4.380   0.197   3.566  0.2574  1.6202 -2.3995
  845TIP3   OH223949   4.697   5.940   5.024 -0.0378  0.1439 -0.1101
  845TIP3    H123950   4.626   5.895   5.070 -1.0068 -0.3613 -2.0216
  845TIP3    H223951   4.746   5.870   4.981 -0.7144  0.7380 -1.9504
  846TIP3   OH223952   1.878   2.701   3.888  0.1334  0.1638 -0.0809
  846TIP3    H123953   1.864   2.796   3.888 -1.3772  0.0131 -1.8527
  846TIP3    H223954   1.901   2.681   3.797  0.8705 -1.1266  0.3696
  847TIP3   OH223955   0.539   5.659  17.133 -0.3012 -0.0123 -0.2048
  847TIP3    H123956   0.561   5.569  17.106 -0.3547  0.2848 -1.2383
  847TIP3    H223957   0.446   5.667  17.117 -0.1814  0.4283 -0.6691
  848TIP3   OH223958   6.105   0.124  15.038  0.0238  0.1905  0.9718
  848TIP3    H123959   6.171   0.125  15.107  0.1272  1.0487  0.8709
  848TIP3    H223960   6.027   0.089  15.079  0.6740 -1.3634  0.9591
  849TIP3   OH223961   3.187   6.577   5.305 -0.3237 -0.0919 -0.1625
  849TIP3    H123962   3.278   6.600   5.287 -0.4890  1.5720  0.9357
  849TIP3    H223963   3.190   6.483   5.326  1.0746 -0.1417 -0.4761
  850TIP3   OH223964   2.747   5.704   1.909  0.1883 -0.1177  0.6301
  850TIP3    H123965   2.737   5.663   1.823 -0.7123  0.1895  0.5695
  850TIP3    H223966   2.768   5.631   1.968 -1.9323 -0.8148  0.6248
  851TIP3   OH223967   0.072   1.942   1.840 -0.7103 -0.1409  0.0811
  851TIP3    H123968   0.064   1.960   1.746 -0.9919  0.8355  0.2887
  851TIP3    H223969   0.043   2.022   1.883 -0.0361 -0.3730  1.0014
  852TIP3   OH223970   3.723   1.683   1.339 -0.2328 -0.3334  0.4358
  852TIP3    H123971   3.671   1.603   1.347  0.5252 -0.7831  1.0470
  852TIP3    H223972   3.785   1.664   1.268 -0.7917  0.1459 -0.1935
  853TIP3   OH223973   1.056   6.122   0.683 -0.1000 -0.3033 -0.3668
  853TIP3    H123974   1.142   6.121   0.724  0.1034  1.2000 -0.7155
  853TIP3    H223975   1.035   6.214   0.673 -2.0262 -0.6216  0.2568
  854TIP3   OH223976   5.457   3.915   3.194 -0.1989  0.2499  0.1634
  854TIP3    H123977   5.507   3.838   3.166 -1.3058  0.1271 -1.6004
  854TIP3    H223978   5.368   3.883   3.207 -0.0900  0.6411  2.4633
  855TIP3   OH223979   1.330   5.993  16.071  0.5377  0.0981  0.5586
  855TIP3    H123980   1.284   5.964  15.993  1.4653 -1.2872  0.4812
  855TIP3    H223981   1.261   6.025  16.129 -0.3285 -0.2971 -0.2214
  856TIP3   OH223982   6.593   6.066   3.963 -0.0401 -0.0225 -0.2867
  856TIP3    H123983   6.614   6.158   3.976  2.8298 -0.6050  0.0693
  856TIP3    H223984   6.566   6.060   3.872  0.6866  1.0548 -0.5983
  857TIP3   OH223985   6.742   0.201   5.464  0.1932  0.2986  0.5045
  857TIP3    H123986   6.785   0.270   5.515 -1.4436  0.8657  1.2039
  857TIP3    H223987   6.648   0.223   5.469 -0.0984 -0.1548 -2.0163
  858TIP3   OH223988   4.296   2.758   5.424  0.2137  0.3010 -0.2868
  858TIP3    H123989   4.359   2.778   5.494  0.2352  1.0042 -0.5028
  858TIP3    H223990   4.262   2.843   5.398  1.3745  0.2185 -2.2220
  859TIP3   OH223991   3.906   1.531   2.168  0.2551  0.0831 -0.2955
  859TIP3    H123992   3.925   1.614   2.212  0.0325 -0.2160  0.3646
  859TIP3    H223993   3.869   1.475   2.236  0.9766 -0.7750 -0.5854
  860TIP3   OH223994   3.959   0.504   1.084  0.5310 -0.9480 -0.0339
  860TIP3    H123995   3.953   0.433   1.021 -0.0368  0.9961 -2.2967
  860TIP3    H223996   4.051   0.533   1.079  0.7372 -1.4151  0.8107
  861TIP3   OH223997   2.355   1.357  11.921  0.2145  0.3745  0.1572
  861TIP3    H123998   2.383   1.447  11.940 -0.8762  0.4067  1.7316
  861TIP3    H223999   2.314   1.363  11.835  0.5847  1.2752  0.0232
  862TIP3   OH224000   6.691   1.027  13.785 -0.2990 -0.2962 -0.6005
  862TIP3    H124001   6.694   1.045  13.880  2.1274 -0.1589 -0.6336
  862TIP3    H224002   6.659   1.108  13.747  1.2658  0.6521 -0.0287
  863TIP3   OH224003   0.476   2.621  16.354 -0.3258  0.3243  0.2018
  863TIP3    H124004   0.546   2.567  16.390  0.5365  1.1959 -0.1157
  863TIP3    H224005   0.444   2.571  16.279  1.0183  0.5908 -0.5861
  864TIP3   OH224006   4.093   5.183  17.023 -0.3702  0.5261 -0.2898
  864TIP3    H124007   4.005   5.220  17.014 -0.0847  1.4038  0.3979
  864TIP3    H224008   4.151   5.249  16.984 -0.0135 -0.0510 -0.7475
  865TIP3   OH224009   5.574   3.642   2.390  0.5741 -0.3930 -0.0915
  865TIP3    H124010   5.494   3.694   2.382 -0.7381 -1.8286  2.3800
  865TIP3    H224011   5.561   3.568   2.330 -1.8418 -2.6313  2.8807
  866TIP3   OH224012   2.638   2.152  15.203 -0.2407  0.2748 -0.0154
  866TIP3    H124013   2.700   2.083  15.178 -1.6473  0.0804 -3.5543
  866TIP3    H224014   2.693   2.229  15.216  0.9942 -0.4704 -0.5226
  867TIP3   OH224015   3.235   6.141  13.804  0.0819  0.3850  0.2111
  867TIP3    H124016   3.315   6.194  13.804  0.6335 -0.4218 -0.3610
  867TIP3    H224017   3.247   6.081  13.731  0.0637 -1.4018  1.6290
  868TIP3   OH224018   2.493   0.773  11.760 -0.1272  0.3877  0.6046
  868TIP3    H124019   2.534   0.711  11.700  1.3409  1.8999 -0.0632
  868TIP3    H224020   2.405   0.785  11.726 -0.6570 -1.7405  1.1098
  869TIP3   OH224021   3.470   2.451   4.892  0.2065  0.1611 -0.1945
  869TIP3    H124022   3.559   2.484   4.897  0.2100  0.2331 -0.6473
  869TIP3    H224023   3.415   2.528   4.910  0.2365  0.0570  0.3596
  870TIP3   OH224024   0.674   0.109  16.153  0.2834 -0.0512 -0.0124
  870TIP3    H124025   0.629   0.193  16.151 -1.7823 -1.0442  1.1118
  870TIP3    H224026   0.765   0.130  16.131 -0.5192  2.1830 -1.6094
  871TIP3   OH224027   4.437   4.918   5.966  0.0896 -0.6284 -0.7700
  871TIP3    H124028   4.345   4.927   5.939 -0.5936  0.1428  1.5824
  871TIP3    H224029   4.433   4.877   6.052  1.9526 -0.1759 -0.4198
  872TIP3   OH224030   0.773   0.647   5.516 -0.0986 -0.3262 -0.2497
  872TIP3    H124031   0.718   0.571   5.495 -0.0800 -0.4924  0.2805
  872TIP3    H224032   0.853   0.633   5.466 -1.1970  0.8360 -2.4891
  873TIP3   OH224033   4.873   5.608   1.991 -0.0835 -0.1771  0.4386
  873TIP3    H124034   4.918   5.628   2.074  0.7587 -1.5344  0.3488
  873TIP3    H224035   4.902   5.519   1.970  0.5802  0.5320 -1.8696
  874TIP3   OH224036   0.598   3.237   4.123 -0.0715 -0.4870  0.4768
  874TIP3    H124037   0.678   3.206   4.165  0.2420  1.1252  1.1194
  874TIP3    H224038   0.546   3.274   4.194 -0.3155  0.6662 -0.2744
  875TIP3   OH224039   0.286   6.497  13.289  0.2400  0.0290  0.2954
  875TIP3    H124040   0.218   6.437  13.259 -0.4696  0.2261  1.4267
  875TIP3    H224041   0.345   6.443  13.341 -0.3365  0.2594  1.2193
  876TIP3   OH224042   0.901   1.665   2.589 -0.2569  0.5212  0.1608
  876TIP3    H124043   0.945   1.716   2.657  0.6325  0.1037 -0.0881
  876TIP3    H224044   0.811   1.658   2.619 -0.4846  2.4790  0.0557
  877TIP3   OH224045   1.655   6.254   2.471  0.1402  0.7089  0.3299
  877TIP3    H124046   1.636   6.335   2.517 -0.0408  0.5901  0.4631
  877TIP3    H224047   1.634   6.185   2.533 -0.3075  0.5396  0.0009
  878TIP3   OH224048   6.297   2.676  12.609 -0.3297  0.6002 -0.0949
  878TIP3    H124049   6.261   2.593  12.640 -0.7183  0.5216 -0.7505
  878TIP3    H224050   6.269   2.741  12.674 -0.6876  0.3483  0.0017
  879TIP3   OH224051   2.698   2.435  11.530 -0.0136 -0.3834 -0.4723
  879TIP3    H124052   2.650   2.440  11.612 -0.1526  0.5677 -0.5973
  879TIP3    H224053   2.741   2.520  11.522  1.0939 -0.9493 -0.7285
  880TIP3   OH224054   0.354   4.522  16.000 -0.3432  0.4166  0.3417
  880TIP3    H124055   0.429   4.490  15.951 -0.8321 -0.3461  0.0603
  880TIP3    H224056   0.292   4.550  15.932 -0.5863  0.3800  0.5466
  881TIP3   OH224057   2.207   0.289  14.192 -0.7322  0.0245  0.1948
  881TIP3    H124058   2.214   0.379  14.224 -1.6475 -0.1649  0.9767
  881TIP3    H224059   2.235   0.294  14.101  2.2259  0.5432  1.0006
  882TIP3   OH224060   2.478   3.956   3.191 -0.4169 -0.1411  0.1300
  882TIP3    H124061   2.391   3.964   3.230 -1.1906  1.6125 -1.7855
  882TIP3    H224062   2.530   4.024   3.233 -1.1527  1.5133 -1.5243
  883TIP3   OH224063   5.846   3.293  15.732 -0.0101 -0.0230 -0.2724
  883TIP3    H124064   5.784   3.358  15.763  0.7829 -0.1645  1.7408
  883TIP3    H224065   5.793   3.230  15.683 -1.2371  0.5657  0.2695
  884TIP3   OH224066   6.684   4.883   3.540  0.0507  0.6380 -0.4889
  884TIP3    H124067   6.701   4.977   3.546  1.4438  0.3360  0.9748
  884TIP3    H224068   6.770   4.843   3.550 -0.7401 -0.8423  0.6183
  885TIP3   OH224069   3.541   4.979  13.757 -0.7944 -0.2443 -0.0424
  885TIP3    H124070   3.581   5.063  13.782  1.4179 -1.8287  2.2678
  885TIP3    H224071   3.457   5.003  13.718  0.2253  3.0750 -0.5088
  886TIP3   OH224072   1.476   4.336  13.279  0.0034 -0.2444 -0.0909
  886TIP3    H124073   1.475   4.419  13.231 -0.4833  0.3978  1.0022
  886TIP3    H224074   1.557   4.294  13.253 -0.3091  0.0190 -1.5891
  887TIP3   OH224075   0.365   6.109   0.856  0.2772 -0.3867  0.6326
  887TIP3    H124076   0.346   6.052   0.931 -0.1616  0.4700  1.1934
  887TIP3    H224077   0.407   6.052   0.792  0.9864 -1.0574  1.6733
  888TIP3   OH224078   3.149   6.130   0.433  0.1629  0.1069  0.2442
  888TIP3    H124079   3.216   6.063   0.449  1.4493  0.4348 -3.0182
  888TIP3    H224080   3.068   6.081   0.420  0.1499 -0.4381  2.0681
  889TIP3   OH224081   0.535   2.866   4.335  0.1899 -0.5825  0.5269
  889TIP3    H124082   0.608   2.927   4.340  1.5086 -2.0824  0.3026
  889TIP3    H224083   0.473   2.896   4.401 -0.0373  2.0111 -0.7624
  890TIP3   OH224084   0.693   2.859  11.615  0.1239 -0.2110  0.4533
  890TIP3    H124085   0.723   2.888  11.529 -2.0258  0.3014 -0.1892
  890TIP3    H224086   0.653   2.774  11.600  1.1511 -0.8637  1.2724
  891TIP3   OH224087   2.467   3.333   0.736 -0.1502 -0.1508  0.1272
  891TIP3    H124088   2.503   3.328   0.647 -2.5836 -1.3289 -0.8758
  891TIP3    H224089   2.480   3.424   0.762  1.1334  0.0806 -1.1819
  892TIP3   OH224090   3.366   2.254   0.141 -0.2609  0.2586 -0.2726
  892TIP3    H124091   3.445   2.308   0.129  2.0251 -2.2420  2.0399
  892TIP3    H224092   3.306   2.285   0.074  1.9301  3.6363 -0.9528
  893TIP3   OH224093   2.935   6.446  13.630  0.1077 -0.0263  0.0224
  893TIP3    H124094   2.917   6.486  13.715  1.8079  0.2774  0.2751
  893TIP3    H224095   3.020   6.482  13.605  0.4453 -1.4763 -0.9822
  894TIP3   OH224096   6.461   1.394  14.054  0.7543 -0.2278  0.0490
  894TIP3    H124097   6.462   1.345  14.136  1.0098  1.5408  1.1735
  894TIP3    H224098   6.456   1.486  14.082 -4.1055  0.3946 -1.9001
  895TIP3   OH224099   0.356   5.227   4.076  0.6627  0.3037 -0.5276
  895TIP3    H124100   0.445   5.192   4.072 -0.1101 -1.8636  0.0311
  895TIP3    H224101   0.349   5.283   3.999  2.0671 -0.6003 -1.3560
  896TIP3   OH224102   2.695   1.907  15.920 -0.1557  0.1739  0.5577
  896TIP3    H124103   2.601   1.907  15.933 -0.4714 -1.3899 -1.3363
  896TIP3    H224104   2.707   1.933  15.829  1.3039  1.0169  0.9537
  897TIP3   OH224105   4.695   5.580   3.257  0.4683  0.7140  1.2798
  897TIP3    H124106   4.738   5.576   3.172 -0.0709 -0.6965  1.0492
  897TIP3    H224107   4.752   5.530   3.316  1.1991  2.2583  1.9418
  898TIP3   OH224108   3.842   5.871  12.922 -0.1511 -0.1168  0.0024
  898TIP3    H124109   3.837   5.776  12.908 -0.5019  0.0029 -0.7373
  898TIP3    H224110   3.763   5.892  12.972  0.5444 -0.3852  1.2492
  899TIP3   OH224111   3.050   6.703   5.902 -0.6178 -0.3147  0.1439
  899TIP3    H124112   3.126   6.655   5.935  0.7795  0.5279 -1.6498
  899TIP3    H224113   2.976   6.670   5.953  1.0292 -0.6816  2.4672
  900TIP3   OH224114   0.417   2.756  13.510  0.5332 -0.1269  0.1001
  900TIP3    H124115   0.341   2.803  13.477 -1.0132 -1.4831  1.5729
  900TIP3    H224116   0.469   2.824  13.555  0.4234  0.8763 -1.2223
  901TIP3   OH224117   0.115   0.814   0.984 -0.0214  0.4043  0.3200
  901TIP3    H124118   0.115   0.799   0.889 -0.9045  1.5728  0.1216
  901TIP3    H224119   0.065   0.740   1.019 -1.7462  1.1892 -0.3719
  902TIP3   OH224120   0.454   2.504  12.090  0.1215  0.4200  0.1472
  902TIP3    H124121   0.410   2.538  12.012  0.3360  0.1737 -0.0802
  902TIP3    H224122   0.485   2.583  12.136 -1.6052  0.6789  0.9455
  903TIP3   OH224123   2.086   2.990   1.629  0.4660  0.5045  0.5162
  903TIP3    H124124   2.047   2.944   1.555 -0.4498  2.5276 -0.3009
  903TIP3    H224125   2.033   2.965   1.704  0.8495 -0.8425  0.3709
  904TIP3   OH224126   0.227   2.505  12.423 -0.8042  0.0639  0.4608
  904TIP3    H124127   0.297   2.444  12.401 -0.5317  0.8924 -1.1185
  904TIP3    H224128   0.272   2.588  12.441 -1.2157 -0.0095  1.9032
  905TIP3   OH224129   1.862   0.263  12.176 -0.2944  0.0672 -0.0194
  905TIP3    H124130   1.828   0.351  12.157  0.0494  0.7041  2.0620
  905TIP3    H224131   1.794   0.204  12.144 -1.3839  1.1697  0.1611
  906TIP3   OH224132   0.651   0.463   1.056 -0.2467 -0.4820  0.3291
  906TIP3    H124133   0.658   0.455   0.961 -0.3082  1.6204  0.0942
  906TIP3    H224134   0.559   0.446   1.075 -0.6760  0.9719 -0.2739
  907TIP3   OH224135   0.146   2.516   0.810 -1.0140  0.1092  0.6032
  907TIP3    H124136   0.095   2.503   0.730 -0.7617  1.7241  0.1362
  907TIP3    H224137   0.231   2.477   0.792 -1.3471 -0.6063  0.5488
  908TIP3   OH224138   0.958   3.644  12.643 -0.0886 -0.3759  0.0883
  908TIP3    H124139   1.002   3.641  12.557 -0.2068  0.2666  0.0019
  908TIP3    H224140   0.937   3.736  12.656 -0.5856 -0.5502  0.5559
  909TIP3   OH224141   0.850   2.460  12.473 -0.3428  0.1460  0.7244
  909TIP3    H124142   0.850   2.495  12.562 -2.1717  0.0906  0.7723
  909TIP3    H224143   0.839   2.537  12.417 -0.6407  0.0377  0.6326
  910TIP3   OH224144   6.675   1.583  14.277 -0.4963 -0.3573  0.1589
  910TIP3    H124145   6.595   1.617  14.236 -0.7909 -0.3643  0.7190
  910TIP3    H224146   6.736   1.572  14.204 -0.7925  0.2516 -0.1962
  911TIP3   OH224147   5.403   2.584  14.406 -0.0446  0.3871  0.8756
  911TIP3    H124148   5.367   2.585  14.495 -0.4096 -1.6742  0.8187
  911TIP3    H224149   5.403   2.491  14.382  1.3519  0.7594 -0.7640
  912TIP3   OH224150   6.463   1.133  11.188  0.6886  0.3413 -0.0080
  912TIP3    H124151   6.412   1.078  11.129 -0.7529  0.3215  1.1805
  912TIP3    H224152   6.528   1.176  11.132  1.1332 -1.6800 -1.1486
  913TIP3   OH224153   5.995   5.519  10.368 -0.3153 -0.6967 -0.2806
  913TIP3    H124154   6.059   5.565  10.422  0.3236 -2.8395  0.9183
  913TIP3    H224155   5.946   5.588  10.324  1.5820  1.0466  0.2196
  914TIP3   OH224156   3.288   2.889  15.923  0.0822 -0.0971  0.1460
  914TIP3    H124157   3.227   2.945  15.874 -0.1891 -1.2494 -0.8958
  914TIP3    H224158   3.366   2.885  15.867  0.7999  0.6574  1.0578
  915TIP3   OH224159   2.484   1.975  13.067 -0.3473 -0.3896 -0.5542
  915TIP3    H124160   2.492   1.880  13.070  0.6284 -0.3479 -1.3089
  915TIP3    H224161   2.424   1.993  12.994 -2.2492 -0.4679  0.9095
  916TIP3   OH224162   4.829   1.011   0.500 -0.3420 -0.2482  0.3828
  916TIP3    H124163   4.800   0.959   0.425  0.3314  0.4009 -0.3512
  916TIP3    H224164   4.925   1.011   0.493 -0.2687 -0.2289  1.2812
  917TIP3   OH224165   5.851   2.024   1.110  0.0050 -0.4067  0.1361
  917TIP3    H124166   5.824   2.033   1.019  1.5340  0.0368 -0.3137
  917TIP3    H224167   5.905   2.101   1.127 -1.0362  0.0235  1.7463
  918TIP3   OH224168   6.650   3.872   0.425  0.9670  0.0034  0.4650
  918TIP3    H124169   6.632   3.959   0.459  1.6335  0.2999  0.0867
  918TIP3    H224170   6.569   3.845   0.382  1.3598  1.2634 -1.1420
  919TIP3   OH224171   5.182   3.498   3.350 -0.2848  0.1449 -0.0887
  919TIP3    H124172   5.160   3.429   3.413  1.6277  0.1531  0.6345
  919TIP3    H224173   5.213   3.451   3.273 -1.1519  0.1662 -0.4570
  920TIP3   OH224174   3.081   2.228   4.399 -0.3063  0.6633  0.0046
  920TIP3    H124175   3.099   2.290   4.328 -1.0589  1.1928  0.2598
  920TIP3    H224176   3.137   2.153   4.380 -0.1979  0.9620 -0.9243
  921TIP3   OH224177   5.485   2.829  12.016  0.0792 -0.1901 -0.2140
  921TIP3    H124178   5.416   2.776  12.056  1.6359 -0.5812  2.1831
  921TIP3    H224179   5.544   2.850  12.089  1.8009  1.2147 -1.9085
  922TIP3   OH224180   6.495   2.791   0.123  0.4322 -0.7092  0.3144
  922TIP3    H124181   6.516   2.832   0.039  0.0582 -0.0057  0.5612
  922TIP3    H224182   6.535   2.849   0.188  0.4577 -1.0885  0.6375
  923TIP3   OH224183   0.304   1.596   5.211  0.8782 -0.1348 -0.0453
  923TIP3    H124184   0.365   1.538   5.256  0.3384  0.2804  1.2574
  923TIP3    H224185   0.343   1.609   5.124  2.0117 -0.8376  0.3390
  924TIP3   OH224186   6.776   1.420  12.798 -0.7457  0.3014  0.4671
  924TIP3    H124187   6.687   1.454  12.792 -0.9378 -0.1431  0.7463
  924TIP3    H224188   6.768   1.328  12.775 -0.3655  0.2455  0.5509
  925TIP3   OH224189   0.596   3.127   1.533 -0.0167 -0.1248  0.0936
  925TIP3    H124190   0.642   3.124   1.617  0.9917 -0.9536 -0.4685
  925TIP3    H224191   0.627   3.208   1.492  1.1313 -0.7613 -0.3557
  926TIP3   OH224192   1.782   4.667   3.309 -0.1300  0.1618 -0.7249
  926TIP3    H124193   1.775   4.742   3.251 -3.3773  1.1136  0.6160
  926TIP3    H224194   1.731   4.598   3.266 -1.8982  0.6277  0.4772
  927TIP3   OH224195   1.414   1.044   2.757 -0.3669 -0.0355 -0.4700
  927TIP3    H124196   1.384   0.990   2.684 -0.3195 -1.5752  0.6200
  927TIP3    H224197   1.481   1.100   2.718 -0.2058 -0.9542 -1.5786
  928TIP3   OH224198   1.127   2.594   1.776  0.1880 -0.2862 -0.8378
  928TIP3    H124199   1.217   2.565   1.792  0.1931  0.4389  0.5917
  928TIP3    H224200   1.073   2.525   1.815  0.1715  0.1843  0.0107
  929TIP3   OH224201   3.500   0.455   5.274 -0.4311 -0.2663  1.0312
  929TIP3    H124202   3.559   0.529   5.260  1.2999 -1.8371 -0.4980
  929TIP3    H224203   3.491   0.449   5.369  0.3211  1.1865  1.2200
  930TIP3   OH224204   0.444   4.896  17.123 -0.0414  0.0755 -0.5232
  930TIP3    H124205   0.509   4.840  17.080 -2.0295 -2.3960 -0.5549
  930TIP3    H224206   0.365   4.885  17.071 -0.6306  2.8201 -0.3616
  931TIP3   OH224207   4.684   2.666  10.712 -1.1783  0.0478  0.3915
  931TIP3    H124208   4.756   2.630  10.660 -1.5691 -1.5214  0.8710
  931TIP3    H224209   4.605   2.633  10.669 -1.5854  1.0365  0.3748
  932TIP3   OH224210   6.416   1.348   5.808 -0.2644  0.1635 -0.4007
  932TIP3    H124211   6.421   1.354   5.903  0.3967 -1.6937 -0.2805
  932TIP3    H224212   6.420   1.438   5.778  1.5084  0.6924  1.2380
  933TIP3   OH224213   3.209   1.474   3.014  0.1099 -0.2480  0.3706
  933TIP3    H124214   3.292   1.428   3.017  0.3544  0.1547 -0.0199
  933TIP3    H224215   3.205   1.510   2.925 -0.2951  0.0688  0.5133
  934TIP3   OH224216   4.558   3.837   4.236 -0.1431  0.7296  0.0159
  934TIP3    H124217   4.592   3.904   4.176 -0.8360  0.9484 -0.1401
  934TIP3    H224218   4.471   3.815   4.201  1.4268 -3.0112 -2.1706
  935TIP3   OH224219   2.090   6.446   6.042  0.2969  0.1876 -0.5132
  935TIP3    H124220   2.040   6.503   6.101 -0.5325  1.2965 -2.1944
  935TIP3    H224221   2.156   6.503   6.003  1.2369 -0.6712 -0.2134
  936TIP3   OH224222   6.486   0.990   2.403 -0.3577 -0.2320 -0.0616
  936TIP3    H124223   6.455   1.032   2.484  2.0541  0.1023  0.7660
  936TIP3    H224224   6.488   0.897   2.424 -1.6210 -0.3746 -0.4579
  937TIP3   OH224225   1.725   0.815   6.513  0.4843 -0.1209  0.6359
  937TIP3    H124226   1.727   0.857   6.427 -1.9064 -0.1935  0.4885
  937TIP3    H224227   1.816   0.820   6.543  0.8014  2.9124 -0.4293
  938TIP3   OH224228   3.354   1.233   4.883  0.3604 -0.9446  0.2450
  938TIP3    H124229   3.327   1.175   4.955  0.4210 -2.0824 -0.6115
  938TIP3    H224230   3.274   1.279   4.859  0.2976 -0.6872  0.9126
  939TIP3   OH224231   5.064   1.703   0.474 -0.3204 -0.1242  0.3200
  939TIP3    H124232   5.033   1.723   0.385 -0.7865 -0.8229  0.3135
  939TIP3    H224233   5.116   1.779   0.499 -1.2837  0.6810 -0.0415
  940TIP3   OH224234   2.181   0.488  16.850 -0.3921  0.3449  0.2108
  940TIP3    H124235   2.269   0.454  16.837 -0.0981  0.9147  0.7233
  940TIP3    H224236   2.147   0.439  16.925 -0.2806  0.5840  0.4158
  941TIP3   OH224237   1.536   5.506   0.597  0.1375 -0.0997  0.1896
  941TIP3    H124238   1.626   5.519   0.568  0.7000 -0.9784  1.4209
  941TIP3    H224239   1.494   5.459   0.525  0.4397  0.9250 -0.6875
  942TIP3   OH224240   2.816   6.006   5.521 -0.1132  0.2420 -0.2799
  942TIP3    H124241   2.804   5.929   5.577 -1.5700  1.0555  0.5873
  942TIP3    H224242   2.790   6.080   5.576 -1.2051  1.1104 -1.8862
  943TIP3   OH224243   1.317   2.172  11.554 -0.5702  0.0180 -0.2318
  943TIP3    H124244   1.371   2.102  11.519 -2.3467 -0.7567 -1.5905
  943TIP3    H224245   1.283   2.138  11.636 -0.9235 -0.4657 -0.5759
  944TIP3   OH224246   0.386   0.855   1.095 -0.7773  0.4192  0.0358
  944TIP3    H124247   0.310   0.806   1.063 -0.8806 -0.2638  1.2264
  944TIP3    H224248   0.383   0.938   1.049 -1.4263 -0.1527 -0.9952
  945TIP3   OH224249   1.824   2.803   5.021 -0.7491 -0.5098  0.5695
  945TIP3    H124250   1.862   2.776   5.104 -0.4163  0.4487  0.7371
  945TIP3    H224251   1.890   2.780   4.955  0.2718  1.3049  0.8748
  946TIP3   OH224252   4.823   4.190   0.892 -0.1317 -0.2992 -0.0193
  946TIP3    H124253   4.812   4.279   0.858  1.0429 -0.7428 -1.6766
  946TIP3    H224254   4.890   4.198   0.959 -1.5201  0.3752  1.3437
  947TIP3   OH224255   0.325   3.290   1.750 -0.0635  0.1204  1.0542
  947TIP3    H124256   0.393   3.269   1.814 -0.9946 -0.8889  1.7642
  947TIP3    H224257   0.309   3.207   1.704  0.5092  0.8050 -0.4247
  948TIP3   OH224258   3.458   1.767  11.978 -0.3093  0.4829 -0.4895
  948TIP3    H124259   3.367   1.754  11.950 -0.5565  1.7700 -0.3295
  948TIP3    H224260   3.509   1.712  11.919 -1.2464 -0.8948 -0.0629
  949TIP3   OH224261   5.497   0.175   5.638 -0.0137 -0.4889 -0.6302
  949TIP3    H124262   5.405   0.195   5.654 -0.1474 -0.0696 -1.8018
  949TIP3    H224263   5.510   0.089   5.677  0.2729  1.2256  3.5301
  950TIP3   OH224264   1.917   3.614   1.355  0.5644 -0.1003  0.2214
  950TIP3    H124265   1.953   3.559   1.286  0.8214  0.6839 -0.2754
  950TIP3    H224266   1.961   3.698   1.344  1.7595 -0.3814  2.2704
  951TIP3   OH224267   3.848   5.201  11.611  0.5451  0.6675  0.2574
  951TIP3    H124268   3.824   5.238  11.526  0.6186  1.6791  0.6629
  951TIP3    H224269   3.939   5.174  11.601  0.4750  0.5451 -0.0622
  952TIP3   OH224270   4.036   6.274  15.893  0.0117  0.2960 -0.2597
  952TIP3    H124271   4.023   6.369  15.899 -0.5527  0.1583  1.1773
  952TIP3    H224272   4.130   6.262  15.902 -0.0306  0.6756  0.9265
  953TIP3   OH224273   3.633   2.852  13.081 -0.3786  0.2614  0.0312
  953TIP3    H124274   3.658   2.811  12.998 -0.4612  1.9731 -0.8979
  953TIP3    H224275   3.563   2.913  13.057 -0.1202  1.0886  1.2909
  954TIP3   OH224276   2.021   0.097  14.242 -0.7386  0.4565  0.1594
  954TIP3    H124277   2.089   0.162  14.229 -0.2301 -0.1132 -0.0741
  954TIP3    H224278   1.959   0.139  14.302 -0.8495  1.4577 -0.6314
  955TIP3   OH224279   5.362   1.905   0.234  0.2843  0.5459  0.0334
  955TIP3    H124280   5.434   1.855   0.196  1.4060  2.2158 -0.1113
  955TIP3    H224281   5.386   1.916   0.326  0.0939  0.9260  0.0379
  956TIP3   OH224282   6.747   4.675   3.767 -0.6770 -0.3889 -0.0900
  956TIP3    H124283   6.811   4.728   3.815 -1.6331 -1.5506  2.6718
  956TIP3    H224284   6.680   4.738   3.740 -0.4570  0.2316  0.7565
  957TIP3   OH224285   3.266   4.480  14.337  0.0040 -0.3182  0.0585
  957TIP3    H124286   3.172   4.475  14.350  0.0310 -0.2210  0.2939
  957TIP3    H224287   3.281   4.439  14.252 -0.4460  1.2401 -0.8066
  958TIP3   OH224288   5.424   4.385   1.771 -0.1229 -1.1610  0.2979
  958TIP3    H124289   5.519   4.396   1.772  0.0034 -2.2227  0.3659
  958TIP3    H224290   5.398   4.402   1.862 -0.4559  2.6049 -0.3293
  959TIP3   OH224291   0.009   0.615  14.530 -0.1347 -0.1841  0.4495
  959TIP3    H124292   0.014   0.609  14.435 -0.3984 -3.2974  0.5160
  959TIP3    H224293  -0.074   0.658  14.547  1.7630  4.4698 -0.5887
  960TIP3   OH224294   4.507   2.679   5.659  0.5609  0.2166 -0.2383
  960TIP3    H124295   4.553   2.664   5.577  1.9821 -0.7361  0.6979
  960TIP3    H224296   4.426   2.629   5.650  0.9092 -0.2545 -0.8839
  961TIP3   OH224297   0.822   6.258  17.227 -0.1101  0.4326  0.5752
  961TIP3    H124298   0.828   6.173  17.269 -0.8275  0.0429 -0.0978
  961TIP3    H224299   0.870   6.248  17.145 -0.2125  0.6802  0.4823
  962TIP3   OH224300   1.866   2.480  12.928  0.1847  0.2982 -0.8635
  962TIP3    H124301   1.871   2.390  12.960 -1.2245 -0.0700 -1.6124
  962TIP3    H224302   1.957   2.511  12.930  0.6829 -1.1036 -0.5303
  963TIP3   OH224303   6.511   4.428  12.936 -0.6944  0.6813  0.1829
  963TIP3    H124304   6.526   4.337  12.962 -0.1099  0.2098 -1.6714
  963TIP3    H224305   6.434   4.454  12.986 -1.0172 -0.8958  0.5780
  964TIP3   OH224306   4.997   5.444  13.138  0.5111 -0.0859 -0.3179
  964TIP3    H124307   4.906   5.472  13.139  0.6428  0.3579 -0.4550
  964TIP3    H224308   5.018   5.435  13.045  1.3312  2.2699 -0.4316
  965TIP3   OH224309   1.100   3.872   6.320  0.0535 -0.3130  0.1792
  965TIP3    H124310   1.164   3.909   6.259  0.4034  0.7622  1.1400
  965TIP3    H224311   1.152   3.842   6.394 -0.5580  0.9547  1.1620
  966TIP3   OH224312   2.524   6.655   1.547 -0.0192 -0.0468  0.5860
  966TIP3    H124313   2.545   6.712   1.473 -1.8163 -0.5742 -0.3773
  966TIP3    H224314   2.599   6.595   1.553 -0.0677 -0.3428 -1.1858
  967TIP3   OH224315   1.462   2.985   1.080  0.2037 -0.2029 -0.5126
  967TIP3    H124316   1.367   3.002   1.081  0.2558  0.0772 -0.0786
  967TIP3    H224317   1.470   2.900   1.036 -0.0988  0.6659 -2.3715
  968TIP3   OH224318   5.972   2.724   3.402  0.3888  0.0861 -0.3127
  968TIP3    H124319   5.891   2.738   3.353  0.7817  0.3212 -0.9083
  968TIP3    H224320   6.029   2.796   3.375  1.0784 -0.5225 -0.5052
  969TIP3   OH224321   1.207   4.602   0.265  0.0343 -0.2726  0.0554
  969TIP3    H124322   1.260   4.660   0.319 -0.6105  0.0244  0.3732
  969TIP3    H224323   1.215   4.516   0.306 -1.1378  0.1160  1.1255
  970TIP3   OH224324   0.587   0.978  14.073 -0.7898  0.3051  0.1753
  970TIP3    H124325   0.550   0.954  14.158  0.6366  0.6852  0.9268
  970TIP3    H224326   0.665   1.029  14.094 -1.7952  2.6744 -1.3484
  971TIP3   OH224327   0.084   3.437  15.653 -0.2585 -0.2647 -0.5308
  971TIP3    H124328   0.063   3.530  15.640  1.2099  0.2412  0.4496
  971TIP3    H224329   0.048   3.417  15.739 -1.3436 -0.8833 -1.1011
  972TIP3   OH224330   5.740   3.526  16.831  0.1064  0.3639 -0.3373
  972TIP3    H124331   5.806   3.499  16.896 -0.7380  2.7038  1.6311
  972TIP3    H224332   5.657   3.494  16.867 -0.1723 -0.1825 -1.4164
  973TIP3   OH224333   1.702   3.943   4.948  1.0594  0.0512 -0.3155
  973TIP3    H124334   1.725   3.869   5.004 -2.3420 -0.8423  0.1245
  973TIP3    H224335   1.786   3.981   4.922  2.9334 -3.3564  0.2109
  974TIP3   OH224336   1.503   1.123  12.723 -0.2606  1.0267 -0.2175
  974TIP3    H124337   1.443   1.052  12.743  0.1642 -0.0003 -2.2887
  974TIP3    H224338   1.585   1.098  12.765 -0.4997  0.9999  0.2339
  975TIP3   OH224339   1.402   0.566   5.353  0.6916  0.0279  0.1953
  975TIP3    H124340   1.434   0.603   5.435 -1.6249 -2.8859  2.6450
  975TIP3    H224341   1.307   0.576   5.357  0.4421 -1.1377 -1.6040
  976TIP3   OH224342   6.039   1.397   2.159 -0.5961 -0.3604 -0.6394
  976TIP3    H124343   6.064   1.382   2.250 -2.0701  0.0628 -0.1455
  976TIP3    H224344   6.082   1.479   2.135 -1.5315  0.3848  0.2032
  977TIP3   OH224345   5.545   3.340   5.824  0.1473  0.2229 -0.1770
  977TIP3    H124346   5.470   3.376   5.779 -0.0750 -0.7314 -0.6033
  977TIP3    H224347   5.512   3.314   5.910  0.1876  0.5655 -0.0584
  978TIP3   OH224348   6.452   4.541  15.129 -0.2286 -0.0671 -0.0931
  978TIP3    H124349   6.426   4.502  15.213 -1.3579  2.2960  0.7328
  978TIP3    H224350   6.523   4.601  15.151  1.5495 -1.6089 -1.3518
  979TIP3   OH224351   1.777   5.171  15.763  0.7674  0.4746 -0.4525
  979TIP3    H124352   1.826   5.163  15.681 -0.3633 -0.1474 -1.0981
  979TIP3    H224353   1.844   5.177  15.831  1.7425  1.4167 -1.4497
  980TIP3   OH224354   4.393   1.179  15.493  0.4682  0.7134 -0.1749
  980TIP3    H124355   4.421   1.161  15.403  0.8844  0.9463 -0.0967
  980TIP3    H224356   4.383   1.274  15.496 -2.0877  0.5154 -0.6926
  981TIP3   OH224357   2.430   5.810  15.942  0.0244 -0.1688 -0.7064
  981TIP3    H124358   2.508   5.829  15.890  0.2851 -0.6144 -0.4905
  981TIP3    H224359   2.427   5.881  16.007 -0.4264  0.5056 -1.4545
  982TIP3   OH224360   5.915   0.052  10.864  0.5021  0.0241 -0.3024
  982TIP3    H124361   5.977  -0.006  10.820  1.1372  0.3654  0.1344
  982TIP3    H224362   5.931   0.040  10.957  0.6892  0.9400 -0.2014
  983TIP3   OH224363   2.212   0.233   2.514 -0.4126  0.1999 -0.2901
  983TIP3    H124364   2.207   0.144   2.479  2.1864 -0.6941  1.3652
  983TIP3    H224365   2.152   0.232   2.588  1.2686 -0.9731  1.1332
  984TIP3   OH224366   6.351   2.765   0.530  0.4974 -0.8429 -0.7002
  984TIP3    H124367   6.365   2.841   0.474  2.0662 -0.3303  0.2820
  984TIP3    H224368   6.419   2.703   0.503 -0.7912 -1.9419 -1.5130
  985TIP3   OH224369   4.827   6.406   5.213  0.0669 -0.1590  0.7686
  985TIP3    H124370   4.782   6.329   5.247  1.8214 -0.9401  1.4704
  985TIP3    H224371   4.901   6.371   5.163  0.5107  1.0535  0.5324
  986TIP3   OH224372   3.341   5.127  14.122  0.1727 -0.2182 -0.2096
  986TIP3    H124373   3.422   5.167  14.090  0.1478 -0.1213 -0.1525
  986TIP3    H224374   3.289   5.200  14.155  0.7177 -0.4372  1.1893
  987TIP3   OH224375   3.552   4.135   3.067  0.1524 -0.1584  0.0613
  987TIP3    H124376   3.544   4.218   3.020 -0.2663 -0.2243  0.0102
  987TIP3    H224377   3.478   4.135   3.128  0.5904 -0.1534  0.5926
  988TIP3   OH224378   1.949   2.722   6.178  0.2165 -0.5107 -0.1841
  988TIP3    H124379   1.937   2.767   6.262 -0.4109 -0.2527 -0.4040
  988TIP3    H224380   2.040   2.692   6.180  0.8952  1.3811 -0.3239
  989TIP3   OH224381   1.525   0.010  15.963  0.3198  0.1825  0.2320
  989TIP3    H124382   1.513  -0.028  15.876  1.8991 -0.7898  0.3971
  989TIP3    H224383   1.503  -0.062  16.023  2.8945 -0.4355  0.5545
  990TIP3   OH224384   2.709   0.293  12.826 -0.2385 -0.3513  0.4100
  990TIP3    H124385   2.788   0.317  12.778  0.4668 -2.4743  0.4287
  990TIP3    H224386   2.719   0.333  12.912  0.3809  0.1402  0.1145
  991TIP3   OH224387   3.893   5.929   3.358 -0.0747 -0.9559 -0.9783
  991TIP3    H124388   3.979   5.963   3.381 -0.9335  0.0261  0.9861
  991TIP3    H224389   3.906   5.835   3.347  0.8388 -1.2281  1.7518
  992TIP3   OH224390   4.670   4.284  13.733 -0.2178 -0.2376 -0.0072
  992TIP3    H124391   4.685   4.344  13.659 -2.6688 -0.2842 -0.6217
  992TIP3    H224392   4.656   4.199  13.691 -0.7159 -0.4452  0.5796
  993TIP3   OH224393   2.439   1.734   3.466  0.0002  0.0934  0.7544
  993TIP3    H124394   2.471   1.652   3.429 -0.9445 -0.7962  1.8679
  993TIP3    H224395   2.481   1.802   3.412  1.6184 -1.0703  0.4588
  994TIP3   OH224396   5.294   1.993  11.578  0.4715 -0.0979  0.0922
  994TIP3    H124397   5.389   1.995  11.589  0.2607  1.1649  2.3739
  994TIP3    H224398   5.272   2.079  11.541  0.0749  0.5426  1.7207
  995TIP3   OH224399   4.637   2.156  13.769 -0.2057 -0.0692 -0.4865
  995TIP3    H124400   4.598   2.073  13.797  0.3808 -0.8487 -1.8662
  995TIP3    H224401   4.587   2.223  13.816 -1.4548 -1.1498 -0.2035
  996TIP3   OH224402   6.596   6.101  11.000  0.0157 -0.4007 -0.7569
  996TIP3    H124403   6.507   6.066  11.010 -0.1486 -0.0786 -1.0622
  996TIP3    H224404   6.593   6.186  11.044 -0.1385  0.0981 -1.6847
  997TIP3   OH224405   5.115   2.941  13.568 -0.1959 -0.0426 -0.1185
  997TIP3    H124406   5.133   2.847  13.570  0.0579  0.0147  0.9028
  997TIP3    H224407   5.078   2.960  13.654 -3.7677  0.1401 -1.5136
  998TIP3   OH224408   2.571   6.314   1.592 -0.2160  0.9082 -0.6253
  998TIP3    H124409   2.525   6.367   1.657 -1.0072 -0.5498  0.0650
  998TIP3    H224410   2.513   6.238   1.578  0.9471  0.1305 -1.4283
  999TIP3   OH224411   0.785   3.731  14.892  0.3949 -0.1141 -0.5701
  999TIP3    H124412   0.797   3.662  14.827 -0.4925 -0.8529  0.0025
  999TIP3    H224413   0.858   3.720  14.953 -0.3844 -1.3824  0.1960
 1000TIP3   OH224414   4.400   3.399  13.058  0.2642 -0.7415 -0.7781
 1000TIP3    H124415   4.445   3.484  13.053 -1.6970  0.2872 -2.1574
 1000TIP3    H224416   4.410   3.373  13.150 -0.9592  2.1032  0.2671
 1001TIP3   OH224417   5.372   2.459   1.102 -0.1346  0.5648  0.3727
 1001TIP3    H124418   5.464   2.466   1.129  0.5548  2.8152 -2.1303
 1001TIP3    H224419   5.347   2.370   1.126  3.0017 -0.4602  0.3184
 1002TIP3   OH224420   4.785   2.214   2.373 -0.3807 -0.1359  0.6712
 1002TIP3    H124421   4.851   2.174   2.316 -2.9057 -2.6873 -0.7586
 1002TIP3    H224422   4.713   2.235   2.314 -1.5175  0.9992  2.3900
 1003TIP3   OH224423   6.444   2.448  10.788  0.0751 -0.1623 -0.2561
 1003TIP3    H124424   6.387   2.394  10.733  0.7026 -2.5053  1.2410
 1003TIP3    H224425   6.449   2.532  10.742 -2.8142 -0.5586 -1.5410
 1004TIP3   OH224426   0.793   1.770   5.620 -0.3171  0.0674  0.3504
 1004TIP3    H124427   0.800   1.854   5.573 -1.0070  0.1934  0.4567
 1004TIP3    H224428   0.810   1.792   5.711  2.4839 -0.4140  0.0320
 1005TIP3   OH224429   1.379   4.381  13.843 -0.4060  0.1487  0.1689
 1005TIP3    H124430   1.370   4.476  13.837 -0.2672  0.3295  1.9990
 1005TIP3    H224431   1.318   4.355  13.912  0.1557 -0.9704  0.2757
 1006TIP3   OH224432   4.189   0.562  13.830  0.1398 -0.2516  0.1801
 1006TIP3    H124433   4.163   0.507  13.903  0.3532 -0.3006  0.2198
 1006TIP3    H224434   4.138   0.530  13.756  0.4833 -0.6997  0.1356
 1007TIP3   OH224435   3.625   1.737   3.233 -0.0827 -0.0663  0.0124
 1007TIP3    H124436   3.618   1.711   3.141  0.2735 -2.1032  0.5050
 1007TIP3    H224437   3.707   1.787   3.238  0.1914 -0.4380 -0.6764
 1008TIP3   OH224438   6.665   6.767  16.554 -0.0182  0.4140 -0.8343
 1008TIP3    H124439   6.576   6.734  16.562  0.3604 -0.5721 -0.4849
 1008TIP3    H224440   6.663   6.824  16.477 -1.2626  1.5350 -0.0047
 1009TIP3   OH224441   0.481   0.165  12.109 -0.2008  0.1307  0.2675
 1009TIP3    H124442   0.562   0.216  12.102 -0.0717 -0.0796  0.2235
 1009TIP3    H224443   0.465   0.159  12.204 -0.2716  0.3374  0.2706
 1010TIP3   OH224444   2.057   4.997  15.299 -0.3201  0.3199 -0.5506
 1010TIP3    H124445   2.147   5.028  15.287  0.6756 -1.5998  1.1678
 1010TIP3    H224446   2.056   4.910  15.259 -1.1170 -0.0761  0.2833
 1011TIP3   OH224447   3.714   5.647   1.449 -0.1733  0.0547 -0.2021
 1011TIP3    H124448   3.648   5.584   1.422 -0.7102  0.6948 -0.4162
 1011TIP3    H224449   3.778   5.646   1.378 -2.3906  2.9221 -2.4859
 1012TIP3   OH224450   5.708   1.996  15.663  0.0490 -0.1156  0.6116
 1012TIP3    H124451   5.716   1.901  15.666 -0.7233 -0.1695  1.6841
 1012TIP3    H224452   5.783   2.029  15.712  0.5697 -0.1490 -0.1545
 1013TIP3   OH224453   2.172   3.659  16.607 -0.2111  0.2654  0.0933
 1013TIP3    H124454   2.122   3.681  16.528  0.2751  0.0934 -0.2634
 1013TIP3    H224455   2.175   3.564  16.608  1.3542  0.2744 -0.6914
 1014TIP3   OH224456   0.162   1.670   5.456 -0.4304  0.4023 -0.4455
 1014TIP3    H124457   0.113   1.592   5.481 -0.5809  0.5898 -0.1485
 1014TIP3    H224458   0.209   1.645   5.377  0.4410 -0.3464  0.2907
 1015TIP3   OH224459   0.208   6.011   5.600 -0.0607  0.2788  0.2580
 1015TIP3    H124460   0.201   6.020   5.696  0.2414  1.8481  0.1655
 1015TIP3    H224461   0.294   6.048   5.579 -0.5774  0.9652 -0.7257
 1016TIP3   OH224462   3.752   2.655   5.343 -0.5511  0.0458 -0.4092
 1016TIP3    H124463   3.697   2.602   5.401  0.4408 -0.1156  0.4186
 1016TIP3    H224464   3.793   2.592   5.284  0.9045 -0.2072  0.8039
 1017TIP3   OH224465   2.545   3.630  11.159 -0.6379 -0.5583 -0.5701
 1017TIP3    H124466   2.546   3.640  11.254 -0.2813 -1.1835 -0.5024
 1017TIP3    H224467   2.458   3.597  11.140 -0.5210 -0.9693 -0.3997
 1018TIP3   OH224468   5.494   5.436  16.963 -0.2192  0.4412 -0.0772
 1018TIP3    H124469   5.445   5.517  16.947 -1.3523 -0.0528  0.8771
 1018TIP3    H224470   5.487   5.421  17.057 -0.6574 -1.1796 -0.3500
 1019TIP3   OH224471   0.667   2.462   1.196 -0.0124 -0.1196  0.1294
 1019TIP3    H124472   0.742   2.424   1.240 -0.4814 -0.0951  0.9707
 1019TIP3    H224473   0.608   2.489   1.267 -0.8840 -0.2818 -0.5103
 1020TIP3   OH224474   2.097   2.290   3.215 -0.0218  0.1686  0.3397
 1020TIP3    H124475   2.077   2.345   3.139  0.5801  1.3492  1.0150
 1020TIP3    H224476   2.189   2.308   3.233 -0.3826  0.5477  1.8719
 1021TIP3   OH224477   5.919   2.317  14.142 -1.0061 -0.4780  0.4287
 1021TIP3    H124478   5.825   2.302  14.130 -1.1419  0.5031  0.1678
 1021TIP3    H224479   5.960   2.260  14.077 -1.4218 -0.9122  0.5410
 1022TIP3   OH224480   6.287   0.965   3.501 -0.0119 -0.3304  0.4801
 1022TIP3    H124481   6.239   0.929   3.575 -1.5724  0.0655 -0.2898
 1022TIP3    H224482   6.237   0.938   3.424  1.8336 -1.1701 -0.5166
 1023TIP3   OH224483   6.412   3.393   4.418 -0.0125 -0.3421  0.2725
 1023TIP3    H124484   6.317   3.389   4.414  0.0026 -0.1252 -0.8130
 1023TIP3    H224485   6.430   3.475   4.463 -0.3125 -1.4408  2.4959
 1024TIP3   OH224486   5.516   4.118  14.954 -0.4908  0.5743  0.7058
 1024TIP3    H124487   5.567   4.085  14.880 -1.2698  0.8278  0.0402
 1024TIP3    H224488   5.458   4.045  14.978 -0.1297  0.4379  1.1746
 1025TIP3   OH224489   0.231   3.330  15.930  0.2031  0.0306 -0.3758
 1025TIP3    H124490   0.267   3.303  16.014 -0.8869 -1.0916 -0.2378
 1025TIP3    H224491   0.210   3.422  15.941 -2.0633 -0.6253  1.3963
 1026TIP3   OH224492   1.973   0.330   3.748 -0.2107 -0.3190 -0.6660
 1026TIP3    H124493   2.006   0.395   3.686  1.0457 -0.4654 -0.1796
 1026TIP3    H224494   2.051   0.288   3.784 -0.9762 -1.9452 -0.7864
 1027TIP3   OH224495   3.347   6.458   4.452 -0.3210  0.2931 -0.4326
 1027TIP3    H124496   3.252   6.468   4.460 -0.6179 -0.2527 -2.7800
 1027TIP3    H224497   3.359   6.376   4.404  1.2562  1.3710 -1.9776
 1028TIP3   OH224498   5.229   0.552   2.932 -0.1364  0.0859  0.2428
 1028TIP3    H124499   5.249   0.626   2.875  0.2145 -0.4280 -0.3174
 1028TIP3    H224500   5.184   0.591   3.007  0.9266  0.9983  0.4355
 1029TIP3   OH224501   2.581   3.511  16.675  0.3090 -0.0381 -0.6319
 1029TIP3    H124502   2.503   3.473  16.716  0.3023 -0.7148 -1.2450
 1029TIP3    H224503   2.548   3.586  16.625 -0.1464 -1.0427 -1.8768
 1030TIP3   OH224504   4.227   1.788  14.410  0.1308 -0.0119  0.2471
 1030TIP3    H124505   4.176   1.811  14.488  0.6286 -1.8116  1.1579
 1030TIP3    H224506   4.203   1.698  14.391  0.4748  0.1991 -1.3590
 1031TIP3   OH224507   5.654   5.681   5.367 -0.3063 -0.0773 -0.5852
 1031TIP3    H124508   5.680   5.681   5.459  1.0778 -0.9096 -0.9582
 1031TIP3    H224509   5.645   5.774   5.344 -3.0033  0.1629  0.9768
 1032TIP3   OH224510   1.416   2.830   3.195  0.4890 -0.3483 -0.2588
 1032TIP3    H124511   1.338   2.885   3.211  1.5818  1.1317  0.2006
 1032TIP3    H224512   1.488   2.878   3.236  1.5808 -1.9376 -0.2400
 1033TIP3   OH224513   1.867   3.106  14.747 -0.2757 -0.1732 -0.1673
 1033TIP3    H124514   1.777   3.126  14.721 -1.1158 -1.1533  1.7624
 1033TIP3    H224515   1.872   3.136  14.838  0.7613 -1.7676  0.3343
 1034TIP3   OH224516   2.092   5.768   4.500  0.2735  0.0376 -0.9665
 1034TIP3    H124517   2.098   5.806   4.587 -2.0874  1.3453 -1.3031
 1034TIP3    H224518   2.154   5.819   4.447  2.0169 -1.0215 -0.0539
 1035TIP3   OH224519   5.559   5.913   5.583 -0.2747 -0.2740  0.0939
 1035TIP3    H124520   5.506   5.856   5.640 -0.1864 -1.0460 -0.5654
 1035TIP3    H224521   5.632   5.940   5.637  0.0216 -1.3229  0.2463
 1036TIP3   OH224522   1.779   2.382   5.312 -0.0144 -0.5132 -0.0193
 1036TIP3    H124523   1.686   2.372   5.290 -0.1639  0.1421  0.2941
 1036TIP3    H224524   1.815   2.433   5.239  0.0871 -0.7178 -0.1122
 1037TIP3   OH224525   1.471   0.991  17.068  0.7696  0.2458  0.1464
 1037TIP3    H124526   1.539   0.930  17.039  1.2720  0.5852  0.5884
 1037TIP3    H224527   1.390   0.942  17.058  1.0437 -0.0407 -0.7170
 1038TIP3   OH224528   0.162   4.164   3.163 -0.6034  0.2419  0.2228
 1038TIP3    H124529   0.211   4.126   3.090  0.9557  0.0555  1.3285
 1038TIP3    H224530   0.196   4.253   3.171 -0.1396 -0.0156  1.2439
 1039TIP3   OH224531   5.578   6.136   0.961  0.0426 -0.1854 -0.6964
 1039TIP3    H124532   5.615   6.149   1.048 -0.3148  0.5916 -0.6528
 1039TIP3    H224533   5.649   6.095   0.911  1.5844  2.6248 -1.0447
 1040TIP3   OH224534   5.657   4.242  16.362  0.0702 -0.7762  0.0351
 1040TIP3    H124535   5.632   4.177  16.296  1.6242  0.1159 -1.5003
 1040TIP3    H224536   5.701   4.190  16.430 -1.3042 -1.6696  0.2864
 1041TIP3   OH224537   5.925   4.040   1.293 -0.2680 -0.0322 -0.0084
 1041TIP3    H124538   5.831   4.023   1.288 -0.3354  0.2498  0.2809
 1041TIP3    H224539   5.949   4.070   1.205 -1.1928  3.6720  0.8332
 1042TIP3   OH224540   3.856   3.989  12.337  0.3618 -0.0341 -0.5108
 1042TIP3    H124541   3.839   4.029  12.423  1.5897  0.1763 -0.3409
 1042TIP3    H224542   3.930   3.930  12.353  0.6629  0.0817 -1.4438
 1043TIP3   OH224543   4.929   3.886  13.206 -0.7315 -0.0703  0.3742
 1043TIP3    H124544   4.955   3.836  13.283  2.7938  0.2235 -0.4436
 1043TIP3    H224545   4.856   3.836  13.168  0.3125 -2.6287  1.5405
 1044TIP3   OH224546   2.304   6.688   4.094  0.4870 -0.4667  0.0532
 1044TIP3    H124547   2.232   6.748   4.074 -0.9830 -0.5080  4.3599
 1044TIP3    H224548   2.381   6.745   4.097 -0.4750  0.8324  1.6445
 1045TIP3   OH224549   4.897   4.826  13.205  0.2181  0.1423  0.4574
 1045TIP3    H124550   4.937   4.896  13.155 -0.2670 -0.3064 -0.5922
 1045TIP3    H224551   4.806   4.824  13.175  0.2374 -0.9576  0.4318
 1046TIP3   OH224552   5.709   1.173  12.778 -0.0126  0.1607  0.9704
 1046TIP3    H124553   5.760   1.103  12.736 -1.9796 -1.1331  0.5893
 1046TIP3    H224554   5.698   1.239  12.710  1.1700  0.5040  1.0853
 1047TIP3   OH224555   5.563   1.603  16.151  0.1198  0.1796  0.7131
 1047TIP3    H124556   5.583   1.519  16.110 -0.8937  0.1105  0.3222
 1047TIP3    H224557   5.509   1.580  16.227 -2.4265  0.5551 -0.8377
 1048TIP3   OH224558   2.535   5.900  11.824  0.2422 -0.2073 -0.3733
 1048TIP3    H124559   2.616   5.938  11.791 -0.1261  0.0801 -0.9693
 1048TIP3    H224560   2.561   5.815  11.858  0.9677  0.3025  0.3908
 1049TIP3   OH224561   5.460   1.544   4.615 -0.5431 -0.2119  0.0737
 1049TIP3    H124562   5.541   1.558   4.567 -0.6469  1.0476  0.2089
 1049TIP3    H224563   5.400   1.505   4.552 -0.0230 -0.5914 -0.1934
 1050TIP3   OH224564   4.577   0.200  16.504  0.3859 -0.9863  0.6199
 1050TIP3    H124565   4.613   0.214  16.592 -1.7528  0.3343  1.3572
 1050TIP3    H224566   4.482   0.201  16.517  0.0079 -0.2347 -1.8041
 1051TIP3   OH224567   5.013   3.976  12.796  0.0711  0.2498 -0.2252
 1051TIP3    H124568   4.989   3.951  12.707 -1.5602 -1.3703  0.5906
 1051TIP3    H224569   4.961   4.054  12.814 -1.2775 -0.6747  0.0118
 1052TIP3   OH224570   3.060   5.867   1.498 -0.1847 -0.6694 -0.4991
 1052TIP3    H124571   3.014   5.918   1.431 -1.2581 -0.7127  0.1651
 1052TIP3    H224572   3.143   5.843   1.458 -0.1394  0.6294 -1.2399
 1053TIP3   OH224573   3.818   6.582  12.059  0.1713 -0.2697 -0.6183
 1053TIP3    H124574   3.746   6.585  12.121 -0.9247  0.0613 -1.8633
 1053TIP3    H224575   3.823   6.490  12.032  0.3005 -0.3112 -0.4594
 1054TIP3   OH224576   0.672   4.289  16.759 -0.0466  0.1340  0.5483
 1054TIP3    H124577   0.750   4.265  16.809 -0.0857 -0.1422  0.4740
 1054TIP3    H224578   0.691   4.259  16.670  1.5092  3.5715 -0.4732
 1055TIP3   OH224579   6.248   0.129   3.762  0.0170 -0.5351  0.7759
 1055TIP3    H124580   6.313   0.059   3.759 -1.3884 -1.9079  1.3977
 1055TIP3    H224581   6.234   0.146   3.855  1.3985  1.6439  0.6566
 1056TIP3   OH224582   0.072   4.269  13.292 -0.3419  0.0439 -0.1370
 1056TIP3    H124583   0.156   4.251  13.332  0.0295 -0.9178 -1.2792
 1056TIP3    H224584   0.014   4.293  13.365  0.0773 -2.4104  1.0962
 1057TIP3   OH224585   4.393   0.156  11.718 -0.1406 -0.2609  0.0704
 1057TIP3    H124586   4.381   0.249  11.736 -1.7380 -0.2717 -0.7284
 1057TIP3    H224587   4.487   0.142  11.721  0.0395  1.0687  1.6900
 1058TIP3   OH224588   4.827   4.485  15.989 -0.0681 -0.0595  0.1941
 1058TIP3    H124589   4.816   4.430  15.912  0.3009  0.7266 -0.4398
 1058TIP3    H224590   4.827   4.424  16.062 -0.2423 -0.8411 -0.4417
 1059TIP3   OH224591   0.771   2.511  14.224 -0.1027  0.4486 -0.0786
 1059TIP3    H124592   0.747   2.604  14.227 -0.4141  0.3798 -0.3545
 1059TIP3    H224593   0.859   2.511  14.184 -0.1427  0.6184 -0.1705
 1060TIP3   OH224594   5.332   6.506   1.142  0.1587 -0.0273 -0.3620
 1060TIP3    H124595   5.367   6.594   1.134  1.5440 -0.5493 -0.2715
 1060TIP3    H224596   5.283   6.506   1.224 -0.7888  0.9497 -0.9091
 1061TIP3   OH224597   5.844   3.360   2.624  0.1609 -0.7408 -0.0184
 1061TIP3    H124598   5.755   3.324   2.615 -0.2604 -0.0937  1.2776
 1061TIP3    H224599   5.901   3.286   2.604 -0.6745 -1.2956 -0.4287
 1062TIP3   OH224600   2.434   4.996   0.083  0.6237 -0.1353 -0.4037
 1062TIP3    H124601   2.450   4.903   0.100  2.5948  0.2466  0.1201
 1062TIP3    H224602   2.407   4.999  -0.009  0.8630 -1.2086 -0.5278
 1063TIP3   OH224603   2.961   2.004  11.116  0.5819  0.3365 -0.3923
 1063TIP3    H124604   3.009   1.957  11.184 -0.2541 -0.8118 -0.5871
 1063TIP3    H224605   2.871   2.007  11.147  0.7834  2.9002  0.1896
 1064TIP3   OH224606   2.478   1.420   3.054  1.0388 -0.0096 -0.9863
 1064TIP3    H124607   2.437   1.372   3.125  2.0872  0.4168 -0.0677
 1064TIP3    H224608   2.407   1.438   2.993  0.3730 -1.5089 -0.6898
 1065TIP3   OH224609   2.800   2.490   0.169 -0.1723 -0.5811 -0.8495
 1065TIP3    H124610   2.787   2.560   0.234  1.9536 -1.0911  0.2018
 1065TIP3    H224611   2.799   2.536   0.085  1.0214  0.7448 -0.1963
 1066TIP3   OH224612   1.532   6.078  12.243 -0.1164  0.5554 -0.2009
 1066TIP3    H124613   1.551   6.045  12.331 -0.3637  1.5192  0.2273
 1066TIP3    H224614   1.570   6.012  12.184 -0.2797 -0.2939  0.6163
 1067TIP3   OH224615   4.786   2.351  11.852 -0.4389 -0.3304 -0.3038
 1067TIP3    H124616   4.860   2.300  11.820 -0.0498  0.8820 -1.4410
 1067TIP3    H224617   4.798   2.354  11.947 -0.0829 -1.7018 -0.2752
 1068TIP3   OH224618   6.718   6.340  12.460  0.0825  0.2864 -0.1903
 1068TIP3    H124619   6.692   6.423  12.501 -0.4495  1.9355 -3.5050
 1068TIP3    H224620   6.813   6.340  12.466  0.0776  1.0208  0.0677
 1069TIP3   OH224621   2.039   2.472   1.289  0.2263  0.2770 -0.4061
 1069TIP3    H124622   2.025   2.548   1.346 -0.0884  0.9077 -1.2974
 1069TIP3    H224623   1.951   2.448   1.259  0.3937  0.0078 -0.6836
 1070TIP3   OH224624   1.107   0.152   0.303  0.1480 -0.1173  0.1980
 1070TIP3    H124625   1.014   0.135   0.315  0.0039  0.5793  0.1348
 1070TIP3    H224626   1.136   0.087   0.239 -0.5227  0.2955 -0.5400
 1071TIP3   OH224627   1.773   2.158   0.205 -0.0225  0.4247  0.1565
 1071TIP3    H124628   1.837   2.113   0.149  0.5479  1.9877 -0.5141
 1071TIP3    H224629   1.806   2.145   0.294 -1.0759 -2.2986  0.2288
 1072TIP3   OH224630   1.229   0.544   1.686  0.4367 -0.2002  0.1857
 1072TIP3    H124631   1.211   0.454   1.713  1.6916 -0.2414  1.0016
 1072TIP3    H224632   1.189   0.552   1.600 -0.2105 -1.3479  0.3583
 1073TIP3   OH224633   5.968   1.137  12.138  0.0720 -0.5929 -0.4514
 1073TIP3    H124634   5.998   1.201  12.203 -1.2057  0.2777 -0.6745
 1073TIP3    H224635   5.952   1.057  12.188 -0.9634  0.0870  0.3608
 1074TIP3   OH224636   2.512   4.447   3.466  0.5076 -0.3927 -0.1571
 1074TIP3    H124637   2.468   4.527   3.496  2.1717 -0.0025  1.3733
 1074TIP3    H224638   2.470   4.428   3.382 -0.5365  1.5987 -0.1577
 1075TIP3   OH224639   5.339   4.642  10.309 -0.4714  0.1695  0.6040
 1075TIP3    H124640   5.340   4.720  10.365  0.6982  0.0065  0.8520
 1075TIP3    H224641   5.254   4.602  10.325 -0.8183  1.0378  0.9861
 1076TIP3   OH224642   5.950   5.500   1.542  0.1563 -0.1013 -0.0718
 1076TIP3    H124643   5.971   5.581   1.496  0.7628  0.4522  1.1343
 1076TIP3    H224644   5.856   5.488   1.528  0.2676  0.1984 -1.1877
 1077TIP3   OH224645   3.969   6.608  16.378  0.1264  0.2007 -0.1288
 1077TIP3    H124646   4.005   6.579  16.295  1.8353  0.3555  0.5232
 1077TIP3    H224647   4.034   6.668  16.414 -0.6461  0.2686  1.2489
 1078TIP3   OH224648   0.828   5.873  15.328 -0.0723  0.1082 -0.4472
 1078TIP3    H124649   0.760   5.806  15.324  2.9638 -3.3081  0.3723
 1078TIP3    H224650   0.839   5.890  15.422  0.9726 -0.2607 -0.4923
 1079TIP3   OH224651   2.775   1.865   3.656  0.1168 -0.9084  0.4519
 1079TIP3    H124652   2.847   1.833   3.602 -0.0090 -0.6185  0.1109
 1079TIP3    H224653   2.818   1.909   3.730  0.5887  4.3243 -2.4328
 1080TIP3   OH224654   0.621   0.230   2.432  0.1868  1.0483 -0.4125
 1080TIP3    H124655   0.528   0.254   2.434  0.4164  1.9576  1.1303
 1080TIP3    H224656   0.650   0.240   2.522  1.1135 -2.1929 -0.2319
 1081TIP3   OH224657   5.334   6.543  14.302  0.0139 -0.4187 -0.3762
 1081TIP3    H124658   5.368   6.623  14.341 -0.4132 -0.3372 -0.1642
 1081TIP3    H224659   5.408   6.482  14.303 -0.0091 -0.4517  0.6547
 1082TIP3   OH224660   2.799   4.505  11.806  0.1846  0.8531 -0.0231
 1082TIP3    H124661   2.803   4.480  11.714  1.2096 -0.5779  0.3657
 1082TIP3    H224662   2.713   4.475  11.836 -0.0280  1.0454 -0.4312
 1083TIP3   OH224663   2.304   5.126  15.355  0.5886 -0.4708  0.4198
 1083TIP3    H124664   2.336   5.064  15.421  0.6350 -0.4425  0.4239
 1083TIP3    H224665   2.325   5.212  15.392 -2.2438 -0.3086  1.9078
 1084TIP3   OH224666   6.003   3.770   3.433  0.0213  0.4740 -0.1389
 1084TIP3    H124667   5.954   3.695   3.466  0.9057 -0.3596 -0.6658
 1084TIP3    H224668   5.936   3.830   3.401 -0.7042 -0.0464  0.3754
 1085TIP3   OH224669   1.859   3.575  12.944 -0.1903  0.0776  0.6027
 1085TIP3    H124670   1.809   3.533  12.874  0.9579 -2.4815  1.2077
 1085TIP3    H224671   1.880   3.662  12.910 -4.2876  1.0560 -0.0015
 1086TIP3   OH224672   2.686   3.929   0.809  0.5625  0.2212  0.3096
 1086TIP3    H124673   2.682   3.847   0.858 -1.6327  0.0840 -0.0013
 1086TIP3    H224674   2.614   3.981   0.843  1.5961  1.8407  0.1226
 1087TIP3   OH224675   4.413   2.729   3.143  0.4699 -0.2272  0.4016
 1087TIP3    H124676   4.317   2.728   3.150  0.4875 -0.9297  0.6259
 1087TIP3    H224677   4.439   2.810   3.186 -0.0026 -0.1885  0.6239
 1088TIP3   OH224678   2.771   5.135  12.102 -0.0804  0.0027 -0.3135
 1088TIP3    H124679   2.744   5.170  12.018 -0.4065  3.0118  0.9375
 1088TIP3    H224680   2.866   5.129  12.096 -0.2146 -1.6972 -1.4995
 1089TIP3   OH224681   3.596   6.741  13.205  0.3104 -0.5471  1.1308
 1089TIP3    H124682   3.522   6.740  13.144  1.6326 -2.7617 -0.6221
 1089TIP3    H224683   3.639   6.825  13.190 -0.6013 -0.1758  0.5388
 1090TIP3   OH224684   5.625   2.571  15.965  0.1768  0.3196  0.2758
 1090TIP3    H124685   5.642   2.621  15.885  0.5463 -1.5964 -0.9185
 1090TIP3    H224686   5.535   2.593  15.989  0.2687  1.3987 -0.2878
 1091TIP3   OH224687   3.537   1.767  11.462  0.1496  0.2412 -0.0500
 1091TIP3    H124688   3.566   1.771  11.553 -0.2936 -1.1216  0.1789
 1091TIP3    H224689   3.445   1.741  11.467  0.6719 -2.0910 -0.8808
 1092TIP3   OH224690   4.194   2.745   3.828  0.1872  0.0747  0.0609
 1092TIP3    H124691   4.111   2.791   3.815  0.2994  0.4022  0.5071
 1092TIP3    H224692   4.257   2.794   3.776  0.2856  0.3653  0.4530
 1093TIP3   OH224693   2.778   2.152  11.613 -0.0720 -0.2657  0.1667
 1093TIP3    H124694   2.861   2.182  11.651 -0.9828  0.0939  1.9715
 1093TIP3    H224695   2.728   2.233  11.600 -1.0748 -0.6343  1.4774
 1094TIP3   OH224696   3.845   3.262  13.545 -0.4025 -0.0687 -0.1098
 1094TIP3    H124697   3.762   3.305  13.568  0.1433  0.6408  0.5783
 1094TIP3    H224698   3.833   3.172  13.573 -1.5541 -0.4008 -1.5469
 1095TIP3   OH224699   6.173   3.112   6.406 -0.3303 -0.2989  0.2670
 1095TIP3    H124700   6.261   3.143   6.429 -0.5028  0.3897  0.0248
 1095TIP3    H224701   6.126   3.191   6.379 -0.9887 -0.6809  0.2746
 1096TIP3   OH224702   4.355   1.808  14.796  0.0207 -0.4043  0.1623
 1096TIP3    H124703   4.336   1.883  14.739  0.0785 -0.5621 -0.0675
 1096TIP3    H224704   4.359   1.733  14.736  1.5667 -0.3573  0.1685
 1097TIP3   OH224705   1.704   2.162   1.268  0.7021 -0.0342  0.2868
 1097TIP3    H124706   1.783   2.196   1.226  0.9240 -1.1084 -0.1835
 1097TIP3    H224707   1.735   2.099   1.332  0.3042  0.8473  1.3769
 1098TIP3   OH224708   4.089   2.037   3.337  0.9492 -0.1408 -0.2730
 1098TIP3    H124709   4.038   1.965   3.374  1.1192 -0.7239 -1.1273
 1098TIP3    H224710   4.156   2.055   3.403 -0.6822  1.0662  1.1622
 1099TIP3   OH224711   1.243   3.922  12.831 -0.3010 -0.4534 -0.3314
 1099TIP3    H124712   1.151   3.898  12.841  0.6372 -4.4938  0.2181
 1099TIP3    H224713   1.259   3.983  12.903 -1.8683 -2.1547  1.5878
 1100TIP3   OH224714   1.325   6.454  10.303  0.0729 -0.2964 -0.1262
 1100TIP3    H124715   1.243   6.410  10.281 -0.8268  0.7745  0.9540
 1100TIP3    H224716   1.381   6.384  10.338 -0.4903 -0.9816 -0.5754
 1101TIP3   OH224717   2.682   3.823  15.883 -0.3778  0.6388 -0.2033
 1101TIP3    H124718   2.759   3.772  15.858 -0.3031  0.9674 -0.6597
 1101TIP3    H224719   2.701   3.854  15.971 -1.2317 -1.6697  0.8602
 1102TIP3   OH224720   3.578   0.110  15.113 -0.0992 -0.1026 -0.3728
 1102TIP3    H124721   3.546   0.200  15.110  1.9322  0.6782 -0.4516
 1102TIP3    H224722   3.575   0.086  15.206 -2.4383 -0.7081 -0.5432
 1103TIP3   OH224723   2.725   4.592   5.531 -0.6641  0.1534  0.2368
 1103TIP3    H124724   2.689   4.670   5.573  0.0388  1.3661 -1.3364
 1103TIP3    H224725   2.686   4.591   5.444 -1.3175 -1.7524  0.5040
 1104TIP3   OH224726   5.387   1.465  15.294  0.4374  0.1930  0.2046
 1104TIP3    H124727   5.305   1.479  15.246 -0.0119 -0.9111  0.6063
 1104TIP3    H224728   5.386   1.531  15.363 -1.9663 -1.9495  2.5069
 1105TIP3   OH224729   6.186   5.261   3.440 -0.3870  0.2748  0.1331
 1105TIP3    H124730   6.233   5.339   3.412  1.4262 -0.5255  0.7987
 1105TIP3    H224731   6.207   5.252   3.533 -2.5467  0.3088  0.6744
 1106TIP3   OH224732   0.090   5.828   6.108 -0.0264 -1.0513  0.1571
 1106TIP3    H124733   0.116   5.910   6.151  1.3130 -1.2830 -0.1717
 1106TIP3    H224734   0.006   5.805   6.149  0.0338  0.0044  0.9042
 1107TIP3   OH224735   4.655   4.226   2.860 -0.0367 -0.1091  0.5814
 1107TIP3    H124736   4.713   4.207   2.934  0.7167  0.8719  0.2661
 1107TIP3    H224737   4.706   4.203   2.783 -0.6874 -0.7817  0.3458
 1108TIP3   OH224738   4.480   6.052   2.901 -0.2448 -0.5437  0.2590
 1108TIP3    H124739   4.492   6.058   2.806 -0.8143  3.2036  0.2884
 1108TIP3    H224740   4.395   6.094   2.917 -0.0696 -0.9239  2.4702
 1109TIP3   OH224741   1.007   4.238  15.356  0.3828  0.0883  0.1153
 1109TIP3    H124742   1.042   4.322  15.386  0.7047  0.8325 -2.1144
 1109TIP3    H224743   0.975   4.256  15.268 -2.2195 -1.4947  0.6413
 1110TIP3   OH224744   4.578   3.159  17.097 -0.5530  0.6878  0.5663
 1110TIP3    H124745   4.654   3.149  17.154  0.3983 -0.1625 -0.8057
 1110TIP3    H224746   4.536   3.240  17.127  2.0529  2.3600  0.0594
 1111TIP3   OH224747   3.672   4.355   5.275  0.5731  0.0663 -0.2916
 1111TIP3    H124748   3.702   4.429   5.328 -2.4389  0.2559  1.3836
 1111TIP3    H224749   3.678   4.386   5.184 -0.5798  2.4209  0.3593
 1112TIP3   OH224750   2.719   4.892   4.736  0.2088 -0.1710  0.7622
 1112TIP3    H124751   2.657   4.820   4.743 -0.1542 -0.0780 -1.1189
 1112TIP3    H224752   2.773   4.871   4.660  0.9800  0.8947  0.9829
 1113TIP3   OH224753   5.480   3.003   2.905 -0.2803  0.0802  0.2622
 1113TIP3    H124754   5.454   3.049   2.825 -1.1934  0.8338  0.9671
 1113TIP3    H224755   5.402   2.952   2.930  0.2992 -0.8766  0.1871
 1114TIP3   OH224756   5.276   3.828  11.458 -0.0482 -0.1101 -0.3391
 1114TIP3    H124757   5.222   3.768  11.406 -0.4033 -0.5283  0.4957
 1114TIP3    H224758   5.212   3.887  11.498  0.2102  0.0893 -0.2246
 1115TIP3   OH224759   0.206   1.583   0.228 -0.0982 -0.4220  0.1175
 1115TIP3    H124760   0.287   1.531   0.235  0.4149  0.4112  0.4930
 1115TIP3    H224761   0.234   1.673   0.241 -1.3925 -0.2988  2.6525
 1116TIP3   OH224762   6.364   5.186   5.330  0.1198  0.1335  1.2007
 1116TIP3    H124763   6.316   5.143   5.259 -0.1777  0.1165  1.4159
 1116TIP3    H224764   6.431   5.122   5.355  1.1095  0.6590  0.0190
 1117TIP3   OH224765   1.910   3.373  11.374  0.0990  0.5000  0.6455
 1117TIP3    H124766   1.950   3.447  11.328  1.7885 -0.2024  0.9007
 1117TIP3    H224767   1.826   3.360  11.330  0.0461  2.1529  0.1846
 1118TIP3   OH224768   4.350   0.100   5.043 -0.7574  0.0984 -0.6035
 1118TIP3    H124769   4.377   0.014   5.075  1.3501  1.5722  2.0393
 1118TIP3    H224770   4.255   0.101   5.053 -0.5457 -0.7643  2.8674
 1119TIP3   OH224771   6.370   1.561  13.148  0.5268 -0.6978  0.4504
 1119TIP3    H124772   6.318   1.617  13.089 -0.5006  2.3618  3.8953
 1119TIP3    H224773   6.459   1.593  13.138  0.0887  1.0214  1.7043
 1120TIP3   OH224774   2.616   2.873   4.115  0.6104  0.2015  0.5045
 1120TIP3    H124775   2.580   2.847   4.030  0.4908 -0.2233  0.6820
 1120TIP3    H224776   2.705   2.836   4.115 -0.2132 -1.9967  1.5531
 1121TIP3   OH224777   1.616   0.312   2.047 -0.1070  0.1995  0.7457
 1121TIP3    H124778   1.595   0.299   1.954  0.8435  4.1864 -0.1923
 1121TIP3    H224779   1.559   0.250   2.093 -0.2785 -2.2436 -2.4582
 1122TIP3   OH224780   2.094   6.140  16.120  0.2520 -0.1187 -0.3536
 1122TIP3    H124781   2.070   6.149  16.028 -0.9581  0.9344  0.0249
 1122TIP3    H224782   2.050   6.060  16.149 -1.5776  0.9118 -0.0911
 1123TIP3   OH224783   1.649   6.692   1.049 -0.1149  0.1175 -0.2941
 1123TIP3    H124784   1.723   6.681   1.108 -0.4848  0.0454  0.1639
 1123TIP3    H224785   1.646   6.611   0.998 -0.1008 -0.0280 -0.0631
 1124TIP3   OH224786   4.527   4.522   2.575 -0.1371 -0.0295 -0.3028
 1124TIP3    H124787   4.438   4.487   2.578 -0.1102 -0.1218 -0.5178
 1124TIP3    H224788   4.545   4.550   2.664  0.4126 -2.0189  0.2826
 1125TIP3   OH224789   0.213   2.395  12.684  0.1518 -0.0349  0.2172
 1125TIP3    H124790   0.201   2.402  12.590 -2.0309  1.3874  0.5411
 1125TIP3    H224791   0.210   2.485  12.716  0.0437 -0.5401  1.7281
 1126TIP3   OH224792   1.483   2.045  14.310 -0.0763 -0.1129 -0.6757
 1126TIP3    H124793   1.550   2.103  14.274  2.1334 -1.3036  1.2132
 1126TIP3    H224794   1.471   1.977  14.244  1.7722 -0.7053 -0.4574
 1127TIP3   OH224795   5.547   1.592   4.236 -0.1944  0.0476  0.5514
 1127TIP3    H124796   5.535   1.687   4.230 -0.2131  0.0224  0.1823
 1127TIP3    H224797   5.591   1.568   4.154 -0.6000 -0.3244  0.4396
 1128TIP3   OH224798   4.228   6.553   3.295  0.3783  0.2327 -0.2380
 1128TIP3    H124799   4.199   6.634   3.254 -2.6944 -0.3897  0.4830
 1128TIP3    H224800   4.261   6.500   3.223 -2.4270  0.1907 -1.5929
 1129TIP3   OH224801   5.226   3.781  13.901  0.3726 -0.3077  0.2140
 1129TIP3    H124802   5.178   3.709  13.941 -1.4864  1.8937  2.1899
 1129TIP3    H224803   5.169   3.811  13.830  0.2749  0.3352  0.5577
 1130TIP3   OH224804   6.355   3.418   1.076 -0.4458 -0.1769  0.4350
 1130TIP3    H124805   6.323   3.473   1.148  3.0286  2.0522  0.5126
 1130TIP3    H224806   6.295   3.437   1.003 -1.1004  1.3912  1.3326
 1131TIP3   OH224807   6.179   2.354  16.966 -0.0938  0.2378  0.0798
 1131TIP3    H124808   6.188   2.356  16.871 -0.2482 -1.8248 -0.0349
 1131TIP3    H224809   6.118   2.425  16.987  0.8320  1.4544 -1.2098
 1132TIP3   OH224810   1.458   1.810  12.327  0.0822 -0.4232 -0.0485
 1132TIP3    H124811   1.368   1.787  12.346  0.1836  0.9756  2.6932
 1132TIP3    H224812   1.452   1.887  12.270 -0.4886 -0.2195  0.2816
 1133TIP3   OH224813   5.918   6.485   6.565  0.0313 -0.1927 -0.0065
 1133TIP3    H124814   5.851   6.436   6.518  0.7664 -0.7705 -0.4738
 1133TIP3    H224815   5.998   6.436   6.550  0.2151 -0.6835  2.3099
 1134TIP3   OH224816   0.749   0.096  11.378 -0.0547  0.2686  0.1589
 1134TIP3    H124817   0.827   0.136  11.340  0.8100 -0.8870  0.6515
 1134TIP3    H224818   0.676   0.148  11.344  1.0195  2.4432  1.0287
 1135TIP3   OH224819   2.572   5.927   5.736  0.4226 -0.2572  0.1992
 1135TIP3    H124820   2.598   6.018   5.725 -0.8377 -0.0547 -1.4089
 1135TIP3    H224821   2.555   5.896   5.647  0.4567 -1.9547  0.7472
 1136TIP3   OH224822   4.626   0.711   3.718  0.3332 -1.1164  0.1132
 1136TIP3    H124823   4.585   0.797   3.720  1.7193 -0.3431 -1.7207
 1136TIP3    H224824   4.590   0.665   3.794 -1.8493  0.4078  0.0919
 1137TIP3   OH224825   6.397   3.935   2.589  0.1110  0.3438  0.3214
 1137TIP3    H124826   6.307   3.903   2.596 -0.1027  1.1615  1.5061
 1137TIP3    H224827   6.393   4.025   2.620  0.9041  1.1956 -1.8699
 1138TIP3   OH224828   5.088   5.746   0.770  0.2757 -0.1997  0.0379
 1138TIP3    H124829   5.106   5.796   0.849  2.0974 -0.4499 -0.1763
 1138TIP3    H224830   5.016   5.688   0.793 -1.3643  1.9393  0.5247
 1139TIP3   OH224831   6.205   6.378  13.103  0.5512 -0.5638 -0.4030
 1139TIP3    H124832   6.290   6.409  13.135  1.5723 -2.5752 -1.0054
 1139TIP3    H224833   6.189   6.297  13.152 -2.1141  0.8250  1.2895
 1140TIP3   OH224834   5.234   3.864  12.960  0.1899 -0.1566 -0.5632
 1140TIP3    H124835   5.246   3.882  13.053 -0.3605  0.6175 -0.6411
 1140TIP3    H224836   5.140   3.873  12.946  0.3731  0.5633 -1.3662
 1141TIP3   OH224837   0.655   5.409   4.049  0.2270  0.4653 -0.1138
 1141TIP3    H124838   0.677   5.424   3.957 -1.4340 -0.4938 -0.7004
 1141TIP3    H224839   0.597   5.482   4.072 -1.1153 -0.4717 -0.4863
 1142TIP3   OH224840   4.444   5.598  10.520 -0.0305 -0.1734  0.1912
 1142TIP3    H124841   4.407   5.529  10.465 -1.0571  0.6210 -0.1555
 1142TIP3    H224842   4.521   5.559  10.560  0.5066 -0.9206 -1.4795
 1143TIP3   OH224843   3.306   0.715  15.328 -0.5073 -0.3110 -0.0857
 1143TIP3    H124844   3.278   0.802  15.357  4.2671  1.5960 -0.4143
 1143TIP3    H224845   3.371   0.688  15.393 -0.3078 -2.6881 -1.1918
 1144TIP3   OH224846   5.062   5.190  13.926 -0.0559  0.3936 -0.0850
 1144TIP3    H124847   5.089   5.235  13.846  0.9535  0.1004  0.0819
 1144TIP3    H224848   5.132   5.127  13.943 -1.2740 -0.9960 -0.1137
 1145TIP3   OH224849   0.405   4.838  16.538 -0.4013 -0.0853  0.3213
 1145TIP3    H124850   0.486   4.820  16.490  0.6086 -0.2511  2.0003
 1145TIP3    H224851   0.373   4.920  16.500 -0.3277 -0.8260 -1.4349
 1146TIP3   OH224852   0.037   1.349  16.370  0.0441  0.4551 -0.0381
 1146TIP3    H124853  -0.021   1.273  16.381 -0.6085  1.0657  0.8813
 1146TIP3    H224854   0.039   1.363  16.275  1.3707 -1.5945 -0.3723
 1147TIP3   OH224855   2.747   3.867   3.018  0.2840 -0.3325 -0.6233
 1147TIP3    H124856   2.763   3.773   3.010 -1.0993 -0.6222 -0.3080
 1147TIP3    H224857   2.673   3.874   3.079 -1.4896  0.7893 -2.7643
 1148TIP3   OH224858   5.157   1.117   2.255 -0.2191  0.2770  0.2362
 1148TIP3    H124859   5.200   1.131   2.171 -0.9568  2.5198  0.1793
 1148TIP3    H224860   5.152   1.204   2.294 -2.4738 -0.2883  1.3471
 1149TIP3   OH224861   0.248   1.319  14.314 -0.0327 -0.5923 -0.1197
 1149TIP3    H124862   0.334   1.297  14.349 -0.3976  0.8604  1.8386
 1149TIP3    H224863   0.265   1.389  14.251  0.3784 -1.6475 -1.2315
 1150TIP3   OH224864   5.145   3.639  16.625  0.4996 -0.3677 -0.4238
 1150TIP3    H124865   5.181   3.657  16.539 -0.3337 -1.7882 -1.1074
 1150TIP3    H224866   5.210   3.674  16.686  0.8268  1.1786 -1.5997
 1151TIP3   OH224867   6.186   4.730  15.688  0.1976  0.1057  0.1299
 1151TIP3    H124868   6.259   4.706  15.745  0.2600 -2.4285 -0.8696
 1151TIP3    H224869   6.117   4.667  15.710 -0.5878  0.5276 -1.0246
 1152TIP3   OH224870   6.245   2.960   3.604  0.0834  0.2257 -0.6980
 1152TIP3    H124871   6.234   3.030   3.540  0.3704  2.1141  1.1672
 1152TIP3    H224872   6.258   3.006   3.687 -2.3590 -2.0509  1.1383
 1153TIP3   OH224873   2.128   0.334   5.436  0.1587 -0.2701 -0.1721
 1153TIP3    H124874   2.183   0.269   5.393  0.7345 -1.5506  2.3323
 1153TIP3    H224875   2.163   0.418   5.407  0.5798 -1.0291 -2.0395
 1154TIP3   OH224876   2.724   6.615  16.413 -0.1097 -0.5598 -0.1782
 1154TIP3    H124877   2.729   6.706  16.442 -2.0039 -0.2481 -0.6772
 1154TIP3    H224878   2.813   6.581  16.425  0.7883  1.4978 -0.4982
 1155TIP3   OH224879   1.750   5.667  12.483 -0.3055  0.2069 -1.0604
 1155TIP3    H124880   1.729   5.755  12.450  1.0312  0.4134 -1.4335
 1155TIP3    H224881   1.686   5.610  12.441 -0.0655  0.7707 -2.2390
 1156TIP3   OH224882   0.695   0.073   5.271  0.6519 -0.1325 -0.3474
 1156TIP3    H124883   0.688   0.028   5.187 -0.7453  0.9809 -0.8738
 1156TIP3    H224884   0.692   0.003   5.336  1.7094 -1.0069 -1.2019
 1157TIP3   OH224885   3.768   0.024  16.333 -0.2215  0.1654 -0.0060
 1157TIP3    H124886   3.791  -0.054  16.384 -0.7325  0.8081  1.2525
 1157TIP3    H224887   3.832   0.026  16.262  0.9649 -0.3884  1.0025
 1158TIP3   OH224888   3.384   2.772  16.881  0.5228 -0.3841 -0.3543
 1158TIP3    H124889   3.354   2.801  16.795 -1.7226 -0.2931  0.3883
 1158TIP3    H224890   3.326   2.699  16.904 -1.7532  2.0977  2.7027
 1159TIP3   OH224891   2.785   1.324   3.404 -0.5348  0.4200  0.0008
 1159TIP3    H124892   2.816   1.289   3.487  1.8446  0.9228 -0.6238
 1159TIP3    H224893   2.739   1.251   3.363  0.7720 -0.7238  0.5046
 1160TIP3   OH224894   2.648   6.642  11.635  0.0113  0.1830  0.6814
 1160TIP3    H124895   2.736   6.666  11.664 -0.0164  0.1227  0.8180
 1160TIP3    H224896   2.621   6.713  11.577  0.9428 -0.7638 -0.9886
 1161TIP3   OH224897   1.737   4.623   4.575  0.4889 -0.0182  0.0700
 1161TIP3    H124898   1.759   4.559   4.508  1.8730  0.3460  0.1454
 1161TIP3    H224899   1.736   4.573   4.657 -1.6184 -0.5449 -0.2421
 1162TIP3   OH224900   3.618   1.397   5.121  0.0389  0.2467 -0.0782
 1162TIP3    H124901   3.665   1.429   5.044 -0.8574 -0.9243 -1.1659
 1162TIP3    H224902   3.663   1.316   5.146  1.4311  1.5178  1.7883
 1163TIP3   OH224903   5.828   1.054  13.473  0.1402  0.4565  0.4357
 1163TIP3    H124904   5.843   0.985  13.538  2.5977  0.4877 -0.0042
 1163TIP3    H224905   5.772   1.012  13.407  0.9995 -0.9131  0.5329
 1164TIP3   OH224906   1.797   4.058  13.236 -0.2479 -0.0021 -0.3427
 1164TIP3    H124907   1.887   4.089  13.242 -0.2590 -0.1427  0.7057
 1164TIP3    H224908   1.751   4.128  13.189  0.0724  0.8588  0.5713
 1165TIP3   OH224909   3.108   4.657   3.782  0.3899 -0.7177  0.0239
 1165TIP3    H124910   3.034   4.618   3.828 -0.6838  0.3868 -0.7146
 1165TIP3    H224911   3.185   4.612   3.818 -0.5796 -1.4955  1.2054
 1166TIP3   OH224912   4.594   2.184  11.599 -0.2128  0.2670  0.0391
 1166TIP3    H124913   4.545   2.113  11.640  1.5383 -1.0197  0.0198
 1166TIP3    H224914   4.530   2.230  11.545 -2.7373  2.1397  4.1314
 1167TIP3   OH224915   3.861   4.287  14.241 -0.2817  0.5951  0.0598
 1167TIP3    H124916   3.844   4.249  14.327 -1.0795 -2.7775 -1.4073
 1167TIP3    H224917   3.775   4.310  14.208 -0.0891  0.8429 -0.2711
 1168TIP3   OH224918   6.306   0.721   2.177 -0.0755  0.7984  0.4095
 1168TIP3    H124919   6.242   0.664   2.220  0.6078 -0.2959  0.0360
 1168TIP3    H224920   6.336   0.670   2.102 -0.7010  2.3771 -0.9574
 1169TIP3   OH224921   3.952   0.971  17.198 -0.1623 -0.8706  0.6966
 1169TIP3    H124922   3.996   1.017  17.270 -2.5875  2.9368  0.0730
 1169TIP3    H224923   4.005   0.990  17.121  0.0102 -1.0210  0.7778
 1170TIP3   OH224924   0.376   3.332  14.309 -0.4273  0.1107  0.2194
 1170TIP3    H124925   0.293   3.347  14.356 -0.4831  1.4135 -0.2575
 1170TIP3    H224926   0.429   3.408  14.330  0.6819 -0.7242  0.5250
 1171TIP3   OH224927   1.392   2.860   2.116  0.4743 -0.0940  0.2001
 1171TIP3    H124928   1.412   2.819   2.032 -0.4879  0.8141 -0.5140
 1171TIP3    H224929   1.401   2.790   2.180  0.0608 -1.1209 -0.8177
 1172TIP3   OH224930   5.077   0.366  11.983 -0.5837  0.1878 -0.1364
 1172TIP3    H124931   4.984   0.368  11.958 -0.6758 -2.1863 -0.2720
 1172TIP3    H224932   5.108   0.455  11.969 -2.3605  0.5852 -2.0769
 1173TIP3   OH224933   6.055   5.984   3.645  0.5653 -0.0532 -0.3640
 1173TIP3    H124934   6.082   6.049   3.580 -1.2908 -1.1416 -2.3834
 1173TIP3    H224935   6.015   6.035   3.715  1.7281  1.1112 -0.5165
 1174TIP3   OH224936   5.903   2.677  11.117  0.2163 -0.2626  0.4101
 1174TIP3    H124937   5.999   2.673  11.124  0.3371 -0.1083 -0.8260
 1174TIP3    H224938   5.874   2.587  11.131  0.6047 -0.4216  0.2336
 1175TIP3   OH224939   5.445   0.706  15.489 -0.0290  0.6698  0.0357
 1175TIP3    H124940   5.399   0.641  15.542 -0.1641 -0.5297 -1.4628
 1175TIP3    H224941   5.420   0.790  15.526  1.5453 -0.1174  3.1757
 1176TIP3   OH224942   6.217   0.197   5.078  0.0841  0.3795 -0.1770
 1176TIP3    H124943   6.238   0.234   5.164  0.8260 -0.2902 -0.0503
 1176TIP3    H224944   6.164   0.263   5.035 -1.8314  0.0156  1.4708
 1177TIP3   OH224945   3.112   6.449   4.140  0.3311 -0.4728 -0.1192
 1177TIP3    H124946   3.038   6.392   4.122 -0.3172  0.7537 -1.5433
 1177TIP3    H224947   3.189   6.397   4.115 -0.0204 -1.6543  1.1239
 1178TIP3   OH224948   4.563   2.096  14.741 -0.4378 -0.1185  0.1829
 1178TIP3    H124949   4.482   2.076  14.695  0.2077 -0.3859 -0.8805
 1178TIP3    H224950   4.571   2.191  14.736  0.4432 -0.2296 -1.7938
 1179TIP3   OH224951   5.214   0.200  14.662  1.0114  0.0578  0.1905
 1179TIP3    H124952   5.294   0.150  14.677 -0.2738 -1.7600  1.2850
 1179TIP3    H224953   5.201   0.198  14.567  1.1452 -1.4812  0.1848
 1180TIP3   OH224954   6.563   2.622  16.401  0.1006 -0.3178 -0.0657
 1180TIP3    H124955   6.514   2.595  16.479 -0.8788 -0.1447 -0.6052
 1180TIP3    H224956   6.584   2.540  16.356  0.5311 -0.4084  0.2959
 1181TIP3   OH224957   0.796   2.202  16.110  0.1617 -0.2009  0.5437
 1181TIP3    H124958   0.825   2.227  16.198 -0.6718  0.0820  0.7396
 1181TIP3    H224959   0.867   2.147  16.077  0.7832  0.2200  1.1419
 1182TIP3   OH224960   2.376   1.770   0.295 -0.5235 -0.4751 -0.0404
 1182TIP3    H124961   2.303   1.801   0.240  0.6315 -0.2599 -1.5482
 1182TIP3    H224962   2.389   1.679   0.268 -2.3318 -1.6261  2.6358
 1183TIP3   OH224963   2.057   2.600   5.663  0.0782 -0.0576 -0.3112
 1183TIP3    H124964   2.005   2.647   5.598 -0.6444 -0.6653 -0.1936
 1183TIP3    H224965   1.999   2.530   5.693 -0.5228  1.5531  2.6685
 1184TIP3   OH224966   1.438   4.128   5.118 -0.2442 -0.3193  0.1070
 1184TIP3    H124967   1.460   4.035   5.109 -1.1403 -0.5461  0.1735
 1184TIP3    H224968   1.512   4.165   5.165  0.3479 -0.9029 -0.3331
 1185TIP3   OH224969   2.149   6.434  14.563  0.0114 -0.3134  0.2038
 1185TIP3    H124970   2.138   6.339  14.568  3.0148 -0.7765 -0.3915
 1185TIP3    H224971   2.201   6.457  14.640 -1.8286  1.1555  1.1239
 1186TIP3   OH224972   5.337   6.108  16.791 -0.0507  0.1196 -0.3644
 1186TIP3    H124973   5.400   6.044  16.823  0.9158  2.0446  1.9270
 1186TIP3    H224974   5.254   6.061  16.788  1.0438 -1.8651 -1.2400
 1187TIP3   OH224975   5.097   2.534  15.860  1.0881 -0.0092 -0.1508
 1187TIP3    H124976   5.122   2.626  15.871  1.8004 -0.2788  0.5625
 1187TIP3    H224977   5.124   2.492  15.941  0.6571 -0.8357 -0.4237
 1188TIP3   OH224978   6.606   6.117   1.714  0.5652  0.1538  0.3967
 1188TIP3    H124979   6.617   6.080   1.802  0.9772 -1.6580 -0.3699
 1188TIP3    H224980   6.691   6.155   1.693  0.7516 -0.2298  0.4377
 1189TIP3   OH224981   1.891   4.662  17.150 -0.8408 -0.4291  0.3108
 1189TIP3    H124982   1.900   4.628  17.061 -1.2407  2.1204 -0.8182
 1189TIP3    H224983   1.981   4.670  17.182 -0.4886  0.8428 -0.8555
 1190TIP3   OH224984   3.186   1.963  13.812  0.2623 -0.4178  0.7956
 1190TIP3    H124985   3.261   2.002  13.855  0.1917 -1.4101  1.8882
 1190TIP3    H224986   3.223   1.902  13.749  0.3676  0.0186  0.4326
 1191TIP3   OH224987   5.468   4.853  16.786  0.3552 -0.1216 -0.0126
 1191TIP3    H124988   5.546   4.872  16.733 -0.1142 -0.4351 -0.8429
 1191TIP3    H224989   5.501   4.840  16.874  1.3875 -1.3358 -0.5505
 1192TIP3   OH224990   5.468   5.781   0.185  0.3651  0.4597  0.7841
 1192TIP3    H124991   5.561   5.802   0.180  0.0272  1.7609 -0.4539
 1192TIP3    H224992   5.423   5.865   0.177 -0.9309 -0.1150  1.6223
 1193TIP3   OH224993   3.583   6.633   4.408 -0.2014  0.0363  0.1549
 1193TIP3    H124994   3.499   6.587   4.415 -0.5912  0.8723  1.3442
 1193TIP3    H224995   3.594   6.676   4.493  1.5057 -0.1575  0.0749
 1194TIP3   OH224996   6.287   5.571   5.923 -0.4357 -0.1428 -0.2534
 1194TIP3    H124997   6.322   5.500   5.975  1.5751  0.6682 -0.4087
 1194TIP3    H224998   6.289   5.647   5.981  1.1216  0.6044 -1.2310
 1195TIP3   OH224999   1.524   3.585  16.074 -0.1743  0.7281  0.2312
 1195TIP3    H125000   1.492   3.496  16.086  0.6427  0.4071  0.0879
 1195TIP3    H225001   1.494   3.632  16.152 -0.6429  0.3447  0.2879
 1196TIP3   OH225002   2.965   4.687  13.338  0.5570 -0.1558  0.3120
 1196TIP3    H125003   3.009   4.768  13.315  1.5704 -0.1847  1.9945
 1196TIP3    H225004   3.018   4.618  13.298  0.3671 -0.0570 -0.1152
 1197TIP3   OH225005   1.152   1.096   2.588  0.2759 -0.4444  0.5190
 1197TIP3    H125006   1.239   1.127   2.563 -0.0814  1.0948  1.0944
 1197TIP3    H225007   1.106   1.083   2.505  1.1264 -1.6122  0.1956
 1198TIP3   OH225008   2.579   4.372   4.721  0.6587  0.2274  0.4089
 1198TIP3    H125009   2.560   4.278   4.711  0.4015  0.5285 -2.6325
 1198TIP3    H225010   2.506   4.416   4.679  1.1532  1.8023  1.1412
 1199TIP3   OH225011   4.497   0.044   0.292  0.3362 -0.4834  0.0401
 1199TIP3    H125012   4.472   0.125   0.247 -1.0796  0.5117  2.4180
 1199TIP3    H225013   4.455  -0.026   0.241  0.2445  0.4215 -1.1567
 1200TIP3   OH225014   0.581   0.881  13.325 -0.0481 -0.6808 -0.3803
 1200TIP3    H125015   0.661   0.920  13.291 -0.5051  0.0855 -0.6053
 1200TIP3    H225016   0.526   0.866  13.248 -0.5297 -0.2238 -0.1383
 1201TIP3   OH225017   6.037   2.386   0.845 -0.2158 -0.5073 -0.1996
 1201TIP3    H125018   6.110   2.403   0.904 -2.0778  1.1785  1.7702
 1201TIP3    H225019   6.027   2.468   0.796 -0.7125 -0.7817 -0.5679
 1202TIP3   OH225020   5.166   4.360  14.274 -0.2530 -0.0871 -0.0669
 1202TIP3    H125021   5.228   4.428  14.247 -0.3554 -0.1076 -0.3576
 1202TIP3    H225022   5.193   4.282  14.225 -0.5783 -0.0646 -0.2883
 1203TIP3   OH225023   1.211   5.957   3.679 -0.5704  0.0936  0.2023
 1203TIP3    H125024   1.193   5.969   3.586  0.3091  0.6273  0.0951
 1203TIP3    H225025   1.131   5.986   3.722 -0.3481  1.5464 -0.3098
 1204TIP3   OH225026   3.267   5.935  16.186  0.1682  0.2148  0.4699
 1204TIP3    H125027   3.284   5.857  16.133 -0.2542  1.1234 -1.0586
 1204TIP3    H225028   3.353   5.961  16.220  0.6514  0.3289 -0.8055
 1205TIP3   OH225029   3.129   5.023   4.050 -0.5253 -0.0405 -0.3663
 1205TIP3    H125030   3.223   5.017   4.067 -0.4933 -0.9365 -0.7776
 1205TIP3    H225031   3.120   4.999   3.957 -1.1739 -0.1893 -0.2714
 1206TIP3   OH225032   4.261   0.631   3.677  0.4908 -0.0517  0.2427
 1206TIP3    H125033   4.339   0.609   3.626  0.7802  1.3998  0.0165
 1206TIP3    H225034   4.229   0.547   3.709  2.5965 -0.6465  0.9804
 1207TIP3   OH225035   0.601   4.336   5.487 -0.4819  0.1287 -0.3740
 1207TIP3    H125036   0.644   4.323   5.402  1.1895  0.1252  0.4215
 1207TIP3    H225037   0.512   4.361   5.465 -0.3015 -0.5980 -2.1212
 1208TIP3   OH225038   6.772   2.390   1.005 -0.7934  0.0304 -0.1056
 1208TIP3    H125039   6.709   2.319   0.991  0.2403 -0.8787 -0.3185
 1208TIP3    H225040   6.809   2.407   0.919  2.4277 -2.5583  0.5486
 1209TIP3   OH225041   1.160   6.562  16.368  0.1373 -0.0438  0.2192
 1209TIP3    H125042   1.106   6.490  16.337  1.0158 -0.1856 -1.0672
 1209TIP3    H225043   1.172   6.618  16.292 -0.6400  1.5714  1.2276
 1210TIP3   OH225044   1.137   0.073   6.264 -0.1632 -0.2311  0.2794
 1210TIP3    H125045   1.147  -0.022   6.258  0.5702 -0.1973  0.7794
 1210TIP3    H225046   1.042   0.086   6.272 -0.4536 -0.7850 -1.6778
 1211TIP3   OH225047   0.835   2.147  12.763  0.2634  0.1695 -0.0114
 1211TIP3    H125048   0.802   2.111  12.845  2.8120 -1.0288  0.5869
 1211TIP3    H225049   0.828   2.242  12.774 -0.4476 -0.0004  1.1285
 1212TIP3   OH225050   6.761   2.309  16.071  0.0357 -0.0955  0.2110
 1212TIP3    H125051   6.841   2.284  16.117  0.6208 -0.1632 -0.8200
 1212TIP3    H225052   6.754   2.248  15.998 -0.1012  0.8863 -0.6248
 1213TIP3   OH225053   3.110   2.643  14.140  0.5955 -0.0682  0.3372
 1213TIP3    H125054   3.173   2.594  14.193  1.0943  0.6262  0.4035
 1213TIP3    H225055   3.114   2.732  14.176  1.4565  0.6004 -1.2929
 1214TIP3   OH225056   5.085   0.294  11.094 -0.1012  0.5805 -0.1048
 1214TIP3    H125057   4.993   0.272  11.074 -0.3402  0.0367  1.4555
 1214TIP3    H225058   5.098   0.380  11.054 -0.9762  0.2347 -1.2133
 1215TIP3   OH225059   4.178   2.981   2.229  0.4528  0.4352  0.4644
 1215TIP3    H125060   4.148   2.907   2.176  0.6567 -0.2842  1.3348
 1215TIP3    H225061   4.248   2.945   2.283  2.2245  1.8256 -0.7744
 1216TIP3   OH225062   5.011   4.622   2.486  0.5351 -0.2997 -0.4219
 1216TIP3    H125063   4.922   4.657   2.495  0.5876 -0.5232  1.3084
 1216TIP3    H225064   5.059   4.689   2.437 -0.8596 -0.7273 -2.5061
 1217TIP3   OH225065   4.854   3.514   0.819  0.1562  0.1046  0.1358
 1217TIP3    H125066   4.835   3.589   0.762 -0.9208 -1.2669 -1.4083
 1217TIP3    H225067   4.797   3.526   0.895 -2.2943 -0.5773 -1.4541
 1218TIP3   OH225068   5.155   6.711   2.777  0.8608 -0.6090 -0.1135
 1218TIP3    H125069   5.238   6.682   2.739  0.7037 -1.4000  0.1326
 1218TIP3    H225070   5.093   6.641   2.756  0.0706  0.3029 -0.9322
 1219TIP3   OH225071   4.237   3.153   0.073 -0.0425  0.0983 -0.5795
 1219TIP3    H125072   4.216   3.131  -0.018  0.8145  0.3253 -0.8411
 1219TIP3    H225073   4.297   3.228   0.066  0.4681 -0.2367  0.1452
 1220TIP3   OH225074   2.634   2.067  17.061 -0.0620  1.0139 -0.0003
 1220TIP3    H125075   2.681   2.102  17.137 -0.1807  0.8797  0.1341
 1220TIP3    H225076   2.700   2.014  17.015 -0.6654 -1.0584  1.4101
 1221TIP3   OH225077   6.013   5.304  17.053 -0.3845  0.5032 -0.0383
 1221TIP3    H125078   5.934   5.286  17.104 -0.4440  1.1826  0.1159
 1221TIP3    H225079   6.037   5.219  17.016 -0.0007 -0.1139  1.5868
 1222TIP3   OH225080   2.995   5.092  11.957  0.2239 -0.2786 -0.7957
 1222TIP3    H125081   3.067   5.154  11.949  0.3562 -0.0905  1.3192
 1222TIP3    H225082   3.020   5.018  11.901  1.2421  0.4881 -1.3825
 1223TIP3   OH225083   5.206   4.204   3.575  0.1071 -0.5887  0.9931
 1223TIP3    H125084   5.120   4.243   3.561  0.0406 -0.9081  0.4987
 1223TIP3    H225085   5.257   4.272   3.619 -0.7918 -0.8360  2.4934
 1224TIP3   OH225086   6.785   6.703   2.590 -0.0525  0.5296 -0.3230
 1224TIP3    H125087   6.819   6.773   2.645  0.9858 -0.6154  0.5476
 1224TIP3    H225088   6.802   6.623   2.639 -2.2720 -0.2833 -0.7412
 1225TIP3   OH225089   1.693   5.856   1.463  0.0185  0.1997  0.0774
 1225TIP3    H125090   1.710   5.777   1.411  0.0957 -0.9017  1.6896
 1225TIP3    H225091   1.752   5.848   1.537 -0.4431  1.4684  0.6009
 1226TIP3   OH225092   4.127   3.674  16.277 -0.5908 -0.2889 -0.1454
 1226TIP3    H125093   4.079   3.750  16.311 -1.6257 -1.3879  0.9735
 1226TIP3    H225094   4.080   3.650  16.197  0.0252  0.5104 -0.7602
 1227TIP3   OH225095   5.472   3.044   1.002  0.0741 -0.4010  0.0797
 1227TIP3    H125096   5.466   3.099   1.080 -2.4111 -2.1820  1.2787
 1227TIP3    H225097   5.405   3.077   0.943  0.6364 -0.2766 -0.5038
 1228TIP3   OH225098   4.083   3.439  12.727 -0.1414  0.2223 -0.3415
 1228TIP3    H125099   4.077   3.523  12.773 -0.8312 -0.1527  0.2662
 1228TIP3    H225100   4.003   3.392  12.751  0.8136 -1.1210  0.3406
 1229TIP3   OH225101   6.534   0.559  13.615  0.3897 -0.3578 -0.2376
 1229TIP3    H125102   6.588   0.510  13.553  0.1941  0.3460 -0.9893
 1229TIP3    H225103   6.558   0.651  13.599  0.4084 -0.1738  0.8097
 1230TIP3   OH225104   0.607   0.021  15.633  0.8381  0.6189 -0.0162
 1230TIP3    H125105   0.614   0.078  15.709 -0.2147  0.5798  0.1219
 1230TIP3    H225106   0.538   0.060  15.580 -0.5081 -0.9687  0.4908
 1231TIP3   OH225107   4.062   2.303   0.333 -0.8890  0.1643 -0.3265
 1231TIP3    H125108   4.132   2.343   0.385 -0.6278 -0.6990  0.0049
 1231TIP3    H225109   3.986   2.302   0.391 -1.5847  2.2606 -1.1004
 1232TIP3   OH225110   2.984   3.174  11.630 -0.7309  0.6372 -0.3158
 1232TIP3    H125111   2.911   3.167  11.691 -0.0220 -0.3003  0.4731
 1232TIP3    H225112   2.956   3.127  11.552 -0.8945  0.0987  0.0655
 1233TIP3   OH225113   6.097   3.251   3.553 -0.4472 -0.0545 -0.2514
 1233TIP3    H125114   6.138   3.315   3.494 -3.1403  1.4575 -0.6437
 1233TIP3    H225115   6.025   3.215   3.502 -0.7909 -1.2324  1.0245
 1234TIP3   OH225116   2.339   0.880  14.193  0.7025  0.2158 -0.2355
 1234TIP3    H125117   2.269   0.833  14.147  1.4004  0.0759 -1.1805
 1234TIP3    H225118   2.303   0.967  14.208  0.6501  0.4474 -1.5678
 1235TIP3   OH225119   5.340   0.944  10.869 -0.7931  0.5121  0.0167
 1235TIP3    H125120   5.436   0.952  10.868 -0.8750  1.4952 -0.6993
 1235TIP3    H225121   5.318   0.915  10.781 -1.3702  3.2260 -0.7986
 1236TIP3   OH225122   3.648   3.977   3.941  0.1933  0.1925  0.2933
 1236TIP3    H125123   3.652   3.896   3.992  1.8340  1.0680  1.6582
 1236TIP3    H225124   3.727   3.976   3.887 -1.1063 -0.3233 -1.7087
 1237TIP3   OH225125   0.306   1.500  16.173  0.6867 -0.4551  0.3255
 1237TIP3    H125126   0.355   1.567  16.221  0.1560 -1.8726  3.0120
 1237TIP3    H225127   0.374   1.447  16.131  1.1523  0.9623 -0.8270
 1238TIP3   OH225128   2.909   0.937  13.003 -0.6894  0.6569 -0.2311
 1238TIP3    H125129   2.824   0.975  13.026 -1.1379 -0.5433  0.1801
 1238TIP3    H225130   2.945   0.909  13.087  0.0625  1.0338 -0.4230
 1239TIP3   OH225131   2.145   1.493   0.305 -0.0857 -0.7019 -0.4901
 1239TIP3    H125132   2.162   1.492   0.210  0.3247  1.3251 -0.4782
 1239TIP3    H225133   2.055   1.524   0.312 -0.0472 -0.6636 -0.1915
 1240TIP3   OH225134   4.274   0.800  11.382  0.4041 -0.3014  0.6251
 1240TIP3    H125135   4.331   0.732  11.346 -1.7325 -1.7230 -0.2689
 1240TIP3    H225136   4.292   0.800  11.476  1.8895 -0.6569  0.3588
 1241TIP3   OH225137   0.802   5.081   5.518 -0.0298 -0.7058  0.4478
 1241TIP3    H125138   0.859   5.006   5.507  1.1580  0.2203  0.0345
 1241TIP3    H225139   0.841   5.149   5.464 -0.4499  0.5464  1.6417
 1242TIP3   OH225140   5.749   6.727  12.984 -0.0131 -0.1482  0.0527
 1242TIP3    H125141   5.707   6.784  13.048 -1.2963 -1.2687  0.2470
 1242TIP3    H225142   5.683   6.661  12.964  1.2998 -1.3481 -0.4539
 1243TIP3   OH225143   0.516   0.046   1.390  0.2720  0.2630 -0.0686
 1243TIP3    H125144   0.558  -0.017   1.331 -1.3567  0.1793 -1.2187
 1243TIP3    H225145   0.587   0.103   1.419  1.4671 -0.9650 -0.4722
 1244TIP3   OH225146   5.651   0.617  16.971 -0.2062  0.3049  0.2645
 1244TIP3    H125147   5.658   0.710  16.992 -1.1737  0.6594 -0.8811
 1244TIP3    H225148   5.589   0.613  16.898 -0.6900 -1.3033  0.7154
 1245TIP3   OH225149   4.959   1.588  11.544  0.5973 -0.5070  0.2366
 1245TIP3    H125150   4.938   1.623  11.457 -1.4148  0.1382  0.9234
 1245TIP3    H225151   5.053   1.602  11.554  0.3451  2.3902 -0.5588
 1246TIP3   OH225152   1.015   6.112  16.837  0.4318 -0.1786  0.3400
 1246TIP3    H125153   1.021   6.190  16.893  2.1276  0.0357 -0.0770
 1246TIP3    H225154   0.921   6.099  16.823  0.0902  1.3424  1.0347
 1247TIP3   OH225155   2.085   3.610  14.981  0.8024  0.1043 -0.5676
 1247TIP3    H125156   2.102   3.588  14.889 -0.6823 -0.0937 -0.8185
 1247TIP3    H225157   2.096   3.526  15.027  0.5158 -0.0250 -0.7280
 1248TIP3   OH225158   5.409   4.889  13.896  1.0273 -0.1447 -0.0459
 1248TIP3    H125159   5.428   4.863  13.805 -0.0015 -0.5495 -0.1619
 1248TIP3    H225160   5.482   4.946  13.921  1.6960 -0.6134 -0.8825
 1249TIP3   OH225161   0.842   0.703   4.003  0.3058 -0.1042  0.0218
 1249TIP3    H125162   0.783   0.710   3.929  2.1581  0.2359 -1.4936
 1249TIP3    H225163   0.857   0.794   4.030  0.4509 -0.1679  0.1548
 1250TIP3   OH225164   3.508   3.500   1.877 -0.0721 -0.0066  0.5562
 1250TIP3    H125165   3.472   3.460   1.798  0.4548 -0.3218  0.4730
 1250TIP3    H225166   3.464   3.585   1.883 -1.2616 -0.6183  0.7789
 1251TIP3   OH225167   5.990   3.723  14.455  0.1416 -0.1176  0.2285
 1251TIP3    H125168   5.994   3.816  14.479  0.1489 -0.2316  0.6966
 1251TIP3    H225169   5.898   3.699  14.469  0.0891 -0.1202 -0.1286
 1252TIP3   OH225170   0.309   5.546   0.108  0.1046  0.4228 -0.0782
 1252TIP3    H125171   0.241   5.590   0.159  0.9836  1.3217  0.3671
 1252TIP3    H225172   0.291   5.572   0.017  0.0885  1.0002  0.0833
 1253TIP3   OH225173   0.250   2.784   4.267  0.0476  0.4176 -0.0757
 1253TIP3    H125174   0.246   2.702   4.316 -0.5172  0.6461  0.2678
 1253TIP3    H225175   0.327   2.829   4.301 -0.2221  0.4832  0.4589
 1254TIP3   OH225176   1.014   5.865  13.903  0.2759  0.7469  0.9357
 1254TIP3    H125177   1.103   5.829  13.899  0.4676  1.2638  0.2873
 1254TIP3    H225178   1.017   5.926  13.977  0.1989  0.0987  1.4807
 1255TIP3   OH225179   2.535   0.165   5.012  0.0374 -0.1797 -0.2971
 1255TIP3    H125180   2.615   0.205   5.046 -0.6716  0.7722  0.3206
 1255TIP3    H225181   2.464   0.221   5.045 -0.9029 -1.1416 -0.6116
 1256TIP3   OH225182   4.996   0.681  14.944  0.4585  0.2738 -0.2868
 1256TIP3    H125183   5.050   0.665  14.867 -0.2390 -0.6043 -0.6153
 1256TIP3    H225184   4.967   0.593  14.971  1.2416  0.4774  1.3926
 1257TIP3   OH225185   3.795   5.787  13.399 -0.8262 -0.2427  0.0062
 1257TIP3    H125186   3.852   5.805  13.325  1.4875 -0.4112  1.6699
 1257TIP3    H225187   3.754   5.871  13.419  0.0498  0.2475 -0.2296
 1258TIP3   OH225188   6.272   0.232  14.832  0.3565 -0.5619  0.4115
 1258TIP3    H125189   6.217   0.200  14.903  0.1159 -1.4679 -0.1687
 1258TIP3    H225190   6.300   0.319  14.860 -0.7745 -0.3926  1.0370
 1259TIP3   OH225191   2.133   3.180   6.401  0.0876  0.0054 -0.0584
 1259TIP3    H125192   2.220   3.217   6.413 -0.6897  2.2679 -0.9307
 1259TIP3    H225193   2.082   3.215   6.475 -0.3472 -0.4889 -0.1144
 1260TIP3   OH225194   4.398   5.611   3.481  0.1757 -0.0349 -0.3573
 1260TIP3    H125195   4.449   5.626   3.560  0.2592 -1.4643 -0.1128
 1260TIP3    H225196   4.316   5.573   3.513  0.6502 -1.6693 -0.9998
 1261TIP3   OH225197   5.143   3.780   4.693  0.0912 -0.5404  0.0434
 1261TIP3    H125198   5.139   3.687   4.714 -1.3264 -0.5650 -0.2158
 1261TIP3    H225199   5.220   3.789   4.637 -0.3776 -1.7534 -0.8465
 1262TIP3   OH225200   2.563   1.670   1.110  0.0366  0.8417  0.1718
 1262TIP3    H125201   2.642   1.657   1.058 -0.6886 -1.4656 -0.4886
 1262TIP3    H225202   2.491   1.654   1.050 -0.8398 -1.3723  1.6597
 1263TIP3   OH225203   2.074   3.325  12.319 -0.5480  0.1650 -0.4750
 1263TIP3    H125204   2.018   3.259  12.279  0.2311 -2.2240  2.1112
 1263TIP3    H225205   2.131   3.354  12.247 -1.7540 -1.0066 -1.9631
 1264TIP3   OH225206   0.313   4.149   5.011  0.2128 -0.2454  0.2060
 1264TIP3    H125207   0.354   4.207   5.075 -1.2342 -0.0877  1.0193
 1264TIP3    H225208   0.229   4.190   4.991 -0.5035 -1.6496  0.2051
 1265TIP3   OH225209   1.238   3.601   4.479 -0.1463 -0.0881 -0.0867
 1265TIP3    H125210   1.256   3.534   4.545  1.6527  0.3177 -0.1128
 1265TIP3    H225211   1.317   3.603   4.425 -0.7116  1.1277 -0.9072
 1266TIP3   OH225212   5.356   4.783  14.907 -0.6084  0.2706 -0.1629
 1266TIP3    H125213   5.263   4.771  14.927 -0.0734 -0.8861  1.8595
 1266TIP3    H225214   5.399   4.705  14.942  1.1776  0.9252 -0.7676
 1267TIP3   OH225215   3.292   5.668  17.059  0.7657 -0.2972  0.1628
 1267TIP3    H125216   3.223   5.728  17.031 -0.3249 -1.6904 -0.2362
 1267TIP3    H225217   3.358   5.674  16.991 -0.4111 -1.2808 -1.1060
 1268TIP3   OH225218   1.505   0.422  15.502 -0.1473 -0.1965 -0.2706
 1268TIP3    H125219   1.511   0.518  15.494  2.8335 -0.3973 -1.5672
 1268TIP3    H225220   1.549   0.402  15.584 -1.0518 -0.4918  0.1612
 1269TIP3   OH225221   5.515   5.051   2.159 -0.3743  0.1342  0.0949
 1269TIP3    H125222   5.573   4.974   2.163 -1.5673 -0.8278 -0.4666
 1269TIP3    H225223   5.472   5.044   2.073  0.5489  2.2389 -0.5981
 1270TIP3   OH225224   2.048   0.537  10.978  0.1281 -0.4083 -0.3254
 1270TIP3    H125225   2.107   0.463  10.971  0.1316 -0.4970  0.5612
 1270TIP3    H225226   1.976   0.506  11.034 -0.0394  0.1470 -0.2237
 1271TIP3   OH225227   1.492   0.449  16.112 -0.1311  0.6113 -0.0771
 1271TIP3    H125228   1.434   0.525  16.101 -1.7868 -0.6222 -0.2009
 1271TIP3    H225229   1.529   0.459  16.200 -1.0130  1.1149  0.2485
 1272TIP3   OH225230   5.737   4.641  13.405 -0.3898 -0.0246 -0.2366
 1272TIP3    H125231   5.732   4.707  13.337 -1.8633  1.6962  1.4465
 1272TIP3    H225232   5.663   4.583  13.388 -0.1174 -0.2408 -0.7049
 1273TIP3   OH225233   0.132   5.125   4.543 -0.1479  0.1335  0.3882
 1273TIP3    H125234   0.171   5.129   4.456  0.6240  1.1734  0.7439
 1273TIP3    H225235   0.063   5.191   4.541 -0.6643 -0.4051  0.3266
 1274TIP3   OH225236   2.945   0.684  12.231  0.2538  0.1495 -0.1864
 1274TIP3    H125237   2.986   0.738  12.299 -0.9394  0.0081  0.6847
 1274TIP3    H225238   2.886   0.743  12.185  0.3749  0.0276 -0.5014
 1275TIP3   OH225239   4.859   0.417  13.388 -0.2739  0.3238 -0.1975
 1275TIP3    H125240   4.915   0.494  13.383 -0.0710  0.2710  0.9267
 1275TIP3    H225241   4.807   0.430  13.467 -0.0263 -0.8141  0.1743
 1276TIP3   OH225242   1.341   1.673  10.604  0.1186 -0.2635  0.0512
 1276TIP3    H125243   1.266   1.620  10.579 -0.2701  0.5428 -0.5369
 1276TIP3    H225244   1.340   1.748  10.544  0.7030  0.3644  0.7864
 1277TIP3   OH225245   6.699   3.604   0.216  0.1621  0.0350  0.1479
 1277TIP3    H125246   6.745   3.520   0.210 -0.2654 -0.3115  1.3681
 1277TIP3    H225247   6.673   3.623   0.126  0.4626 -1.0342 -0.1870
 1278TIP3   OH225248   5.524   6.207   5.541 -0.7474 -0.6711  0.3723
 1278TIP3    H125249   5.459   6.143   5.570 -0.8461  0.3110  2.4834
 1278TIP3    H225250   5.572   6.230   5.621 -1.1069  2.3026 -0.1832
 1279TIP3   OH225251   2.472   2.016  11.943  0.2416 -0.4974 -0.0720
 1279TIP3    H125252   2.400   1.963  11.909  1.6046 -1.8334 -0.9950
 1279TIP3    H225253   2.449   2.032  12.035 -0.7107 -1.8077 -0.0564
 1280TIP3   OH225254   0.256   0.995   1.617  0.2587 -0.0016 -0.7577
 1280TIP3    H125255   0.270   1.009   1.710  0.7463 -1.0747 -0.6548
 1280TIP3    H225256   0.340   1.016   1.576  0.3154 -0.3883 -0.8464
 1281TIP3   OH225257   6.540   0.634   2.403 -0.2263 -0.3514 -0.1290
 1281TIP3    H125258   6.507   0.545   2.395  0.4941 -0.5105 -1.6297
 1281TIP3    H225259   6.501   0.667   2.484 -1.6464 -1.5276 -0.3025
 1282TIP3   OH225260   5.957   5.728  11.427  0.0369  0.7254  0.2675
 1282TIP3    H125261   5.945   5.691  11.514  0.6069 -0.8743 -0.2891
 1282TIP3    H225262   5.876   5.777  11.410 -0.9141 -0.5514  0.9394
 1283TIP3   OH225263   0.093   0.360   0.646  0.8530 -0.1745 -0.2401
 1283TIP3    H125264   0.023   0.309   0.686  0.4298  0.5683 -0.0240
 1283TIP3    H225265   0.164   0.296   0.632  0.1863 -0.8993 -0.3550
 1284TIP3   OH225266   4.577   6.313   2.577 -0.0780  0.2810  0.0218
 1284TIP3    H125267   4.510   6.328   2.511 -0.4311  0.3652  0.3901
 1284TIP3    H225268   4.646   6.264   2.532 -1.0324 -1.0653  0.0069
 1285TIP3   OH225269   3.941   3.776   5.534  0.7431 -0.0234 -0.8437
 1285TIP3    H125270   3.997   3.839   5.580  1.7326 -0.2528 -1.6945
 1285TIP3    H225271   3.872   3.755   5.597  1.2804  0.7216  0.0188
 1286TIP3   OH225272   1.871   4.074   5.674  0.2115  0.1516  0.1842
 1286TIP3    H125273   1.832   4.152   5.714 -0.5480 -0.2343  0.2161
 1286TIP3    H225274   1.952   4.106   5.634 -1.4181  1.5929 -2.2678
 1287TIP3   OH225275   6.058   3.432  12.974 -0.1641 -0.3952 -0.0087
 1287TIP3    H125276   5.982   3.410  12.920 -0.6652  0.2176  0.4226
 1287TIP3    H225277   6.106   3.497  12.923 -0.0146 -0.6587 -0.2077
 1288TIP3   OH225278   4.745   3.733   5.611  0.5873  0.1302 -0.0019
 1288TIP3    H125279   4.697   3.737   5.528  0.2793  0.8243  0.1999
 1288TIP3    H225280   4.819   3.792   5.599  1.4897 -1.0288 -0.3545
 1289TIP3   OH225281   5.565   3.373   3.603  0.6754 -0.6153  0.4514
 1289TIP3    H125282   5.610   3.378   3.688  0.8956 -0.8657  0.3506
 1289TIP3    H225283   5.511   3.294   3.609  0.3757 -0.4085  0.5084
 1290TIP3   OH225284   0.985   3.314  14.113  0.2320  0.4618 -0.2792
 1290TIP3    H125285   1.066   3.364  14.108  1.6040 -1.6483 -0.3048
 1290TIP3    H225286   0.927   3.368  14.168  2.5329  0.9177  1.9090
 1291TIP3   OH225287   4.992   5.025  11.219  0.0495  0.2566 -0.2908
 1291TIP3    H125288   5.016   5.086  11.150  1.9434 -0.6255 -0.4567
 1291TIP3    H225289   5.075   4.987  11.248 -0.9177 -1.0059  0.9625
 1292TIP3   OH225290   4.156   2.784  15.688 -0.2409 -0.0213  0.5854
 1292TIP3    H125291   4.085   2.720  15.698 -1.0162  0.2325 -2.3805
 1292TIP3    H225292   4.235   2.734  15.707 -1.0103 -1.0027  1.3807
 1293TIP3   OH225293   1.573   1.859   3.253 -0.0516 -0.1389 -0.6185
 1293TIP3    H125294   1.563   1.927   3.320  0.2882 -0.5184 -0.1767
 1293TIP3    H225295   1.614   1.903   3.179  0.8710 -0.0249 -0.0543
 1294TIP3   OH225296   4.674   4.900   2.302  0.0029  0.0467 -0.0624
 1294TIP3    H125297   4.659   4.976   2.357  0.2403 -0.3748  0.6011
 1294TIP3    H225298   4.766   4.905   2.278 -0.2647  0.6032 -1.0063
 1295TIP3   OH225299   5.283   6.601   5.839  0.0404 -0.7917 -0.1330
 1295TIP3    H125300   5.205   6.652   5.861  1.3127  0.7657  0.9724
 1295TIP3    H225301   5.327   6.652   5.771  0.6225 -1.1447 -0.0235
 1296TIP3   OH225302   4.018   4.512  15.643  0.0166  0.6665  0.2934
 1296TIP3    H125303   4.082   4.535  15.576 -1.0612  0.5888 -0.7997
 1296TIP3    H225304   4.069   4.470  15.711  0.8710 -1.3740 -1.4972
 1297TIP3   OH225305   1.602   4.712  12.505 -0.1727 -0.3898  0.1123
 1297TIP3    H125306   1.672   4.650  12.522 -0.6252 -0.7634  0.6406
 1297TIP3    H225307   1.587   4.756  12.589 -2.1515 -1.9644  0.6565
 1298TIP3   OH225308   2.758   2.404   3.257 -0.6294 -0.1329  0.6320
 1298TIP3    H125309   2.792   2.444   3.337 -1.6005  1.0167  0.4989
 1298TIP3    H225310   2.759   2.474   3.192 -1.9811 -0.4010  0.2809
 1299TIP3   OH225311   1.389   0.580  12.083  0.3758  0.2312 -0.7347
 1299TIP3    H125312   1.398   0.587  12.178 -0.7690  3.8836 -0.7530
 1299TIP3    H225313   1.464   0.627  12.048  1.1639 -1.6630 -1.7501
 1300TIP3   OH225314   0.887   0.161  10.925 -0.7091 -0.6374  0.2543
 1300TIP3    H125315   0.950   0.209  10.871  0.5847 -1.1511  1.2489
 1300TIP3    H225316   0.837   0.108  10.863  0.6416 -1.0986 -0.4702
 1301TIP3   OH225317   4.504   3.932  11.286 -0.3426  0.2060  0.0623
 1301TIP3    H125318   4.576   3.869  11.290 -1.4137 -1.0130  1.1670
 1301TIP3    H225319   4.426   3.880  11.304 -1.3950  1.6858 -0.0275
 1302TIP3   OH225320   6.573   4.626  15.588 -0.2966 -0.0596 -0.1381
 1302TIP3    H125321   6.541   4.625  15.678  1.0971 -0.2698  0.3747
 1302TIP3    H225322   6.531   4.703  15.549 -2.0249 -0.7573  0.2387
 1303TIP3   OH225323   6.357   3.577   1.643  0.6724  0.0123 -0.7632
 1303TIP3    H125324   6.277   3.610   1.601 -0.7155 -0.8529  1.0490
 1303TIP3    H225325   6.327   3.503   1.697  2.7222 -0.3803 -0.0623
 1304TIP3   OH225326   3.113   5.641  15.170 -0.4327  0.2292 -0.3606
 1304TIP3    H125327   3.138   5.662  15.261  2.3686 -2.0966 -0.4445
 1304TIP3    H225328   3.045   5.575  15.178  0.0009 -0.1766  0.0896
 1305TIP3   OH225329   5.344   5.984  12.341 -0.0497 -0.2632 -0.2631
 1305TIP3    H125330   5.396   6.031  12.276 -1.4275  0.0574 -1.1658
 1305TIP3    H225331   5.313   6.051  12.401 -0.2437 -0.3116 -0.3079
 1306TIP3   OH225332   3.242   5.105   0.933  0.1485  0.6267 -0.2959
 1306TIP3    H125333   3.246   5.200   0.924 -0.7477  0.6873 -0.1755
 1306TIP3    H225334   3.165   5.080   0.882  1.3805 -0.2400 -1.8162
 1307TIP3   OH225335   1.066   2.064   3.799 -0.4487  0.1301 -0.7168
 1307TIP3    H125336   1.049   2.079   3.892 -0.3103 -0.0317 -0.6655
 1307TIP3    H225337   1.156   2.096   3.786  0.4897 -2.1441 -0.2503
 1308TIP3   OH225338   6.411   6.528   2.398 -0.0457  0.0049  0.0781
 1308TIP3    H125339   6.437   6.527   2.490 -0.1373 -0.4152  0.0988
 1308TIP3    H225340   6.331   6.581   2.397 -0.5054 -0.6740  0.3646
 1309TIP3   OH225341   1.561   3.408   0.194 -0.3074  0.3712 -0.0192
 1309TIP3    H125342   1.620   3.396   0.119  0.5554 -0.1446  0.7170
 1309TIP3    H225343   1.549   3.320   0.229 -0.4478  0.6496  0.6432
 1310TIP3   OH225344   1.436   4.356   4.347 -0.5636 -0.0803  0.4462
 1310TIP3    H125345   1.517   4.362   4.397 -0.9344 -0.2502  1.0732
 1310TIP3    H225346   1.418   4.262   4.342 -0.7567 -0.0387  0.3638
 1311TIP3   OH225347   5.427   2.411   1.521 -0.5133  0.2181  0.0212
 1311TIP3    H125348   5.465   2.355   1.588 -1.0940 -2.1621 -1.5212
 1311TIP3    H225349   5.362   2.356   1.477 -1.1090  2.0980 -1.6262
 1312TIP3   OH225350   2.488   5.018   3.858  0.3113 -0.0226 -0.4231
 1312TIP3    H125351   2.483   4.971   3.941  0.9194  0.0035 -0.3650
 1312TIP3    H225352   2.426   4.973   3.800 -0.1544 -0.0057  0.0584
 1313TIP3   OH225353   0.510   3.935   2.246 -0.0874  0.1859  0.4200
 1313TIP3    H125354   0.583   3.995   2.257  0.0443 -0.2230  2.0481
 1313TIP3    H225355   0.432   3.990   2.257 -0.1075  0.8039 -2.2593
 1314TIP3   OH225356   1.497   3.946   2.934  0.0332 -0.0613 -0.2194
 1314TIP3    H125357   1.572   3.886   2.938  0.9860  1.0506 -0.9724
 1314TIP3    H225358   1.430   3.896   2.887 -0.0921 -1.4471  1.3541
 1315TIP3   OH225359   0.919   0.366  15.164 -0.2657 -0.0503 -0.4443
 1315TIP3    H125360   0.875   0.417  15.096  0.9451  1.7215  0.0163
 1315TIP3    H225361   0.927   0.428  15.237  1.2454 -0.9255  0.1595
 1316TIP3   OH225362   1.378   4.633   6.171 -0.2404 -0.0314  0.4298
 1316TIP3    H125363   1.449   4.665   6.226 -0.3116 -0.6498  0.9001
 1316TIP3    H225364   1.356   4.547   6.209  0.2888 -0.8732 -1.0667
 1317TIP3   OH225365   2.882   4.057  13.922 -0.1303 -0.4778 -0.3431
 1317TIP3    H125366   2.859   4.141  13.962 -1.9794 -1.2264  0.3227
 1317TIP3    H225367   2.822   4.049  13.847 -0.0881 -1.2512 -0.3073
 1318TIP3   OH225368   6.217   2.945  11.694 -0.0563 -0.7399 -0.0057
 1318TIP3    H125369   6.257   3.002  11.628 -0.6045 -2.0523 -1.5370
 1318TIP3    H225370   6.126   2.937  11.667 -1.2393  1.3582  2.8479
 1319TIP3   OH225371   2.697   2.181  14.298 -0.4640  0.7769  0.1544
 1319TIP3    H125372   2.789   2.204  14.285  0.0430 -0.7754  0.7785
 1319TIP3    H225373   2.651   2.264  14.291  1.0399  1.6679  0.3223
 1320TIP3   OH225374   6.771   6.487   2.425 -0.7593  0.2352  0.3584
 1320TIP3    H125375   6.778   6.419   2.492  0.5312 -0.8087 -0.7719
 1320TIP3    H225376   6.780   6.569   2.474 -1.3236 -0.4247  1.6272
 1321TIP3   OH225377   2.685   5.306  11.211 -0.1942  0.4496  0.4569
 1321TIP3    H125378   2.652   5.235  11.155 -0.3913  0.4369  0.5870
 1321TIP3    H225379   2.735   5.362  11.152 -2.7359  2.0157 -0.3684
 1322TIP3   OH225380   1.992   1.466   6.518 -0.0205  0.2080  0.0473
 1322TIP3    H125381   1.946   1.541   6.481 -0.0197  0.0773 -0.2205
 1322TIP3    H225382   2.039   1.502   6.593  0.5411  0.6175 -0.4883
 1323TIP3   OH225383   0.551   6.573  14.537  0.0103  0.3779  0.6085
 1323TIP3    H125384   0.602   6.602  14.612  0.5177  0.5068  0.2247
 1323TIP3    H225385   0.529   6.482  14.556  1.7238 -0.1755  0.0940
 1324TIP3   OH225386   4.011   0.155  12.964 -0.2512  0.0166  0.3374
 1324TIP3    H125387   4.074   0.089  12.934 -0.7812 -0.2351 -0.2374
 1324TIP3    H225388   4.036   0.234  12.916 -0.2611 -0.0379  0.2417
 1325TIP3   OH225389   6.782   1.442   3.488  0.3077 -0.1590 -0.1725
 1325TIP3    H125390   6.722   1.420   3.559  0.2405  1.1171  0.2004
 1325TIP3    H225391   6.862   1.472   3.532  0.6137 -0.2680 -0.6474
 1326TIP3   OH225392   6.529   0.999   5.278  0.0209  0.2964 -0.3335
 1326TIP3    H125393   6.532   1.081   5.228  1.9426 -1.0497 -2.6250
 1326TIP3    H225394   6.540   1.026   5.369  0.2902  2.6006 -0.9903
 1327TIP3   OH225395   5.473   0.980   5.093  0.6045 -0.8738 -0.5897
 1327TIP3    H125396   5.494   1.060   5.141 -0.0621 -1.5003  0.8268
 1327TIP3    H225397   5.377   0.979   5.089  0.5662 -1.9162  0.0444
 1328TIP3   OH225398   5.855   0.195  14.013 -0.0583 -0.4148  0.1016
 1328TIP3    H125399   5.944   0.198  13.976 -0.0345 -1.0982  0.0825
 1328TIP3    H225400   5.798   0.180  13.938 -0.1153 -0.7396  0.2086
 1329TIP3   OH225401   0.448   5.841   4.364  0.4933  0.6384  0.0449
 1329TIP3    H125402   0.484   5.848   4.275 -0.1041  2.3101 -0.1017
 1329TIP3    H225403   0.471   5.925   4.405 -2.0292  1.2415  0.3631
 1330TIP3   OH225404   4.153   0.795  13.295 -0.0039  0.1690 -0.4474
 1330TIP3    H125405   4.089   0.775  13.364 -0.7977  1.9236 -0.6122
 1330TIP3    H225406   4.233   0.750  13.323  0.5325  2.8223  3.0837
 1331TIP3   OH225407   4.926   1.065  11.876  0.2258 -0.4216  0.1249
 1331TIP3    H125408   5.009   1.104  11.906 -0.4454  0.1483  1.2946
 1331TIP3    H225409   4.895   1.015  11.951 -0.3792 -0.8514 -0.3990
 1332TIP3   OH225410   6.095   3.375   5.616 -0.1135 -0.2384  0.3248
 1332TIP3    H125411   6.004   3.395   5.637 -0.5425 -1.5957 -0.1102
 1332TIP3    H225412   6.118   3.305   5.678  0.8252  0.5046  0.8252
 1333TIP3   OH225413   0.670   5.750   1.759  0.4355 -0.4494 -0.1624
 1333TIP3    H125414   0.606   5.753   1.688  1.2634  2.2761 -0.9365
 1333TIP3    H225415   0.711   5.836   1.757  1.4054 -0.7365  2.8299
 1334TIP3   OH225416   2.796   6.684  17.215 -0.0017 -0.5397 -0.0046
 1334TIP3    H125417   2.867   6.749  17.204 -0.7513  0.1085 -1.2978
 1334TIP3    H225418   2.820   6.636  17.294  0.7837  1.0680  0.7846
 1335TIP3   OH225419   0.713   3.282   3.406 -0.2951 -0.1792 -0.2132
 1335TIP3    H125420   0.785   3.221   3.419 -1.0531 -1.1416 -0.3890
 1335TIP3    H225421   0.653   3.264   3.479  0.4769  1.8987  1.0172
 1336TIP3   OH225422   5.575   3.154  11.222  0.1260  0.8322 -0.0268
 1336TIP3    H125423   5.599   3.149  11.130  0.2810 -0.2948  0.0590
 1336TIP3    H225424   5.500   3.214  11.224 -2.3171 -1.9112 -1.4424
 1337TIP3   OH225425   0.815   0.747  14.952 -0.4897 -0.0727  0.3353
 1337TIP3    H125426   0.727   0.778  14.930 -0.0643  0.1130 -1.2527
 1337TIP3    H225427   0.874   0.801  14.899  0.4387 -1.7658 -0.4346
 1338TIP3   OH225428   2.194   5.510  13.708  0.2146 -0.3961  0.1046
 1338TIP3    H125429   2.154   5.450  13.770 -0.3387  0.9404  1.1067
 1338TIP3    H225430   2.219   5.586  13.761 -0.2497  0.7812 -1.2825
 1339TIP3   OH225431   0.057   3.289   6.717  0.5463  0.1830 -0.5467
 1339TIP3    H125432   0.043   3.383   6.718 -0.4990  0.0524  1.1547
 1339TIP3    H225433   0.004   3.257   6.645  0.6538  0.8431 -0.9316
 1340TIP3   OH225434   1.309   0.312  10.415  0.2032  0.7468  0.1505
 1340TIP3    H125435   1.264   0.287  10.334  1.9291 -0.3261 -0.5438
 1340TIP3    H225436   1.313   0.407  10.412 -0.1403  0.7457 -0.8035
 1341TIP3   OH225437   3.558   2.920  13.548  0.4143  0.8160  1.0491
 1341TIP3    H125438   3.568   2.975  13.471  0.4713 -0.5596  0.0408
 1341TIP3    H225439   3.464   2.903  13.554  0.6423 -1.7026 -0.7028
 1342TIP3   OH225440   6.440   2.678  13.502 -0.1200 -0.1822  0.4522
 1342TIP3    H125441   6.384   2.673  13.580 -1.9860  0.0422 -0.7904
 1342TIP3    H225442   6.529   2.670  13.535 -0.9216 -1.5725  2.4531
 1343TIP3   OH225443   6.025   6.337   1.848  0.4500  0.0922 -0.3105
 1343TIP3    H125444   5.987   6.403   1.906 -1.1475 -0.4345 -0.7096
 1343TIP3    H225445   6.048   6.265   1.907  0.6104  0.3184 -0.0933
 1344TIP3   OH225446   6.659   6.537  15.654  0.6511  0.3464  0.0764
 1344TIP3    H125447   6.578   6.519  15.605  0.3386  0.6085  0.4938
 1344TIP3    H225448   6.697   6.613  15.611 -0.3258  1.4404  1.0529
 1345TIP3   OH225449   1.134   4.560  14.637  0.8886  0.0597  0.0667
 1345TIP3    H125450   1.140   4.468  14.613  2.5229 -0.0067  0.6391
 1345TIP3    H225451   1.147   4.607  14.555 -0.3529 -0.1909 -0.2997
 1346TIP3   OH225452   2.856   2.833   2.333  0.1537 -0.0937 -0.0825
 1346TIP3    H125453   2.837   2.920   2.296 -1.9652 -0.4871 -0.0279
 1346TIP3    H225454   2.870   2.777   2.256  2.5312  0.4233 -0.1178
 1347TIP3   OH225455   3.990   5.935   6.420  0.0844 -0.2020 -0.0965
 1347TIP3    H125456   3.907   5.980   6.436  0.7321  0.9818  0.0644
 1347TIP3    H225457   3.985   5.909   6.328 -0.2759  0.2753 -0.2190
 1348TIP3   OH225458   1.463   5.323   0.407  0.4433  0.4136  0.3809
 1348TIP3    H125459   1.437   5.232   0.426 -0.7892 -0.0975 -3.1209
 1348TIP3    H225460   1.431   5.339   0.319  1.4564  4.0127  0.5314
 1349TIP3   OH225461   0.605   5.702  12.110  0.2364  0.3540 -0.1279
 1349TIP3    H125462   0.540   5.631  12.111  0.2975  0.2336 -1.9705
 1349TIP3    H225463   0.555   5.781  12.091  0.7171  0.0707 -2.9230
 1350TIP3   OH225464   1.109   5.091  12.097  0.8140  0.0492 -0.4036
 1350TIP3    H125465   1.019   5.111  12.074  0.4557 -0.3819  0.5814
 1350TIP3    H225466   1.110   5.087  12.193  2.2446  1.7387 -0.2852
 1351TIP3   OH225467   6.132   1.437  14.303 -0.6176  0.0481  0.3507
 1351TIP3    H125468   6.181   1.414  14.382  1.9538  1.4857 -0.6921
 1351TIP3    H225469   6.167   1.523  14.277 -1.4360 -0.3160 -2.2866
 1352TIP3   OH225470   4.554   2.504  16.461  0.3043  0.0054 -0.3633
 1352TIP3    H125471   4.463   2.485  16.484 -0.1858  2.5468  0.0539
 1352TIP3    H225472   4.588   2.420  16.431 -0.5950 -2.3879  4.3106
 1353TIP3   OH225473   1.081   0.620  16.559  0.4002 -0.2413  0.4333
 1353TIP3    H125474   1.118   0.555  16.500 -0.3413  0.3786 -0.7500
 1353TIP3    H225475   1.094   0.704  16.515 -1.0515  0.1347  0.6428
 1354TIP3   OH225476   4.225   4.526   1.623 -0.1610  0.1666  0.4830
 1354TIP3    H125477   4.257   4.451   1.573  0.8447  1.0183 -0.1986
 1354TIP3    H225478   4.130   4.523   1.613 -0.0157  0.0044 -1.0660
 1355TIP3   OH225479   5.322   4.458   0.490 -0.6735  0.3590 -0.2630
 1355TIP3    H125480   5.344   4.399   0.561  2.7516  0.8642 -0.7307
 1355TIP3    H225481   5.315   4.402   0.413  0.5842  0.2888 -0.3495
 1356TIP3   OH225482   5.991   5.004  16.638  0.0764  0.6659 -0.2357
 1356TIP3    H125483   6.062   4.950  16.604  0.8182  1.1029  0.5702
 1356TIP3    H225484   5.985   4.981  16.731 -0.7292  0.7484 -0.2590
 1357TIP3   OH225485   4.213   0.787  14.000  0.2127  0.2839 -0.1786
 1357TIP3    H125486   4.165   0.743  14.070 -1.5201  1.2929 -0.6865
 1357TIP3    H225487   4.183   0.744  13.919  0.6971  0.4538 -0.4548
 1358TIP3   OH225488   6.027   6.746   3.959  0.3905 -0.2179 -0.3815
 1358TIP3    H125489   5.968   6.789   3.897  0.2994  0.3700  0.0980
 1358TIP3    H225490   6.058   6.817   4.016  0.5076 -0.7328  0.2153
 1359TIP3   OH225491   3.568   1.720  15.608  0.3234 -0.1528 -0.7770
 1359TIP3    H125492   3.541   1.632  15.634  0.0626  0.2878  0.4960
 1359TIP3    H225493   3.528   1.777  15.673  1.2328  0.8375 -1.0700
 1360TIP3   OH225494   2.195   0.352   4.762 -0.2231 -0.5782 -0.0986
 1360TIP3    H125495   2.215   0.439   4.799 -0.0602 -1.3998  1.8994
 1360TIP3    H225496   2.108   0.361   4.724 -0.3308  0.3925  0.3485
 1361TIP3   OH225497   4.126   0.456   4.204 -0.1997  0.1583  0.4161
 1361TIP3    H125498   4.199   0.516   4.190 -1.7240  2.3623  1.4029
 1361TIP3    H225499   4.077   0.457   4.122 -0.4815  0.6672  0.5861
 1362TIP3   OH225500   0.546   4.863  15.016  0.1088 -0.0409 -0.4344
 1362TIP3    H125501   0.451   4.856  15.017  0.0080  0.2910 -2.5073
 1362TIP3    H225502   0.564   4.951  15.049 -0.1497 -0.6843  1.5709
 1363TIP3   OH225503   4.981   0.740  14.048 -0.0025  0.0605 -0.0616
 1363TIP3    H125504   5.044   0.698  14.106  0.3505 -0.1337 -0.5793
 1363TIP3    H225505   4.989   0.834  14.066 -1.2428 -0.1103  1.5537
 1364TIP3   OH225506   3.709   3.809   6.116 -0.1443  0.2224  0.4937
 1364TIP3    H125507   3.690   3.838   6.205  0.1848 -0.6682  0.8579
 1364TIP3    H225508   3.757   3.883   6.077  0.8806  0.1005  1.4825
 1365TIP3   OH225509   4.212   3.911  12.559  0.3036  0.2840  0.2810
 1365TIP3    H125510   4.218   4.001  12.529  1.5567  0.3487  0.6626
 1365TIP3    H225511   4.224   3.858  12.480 -0.5156  0.4341  0.0443
 1366TIP3   OH225512   3.513   3.063   0.130  0.0006 -0.6743  0.1581
 1366TIP3    H125513   3.423   3.091   0.147 -0.7816 -2.7282 -0.4017
 1366TIP3    H225514   3.516   2.972   0.157  1.4187 -1.1688 -1.4723
 1367TIP3   OH225515   2.368   1.046   2.684 -0.3924  0.4889 -0.1855
 1367TIP3    H125516   2.438   1.091   2.636 -0.9686 -0.0889 -1.6372
 1367TIP3    H225517   2.314   1.006   2.616  0.0367 -2.3692  1.0439
 1368TIP3   OH225518   0.646   0.250   1.486 -0.5964 -0.3843  0.1506
 1368TIP3    H125519   0.591   0.304   1.544 -0.3777 -0.6830  0.6462
 1368TIP3    H225520   0.722   0.227   1.540 -0.4795 -0.8287 -0.1953
 1369TIP3   OH225521   4.763   5.636  13.087 -0.0009 -0.3629 -0.8459
 1369TIP3    H125522   4.711   5.714  13.069 -2.5204 -1.3616  1.4966
 1369TIP3    H225523   4.731   5.570  13.025  0.1155 -0.3686 -0.9032
 1370TIP3   OH225524   0.031   0.660   2.401 -0.1887 -0.0244 -0.0748
 1370TIP3    H125525   0.034   0.657   2.306  1.3200  0.5703 -0.0668
 1370TIP3    H225526  -0.063   0.652   2.422 -0.6377  0.7999 -1.6274
 1371TIP3   OH225527   1.710   3.288   2.612 -0.0054 -0.3271 -0.4432
 1371TIP3    H125528   1.676   3.353   2.673  1.1229  0.5765 -0.7470
 1371TIP3    H225529   1.726   3.210   2.666 -3.7807 -1.3372 -0.5020
 1372TIP3   OH225530   6.365   0.012  14.670 -0.0172 -0.5198 -0.2546
 1372TIP3    H125531   6.339   0.100  14.697  0.6087  0.5662 -2.9258
 1372TIP3    H225532   6.290  -0.043  14.695 -0.8844  0.9361  0.4991
 1373TIP3   OH225533   3.543   0.513   4.085  0.9215 -0.2432 -0.5397
 1373TIP3    H125534   3.519   0.449   4.018 -1.8069 -1.2576  1.2191
 1373TIP3    H225535   3.597   0.464   4.147  1.1493 -0.0754 -0.6060
 1374TIP3   OH225536   0.049   2.449   5.852  0.2740 -0.5186 -0.0362
 1374TIP3    H125537   0.092   2.439   5.767  3.6313 -1.2884  1.5709
 1374TIP3    H225538   0.001   2.368   5.864 -2.1166  0.4630 -1.9975
 1375TIP3   OH225539   1.647   3.211  12.774  0.0558  0.5608 -0.5379
 1375TIP3    H125540   1.674   3.291  12.818  0.0380  0.1261  0.2695
 1375TIP3    H225541   1.705   3.143  12.808 -1.8406 -0.3567  1.0940
 1376TIP3   OH225542   0.149   2.073   1.033  0.0510  0.1022 -0.1683
 1376TIP3    H125543   0.178   1.992   0.990  1.0871 -0.4790  1.5161
 1376TIP3    H225544   0.063   2.091   0.995  0.9068 -0.3247 -2.4833
 1377TIP3   OH225545   2.157   3.192  16.475  0.8040 -0.2135 -0.1062
 1377TIP3    H125546   2.143   3.276  16.517 -1.4697 -0.4444 -0.2646
 1377TIP3    H225547   2.100   3.131  16.522  1.1443 -1.3079 -1.0436
 1378TIP3   OH225548   0.835   0.010   1.091 -0.5697  0.0716  0.0434
 1378TIP3    H125549   0.914   0.060   1.071 -0.8216 -0.3991 -2.3428
 1378TIP3    H225550   0.868  -0.073   1.125 -0.0384 -0.0355 -0.7166
 1379TIP3   OH225551   4.937   2.253  16.826  0.7356 -0.3992 -0.3279
 1379TIP3    H125552   5.015   2.220  16.781 -0.6677 -2.3273 -1.5056
 1379TIP3    H225553   4.969   2.278  16.913  2.9277  0.3593 -1.2766
 1380TIP3   OH225554   3.133   6.641  14.626 -0.5546 -0.1570  0.7062
 1380TIP3    H125555   3.176   6.595  14.698 -0.7433 -0.6055  0.5315
 1380TIP3    H225556   3.059   6.586  14.603 -0.4024 -0.0904  0.0593
 1381TIP3   OH225557   5.678   0.978  14.341  0.5286 -0.3908  0.1797
 1381TIP3    H125558   5.770   0.962  14.319  0.6538 -1.2286  1.2225
 1381TIP3    H225559   5.634   0.895  14.324 -0.3292  0.3846 -1.6150
 1382TIP3   OH225560   5.351   3.256  10.879  0.0493  0.3264 -0.0673
 1382TIP3    H125561   5.442   3.263  10.851  0.0935  2.0384  0.3703
 1382TIP3    H225562   5.317   3.345  10.872 -1.0386  0.0902  1.5729
 1383TIP3   OH225563   1.708   6.423  11.592 -0.1418  0.2823  0.2216
 1383TIP3    H125564   1.645   6.496  11.591  0.1520  0.5481 -0.9985
 1383TIP3    H225565   1.702   6.386  11.504  0.9403 -0.1020  0.3006
 1384TIP3   OH225566   2.522   1.683   0.530  0.0529 -0.0106 -0.0092
 1384TIP3    H125567   2.613   1.660   0.550  0.2021 -1.2355 -1.8400
 1384TIP3    H225568   2.496   1.622   0.461 -2.0852  0.5033  0.2577
 1385TIP3   OH225569   4.800   2.323  11.480  0.2138 -0.3385  0.3284
 1385TIP3    H125570   4.771   2.274  11.403 -0.0941  1.6403 -0.9104
 1385TIP3    H225571   4.741   2.295  11.550 -2.0265  0.4850 -1.0974
 1386TIP3   OH225572   0.831   5.438  12.657  0.1628  0.3314  1.0537
 1386TIP3    H125573   0.756   5.476  12.703  0.2054  1.9162 -0.1243
 1386TIP3    H225574   0.873   5.512  12.614 -1.2466 -1.1660 -3.5254
 1387TIP3   OH225575   6.455   1.875   4.226  0.5558  0.5795  0.2363
 1387TIP3    H125576   6.407   1.863   4.144  0.3591  1.1062  0.2716
 1387TIP3    H225577   6.388   1.897   4.291  0.7558  0.5777  0.4453
 1388TIP3   OH225578   3.416   4.448  12.794 -0.1880 -0.5476 -0.1009
 1388TIP3    H125579   3.476   4.386  12.836 -0.9093  0.1679  2.1122
 1388TIP3    H225580   3.467   4.485  12.722  0.3008 -3.5933 -1.5161
 1389TIP3   OH225581   6.442   0.414  15.383  0.1685  0.0720  0.0675
 1389TIP3    H125582   6.506   0.359  15.339 -1.3583 -0.9194 -0.9747
 1389TIP3    H225583   6.446   0.386  15.475 -0.5168 -1.7364 -0.4220
 1390TIP3   OH225584   4.091   6.131   3.367  0.3204 -0.7666 -0.4758
 1390TIP3    H125585   4.095   6.146   3.272 -1.8130 -0.4032 -0.5770
 1390TIP3    H225586   4.125   6.211   3.406 -1.4438  0.2856 -0.9902
 1391TIP3   OH225587   4.715   1.279   5.506  0.4305  0.3160  0.0054
 1391TIP3    H125588   4.779   1.316   5.444  0.7232 -0.9141 -0.4723
 1391TIP3    H225589   4.765   1.268   5.587  0.0776  1.8261  0.4508
 1392TIP3   OH225590   4.955   2.830  13.016  0.2505  0.2997 -0.5831
 1392TIP3    H125591   4.956   2.760  12.950 -0.2097  1.1640 -1.5452
 1392TIP3    H225592   5.040   2.823  13.059  0.4534 -0.4649 -1.0893
 1393TIP3   OH225593   1.827   5.078  10.733  0.0890 -0.2272 -0.0956
 1393TIP3    H125594   1.892   5.109  10.670 -0.2614  2.2002  0.6281
 1393TIP3    H225595   1.851   4.987  10.749  1.4274 -0.3077 -2.1443
 1394TIP3   OH225596   4.115   2.490  15.989 -0.1185  0.0935  0.2195
 1394TIP3    H125597   4.074   2.515  15.906  1.3406  0.0817 -0.5491
 1394TIP3    H225598   4.130   2.573  16.034  0.4531  0.2466 -0.2292
 1395TIP3   OH225599   0.519   4.124  15.449 -0.2954  0.2827  0.7504
 1395TIP3    H125600   0.611   4.149  15.462 -0.5619  0.7026  1.9261
 1395TIP3    H225601   0.508   4.121  15.354  0.3831  2.3093  0.5609
 1396TIP3   OH225602   1.680   4.173   4.047 -0.0189  0.1701 -0.1517
 1396TIP3    H125603   1.712   4.097   3.998 -2.1555  0.1757 -1.7204
 1396TIP3    H225604   1.629   4.135   4.119 -0.2399  0.1159 -0.3348
 1397TIP3   OH225605   0.860   0.867  13.633  0.3583  0.1730  0.0520
 1397TIP3    H125606   0.782   0.813  13.625  0.3687  0.2817 -0.8794
 1397TIP3    H225607   0.857   0.900  13.722 -1.5282  1.4847 -0.4375
 1398TIP3   OH225608   3.453   5.560   2.713 -0.1956 -0.1407  0.3353
 1398TIP3    H125609   3.397   5.540   2.639 -0.9380  0.3095  0.7678
 1398TIP3    H225610   3.393   5.589   2.782  0.5228 -0.0908  0.9544
 1399TIP3   OH225611   1.654   6.481   1.767  0.4135  0.0836 -0.0431
 1399TIP3    H125612   1.693   6.395   1.785 -1.1219 -0.8728 -1.1143
 1399TIP3    H225613   1.609   6.504   1.848 -0.3804 -0.8217 -0.2095
 1400TIP3   OH225614   3.432   5.696  15.729 -0.3762  0.4269  0.3250
 1400TIP3    H125615   3.375   5.714  15.654  0.1421  1.4875  0.1724
 1400TIP3    H225616   3.410   5.764  15.792  0.6966  0.8374  0.2716
 1401TIP3   OH225617   4.538   2.329   0.920 -0.0982 -0.1204 -0.2001
 1401TIP3    H125618   4.532   2.400   0.983  2.7971 -0.3609  0.5120
 1401TIP3    H225619   4.581   2.368   0.844  1.5009 -0.9974  0.1901
 1402TIP3   OH225620   3.845   0.970  11.944 -0.0664  0.4179  0.0901
 1402TIP3    H125621   3.803   1.026  12.009 -0.8189 -1.1261  0.9599
 1402TIP3    H225622   3.936   0.965  11.972 -0.6894 -1.5048  2.0013
 1403TIP3   OH225623   1.101   0.170  15.273 -0.7388  0.2239 -0.6683
 1403TIP3    H125624   1.187   0.211  15.281  0.0243 -1.1589 -1.4170
 1403TIP3    H225625   1.053   0.226  15.212  0.4191 -0.1750 -1.9790
 1404TIP3   OH225626   1.360   5.493   6.159 -0.2669 -0.6135  0.6480
 1404TIP3    H125627   1.281   5.546   6.171  0.7681  1.0918  0.4001
 1404TIP3    H225628   1.361   5.434   6.233  0.7110  2.7206  3.5847
 1405TIP3   OH225629   2.643   1.263  13.284  0.5184  0.0140  0.2608
 1405TIP3    H125630   2.688   1.180  13.296  0.3588 -0.0331  0.5394
 1405TIP3    H225631   2.551   1.240  13.279  0.5184  0.1169 -0.2463
 1406TIP3   OH225632   0.073   3.202   5.834 -0.0059  0.4757  0.4476
 1406TIP3    H125633  -0.017   3.234   5.830  0.5192  1.9510 -0.7067
 1406TIP3    H225634   0.126   3.282   5.834  1.3596 -0.3658 -1.2684
 1407TIP3   OH225635   2.369   0.059  12.873  0.2818  0.2953  0.2374
 1407TIP3    H125636   2.452   0.012  12.874  0.6175  0.8847  0.6889
 1407TIP3    H225637   2.392   0.149  12.849 -0.4190  0.1364 -1.1722
 1408TIP3   OH225638   4.359   6.171   4.446  0.3227 -0.0546 -0.2642
 1408TIP3    H125639   4.291   6.119   4.404  1.3016 -0.6858 -1.1256
 1408TIP3    H225640   4.339   6.167   4.539 -1.9480  1.4224 -0.6167
 1409TIP3   OH225641   1.381   1.749   3.520 -0.0519  0.4284  0.0218
 1409TIP3    H125642   1.381   1.705   3.606 -1.3863  1.4100  0.5557
 1409TIP3    H225643   1.427   1.831   3.535  1.2005 -0.1269 -0.6380
 1410TIP3   OH225644   4.644   2.664   5.412 -0.0243  0.5079  0.7970
 1410TIP3    H125645   4.733   2.686   5.383  0.3842 -0.6287  1.1227
 1410TIP3    H225646   4.587   2.720   5.360  0.7253 -0.7020 -1.4251
 1411TIP3   OH225647   2.776   1.559   2.086 -0.0894  0.3847 -0.2159
 1411TIP3    H125648   2.853   1.523   2.131  1.3211 -0.5104 -3.0851
 1411TIP3    H225649   2.811   1.632   2.034 -1.5977  1.2806 -0.0334
 1412TIP3   OH225650   6.584   5.773   6.436  0.2759  0.0221  0.1365
 1412TIP3    H125651   6.560   5.844   6.377 -1.0003 -1.2429 -0.9231
 1412TIP3    H225652   6.501   5.744   6.474  0.7293 -1.1306  0.2736
 1413TIP3   OH225653   4.257   0.010   2.530  0.2577 -0.0316 -0.1854
 1413TIP3    H125654   4.169  -0.026   2.543  0.4958 -0.8126 -0.6705
 1413TIP3    H225655   4.282  -0.020   2.443 -0.4192  3.2109 -1.6410
 1414TIP3   OH225656   4.690   4.290   3.846 -0.1972 -0.8959 -0.5581
 1414TIP3    H125657   4.782   4.277   3.868  0.6503  1.2424 -2.4163
 1414TIP3    H225658   4.649   4.314   3.929  1.4932  0.5886 -0.0664
 1415TIP3   OH225659   0.493   4.324   0.772  0.4759  0.1466 -0.0417
 1415TIP3    H125660   0.420   4.343   0.713 -0.1412 -0.5904  0.4735
 1415TIP3    H225661   0.545   4.259   0.726 -0.8080 -1.5636  0.7936
 1416TIP3   OH225662   0.978   5.861   6.519  0.3054  0.3055 -0.0832
 1416TIP3    H125663   1.039   5.844   6.448 -0.7603 -1.6288 -0.6036
 1416TIP3    H225664   1.004   5.946   6.553  0.2488  1.8532 -3.4430
 1417TIP3   OH225665   5.859   0.432  13.321  0.0081  0.0439 -0.0636
 1417TIP3    H125666   5.920   0.359  13.332 -0.0493  0.0284  0.1390
 1417TIP3    H225667   5.786   0.412  13.379 -1.5045 -1.3560 -2.2682
 1418TIP3   OH225668   2.929   4.837   0.651 -0.2817  0.6178 -0.6254
 1418TIP3    H125669   2.920   4.782   0.573  0.2454 -1.1715  0.5247
 1418TIP3    H225670   2.989   4.789   0.707 -0.3711  2.0446  0.7418
 1419TIP3   OH225671   0.081   5.863  13.813  0.3987  0.2775 -0.1808
 1419TIP3    H125672   0.145   5.912  13.863  1.2321 -0.6102 -0.3383
 1419TIP3    H225673   0.129   5.786  13.781 -0.2030  0.6037 -1.9887
 1420TIP3   OH225674   2.762   6.493   1.592  0.0226 -0.3621 -0.4096
 1420TIP3    H125675   2.849   6.465   1.561 -0.1137 -0.0399 -1.1118
 1420TIP3    H225676   2.715   6.412   1.610  0.4717 -0.5402 -0.0134
 1421TIP3   OH225677   5.710   4.551  16.687  0.7416 -0.2577  0.7178
 1421TIP3    H125678   5.643   4.594  16.635  0.9595  0.5552  1.0887
 1421TIP3    H225679   5.662   4.505  16.756  0.4982 -0.7618  0.2168
 1422TIP3   OH225680   2.369   0.688  11.473 -0.2779  1.1705 -0.5557
 1422TIP3    H125681   2.307   0.627  11.434 -0.1087 -1.0941  2.4360
 1422TIP3    H225682   2.451   0.671  11.427 -0.3858 -0.4196 -0.2045
 1423TIP3   OH225683   5.432   1.707  10.638  0.8704  0.8684  0.4577
 1423TIP3    H125684   5.491   1.783  10.641  0.4486  1.1612  2.3218
 1423TIP3    H225685   5.485   1.634  10.669 -0.0675  1.4233  3.6719
 1424TIP3   OH225686   5.336   6.117   4.603  0.3291 -0.1792  0.0322
 1424TIP3    H125687   5.414   6.143   4.554  0.4352 -1.7365 -0.6905
 1424TIP3    H225688   5.361   6.035   4.646 -0.3836  0.1793  1.1823
 1425TIP3   OH225689   5.953   5.696  12.059  0.4420 -0.0375 -0.4125
 1425TIP3    H125690   5.946   5.713  12.153  0.3059  0.0659 -0.4410
 1425TIP3    H225691   5.887   5.753  12.019 -0.9289 -1.5099 -0.4015
 1426TIP3   OH225692   1.428   1.398   5.164  0.1118  0.6524 -0.5643
 1426TIP3    H125693   1.430   1.436   5.252  3.9029  0.8930 -0.5923
 1426TIP3    H225694   1.471   1.312   5.174  0.5256  0.6394 -2.1272
 1427TIP3   OH225695   2.048   2.094  14.427  0.0429  0.9402  0.1836
 1427TIP3    H125696   2.095   2.173  14.398  1.5999 -0.5487 -1.6098
 1427TIP3    H225697   2.088   2.072  14.512 -0.9730  2.4589  1.1138
 1428TIP3   OH225698   6.204   2.459   3.715 -1.0055  0.0847 -0.4963
 1428TIP3    H125699   6.194   2.460   3.810 -2.0143 -1.5700 -0.5367
 1428TIP3    H225700   6.201   2.551   3.689  1.2962  0.7424  1.2104
 1429TIP3   OH225701   2.673   4.193   2.315  0.1047 -0.7111 -0.2023
 1429TIP3    H125702   2.649   4.275   2.270  1.4017 -0.9015 -1.3100
 1429TIP3    H225703   2.769   4.193   2.316  0.1327 -2.2692 -0.3124
 1430TIP3   OH225704   6.383   5.164   2.481  0.4231  0.3304  0.2063
 1430TIP3    H125705   6.442   5.098   2.517  0.0675 -0.5418 -0.7655
 1430TIP3    H225706   6.300   5.118   2.469  0.8347  0.1940 -2.8250
 1431TIP3   OH225707   5.589   4.149  12.541  0.4831 -0.0696  0.0770
 1431TIP3    H125708   5.629   4.172  12.457  0.8767  0.1266  0.3113
 1431TIP3    H225709   5.584   4.053  12.540 -0.5189 -0.0201 -0.6166
 1432TIP3   OH225710   5.775   2.341  11.425 -0.5402  0.0422 -0.0141
 1432TIP3    H125711   5.743   2.413  11.479  2.2983  0.8810  0.7595
 1432TIP3    H225712   5.774   2.265  11.484 -2.4167 -0.3300 -0.4710
 1433TIP3   OH225713   3.071   4.502  16.823 -0.2799  0.5515 -0.3512
 1433TIP3    H125714   3.111   4.586  16.844  1.6849 -0.1944 -0.9550
 1433TIP3    H225715   3.053   4.462  16.908 -1.2317  1.5433 -0.0554
 1434TIP3   OH225716   5.273   4.392  15.417 -0.3263  0.0964 -0.5088
 1434TIP3    H125717   5.220   4.412  15.494 -0.3532 -0.1612 -0.4605
 1434TIP3    H225718   5.352   4.446  15.427  0.7274 -1.6038  0.8549
 1435TIP3   OH225719   5.590   5.767   3.049 -0.2116  0.2226 -0.6643
 1435TIP3    H125720   5.562   5.790   3.137 -0.3594 -6.3846  1.5141
 1435TIP3    H225721   5.510   5.767   2.997 -1.0331 -0.6300  0.5798
 1436TIP3   OH225722   1.587   5.134   2.519 -0.7570  0.5115 -0.2166
 1436TIP3    H125723   1.514   5.132   2.457 -1.1836  0.5306  0.2793
 1436TIP3    H225724   1.629   5.048   2.510  1.3897  1.6917 -3.1000
 1437TIP3   OH225725   3.458   6.480   5.046  0.1627 -0.0884 -0.1047
 1437TIP3    H125726   3.442   6.436   5.130  0.1045  0.6598  0.2858
 1437TIP3    H225727   3.389   6.447   4.988 -0.7856  0.5805  0.6096
 1438TIP3   OH225728   0.214   0.207  14.070 -0.5118  0.2997 -0.0793
 1438TIP3    H125729   0.232   0.300  14.056  0.2970  0.2036  0.3274
 1438TIP3    H225730   0.129   0.193  14.026 -0.0382  0.9396 -1.2553
 1439TIP3   OH225731   2.121   1.137  12.106  0.6709 -0.1954  0.4880
 1439TIP3    H125732   2.212   1.129  12.136 -0.2641 -0.3614  3.6744
 1439TIP3    H225733   2.102   1.231  12.114  1.1313  0.2197 -2.3425
 1440TIP3   OH225734   1.568   4.208   1.964  0.1374  0.0330 -0.4338
 1440TIP3    H125735   1.498   4.255   1.920 -0.7043 -1.1503 -0.3909
 1440TIP3    H225736   1.609   4.274   2.021 -1.8136  0.4172  0.5880
 1441TIP3   OH225737   6.201   0.090  14.138 -0.4225 -0.0574 -0.5977
 1441TIP3    H125738   6.296   0.087  14.125 -0.4848  1.4080 -1.6501
 1441TIP3    H225739   6.178   0.181  14.121 -1.9364 -0.2405  0.3403
 1442TIP3   OH225740   0.573   4.577   6.082 -0.2015 -0.4024  0.0368
 1442TIP3    H125741   0.501   4.567   6.144 -0.9894 -1.1553 -0.9475
 1442TIP3    H225742   0.649   4.540   6.126 -1.5276 -4.6271 -0.7995
 1443TIP3   OH225743   1.532   2.112  15.084  0.3503 -0.0776  0.2606
 1443TIP3    H125744   1.485   2.074  15.158 -0.2923 -1.0076 -0.5936
 1443TIP3    H225745   1.489   2.075  15.007  0.8527  1.0432 -0.5899
 1444TIP3   OH225746   2.427   1.705  12.024  0.4972  0.2611  0.1876
 1444TIP3    H125747   2.511   1.667  12.002  0.1199 -0.7184  0.3855
 1444TIP3    H225748   2.413   1.682  12.116  0.0241  0.4254  0.1615
 1445TIP3   OH225749   0.398   1.046  16.786 -0.0388  0.0616  0.0529
 1445TIP3    H125750   0.489   1.076  16.784 -0.3000  0.8425 -0.4287
 1445TIP3    H225751   0.393   0.991  16.864  1.2768 -1.3975 -0.8378
 1446TIP3   OH225752   1.186   0.845   4.046  0.2073 -0.4401  0.2179
 1446TIP3    H125753   1.253   0.781   4.021 -0.4658 -0.0153 -3.1657
 1446TIP3    H225754   1.235   0.920   4.080  1.0961 -1.8794  2.3304
 1447TIP3   OH225755   4.276   3.998  14.335 -0.0275  0.3491  0.2606
 1447TIP3    H125756   4.358   4.039  14.307 -0.0565  0.0317 -0.3120
 1447TIP3    H225757   4.282   3.993  14.430  0.8282 -0.1121  0.1876
 1448TIP3   OH225758   5.729   4.868  16.638  0.7541  0.0275  0.3892
 1448TIP3    H125759   5.772   4.784  16.624  0.7314 -0.2239  1.7733
 1448TIP3    H225760   5.801   4.931  16.646  0.8331 -0.1738  1.3089
 1449TIP3   OH225761   4.958   2.435   3.786 -0.2635 -0.7472 -0.6448
 1449TIP3    H125762   4.937   2.494   3.714 -0.7430  0.3595  0.3645
 1449TIP3    H225763   4.972   2.493   3.861 -4.0619 -1.9365  1.2602
 1450TIP3   OH225764   2.600   5.330  10.748  0.1158 -0.4042 -0.1237
 1450TIP3    H125765   2.621   5.275  10.672  1.4491  0.7341 -0.6392
 1450TIP3    H225766   2.505   5.341  10.744  0.1452 -0.4483 -1.5825
 1451TIP3   OH225767   1.063   4.847  14.473 -0.0304 -0.0470 -0.5883
 1451TIP3    H125768   0.992   4.786  14.456  0.8670 -1.6673  1.0998
 1451TIP3    H225769   1.026   4.910  14.536 -0.1879 -0.4734 -0.2502
 1452TIP3   OH225770   1.902   6.002  11.088  0.5174  0.3410 -0.5148
 1452TIP3    H125771   1.836   6.054  11.043  1.6187  1.7670 -0.5533
 1452TIP3    H225772   1.852   5.943  11.144 -0.7860  1.2309 -0.7049
 1453TIP3   OH225773   4.284   6.619  15.214 -0.4980 -0.2094 -0.1855
 1453TIP3    H125774   4.235   6.629  15.296 -0.2451 -1.5082  0.1410
 1453TIP3    H225775   4.232   6.558  15.162  0.9521 -2.0001  0.3616
 1454TIP3   OH225776   5.643   3.443  15.402 -0.0367 -0.1153  0.0358
 1454TIP3    H125777   5.636   3.420  15.309  2.7796  0.8076 -0.4908
 1454TIP3    H225778   5.612   3.365  15.448  0.3971 -1.3604 -1.6882
 1455TIP3   OH225779   3.763   6.314  14.011  0.4069  0.6646  0.2692
 1455TIP3    H125780   3.675   6.278  14.016  0.8937 -0.4068  1.5826
 1455TIP3    H225781   3.810   6.256  13.951  0.6422  0.2930  0.8071
 1456TIP3   OH225782   5.270   0.104  11.525 -0.0543 -0.1436  0.0054
 1456TIP3    H125783   5.221   0.156  11.589 -0.2796 -0.8624  0.4252
 1456TIP3    H225784   5.222   0.114  11.443 -0.6933 -0.5197  0.3221
 1457TIP3   OH225785   6.048   1.611   5.825 -0.0411 -0.6280 -0.0613
 1457TIP3    H125786   6.123   1.668   5.806 -0.6983  0.2832  0.0000
 1457TIP3    H225787   5.978   1.643   5.767 -0.8690 -0.3993  1.0316
 1458TIP3   OH225788   5.510   3.902  12.918 -0.8467  0.6442  0.7270
 1458TIP3    H125789   5.516   3.980  12.973  1.5300 -0.0222  1.5524
 1458TIP3    H225790   5.417   3.891  12.901 -1.2764  3.4916  0.7833
 1459TIP3   OH225791   0.966   1.790  13.056 -0.4122 -0.4749 -0.1366
 1459TIP3    H125792   0.922   1.794  12.971  2.6940 -2.1292 -2.0060
 1459TIP3    H225793   0.938   1.707  13.093 -0.1715 -0.7384 -0.5382
 1460TIP3   OH225794   3.644   6.036  16.690 -0.1678  0.4531  0.6818
 1460TIP3    H125795   3.695   5.971  16.738 -2.2522 -2.5557 -0.8242
 1460TIP3    H225796   3.562   6.042  16.740 -0.9031  0.0767 -0.4519
 1461TIP3   OH225797   0.118   4.405  13.709  0.1705  0.0346  0.3145
 1461TIP3    H125798   0.203   4.407  13.665 -0.0434  0.8977 -0.0722
 1461TIP3    H225799   0.116   4.320  13.754  1.4301  0.2131  0.7237
 1462TIP3   OH225800   4.602   5.057   5.118  0.2758  0.4900 -0.1302
 1462TIP3    H125801   4.652   5.091   5.193 -0.5621 -0.4309  0.8816
 1462TIP3    H225802   4.511   5.062   5.146  0.1075 -4.4062  1.0208
 1463TIP3   OH225803   0.261   0.474   4.806  0.7465 -0.9456 -0.2282
 1463TIP3    H125804   0.310   0.544   4.849  3.2141 -1.9794 -1.1486
 1463TIP3    H225805   0.228   0.420   4.879 -0.8504  0.8612  0.4741
 1464TIP3   OH225806   4.347   5.120  11.519 -0.5257 -1.0205  0.7672
 1464TIP3    H125807   4.386   5.079  11.442 -2.2547  0.7920 -1.1916
 1464TIP3    H225808   4.363   5.057  11.590  2.4311 -2.1044 -0.6716
 1465TIP3   OH225809   4.837   4.197  12.827  0.5678  0.4267  0.1439
 1465TIP3    H125810   4.826   4.247  12.907  3.4871  0.2864  0.7244
 1465TIP3    H225811   4.852   4.263  12.759  1.8434  0.4530  0.4350
 1466TIP3   OH225812   0.408   6.258  10.994  0.0605 -0.8194  0.4202
 1466TIP3    H125813   0.387   6.172  10.958 -0.8192 -0.6451  0.4861
 1466TIP3    H225814   0.460   6.240  11.072  2.0895 -1.1970 -0.9577
 1467TIP3   OH225815   6.467   3.847   3.246  0.0924 -0.4398  0.9392
 1467TIP3    H125816   6.558   3.874   3.260 -0.1161  0.0626  1.3220
 1467TIP3    H225817   6.427   3.919   3.198  0.4868 -1.6308 -1.3453
 1468TIP3   OH225818   0.388   0.313   2.562 -0.1458 -0.0347 -0.0453
 1468TIP3    H125819   0.432   0.392   2.597 -0.1926  0.5407 -1.2466
 1468TIP3    H225820   0.297   0.324   2.588 -0.5019  1.2004 -1.6654
 1469TIP3   OH225821   0.806   1.135  14.139 -0.8715  0.1577 -0.6078
 1469TIP3    H125822   0.861   1.174  14.207  0.3051 -1.9899 -0.2141
 1469TIP3    H225823   0.857   1.059  14.109 -3.0472 -1.1401 -1.1853
 1470TIP3   OH225824   0.381   2.097  12.599 -0.3007 -0.3653  0.0205
 1470TIP3    H125825   0.440   2.028  12.568  0.4176 -0.7430  2.1125
 1470TIP3    H225826   0.403   2.108  12.691 -1.7888  1.2774  0.2216
 1471TIP3   OH225827   0.524   1.192  14.403 -0.0902 -0.1402  0.2433
 1471TIP3    H125828   0.466   1.150  14.467  1.6843  0.8862  2.7177
 1471TIP3    H225829   0.604   1.139  14.405  0.2283  0.2878 -0.6768
 1472TIP3   OH225830   3.032   1.771  15.169 -0.2130  0.0937  0.0121
 1472TIP3    H125831   3.032   1.711  15.244 -0.6033  0.9623  0.7264
 1472TIP3    H225832   3.056   1.855  15.206  3.1888 -0.1054 -1.4315
 1473TIP3   OH225833   1.954   4.917  16.679 -0.1677  0.3919  0.0053
 1473TIP3    H125834   1.905   4.851  16.630 -0.5756  0.1394  0.7246
 1473TIP3    H225835   1.889   4.953  16.741  0.2189  0.9984  0.0656
 1474TIP3   OH225836   3.916   3.803  16.409 -0.2077 -0.4085  0.0965
 1474TIP3    H125837   3.901   3.897  16.417  0.1910 -0.3089 -0.2588
 1474TIP3    H225838   3.990   3.785  16.467 -0.2079 -0.4813  0.0745
 1475TIP3   OH225839   6.153   2.257   4.610 -0.0311  0.3189 -0.2123
 1475TIP3    H125840   6.117   2.346   4.602 -0.2146  0.2817  0.1651
 1475TIP3    H225841   6.239   2.270   4.651 -1.1814  0.1322  2.4303
 1476TIP3   OH225842   2.146   6.119  14.886  0.0439 -0.2400 -0.3853
 1476TIP3    H125843   2.167   6.155  14.972 -0.6104  0.3761 -0.4770
 1476TIP3    H225844   2.090   6.043  14.905 -2.6045  1.6074 -0.3216
 1477TIP3   OH225845   3.385   2.443  13.838 -0.1061  0.1400 -0.1935
 1477TIP3    H125846   3.450   2.504  13.874  1.2869 -1.3193 -0.1008
 1477TIP3    H225847   3.315   2.442  13.903  0.1193  1.1803  0.0849
 1478TIP3   OH225848   2.918   5.192   0.268  0.5572  0.4117  0.3048
 1478TIP3    H125849   2.979   5.155   0.331 -0.3321  0.9208  1.4965
 1478TIP3    H225850   2.831   5.181   0.307 -0.1032  0.1032 -1.1502
 1479TIP3   OH225851   6.134   0.379   4.324 -0.2043  0.0149 -0.7947
 1479TIP3    H125852   6.096   0.410   4.242 -0.9487  1.1954 -0.0440
 1479TIP3    H225853   6.088   0.429   4.392  1.7862  0.5422  0.2423
 1480TIP3   OH225854   2.474   5.493   0.223 -0.2214  0.4204  0.3696
 1480TIP3    H125855   2.551   5.547   0.207  0.2322 -0.8638 -2.3807
 1480TIP3    H225856   2.507   5.403   0.217 -2.0769 -0.1922 -2.3027
 1481TIP3   OH225857   5.808   0.336   6.532 -0.0185 -0.1434 -0.1556
 1481TIP3    H125858   5.786   0.420   6.572  1.1561 -0.3351  0.9809
 1481TIP3    H225859   5.770   0.271   6.591  0.9421 -0.4182  0.1861
 1482TIP3   OH225860   5.922   5.543  11.221 -0.4355 -0.4316  0.0083
 1482TIP3    H125861   5.932   5.607  11.291 -0.5064  0.7670 -1.0405
 1482TIP3    H225862   6.006   5.497  11.218 -0.1285  0.0995  0.3145
 1483TIP3   OH225863   2.415   6.486   2.628 -0.3330  0.0737 -0.2511
 1483TIP3    H125864   2.498   6.508   2.586  0.2230  0.9543  1.2428
 1483TIP3    H225865   2.410   6.390   2.622 -0.1763  0.1374 -2.0603
 1484TIP3   OH225866   4.686   6.435   1.301 -0.5301 -0.8846  0.5442
 1484TIP3    H125867   4.723   6.523   1.308 -0.7588 -0.7667  0.2442
 1484TIP3    H225868   4.751   6.379   1.344 -0.3006 -0.5947  0.5777
 1485TIP3   OH225869   3.387   0.246   0.469  0.3928  0.1400  0.7282
 1485TIP3    H125870   3.353   0.279   0.552  0.0634  1.5336  0.0665
 1485TIP3    H225871   3.365   0.153   0.469 -0.3018  0.2894  1.8603
 1486TIP3   OH225872   6.001   2.367  15.909  0.1822  0.4877  0.6673
 1486TIP3    H125873   6.074   2.341  15.964  0.9782  1.4878  0.1139
 1486TIP3    H225874   5.977   2.455  15.941 -0.0710  0.6160  0.1424
 1487TIP3   OH225875   4.926   3.911   5.526  0.5149  0.5361  0.1382
 1487TIP3    H125876   5.022   3.905   5.530  0.4934  0.2587  0.2397
 1487TIP3    H225877   4.902   3.861   5.448  0.4540  0.6212  0.1021
 1488TIP3   OH225878   3.645   4.944   6.091  0.2661  0.3615  0.5225
 1488TIP3    H125879   3.681   5.016   6.142  0.3286  1.0693 -0.4868
 1488TIP3    H225880   3.624   4.876   6.155  1.3229  0.8117  1.3578
 1489TIP3   OH225881   2.408   5.396   2.982  0.0592 -0.3021 -0.6268
 1489TIP3    H125882   2.429   5.441   3.064 -1.5522  0.0185 -0.3619
 1489TIP3    H225883   2.430   5.459   2.914 -0.4291  0.1859 -0.3410
 1490TIP3   OH225884   3.388   6.024  15.766 -0.0230  0.0915 -0.2485
 1490TIP3    H125885   3.312   6.007  15.711  1.0056 -0.3328 -1.5874
 1490TIP3    H225886   3.375   6.114  15.798 -1.3903 -0.2055  0.0980
 1491TIP3   OH225887   4.554   0.973   1.294  0.2829 -0.6826 -0.4275
 1491TIP3    H125888   4.524   0.932   1.375  0.3709 -0.5080 -0.3063
 1491TIP3    H225889   4.649   0.972   1.300  0.2842 -0.3097 -0.3464
 1492TIP3   OH225890   4.734   6.639   3.966  0.3693 -1.0150  0.1741
 1492TIP3    H125891   4.700   6.671   4.049  3.2306  0.4990  0.8753
 1492TIP3    H225892   4.728   6.543   3.973  2.7479 -1.0806  3.2442
 1493TIP3   OH225893   3.971   1.250   4.615  0.8779  0.0285 -0.3618
 1493TIP3    H125894   4.000   1.327   4.664  1.5289  0.0532 -0.7735
 1493TIP3    H225895   4.018   1.256   4.532  1.3281 -1.0742 -0.2086
 1494TIP3   OH225896   1.867   1.572   1.690  0.1162  0.2661 -0.7096
 1494TIP3    H125897   1.831   1.590   1.603 -0.6934 -0.0392 -0.4490
 1494TIP3    H225898   1.797   1.525   1.736  0.9853 -0.6768 -0.3041
 1495TIP3   OH225899   6.106   3.147   2.040 -0.0234  0.8467 -0.2677
 1495TIP3    H125900   6.107   3.112   2.129  0.8848  0.5775 -0.3791
 1495TIP3    H225901   6.195   3.178   2.025  0.4250 -0.9858 -1.8010
 1496TIP3   OH225902   3.259   2.519  14.332  0.7138 -0.9655  0.1085
 1496TIP3    H125903   3.339   2.559  14.300 -0.2087  0.0542 -1.0326
 1496TIP3    H225904   3.266   2.427  14.306  0.4736 -0.3905 -2.1692
 1497TIP3   OH225905   5.959   5.789  14.994 -0.0903  0.3778  0.1527
 1497TIP3    H125906   6.004   5.706  14.974  0.0644 -0.4089  3.2331
 1497TIP3    H225907   5.870   5.762  15.017 -0.6964  1.3632 -0.9697
 1498TIP3   OH225908   5.455   1.928   0.769  0.1863 -0.9269  0.2436
 1498TIP3    H125909   5.549   1.939   0.756  0.1120  1.2460  0.9887
 1498TIP3    H225910   5.447   1.859   0.835  1.2810 -1.0215  0.2902
 1499TIP3   OH225911   4.933   4.079   1.427 -0.2842 -0.2262  0.4772
 1499TIP3    H125912   4.950   4.015   1.359 -0.7997  0.4829 -0.3465
 1499TIP3    H225913   4.847   4.054   1.462 -0.3205 -0.2061  0.4038
 1500TIP3   OH225914   0.203   0.738   3.379  0.1986 -0.4344  0.4512
 1500TIP3    H125915   0.225   0.653   3.341  0.8809 -1.3954  2.8366
 1500TIP3    H225916   0.256   0.801   3.330  2.4010 -1.8167  0.9170
 1501TIP3   OH225917   4.715   1.659  13.901  0.6404 -0.5652  0.3285
 1501TIP3    H125918   4.760   1.741  13.920 -0.3083 -0.2050  1.1381
 1501TIP3    H225919   4.785   1.593  13.893  1.4024  0.2924 -0.2573
 1502TIP3   OH225920   2.220   4.155  16.985  0.2576  0.0043 -0.5117
 1502TIP3    H125921   2.240   4.063  17.001  1.0578  0.4519  1.3850
 1502TIP3    H225922   2.283   4.183  16.918 -0.6444 -1.0295 -1.8409
 1503TIP3   OH225923   2.157   0.825   3.798 -0.0645  0.4045 -0.2538
 1503TIP3    H125924   2.192   0.815   3.887  2.3642 -0.1613 -1.1709
 1503TIP3    H225925   2.208   0.897   3.761 -0.1034 -0.2232 -1.5818
 1504TIP3   OH225926   0.399   0.017  14.607  0.3762  0.0684 -0.3572
 1504TIP3    H125927   0.371   0.093  14.555 -1.1194 -0.3257 -0.1716
 1504TIP3    H225928   0.436   0.056  14.687 -0.5921  0.6146 -0.1579
 1505TIP3   OH225929   1.090   0.189  13.815  0.8224  0.0732  0.1890
 1505TIP3    H125930   1.002   0.227  13.809 -0.0048 -1.8216 -0.3265
 1505TIP3    H225931   1.126   0.197  13.727  1.4094  1.3135  0.5159
 1506TIP3   OH225932   4.362   3.407   1.065  0.3540  0.3816  0.4476
 1506TIP3    H125933   4.324   3.427   1.150  0.3566  0.1767  0.4983
 1506TIP3    H225934   4.310   3.333   1.033  2.4509 -1.8040  1.7452
 1507TIP3   OH225935   6.121   3.535   0.647 -0.5898 -0.3960  0.0614
 1507TIP3    H125936   6.194   3.475   0.632 -0.5762 -1.0010  2.2260
 1507TIP3    H225937   6.125   3.597   0.574 -1.3691 -3.6814 -3.0155
 1508TIP3   OH225938   0.499   1.685   1.566 -0.0765 -0.0074 -0.0744
 1508TIP3    H125939   0.410   1.685   1.603  1.0893  0.2723  2.9991
 1508TIP3    H225940   0.522   1.592   1.561  0.1947 -0.0307  1.2060
 1509TIP3   OH225941   3.181   1.741  11.880  0.0559 -0.0839 -0.1577
 1509TIP3    H125942   3.163   1.817  11.936 -1.9245  0.3487 -1.3042
 1509TIP3    H225943   3.163   1.771  11.791  0.1250 -1.6316 -0.7278
 1510TIP3   OH225944   2.276   5.512   3.488  0.0613  0.6112 -0.0670
 1510TIP3    H125945   2.244   5.566   3.416 -0.1198  0.2364 -0.2712
 1510TIP3    H225946   2.252   5.561   3.567 -1.6621  0.0348 -0.1769
 1511TIP3   OH225947   0.486   3.787  16.484  0.2933 -0.3870  0.1933
 1511TIP3    H125948   0.435   3.861  16.518  1.1015  0.4078 -0.2774
 1511TIP3    H225949   0.468   3.716  16.545  0.2460  0.4757  1.2142
 1512TIP3   OH225950   0.106   6.077   6.220 -0.2124 -0.0904  0.4934
 1512TIP3    H125951   0.110   6.129   6.300 -0.7396  1.8665 -0.6973
 1512TIP3    H225952   0.022   6.101   6.180 -0.7972 -2.3732  0.1942
 1513TIP3   OH225953   0.773   5.320  12.141 -0.8678  0.3381 -0.4154
 1513TIP3    H125954   0.853   5.368  12.164 -1.7470  0.9858  1.4803
 1513TIP3    H225955   0.801   5.256  12.076  1.4139 -0.1316  0.9317
 1514TIP3   OH225956   4.451   3.943   3.040 -0.2158 -0.0596  0.0883
 1514TIP3    H125957   4.430   3.905   3.125  0.3241 -0.1386  0.1887
 1514TIP3    H225958   4.435   4.037   3.051 -0.2654 -0.0846  0.2364
 1515TIP3   OH225959   0.783   0.476  11.293 -0.0161 -0.0275 -0.1887
 1515TIP3    H125960   0.812   0.467  11.203 -0.8864 -1.9374 -0.3398
 1515TIP3    H225961   0.687   0.481  11.287  0.0028  1.6474  0.5348
 1516TIP3   OH225962   5.855   3.541   3.518  0.5820  0.4454  0.2297
 1516TIP3    H125963   5.848   3.485   3.596  0.1021  1.8124  1.1989
 1516TIP3    H225964   5.789   3.505   3.458  0.9550 -0.6248  0.4299
 1517TIP3   OH225965   5.586   6.344  14.290  0.5787  0.2840  0.1861
 1517TIP3    H125966   5.616   6.402  14.360 -0.3721  1.5006 -0.3732
 1517TIP3    H225967   5.642   6.267  14.297  2.2166  1.4644  0.6508
 1518TIP3   OH225968   4.201   1.477   2.666  0.5099  0.5843  0.0884
 1518TIP3    H125969   4.180   1.509   2.753  1.3424  0.0184  0.5068
 1518TIP3    H225970   4.149   1.532   2.607  0.5779  1.5231  0.8847
 1519TIP3   OH225971   3.991   0.142  11.505  0.2708  0.2201  0.3437
 1519TIP3    H125972   4.030   0.117  11.421  0.1562 -0.3193  0.4532
 1519TIP3    H225973   3.897   0.132  11.492  0.1051  1.9722 -0.0723
 1520TIP3   OH225974   5.528   4.742  12.211  0.4970 -0.6788  0.0051
 1520TIP3    H125975   5.435   4.763  12.198  0.6159  0.4054  0.7692
 1520TIP3    H225976   5.571   4.772  12.131  0.5448  1.4554  0.7419
 1521TIP3   OH225977   2.825   1.712  11.665  0.2689  0.3533  0.1349
 1521TIP3    H125978   2.855   1.795  11.627 -0.3169  0.0966 -0.9287
 1521TIP3    H225979   2.732   1.725  11.681  0.1501 -0.1309 -0.1444
 1522TIP3   OH225980   6.081   1.031  16.706  0.0205  0.1167  0.2170
 1522TIP3    H125981   6.151   0.984  16.752 -0.2164  0.7156  1.2172
 1522TIP3    H225982   6.000   0.994  16.740 -0.1606  0.7138  0.4503
 1523TIP3   OH225983   3.608   3.486   3.395  0.1633 -0.2919  0.1364
 1523TIP3    H125984   3.521   3.520   3.413 -0.0102  0.0889 -1.3418
 1523TIP3    H225985   3.660   3.562   3.370  0.6507 -0.6552  0.0163
 1524TIP3   OH225986   3.092   6.619   3.387  0.3405  0.2546  0.0045
 1524TIP3    H125987   3.061   6.709   3.396 -0.4902  0.2831 -2.4901
 1524TIP3    H225988   3.036   6.569   3.447 -0.3378  1.1625  0.1581
 1525TIP3   OH225989   6.697   0.286  12.107 -0.6616  0.1802 -0.3919
 1525TIP3    H125990   6.778   0.237  12.099 -0.1047  1.1501 -0.8378
 1525TIP3    H225991   6.629   0.218  12.114  0.1457 -0.6392 -0.2823
 1526TIP3   OH225992   4.932   3.144   1.305  0.0663  0.0100  0.1846
 1526TIP3    H125993   4.917   3.238   1.314 -0.3290  0.0301 -0.6150
 1526TIP3    H225994   4.860   3.103   1.354 -0.7378  0.1213 -0.8876
 1527TIP3   OH225995   1.199   0.173  14.498 -0.0160 -0.3838  0.4289
 1527TIP3    H125996   1.287   0.138  14.489  0.6565  1.2240  0.2986
 1527TIP3    H225997   1.179   0.212  14.413 -0.3417  0.3226  0.8114
 1528TIP3   OH225998   3.794   0.910   0.255  0.1963 -0.1438 -0.3575
 1528TIP3    H125999   3.765   0.956   0.176 -0.3970  1.0493  0.5171
 1528TIP3    H226000   3.716   0.865   0.286  0.6160 -1.2350 -0.8435
 1529TIP3   OH226001   3.415   6.459   2.921  0.0102 -0.3987 -0.2884
 1529TIP3    H126002   3.411   6.515   2.843 -0.3009 -0.4746 -0.3294
 1529TIP3    H226003   3.402   6.370   2.887  2.4073 -0.7472 -0.4854
 1530TIP3   OH226004   2.623   4.699   6.061 -0.2158 -0.2278 -0.3013
 1530TIP3    H126005   2.678   4.657   5.994  0.8954 -0.0771  0.4887
 1530TIP3    H226006   2.573   4.764   6.012 -0.6086 -1.1920 -1.2422
 1531TIP3   OH226007   6.407   2.536  16.619  0.3266  0.2537  0.2284
 1531TIP3    H126008   6.375   2.459  16.667  1.4731  0.4010  1.2674
 1531TIP3    H226009   6.364   2.610  16.661 -0.8263  0.2134 -0.8128
 1532TIP3   OH226010   0.653   4.633   0.369 -0.0037  0.3025  0.0176
 1532TIP3    H126011   0.728   4.599   0.320  1.1414  1.3788  0.9736
 1532TIP3    H226012   0.665   4.601   0.458 -0.3802  0.9431  0.3068
 1533TIP3   OH226013   3.633   5.296   3.107  0.3075  0.1534  0.1589
 1533TIP3    H126014   3.675   5.379   3.085 -0.1175  0.4907  0.6185
 1533TIP3    H226015   3.665   5.235   3.040  0.0806  0.8467 -0.6004
 1534TIP3   OH226016   1.134   0.570  17.099  0.0110  0.3075 -0.4126
 1534TIP3    H126017   1.098   0.580  17.011 -1.0976  0.3136  0.0261
 1534TIP3    H226018   1.200   0.638  17.106 -0.1051  0.5057 -1.1303
 1535TIP3   OH226019   0.788   2.101  14.018 -0.0163 -0.2319  0.3147
 1535TIP3    H126020   0.744   2.017  14.021 -1.7285  0.6425  1.8083
 1535TIP3    H226021   0.781   2.136  14.107  0.0275  1.7682 -0.3980
 1536TIP3   OH226022   3.116   5.012   1.940 -0.2463  0.3015 -0.1567
 1536TIP3    H126023   3.080   4.940   1.889 -0.6544 -1.3087  2.1968
 1536TIP3    H226024   3.046   5.078   1.941 -0.3440  0.2285 -1.3638
 1537TIP3   OH226025   4.896   2.677   1.943  0.0279  0.0791 -0.4435
 1537TIP3    H126026   4.990   2.659   1.955  0.1117  0.9800  0.3273
 1537TIP3    H226027   4.893   2.744   1.875 -0.1725 -1.1635 -1.7168
 1538TIP3   OH226028   1.487   4.768  13.733  0.2182 -0.0472  0.1497
 1538TIP3    H126029   1.412   4.810  13.690  1.3130  0.6013 -1.2245
 1538TIP3    H226030   1.452   4.735  13.816 -1.1350  1.9249  0.4299
 1539TIP3   OH226031   1.005   1.834   2.792 -0.1407  0.1260 -0.4107
 1539TIP3    H126032   1.095   1.802   2.786 -1.1682 -3.0692 -0.6340
 1539TIP3    H226033   0.987   1.837   2.886 -0.4410 -1.4427 -0.3870
 1540TIP3   OH226034   1.561   1.904   5.086  0.0256  0.0135 -0.6029
 1540TIP3    H126035   1.561   1.809   5.084 -1.9748 -0.0282 -1.2046
 1540TIP3    H226036   1.610   1.927   5.165 -1.7612 -1.6302  1.0896
 1541TIP3   OH226037   6.006   5.922   4.444  0.1652  0.0910  0.5987
 1541TIP3    H126038   5.977   5.856   4.381 -1.6656  0.3539  1.1170
 1541TIP3    H226039   5.999   5.878   4.529 -1.5531  1.0496  1.0028
 1542TIP3   OH226040   0.638   1.227  16.616 -0.1451  0.2132 -0.4183
 1542TIP3    H126041   0.578   1.228  16.542 -0.1155 -0.2976 -0.4526
 1542TIP3    H226042   0.720   1.260  16.580 -0.7937  2.3909 -0.0117
 1543TIP3   OH226043   2.309   1.847   5.719  0.1330 -0.7050 -0.1771
 1543TIP3    H126044   2.338   1.788   5.788 -1.6913  0.0665  1.3331
 1543TIP3    H226045   2.213   1.839   5.719  0.0652 -0.8364 -2.7922
 1544TIP3   OH226046   2.915   6.638   5.153 -0.3803  0.0073 -0.4684
 1544TIP3    H126047   2.912   6.557   5.205 -0.8082  1.2221  1.5183
 1544TIP3    H226048   2.837   6.634   5.098 -0.0337 -1.2256 -0.9035
 1545TIP3   OH226049   3.733   4.058  15.656 -0.8846 -0.7880  0.2727
 1545TIP3    H126050   3.785   4.052  15.736  0.5404 -0.4086 -0.5808
 1545TIP3    H226051   3.642   4.057  15.686 -0.4440  1.9822  2.1445
 1546TIP3   OH226052   4.924   5.292   1.159  0.3253  0.0815  0.3020
 1546TIP3    H126053   4.881   5.207   1.149  1.8497 -0.6174 -0.7771
 1546TIP3    H226054   4.853   5.356   1.155 -0.6499 -1.0335 -0.9880
 1547TIP3   OH226055   3.406   2.622  15.753 -0.0310 -0.1442 -0.1814
 1547TIP3    H126056   3.348   2.682  15.705 -0.0073 -0.2793 -0.3812
 1547TIP3    H226057   3.403   2.541  15.702  1.6748  0.3557 -1.1645
 1548TIP3   OH226058   5.566   4.396   2.255  0.2116 -0.1660  0.0108
 1548TIP3    H126059   5.502   4.326   2.273  2.0958 -2.0081 -0.0709
 1548TIP3    H226060   5.598   4.422   2.341  2.0089 -1.9428 -0.0415
 1549TIP3   OH226061   3.260   1.181  14.943 -0.2656 -0.1122  0.1153
 1549TIP3    H126062   3.322   1.113  14.970  0.6531  0.7164  0.1387
 1549TIP3    H226063   3.184   1.168  14.999 -0.4433 -1.6369 -0.4426
 1550TIP3   OH226064   3.387   4.652   4.367 -0.2858  0.3686  0.0601
 1550TIP3    H126065   3.339   4.670   4.287  3.0289  1.9470 -1.7849
 1550TIP3    H226066   3.426   4.566   4.352  0.2320  0.6084  0.0143
 1551TIP3   OH226067   6.468   4.372   0.759 -0.5745  0.1507 -0.1266
 1551TIP3    H126068   6.557   4.399   0.779 -0.1883 -0.4105 -1.0081
 1551TIP3    H226069   6.421   4.453   0.741  0.4876  0.3469 -2.4670
 1552TIP3   OH226070   2.815   1.472  16.082  0.0691  0.6219  0.0588
 1552TIP3    H126071   2.865   1.484  16.002 -1.0652 -1.8508 -1.1312
 1552TIP3    H226072   2.865   1.519  16.149  0.9082  3.0142 -2.0880
 1553TIP3   OH226073   1.463   6.017  14.130  0.7338 -0.7974  0.1224
 1553TIP3    H126074   1.419   6.073  14.194 -0.1367 -0.8307 -0.4283
 1553TIP3    H226075   1.555   6.023  14.152  0.6080  0.4890  0.3645
 1554TIP3   OH226076   3.175   3.085  13.353  0.4676  0.3144  0.6365
 1554TIP3    H126077   3.112   3.077  13.282  3.1736 -0.4682 -1.8955
 1554TIP3    H226078   3.220   3.168  13.336  1.9898 -0.4639  0.6425
 1555TIP3   OH226079   3.029   4.578   0.290 -0.3711  0.3203  0.2520
 1555TIP3    H126080   3.010   4.486   0.273  0.2193  0.0559  0.9598
 1555TIP3    H226081   3.019   4.587   0.385 -1.9929  1.3689  0.0295
 1556TIP3   OH226082   6.481   2.507   4.213  0.8319  0.3529 -0.0821
 1556TIP3    H126083   6.402   2.539   4.257  0.8409 -1.6824  1.5941
 1556TIP3    H226084   6.522   2.585   4.176 -1.1253  1.6691  0.3926
 1557TIP3   OH226085   2.749   3.646  16.984 -0.3081  0.0959 -0.1061
 1557TIP3    H126086   2.681   3.679  16.925 -1.2578 -0.4066  0.6882
 1557TIP3    H226087   2.828   3.693  16.957 -1.0487  1.0012 -0.7775
 1558TIP3   OH226088   4.821   3.465   2.363  0.3146  0.7441  0.2072
 1558TIP3    H126089   4.766   3.543   2.351 -1.3093 -0.3916 -0.1803
 1558TIP3    H226090   4.910   3.496   2.353 -0.2713  2.6109  0.3921
 1559TIP3   OH226091   1.783   0.509  12.115  0.3485 -0.0659 -0.3898
 1559TIP3    H126092   1.821   0.561  12.186 -3.5050  0.5357  1.5092
 1559TIP3    H226093   1.729   0.571  12.067  0.4472 -1.1516 -1.9663
 1560TIP3   OH226094   3.499   3.954  10.859  0.1915  0.3598  0.3881
 1560TIP3    H126095   3.496   3.981  10.951 -1.4894 -2.0897  1.1519
 1560TIP3    H226096   3.420   3.992  10.821  1.0494  1.6348 -0.1605
 1561TIP3   OH226097   0.063   0.068   1.777 -0.4589  0.3736  0.3181
 1561TIP3    H126098   0.094  -0.010   1.823 -1.2946 -0.6218 -0.7725
 1561TIP3    H226099   0.140   0.099   1.729  0.5431  1.6581  2.6020
 1562TIP3   OH226100   2.435   0.291   3.088 -0.1483 -0.1567  0.1370
 1562TIP3    H126101   2.372   0.330   3.148 -0.5124 -0.7942  0.1725
 1562TIP3    H226102   2.387   0.278   3.007  0.7440  2.1562 -0.8696
 1563TIP3   OH226103   2.157   3.015   2.508  0.0402 -0.0115 -0.2400
 1563TIP3    H126104   2.225   3.027   2.442 -0.1781  0.1758 -0.4349
 1563TIP3    H226105   2.078   2.999   2.457 -0.0252 -0.4228 -0.0118
 1564TIP3   OH226106   3.798   2.294   4.859  0.0105 -0.1493  0.4920
 1564TIP3    H126107   3.748   2.263   4.934  1.0224  0.7832  1.6053
 1564TIP3    H226108   3.780   2.388   4.856 -0.7011 -0.3077 -0.9970
 1565TIP3   OH226109   3.761   3.306   6.275 -0.0985  0.1541  0.0158
 1565TIP3    H126110   3.781   3.399   6.269 -0.6905  0.2742 -0.1676
 1565TIP3    H226111   3.831   3.270   6.330 -0.1605  0.8001  0.5383
 1566TIP3   OH226112   2.276   2.657   5.057 -0.1393 -0.3217  0.3988
 1566TIP3    H126113   2.317   2.571   5.049 -1.1812 -0.8668  0.6567
 1566TIP3    H226114   2.301   2.687   5.145 -0.5628 -0.8079  0.6936
 1567TIP3   OH226115   2.234   3.397  12.542 -0.2806 -0.0682  0.1457
 1567TIP3    H126116   2.193   3.382  12.457 -0.0952  2.0019 -0.3814
 1567TIP3    H226117   2.162   3.408  12.603 -0.4318 -0.5113  0.0475
 1568TIP3   OH226118   2.573   6.390   2.991 -0.9569 -0.1239  1.2360
 1568TIP3    H126119   2.641   6.428   2.936 -1.6448 -0.0832  0.4060
 1568TIP3    H226120   2.565   6.451   3.065 -0.6562  0.2856  0.9324
 1569TIP3   OH226121   5.763   4.814  12.896  0.2202  0.0534  0.4336
 1569TIP3    H126122   5.710   4.786  12.971 -0.1888 -3.6763 -0.9929
 1569TIP3    H226123   5.853   4.798  12.924  0.0471 -1.8394  0.0836
 1570TIP3   OH226124   6.495   0.017  14.924  0.2469  0.1159 -0.0392
 1570TIP3    H126125   6.524   0.107  14.941 -1.5420  0.7288  0.0276
 1570TIP3    H226126   6.458   0.020  14.836  0.6226 -0.6823 -0.2276
 1571TIP3   OH226127   3.418   2.267   2.346 -0.1225  0.2615 -0.3138
 1571TIP3    H126128   3.396   2.325   2.273 -0.0581  0.4096 -0.2136
 1571TIP3    H226129   3.446   2.325   2.416  1.1904  0.0552 -0.6361
 1572TIP3   OH226130   3.741   2.190  13.972  0.5199 -0.1893  0.4573
 1572TIP3    H126131   3.790   2.118  14.012  1.9083  0.0195 -0.8059
 1572TIP3    H226132   3.794   2.268  13.989  1.2895 -0.1231 -1.9439
 1573TIP3   OH226133   3.895   2.326   2.365  0.5764 -0.4685  0.0632
 1573TIP3    H126134   3.985   2.351   2.386  0.5128  1.4319 -1.6101
 1573TIP3    H226135   3.879   2.363   2.278 -2.6464  1.5394  1.2988
 1574TIP3   OH226136   1.763   6.085  13.917 -0.7947 -0.2789 -0.1532
 1574TIP3    H126137   1.714   6.122  13.843 -1.3076 -0.9437 -0.1602
 1574TIP3    H226138   1.725   5.998  13.929 -0.0380 -0.5612  0.2590
 1575TIP3   OH226139   3.206   6.747   4.012 -0.1646  0.2351  0.0913
 1575TIP3    H126140   3.204   6.652   4.028  3.4727 -0.1377 -0.8391
 1575TIP3    H226141   3.221   6.785   4.099  1.1679 -0.3088  0.1207
 1576TIP3   OH226142   5.062   0.231   1.951 -0.1165  0.0873 -0.6207
 1576TIP3    H126143   5.115   0.306   1.924  0.6258 -0.5509 -0.9963
 1576TIP3    H226144   5.046   0.182   1.870  1.5046 -1.4601 -0.0668
 1577TIP3   OH226145   1.984   0.662   0.965  0.2812 -0.2338 -0.2663
 1577TIP3    H126146   1.907   0.675   0.910 -1.7571 -0.4889  2.3428
 1577TIP3    H226147   1.990   0.741   1.018 -0.5950 -1.7311  2.2412
 1578TIP3   OH226148   3.337   2.283   4.132 -0.2671  0.3511  0.0313
 1578TIP3    H126149   3.361   2.342   4.061 -0.7212  1.6623  0.9243
 1578TIP3    H226150   3.242   2.275   4.126 -0.3380  0.7036  0.6688
 1579TIP3   OH226151   3.245   1.352  15.217 -0.3405  0.3951  0.0870
 1579TIP3    H126152   3.171   1.312  15.262  1.2864 -2.3143  0.5337
 1579TIP3    H226153   3.207   1.388  15.137 -2.2606 -0.2031  0.6751
 1580TIP3   OH226154   1.655   2.459  16.021 -0.6652 -0.0466  0.2107
 1580TIP3    H126155   1.601   2.513  16.078 -0.5292 -0.4293  0.7137
 1580TIP3    H226156   1.723   2.518  15.989 -0.2838 -0.0143  1.0700
 1581TIP3   OH226157   4.511   1.708   5.068  0.8733  0.4733 -0.2299
 1581TIP3    H126158   4.565   1.665   5.003  1.1386  2.7947 -1.6434
 1581TIP3    H226159   4.573   1.747   5.130  0.6362 -1.1039  1.0746
 1582TIP3   OH226160   4.821   2.436  10.914 -0.1922 -0.2114 -0.0998
 1582TIP3    H126161   4.886   2.435  10.844 -0.6160 -1.1121 -0.4906
 1582TIP3    H226162   4.749   2.383  10.881  0.4167 -2.3135  1.7685
 1583TIP3   OH226163   5.699   1.260   2.359 -1.1072  0.3506  0.1676
 1583TIP3    H126164   5.762   1.294   2.422  0.0980  0.7217 -1.1950
 1583TIP3    H226165   5.751   1.208   2.299 -2.4288 -1.0619  0.1916
 1584TIP3   OH226166   1.415   0.443  11.223 -0.8109  0.0267 -0.3483
 1584TIP3    H126167   1.484   0.452  11.158  0.4718 -0.4281  0.9189
 1584TIP3    H226168   1.346   0.504  11.193  0.8345  1.7988 -0.7155
 1585TIP3   OH226169   3.644   1.098   4.476  0.1731  0.6176  0.6692
 1585TIP3    H126170   3.735   1.084   4.502  0.7021  1.3442 -0.7072
 1585TIP3    H226171   3.598   1.113   4.558  1.4746  1.2127  1.3116
 1586TIP3   OH226172   0.733   1.023  12.057 -1.0033  0.2450  0.2036
 1586TIP3    H126173   0.813   0.971  12.045 -1.0116  0.1029  0.7477
 1586TIP3    H226174   0.678   0.999  11.982 -0.8988 -0.3272  0.3058
 1587TIP3   OH226175   2.897   4.475   1.706  0.4224  0.0914 -0.0030
 1587TIP3    H126176   2.851   4.487   1.789 -1.6389 -1.3759 -0.8565
 1587TIP3    H226177   2.976   4.427   1.729 -0.2165 -0.4708  1.1196
 1588TIP3   OH226178   4.779   5.325   0.239 -0.1869 -0.2379  0.7926
 1588TIP3    H126179   4.823   5.378   0.173 -0.2394 -1.5452 -0.3531
 1588TIP3    H226180   4.705   5.378   0.268  1.2660  1.3866  1.6720
 1589TIP3   OH226181   5.302   5.921   3.471  0.1215 -0.0306 -0.4283
 1589TIP3    H126182   5.219   5.932   3.517  1.2501  0.0246  1.7336
 1589TIP3    H226183   5.366   5.908   3.541  1.8820 -0.4486 -2.0463
 1590TIP3   OH226184   2.336   4.699  12.064 -0.0424 -0.1165 -0.1867
 1590TIP3    H126185   2.414   4.695  12.120 -0.0085 -0.3975 -0.2522
 1590TIP3    H226186   2.266   4.664  12.118 -0.0892 -0.0182 -0.1842
 1591TIP3   OH226187   4.300   1.883  13.180 -0.1739  0.5210 -0.1167
 1591TIP3    H126188   4.248   1.936  13.121  1.2223  0.2219 -1.7156
 1591TIP3    H226189   4.376   1.857  13.127  0.3457 -1.0891  1.3344
 1592TIP3   OH226190   0.093   5.240  16.188  0.6569 -0.0569 -0.1239
 1592TIP3    H126191   0.083   5.335  16.189  1.0963 -0.0073  0.4784
 1592TIP3    H226192   0.148   5.221  16.264 -1.4750 -1.0173  1.3077
 1593TIP3   OH226193   4.853   4.837  13.728 -0.0828  0.7289 -0.5523
 1593TIP3    H126194   4.777   4.845  13.671  0.3356 -0.0454 -1.2429
 1593TIP3    H226195   4.852   4.916  13.782 -2.2515  0.0261  0.5613
 1594TIP3   OH226196   0.710   4.181  11.628  0.5430 -0.5677  0.6277
 1594TIP3    H126197   0.659   4.101  11.614  0.5990 -0.5949  0.5759
 1594TIP3    H226198   0.738   4.207  11.541  0.5533 -0.5095  0.6480
 1595TIP3   OH226199   4.075   3.935   3.089 -0.0142  0.2495 -0.6899
 1595TIP3    H126200   4.032   3.919   3.173  0.7475  0.0953 -0.3166
 1595TIP3    H226201   4.100   3.848   3.057 -2.8515 -0.0212 -2.5269
 1596TIP3   OH226202   6.101   0.970   2.771  0.4023 -0.2436 -0.2303
 1596TIP3    H126203   6.147   1.048   2.800  2.0252 -0.3199 -2.3536
 1596TIP3    H226204   6.023   1.003   2.727  0.1487  0.0746  0.4498
 1597TIP3   OH226205   1.155   5.726  11.839  0.4926 -0.4633  0.1858
 1597TIP3    H126206   1.233   5.683  11.875 -0.0405 -0.0322  1.9821
 1597TIP3    H226207   1.190   5.804  11.794  1.0352  1.9575  4.2593
 1598TIP3   OH226208   2.789   6.131   0.412 -0.2250  0.3178  0.0959
 1598TIP3    H126209   2.766   6.178   0.333  0.6370 -0.5879 -0.7319
 1598TIP3    H226210   2.806   6.199   0.477 -1.3796  1.0590 -0.3585
 1599TIP3   OH226211   4.944   5.565   5.744  0.0908 -0.4523 -0.0520
 1599TIP3    H126212   4.903   5.651   5.754  1.1182  0.0782 -0.2674
 1599TIP3    H226213   5.001   5.556   5.821  2.3069  0.4117 -1.4763
 1600TIP3   OH226214   1.716   2.074  13.281 -0.5685  0.0352  0.2074
 1600TIP3    H126215   1.713   1.987  13.241  1.1096  0.7537 -1.6647
 1600TIP3    H226216   1.797   2.073  13.332 -0.5004  0.5287  0.1093
 1601TIP3   OH226217   0.041   4.324  16.629  0.3380  0.3320  0.7263
 1601TIP3    H126218   0.046   4.229  16.617  1.0681  0.3683  0.6718
 1601TIP3    H226219   0.009   4.337  16.718  0.8948  0.0301  0.9715
 1602TIP3   OH226220   2.805   2.623   3.086 -0.7883  0.3891 -0.1950
 1602TIP3    H126221   2.877   2.612   3.024 -0.3768  1.1450  0.1384
 1602TIP3    H226222   2.739   2.673   3.036 -0.9656 -0.0507 -0.4060
 1603TIP3   OH226223   1.617   5.332   2.061  0.0838  0.2439  0.0332
 1603TIP3    H126224   1.547   5.271   2.037  1.6453 -0.9202 -1.9839
 1603TIP3    H226225   1.680   5.278   2.109  1.1126  0.4142 -1.0790
 1604TIP3   OH226226   3.856   6.587  15.146 -0.4591 -0.2613  0.0316
 1604TIP3    H126227   3.803   6.570  15.068  0.7088 -2.3396 -0.3929
 1604TIP3    H226228   3.918   6.654  15.119 -0.4176 -0.5748 -0.6758
 1605TIP3   OH226229   0.466   0.228  12.379  0.4839  0.1387 -0.4444
 1605TIP3    H126230   0.410   0.193  12.448 -1.1737 -0.8527 -2.1855
 1605TIP3    H226231   0.469   0.323  12.396  0.4873 -0.1228  1.1848
 1606TIP3   OH226232   1.176   5.436   5.374  0.1133  0.0390  0.2075
 1606TIP3    H126233   1.151   5.528   5.386 -1.0028 -0.2011 -0.1686
 1606TIP3    H226234   1.179   5.400   5.463  2.3966  0.8649  0.5289
 1607TIP3   OH226235   2.452   2.169  15.716 -0.1022 -0.1671  0.3316
 1607TIP3    H126236   2.404   2.249  15.738 -0.7831 -0.3706 -0.3950
 1607TIP3    H226237   2.536   2.200  15.683 -1.1776  0.3746 -2.0758
 1608TIP3   OH226238   6.076   2.568  11.982 -0.2659 -0.5289  0.4911
 1608TIP3    H126239   6.111   2.656  11.995  0.8602 -0.9773  0.6731
 1608TIP3    H226240   6.070   2.557  11.887 -1.6742  0.1998  0.4734
 1609TIP3   OH226241   0.412   0.192   0.903 -0.2003 -0.1055  0.0703
 1609TIP3    H126242   0.351   0.182   0.830 -1.6051 -1.0181  1.3202
 1609TIP3    H226243   0.471   0.116   0.896  0.1523  0.2095 -0.5161
 1610TIP3   OH226244   5.888   1.006  10.971  0.3458  0.4092  0.7088
 1610TIP3    H126245   5.970   0.958  10.979 -0.8585 -1.8565  0.3009
 1610TIP3    H226246   5.897   1.055  10.889  0.0895 -2.5363 -1.2527
 1611TIP3   OH226247   1.157   5.081  17.179  0.3822 -0.7363 -0.4148
 1611TIP3    H126248   1.229   5.134  17.145  1.4841 -0.3020  2.3248
 1611TIP3    H226249   1.199   5.003  17.214 -0.7479 -1.4453 -0.5673
 1612TIP3   OH226250   5.780   5.374  12.094  0.0588  0.6767 -0.5447
 1612TIP3    H126251   5.765   5.279  12.093 -1.8514  0.9272  0.5721
 1612TIP3    H226252   5.875   5.382  12.107  0.3046 -1.0721 -0.9238
 1613TIP3   OH226253   0.475   4.841  16.176  0.6227 -0.7437  0.1219
 1613TIP3    H126254   0.556   4.793  16.192  1.1962  0.2912  0.4228
 1613TIP3    H226255   0.481   4.918  16.232  0.4843  0.5281 -1.5292
 1614TIP3   OH226256   4.417   2.819  11.615  0.2971  0.6556  0.4756
 1614TIP3    H126257   4.498   2.812  11.564 -0.1979  3.8769 -1.0078
 1614TIP3    H226258   4.352   2.773  11.562  0.2872  1.9455 -0.6989
 1615TIP3   OH226259   6.696   5.101   3.773  0.1820  0.6548  0.3078
 1615TIP3    H126260   6.756   5.112   3.846  1.3372  0.5722 -0.6006
 1615TIP3    H226261   6.655   5.016   3.787  1.1093  0.2072  0.3707
 1616TIP3   OH226262   0.353   1.852  13.496  0.5078  0.6260  0.3892
 1616TIP3    H126263   0.337   1.928  13.440  0.9026  0.1015 -0.4664
 1616TIP3    H226264   0.294   1.863  13.570 -0.6503  0.9110 -0.5493
 1617TIP3   OH226265   3.047   4.277  13.735  0.1073 -0.4208  0.8453
 1617TIP3    H126266   2.966   4.300  13.690  0.4410  1.1698  0.9946
 1617TIP3    H226267   3.115   4.327  13.689  0.9094 -1.1993  1.1545
 1618TIP3   OH226268   5.123   0.520  13.105  0.4652 -0.1064  0.6505
 1618TIP3    H126269   5.144   0.481  13.190 -0.8993 -1.4637  0.3978
 1618TIP3    H226270   5.057   0.462  13.067 -0.6795  1.7393 -0.3304
 1619TIP3   OH226271   5.701   6.002  15.772 -0.6072  0.4097 -0.2127
 1619TIP3    H126272   5.770   5.959  15.722  0.5186  2.3407 -0.3987
 1619TIP3    H226273   5.675   5.937  15.838  1.6870 -0.2314  0.1300
 1620TIP3   OH226274   6.040   0.032   3.629 -0.1639  0.0475  0.0664
 1620TIP3    H126275   6.112   0.073   3.678  0.8002 -2.1239  0.5957
 1620TIP3    H226276   5.962   0.078   3.658  0.7303  0.7777  1.4291
 1621TIP3   OH226277   1.336   4.910  12.124 -0.6221  0.1929 -0.4067
 1621TIP3    H126278   1.260   4.968  12.115  0.5035  1.4741 -2.5845
 1621TIP3    H226279   1.406   4.956  12.078  1.1552 -1.5409  0.4395
 1622TIP3   OH226280   1.960   5.202   2.633  0.0967  0.0807 -0.3256
 1622TIP3    H126281   2.024   5.156   2.688 -0.4270  0.6480  0.7933
 1622TIP3    H226282   1.999   5.203   2.546  1.6540  0.4664  0.3408
 1623TIP3   OH226283   2.004   3.415   2.685  0.7473 -0.6334 -0.8849
 1623TIP3    H126284   2.043   3.335   2.722 -0.7481 -1.0130 -0.0393
 1623TIP3    H226285   1.960   3.384   2.605  0.8056 -0.4977 -0.9701
 1624TIP3   OH226286   6.391   0.840  14.264  0.2384  0.6759  0.1174
 1624TIP3    H126287   6.440   0.889  14.330  0.6634  0.8463 -0.3273
 1624TIP3    H226288   6.310   0.890  14.253 -0.3620  0.0153  1.3658
 1625TIP3   OH226289   2.054   1.583   5.013  0.1541 -0.1995 -0.0297
 1625TIP3    H126290   1.982   1.645   4.997  0.1863  0.4656  2.1030
 1625TIP3    H226291   2.012   1.510   5.058  0.7102 -0.0681  0.7115
 1626TIP3   OH226292   4.208   5.014   5.898  0.1235  0.1474  0.0656
 1626TIP3    H126293   4.129   5.036   5.947  0.3419 -0.2403  0.6047
 1626TIP3    H226294   4.231   5.094   5.850 -1.4352 -0.1657 -1.2905
 1627TIP3   OH226295   1.714   6.321  11.343  0.2350 -0.0330  0.9299
 1627TIP3    H126296   1.644   6.276  11.295 -0.5982  1.8096  0.3170
 1627TIP3    H226297   1.795   6.292  11.301 -0.3441 -0.1520 -0.1289
 1628TIP3   OH226298   6.102   4.159   4.892 -0.0546  0.1665  0.4894
 1628TIP3    H126299   6.175   4.164   4.954  0.1670 -0.2737  0.2687
 1628TIP3    H226300   6.025   4.181   4.945  0.3762  1.9192  0.4311
 1629TIP3   OH226301   4.665   3.776  13.133  0.1103  0.0752  0.4755
 1629TIP3    H126302   4.637   3.731  13.212  1.7155  0.9328  1.5775
 1629TIP3    H226303   4.587   3.824  13.104 -0.7544 -0.9764  0.9739
 1630TIP3   OH226304   2.054   3.022  12.753 -0.1591 -0.0544 -0.5851
 1630TIP3    H126305   2.133   3.068  12.784  0.2535 -1.9169  1.2932
 1630TIP3    H226306   1.998   3.015  12.830 -1.3235 -0.5211 -1.4426
 1631TIP3   OH226307   4.130   4.462   0.132  0.5146 -0.8242 -0.0682
 1631TIP3    H126308   4.058   4.494   0.077  0.4856  2.0178  1.4230
 1631TIP3    H226309   4.091   4.454   0.220  1.3931 -1.8805  0.2470
 1632TIP3   OH226310   0.005   4.701  12.054  0.7292  0.2015  0.9982
 1632TIP3    H126311   0.040   4.626  12.102  0.1821 -0.5163  0.3065
 1632TIP3    H226312  -0.086   4.706  12.081  0.0692 -0.9825 -0.8441
 1633TIP3   OH226313   1.862   2.254  15.868 -0.2116 -0.1071 -0.1663
 1633TIP3    H126314   1.783   2.242  15.814 -0.4763 -0.8737  0.3684
 1633TIP3    H226315   1.841   2.327  15.926  0.0189  0.6277 -0.9769
 1634TIP3   OH226316   1.407   0.087  13.723  0.0550 -0.0639  0.2277
 1634TIP3    H126317   1.332   0.027  13.723 -0.2602  0.1471  3.2202
 1634TIP3    H226318   1.483   0.030  13.730 -0.1985 -0.2394  2.2666
 1635TIP3   OH226319   5.171   1.435   1.965  0.8110 -0.2625 -0.3342
 1635TIP3    H126320   5.232   1.423   1.893  1.0677  1.3222 -0.4243
 1635TIP3    H226321   5.091   1.390   1.938  1.7377 -1.8922 -0.4474
 1636TIP3   OH226322   4.367   1.542   4.437 -0.3878  0.1580 -0.6733
 1636TIP3    H126323   4.386   1.562   4.529  2.3807 -2.1286 -0.6061
 1636TIP3    H226324   4.451   1.552   4.393 -0.8440 -2.2512 -2.2464
 1637TIP3   OH226325   3.069   0.792   2.782  0.2274  0.0930 -0.1357
 1637TIP3    H126326   3.078   0.697   2.788  1.6965  0.1027 -1.3715
 1637TIP3    H226327   3.038   0.807   2.693  0.6558  0.7966 -0.1714
 1638TIP3   OH226328   5.158   3.005  11.431 -0.1585  0.0184  0.3231
 1638TIP3    H126329   5.234   2.947  11.439  0.3915  0.6453 -0.2354
 1638TIP3    H226330   5.099   2.960  11.371 -0.7113 -0.9508  1.5413
 1639TIP3   OH226331   5.523   6.502  15.070  0.0186 -0.0001 -0.2472
 1639TIP3    H126332   5.511   6.536  14.981  0.0548 -0.4383 -0.4178
 1639TIP3    H226333   5.501   6.577  15.126 -1.6838 -0.1979 -0.5930
 1640TIP3   OH226334   6.540   2.197  12.014  0.0790  0.1482  0.1036
 1640TIP3    H126335   6.445   2.210  12.014  0.1015  0.4364  1.6910
 1640TIP3    H226336   6.564   2.202  11.921 -1.2121  1.9747 -0.1930
 1641TIP3   OH226337   4.857   3.420   1.469 -0.1535  0.0901  0.0193
 1641TIP3    H126338   4.928   3.483   1.472 -0.7288  0.7175  1.0240
 1641TIP3    H226339   4.887   3.346   1.522  0.6092 -0.6110 -1.3353
 1642TIP3   OH226340   1.645   1.997   2.487  0.1132  0.2375 -0.0301
 1642TIP3    H126341   1.630   1.978   2.395  3.2701 -0.1721 -0.5750
 1642TIP3    H226342   1.706   1.928   2.516 -0.4710  0.6062  2.2510
 1643TIP3   OH226343   2.050   5.531   3.038  0.0489 -0.3657 -0.1075
 1643TIP3    H126344   2.049   5.435   3.032 -0.5820 -0.3228 -0.7856
 1643TIP3    H226345   1.958   5.556   3.032 -0.1596  0.1174  3.2528
 1644TIP3   OH226346   4.991   5.584  13.509  0.1113  0.0457  0.0229
 1644TIP3    H126347   5.057   5.515  13.508  1.4629  1.2161 -3.3397
 1644TIP3    H226348   4.984   5.613  13.418 -0.8579  3.9212  1.1439
 1645TIP3   OH226349   5.730   4.452  15.723 -0.0144 -0.2448 -0.6394
 1645TIP3    H126350   5.707   4.404  15.643 -1.3874  0.2492 -0.5709
 1645TIP3    H226351   5.655   4.509  15.739 -0.6398 -1.6592  2.0501
 1646TIP3   OH226352   2.481   3.690  11.418 -0.0853 -0.1805 -0.2198
 1646TIP3    H126353   2.463   3.783  11.425 -1.4834 -0.4868  0.8017
 1646TIP3    H226354   2.576   3.683  11.426  0.3230  1.3223 -2.8984
 1647TIP3   OH226355   1.607   3.297   4.395 -0.0352  0.6475 -0.2396
 1647TIP3    H126356   1.671   3.356   4.356  1.6589 -0.0256  1.3540
 1647TIP3    H226357   1.603   3.323   4.487  0.7523 -1.6535  0.5013
 1648TIP3   OH226358   2.717   0.085  16.496 -0.4555  0.4148 -0.0612
 1648TIP3    H126359   2.623   0.078  16.510 -0.5468  0.3473 -0.6911
 1648TIP3    H226360   2.740   0.173  16.526 -0.4459 -0.1087  1.5705
 1649TIP3   OH226361   5.096   1.557  13.564 -0.3066 -0.1384 -0.3662
 1649TIP3    H126362   5.120   1.465  13.549  0.6646 -0.2408  1.5070
 1649TIP3    H226363   5.072   1.589  13.477  0.3274 -1.8811 -1.2546
 1650TIP3   OH226364   4.053   2.374   1.615 -0.2438  0.1813 -0.1826
 1650TIP3    H126365   4.003   2.441   1.568  0.2217  0.2296 -0.6217
 1650TIP3    H226366   4.144   2.392   1.591 -0.1729 -1.1349 -1.0014
 1651TIP3   OH226367   1.425   0.407  12.992 -0.5099 -0.2841  0.3561
 1651TIP3    H126368   1.511   0.368  13.009 -0.1159 -0.5035 -1.8356
 1651TIP3    H226369   1.363   0.334  13.005 -0.1267 -0.7245 -0.2352
 1652TIP3   OH226370   1.421   5.140   1.424 -0.0668  0.6425 -0.9018
 1652TIP3    H126371   1.330   5.169   1.411 -0.1892 -0.1672 -2.0649
 1652TIP3    H226372   1.447   5.107   1.338  1.0542  0.0932 -0.3620
 1653TIP3   OH226373   1.195   3.089  14.942  0.3408  0.2018  0.0633
 1653TIP3    H126374   1.291   3.088  14.937  0.5839 -0.5835  3.0050
 1653TIP3    H226375   1.167   3.029  14.873  1.9695  0.1520 -0.6012
 1654TIP3   OH226376   3.225   6.775   3.175  0.0254  0.0477  0.2335
 1654TIP3    H126377   3.145   6.802   3.131  0.7712  0.3702 -0.9995
 1654TIP3    H226378   3.196   6.720   3.248 -1.2744 -0.4251 -0.6056
 1655TIP3   OH226379   3.317   1.768   4.280 -0.3757 -0.0002 -0.3088
 1655TIP3    H126380   3.249   1.827   4.248 -0.0204  0.0782 -0.9255
 1655TIP3    H226381   3.275   1.718   4.350 -0.3535  1.8438  1.1192
 1656TIP3   OH226382   4.933   3.653   2.938  0.2186 -0.0831 -0.5109
 1656TIP3    H126383   4.858   3.623   2.887  0.9702 -3.0755 -0.0410
 1656TIP3    H226384   4.898   3.671   3.025 -0.0395 -1.2374 -0.3619
 1657TIP3   OH226385   0.317   1.910  14.884 -0.4362 -0.4312 -0.2564
 1657TIP3    H126386   0.379   1.966  14.839 -0.8447  0.9547  0.8281
 1657TIP3    H226387   0.333   1.822  14.849  0.3483  0.3166 -1.8539
 1658TIP3   OH226388   0.667   0.547   1.317  0.5425  0.1398  0.4584
 1658TIP3    H126389   0.662   0.504   1.231  0.1247 -0.2116  0.6564
 1658TIP3    H226390   0.719   0.487   1.371 -0.2845 -0.2704  0.8179
 1659TIP3   OH226391   2.926   3.125  12.462 -0.5915  0.5027 -0.3736
 1659TIP3    H126392   2.987   3.051  12.454 -1.1841 -0.1167  0.6012
 1659TIP3    H226393   2.902   3.145  12.372  1.3532  1.0428 -0.8297
 1660TIP3   OH226394   3.142   4.368   1.789 -0.4852  0.0780  0.4408
 1660TIP3    H126395   3.185   4.285   1.767 -0.7620 -0.4661  1.8467
 1660TIP3    H226396   3.183   4.432   1.732  0.6825 -0.7979  0.2573
 1661TIP3   OH226397   4.812   3.394   3.333 -0.6189  0.6991  0.0791
 1661TIP3    H126398   4.770   3.480   3.326 -1.1449  0.8376  3.2439
 1661TIP3    H226399   4.824   3.381   3.428  0.8345 -2.0741 -0.3741
 1662TIP3   OH226400   5.558   4.425  15.288 -0.7574  0.7437  0.3057
 1662TIP3    H126401   5.635   4.464  15.329 -1.1082  0.5294  1.2110
 1662TIP3    H226402   5.591   4.387  15.207  0.6489 -1.5085  1.8108
 1663TIP3   OH226403   0.000   4.506   1.962  0.2498  0.5781 -0.3706
 1663TIP3    H126404   0.094   4.499   1.979  0.1552 -1.1522 -0.3800
 1663TIP3    H226405  -0.029   4.416   1.951 -1.0962  1.1728 -2.1858
 1664TIP3   OH226406   5.228   5.822   3.947  0.0300  0.1587  0.4925
 1664TIP3    H126407   5.167   5.894   3.961  0.9134  1.6120 -2.2747
 1664TIP3    H226408   5.287   5.824   4.023 -1.0100  1.2240  1.3019
 1665TIP3   OH226409   5.962   2.449  17.218 -0.1303 -0.4463  0.0207
 1665TIP3    H126410   5.948   2.402  17.299 -0.7685  1.4934  1.1015
 1665TIP3    H226411   5.909   2.402  17.153 -0.4314 -1.4220  0.9508
 1666TIP3   OH226412   1.858   0.367   1.906  0.7012  0.4898  0.3026
 1666TIP3    H126413   1.842   0.461   1.898 -1.8995  0.1124  0.1009
 1666TIP3    H226414   1.802   0.339   1.979  0.9147 -0.9972 -0.0562
 1667TIP3   OH226415   3.664   2.147   6.471  0.0684  0.1362  0.4330
 1667TIP3    H126416   3.696   2.066   6.431 -0.3074  0.1518  0.0892
 1667TIP3    H226417   3.605   2.118   6.541 -0.1924  0.1074  0.2056
 1668TIP3   OH226418   1.977   3.526  12.481  0.7492  0.4255  0.3058
 1668TIP3    H126419   1.998   3.599  12.423  0.5591 -0.1862 -0.5599
 1668TIP3    H226420   1.999   3.448  12.429 -1.6659 -0.2095  0.1487
 1669TIP3   OH226421   0.113   0.230   2.344 -0.2583  0.1402 -0.0750
 1669TIP3    H126422   0.078   0.289   2.411 -1.1855 -0.3736 -0.0953
 1669TIP3    H226423   0.063   0.251   2.265  0.2558  0.1660 -0.3991
 1670TIP3   OH226424   5.826   2.462  15.044  0.8612  0.1227 -0.0400
 1670TIP3    H126425   5.790   2.550  15.045 -0.7451 -0.5010  0.9717
 1670TIP3    H226426   5.907   2.468  15.094  0.2844  0.8463  0.8262
 1671TIP3   OH226427   6.758   3.445   2.095  0.3737  0.4158  0.1488
 1671TIP3    H126428   6.848   3.412   2.089  0.1228 -0.0722 -1.0659
 1671TIP3    H226429   6.768   3.539   2.108  1.0673  0.5070 -0.9205
 1672TIP3   OH226430   6.088   0.237  14.620  0.2419  0.1265 -0.1467
 1672TIP3    H126431   6.149   0.213  14.689  1.9931  2.2607 -0.8138
 1672TIP3    H226432   6.089   0.163  14.559  2.1196  0.0538 -0.0813
 1673TIP3   OH226433   3.964   5.383  13.500 -0.3235 -0.1424 -0.3169
 1673TIP3    H126434   3.898   5.422  13.443 -1.2341 -1.2668 -0.0614
 1673TIP3    H226435   4.011   5.458  13.536  1.3219  0.6037 -3.6586
 1674TIP3   OH226436   6.127   5.728  14.274 -0.1075  0.0680  0.1632
 1674TIP3    H126437   6.094   5.705  14.361  1.2374 -0.0274  0.6655
 1674TIP3    H226438   6.111   5.822  14.267 -0.8603 -0.0492  0.2217
 1675TIP3   OH226439   5.309   4.877   3.825  0.2015 -0.7722  0.1588
 1675TIP3    H126440   5.261   4.954   3.795 -1.7778 -1.1330  2.1416
 1675TIP3    H226441   5.364   4.909   3.896 -0.0399 -1.0589  0.4733
 1676TIP3   OH226442   3.868   3.722  11.720  0.6941  0.4399 -0.3122
 1676TIP3    H126443   3.921   3.796  11.751 -0.8266  1.7277 -0.6624
 1676TIP3    H226444   3.914   3.645  11.753  1.5424  1.5789  1.3270
 1677TIP3   OH226445   3.305   1.128   5.132 -0.2172 -0.1348 -0.3291
 1677TIP3    H126446   3.304   1.137   5.227  3.8470  1.4276 -0.2090
 1677TIP3    H226447   3.374   1.064   5.115 -1.6757 -1.2894 -2.2734
 1678TIP3   OH226448   1.192   5.856  13.531 -0.1456 -0.0635  0.1158
 1678TIP3    H126449   1.241   5.870  13.450  0.0406  3.6118  0.6799
 1678TIP3    H226450   1.258   5.858  13.600 -0.6425  0.7355  0.5897
 1679TIP3   OH226451   4.472   5.999  15.039 -0.5608 -0.0416  0.0534
 1679TIP3    H126452   4.450   6.092  15.039  2.1378  0.7267  2.3301
 1679TIP3    H226453   4.449   5.969  15.127 -1.3421 -1.5443 -0.6337
 1680TIP3   OH226454   6.135   1.791   5.329 -1.0871 -0.0839  0.2144
 1680TIP3    H126455   6.041   1.781   5.343 -0.6500 -0.8358  3.4483
 1680TIP3    H226456   6.173   1.711   5.365  0.8255  0.2283 -0.9697
 1681TIP3   OH226457   1.113   2.112  14.104 -0.0104  0.1603 -0.6037
 1681TIP3    H126458   1.188   2.106  14.046 -0.7069  1.1154 -1.6466
 1681TIP3    H226459   1.078   2.200  14.089 -3.1917 -1.2518 -2.5788
 1682TIP3   OH226460   3.944   6.004   0.512  0.1441 -0.1190 -0.1192
 1682TIP3    H126461   3.929   6.045   0.427  0.0052  0.1473  0.0339
 1682TIP3    H226462   4.039   6.011   0.526  0.3083 -1.0091 -0.6795
 1683TIP3   OH226463   2.406   3.648  12.288 -0.0282  0.0323  0.0754
 1683TIP3    H126464   2.470   3.592  12.332 -1.8312 -1.6025  0.7810
 1683TIP3    H226465   2.362   3.589  12.227 -2.5344  0.3958  1.4032
 1684TIP3   OH226466   2.117   0.249  12.821  0.1389 -0.3044  0.0984
 1684TIP3    H126467   2.048   0.265  12.757 -0.4982 -0.1124  0.8163
 1684TIP3    H226468   2.162   0.171  12.789  0.5314  0.4071 -1.1594
 1685TIP3   OH226469   1.844   1.167   3.113  0.2378  0.1540  0.5692
 1685TIP3    H126470   1.851   1.077   3.083  0.0693  0.7458 -1.4007
 1685TIP3    H226471   1.750   1.181   3.124  0.2768  0.0306  1.0468
 1686TIP3   OH226472   0.711   2.465   5.118 -0.1839 -0.9153 -0.3955
 1686TIP3    H126473   0.671   2.394   5.167 -1.2224 -0.6771 -0.8681
 1686TIP3    H226474   0.804   2.444   5.115 -0.3632 -1.8008  0.2062
 1687TIP3   OH226475   1.116   3.570  14.583 -0.5495 -0.2546  0.0701
 1687TIP3    H126476   1.046   3.515  14.618  0.7105 -0.7729  1.9666
 1687TIP3    H226477   1.188   3.510  14.565  1.7563  0.7106  4.4533
 1688TIP3   OH226478   2.911   1.562  14.065 -0.7449 -0.0266  0.3210
 1688TIP3    H126479   2.935   1.537  13.975 -1.2886  4.0689 -1.1772
 1688TIP3    H226480   2.817   1.576  14.062 -0.5344  1.8013  0.9913
 1689TIP3   OH226481   1.464   1.475  11.256 -0.2221 -0.4427 -0.3591
 1689TIP3    H126482   1.398   1.531  11.217  0.1271 -0.2200 -0.6302
 1689TIP3    H226483   1.478   1.405  11.192  1.5766  0.8307 -1.4270
 1690TIP3   OH226484   2.499   6.523  14.714  0.1400 -0.1075 -0.8126
 1690TIP3    H126485   2.450   6.503  14.794  0.4302  0.4355 -0.4929
 1690TIP3    H226486   2.468   6.458  14.651  1.2598 -1.7569  0.2515
 1691TIP3   OH226487   0.014   6.139   2.269  0.2645 -0.0502 -0.3565
 1691TIP3    H126488   0.059   6.088   2.201  1.0399 -0.6694  0.6042
 1691TIP3    H226489  -0.073   6.101   2.273  0.1096  0.1973 -1.2213
 1692TIP3   OH226490   2.895   5.673   3.100  0.1430 -0.1681 -0.0128
 1692TIP3    H126491   2.981   5.688   3.141  0.9011 -2.3295 -0.7243
 1692TIP3    H226492   2.840   5.643   3.172 -0.1062  1.4011  0.4847
 1693TIP3   OH226493   3.996   1.361   0.620  0.0395 -0.1994  0.4132
 1693TIP3    H126494   4.010   1.416   0.697 -0.3986  0.0759  0.2953
 1693TIP3    H226495   3.948   1.285   0.653 -0.0356 -0.1422  0.4344
 1694TIP3   OH226496   3.705   3.583   3.880 -0.6489 -0.1583 -0.3583
 1694TIP3    H126497   3.751   3.532   3.813 -1.9000 -1.4292 -0.2924
 1694TIP3    H226498   3.619   3.601   3.842 -0.6853  0.8089  0.1476
 1695TIP3   OH226499   5.566   5.784  13.203  0.0769  0.0344 -0.2459
 1695TIP3    H126500   5.588   5.777  13.295 -1.3233 -1.3359  0.0209
 1695TIP3    H226501   5.602   5.705  13.163  0.3519  0.4364 -0.8131
 1696TIP3   OH226502   0.612   2.861   4.922 -0.1183 -0.3355  0.3090
 1696TIP3    H126503   0.704   2.878   4.942 -0.0139  0.3157 -0.6262
 1696TIP3    H226504   0.575   2.826   5.003  1.5031 -2.9333  0.0246
 1697TIP3   OH226505   3.820   2.047  17.083  0.0917 -0.4879  0.2276
 1697TIP3    H126506   3.890   2.047  17.018  1.2102 -0.6794  1.4005
 1697TIP3    H226507   3.863   2.075  17.164 -1.5399  1.0832  0.6042
 1698TIP3   OH226508   1.912   1.427   3.344  0.3742  0.0408  0.3151
 1698TIP3    H126509   1.968   1.392   3.413  1.3533 -0.0504 -0.5136
 1698TIP3    H226510   1.915   1.361   3.275  0.7857  0.9125 -0.5190
 1699TIP3   OH226511   3.996   2.444  12.460  1.0852  0.2143  0.0166
 1699TIP3    H126512   4.003   2.372  12.397 -1.1497 -0.9275  0.9583
 1699TIP3    H226513   3.983   2.522  12.406  0.0482 -0.6205 -1.0049
 1700TIP3   OH226514   3.552   4.638   5.206 -0.2795  0.2502 -0.8988
 1700TIP3    H126515   3.635   4.635   5.254 -0.1502  1.0158 -1.0586
 1700TIP3    H226516   3.569   4.590   5.125 -0.4058 -0.7775 -0.3347
 1701TIP3   OH226517   2.235   2.435   3.510  0.6779 -0.3968  0.3645
 1701TIP3    H126518   2.304   2.445   3.575 -1.1208  1.1742  2.1916
 1701TIP3    H226519   2.164   2.391   3.558 -0.1317 -0.6264 -1.0095
 1702TIP3   OH226520   0.523   1.421  16.785  0.6238  0.0431 -0.4370
 1702TIP3    H126521   0.567   1.336  16.780  0.0076 -0.2070 -2.1676
 1702TIP3    H226522   0.438   1.401  16.825  0.0023 -0.3856 -1.9250
 1703TIP3   OH226523   6.708   5.980  14.599 -0.2012  0.6507 -0.1185
 1703TIP3    H126524   6.738   5.996  14.510  0.5629 -1.9257 -0.4270
 1703TIP3    H226525   6.719   6.063  14.644 -0.8299  2.0901 -2.4548
 1704TIP3   OH226526   3.635   4.339   2.849 -0.3652 -0.2656 -0.1455
 1704TIP3    H126527   3.585   4.406   2.803 -1.1865 -0.2673  0.7181
 1704TIP3    H226528   3.721   4.339   2.806 -1.1826 -0.4908 -1.8724
 1705TIP3   OH226529   1.843   4.388  11.794  0.0184  0.0772 -0.5604
 1705TIP3    H126530   1.827   4.302  11.832 -0.3419 -0.9968 -3.0100
 1705TIP3    H226531   1.919   4.421  11.842  0.2279 -1.6196  0.3561
 1706TIP3   OH226532   1.684   6.218   1.869  0.2508  0.1823  0.5029
 1706TIP3    H126533   1.658   6.182   1.954 -0.4702  2.2607  1.2134
 1706TIP3    H226534   1.602   6.228   1.821  0.5695 -0.1982 -0.1252
 1707TIP3   OH226535   3.981   3.815   2.689 -0.9396 -0.0130  0.2325
 1707TIP3    H126536   4.010   3.893   2.736 -1.2889  0.2978 -0.0559
 1707TIP3    H226537   3.885   3.821   2.690 -0.9814 -0.6818  0.6083
 1708TIP3   OH226538   6.383   2.882   5.904 -0.2330 -0.8001  0.1577
 1708TIP3    H126539   6.450   2.929   5.853 -1.0291 -0.4583 -0.5992
 1708TIP3    H226540   6.431   2.812   5.948  0.9073  0.4271  0.9440
 1709TIP3   OH226541   2.939   1.008  11.426 -0.0637 -0.6547 -0.1452
 1709TIP3    H126542   2.885   0.945  11.379 -1.4263  1.9466 -2.4017
 1709TIP3    H226543   2.981   1.059  11.358 -0.1124  1.7145  1.4635
 1710TIP3   OH226544   1.067   6.350   4.148  0.2968  0.5224  0.4528
 1710TIP3    H126545   1.027   6.338   4.235  0.7054  2.5672  0.9763
 1710TIP3    H226546   1.022   6.426   4.112  2.2701  1.6164  0.2040
 1711TIP3   OH226547   1.040   5.969  13.011  0.2114 -0.8357  0.1393
 1711TIP3    H126548   1.005   5.956  12.923 -0.0347 -2.3009  0.4257
 1711TIP3    H226549   1.134   5.957  13.002  0.2058 -0.8105  0.0445
 1712TIP3   OH226550   0.001   2.490  16.605  0.1217  0.2004  0.4338
 1712TIP3    H126551   0.066   2.514  16.671 -1.1796  0.0079  1.8192
 1712TIP3    H226552  -0.077   2.468  16.654 -0.5907 -0.9528 -1.1283
 1713TIP3   OH226553   4.404   1.949  11.775  0.1930  0.5014  0.5290
 1713TIP3    H126554   4.413   2.006  11.851 -0.4576  0.4830  0.6288
 1713TIP3    H226555   4.494   1.931  11.748  0.5139 -0.7083  2.2074
 1714TIP3   OH226556   4.207   3.960   1.156  0.5249  0.1427 -0.0853
 1714TIP3    H126557   4.257   3.951   1.237  0.1096 -0.7651  0.0832
 1714TIP3    H226558   4.116   3.966   1.184  0.3625 -0.3674 -0.4905
 1715TIP3   OH226559   6.560   3.044   4.085 -0.3193  0.9449 -0.4750
 1715TIP3    H126560   6.656   3.046   4.084 -0.3032  0.2455 -1.2780
 1715TIP3    H226561   6.535   3.130   4.118  0.5910  0.7072  0.9575
 1716TIP3   OH226562   4.071   2.990   2.570  0.0019  0.2467 -0.6805
 1716TIP3    H126563   4.067   3.085   2.579 -0.7623  0.1981 -0.4376
 1716TIP3    H226564   4.164   2.969   2.578  0.0126  0.7876  1.3385
 1717TIP3   OH226565   2.241   1.505   2.191 -0.9152  0.2236  0.2529
 1717TIP3    H126566   2.197   1.419   2.193 -0.6272  0.0753  0.1674
 1717TIP3    H226567   2.296   1.505   2.269  0.4261 -0.3759 -0.6601
 1718TIP3   OH226568   1.591   2.195  15.996 -0.1180 -0.1701 -0.6326
 1718TIP3    H126569   1.592   2.180  15.901 -2.8122  1.5845 -1.0335
 1718TIP3    H226570   1.624   2.284  16.006  2.0328 -1.0057  0.3524
 1719TIP3   OH226571   6.442   4.430  12.581 -0.1890 -0.3837  0.8339
 1719TIP3    H126572   6.363   4.463  12.539  0.0212 -1.5172 -0.4972
 1719TIP3    H226573   6.417   4.344  12.616  0.5019 -0.8746  0.1614
 1720TIP3   OH226574   3.139   4.978   3.763 -0.5360 -0.3963  0.2422
 1720TIP3    H126575   3.227   4.999   3.732 -1.6237  0.3225 -2.6642
 1720TIP3    H226576   3.144   4.885   3.788  0.9843 -0.4092 -0.0153
 1721TIP3   OH226577   0.791   4.314   5.276 -0.1717  0.4709 -0.6780
 1721TIP3    H126578   0.887   4.318   5.271 -0.0146 -0.5377  0.8645
 1721TIP3    H226579   0.761   4.345   5.190  1.5808 -0.9975 -1.8840
 1722TIP3   OH226580   0.492   4.213   3.996  0.2597  0.3812 -0.1791
 1722TIP3    H126581   0.495   4.309   3.990 -2.0363  0.5223 -0.0075
 1722TIP3    H226582   0.533   4.182   3.915  1.0856  1.4793 -0.2069
 1723TIP3   OH226583   1.153   1.187   5.557  1.2184 -0.3057  0.0303
 1723TIP3    H126584   1.202   1.270   5.551 -0.4792  1.0050  2.3568
 1723TIP3    H226585   1.190   1.143   5.634 -0.8685  0.5790  1.6645
 1724TIP3   OH226586   3.147   1.953   4.049  0.2505  0.3328  0.0845
 1724TIP3    H126587   3.095   2.022   4.091  0.5978  0.2317  0.6918
 1724TIP3    H226588   3.231   1.995   4.030  0.7322 -0.1204  1.1419
 1725TIP3   OH226589   0.538   6.656  16.629 -0.2724 -0.2336  0.4205
 1725TIP3    H126590   0.593   6.586  16.594 -0.2438 -0.2869  0.5686
 1725TIP3    H226591   0.587   6.736  16.613  0.0038 -0.3117  0.8481
 1726TIP3   OH226592   4.388   0.749   2.671 -0.5814  0.2999 -0.0306
 1726TIP3    H126593   4.410   0.790   2.754  1.2181  1.2445 -0.9304
 1726TIP3    H226594   4.398   0.655   2.688 -1.9708  0.3305  1.2569
 1727TIP3   OH226595   4.490   2.998  10.962  0.0197  0.3056  0.3648
 1727TIP3    H126596   4.457   2.923  10.912 -1.4130  1.2183 -0.1106
 1727TIP3    H226597   4.573   3.020  10.920 -0.1807 -0.2031 -0.3247
 1728TIP3   OH226598   0.895   5.930   0.052 -0.1472  0.0133  0.1738
 1728TIP3    H126599   0.875   5.901   0.141  0.5320  0.9245  0.6415
 1728TIP3    H226600   0.815   5.912   0.002 -1.6564  2.1500  1.6239
 1729TIP3   OH226601   3.976   4.563   5.950  0.3230 -0.4622  0.1682
 1729TIP3    H126602   3.946   4.593   6.036  1.9595  0.0356  0.6100
 1729TIP3    H226603   4.057   4.611   5.935  0.9628 -1.7994 -0.8997
 1730TIP3   OH226604   2.306   6.120  13.427  0.6466 -0.2188  0.2246
 1730TIP3    H126605   2.382   6.178  13.427 -0.3493  1.1627 -1.1644
 1730TIP3    H226606   2.265   6.134  13.512  0.2637  1.3859 -0.1954
 1731TIP3   OH226607   5.320   4.960  12.015  0.2947 -0.9117 -0.4359
 1731TIP3    H126608   5.320   4.970  11.920  0.5827 -0.7357 -0.4143
 1731TIP3    H226609   5.303   5.048  12.049  1.9260 -0.6405 -0.2808
 1732TIP3   OH226610   1.441   2.181   4.683 -0.1854  0.0436 -0.4012
 1732TIP3    H126611   1.427   2.271   4.653 -1.2186 -0.0763 -0.3303
 1732TIP3    H226612   1.357   2.137   4.667  0.1793 -0.8005 -0.0635
 1733TIP3   OH226613   3.446   2.400   3.488  0.1218  0.4760  0.8712
 1733TIP3    H126614   3.377   2.378   3.425 -0.6491  0.4086  1.7250
 1733TIP3    H226615   3.491   2.318   3.505  0.3111  0.4879  0.4425
 1734TIP3   OH226616   4.268   3.186  16.134 -0.0150 -0.3706  0.7135
 1734TIP3    H126617   4.216   3.250  16.182 -0.8177 -0.7364  0.3395
 1734TIP3    H226618   4.247   3.201  16.042 -0.6185 -1.4941  0.6429
 1735TIP3   OH226619   4.901   1.089  14.811  0.0366  0.0083 -0.3834
 1735TIP3    H126620   4.996   1.074  14.811  0.0293 -0.4977 -2.5758
 1735TIP3    H226621   4.884   1.131  14.726 -1.6300  0.7100  0.2630
 1736TIP3   OH226622   4.856   0.714   4.611 -0.1098 -0.1700  0.2677
 1736TIP3    H126623   4.935   0.706   4.665 -1.2389  1.3084  2.2938
 1736TIP3    H226624   4.819   0.626   4.609  0.2862 -0.3827  1.4268
 1737TIP3   OH226625   3.097   4.101  15.168 -0.5047 -0.2914  0.0134
 1737TIP3    H126626   3.027   4.102  15.233  0.8618  1.5796  1.5965
 1737TIP3    H226627   3.086   4.182  15.118 -0.7082 -1.0312 -1.1832
 1738TIP3   OH226628   0.251   1.641   0.751 -1.0123 -0.7614  0.3848
 1738TIP3    H126629   0.264   1.689   0.670  0.3087  0.9300  1.5156
 1738TIP3    H226630   0.272   1.550   0.729  0.5535 -0.1315 -0.8766
 1739TIP3   OH226631   3.971   1.968  16.022  0.0076  0.2986  0.2670
 1739TIP3    H126632   4.040   2.030  15.999  0.2526 -0.5696 -1.4950
 1739TIP3    H226633   3.890   2.017  16.009  0.1730  0.1251 -1.7290
 1740TIP3   OH226634   6.174   3.390   4.043  0.4807 -0.0647 -0.0794
 1740TIP3    H126635   6.269   3.396   4.053  0.5668  2.1133 -1.4576
 1740TIP3    H226636   6.141   3.473   4.078 -0.9937 -1.0271  0.9117
 1741TIP3   OH226637   0.152   0.828   1.392  0.0813 -0.1491  0.2645
 1741TIP3    H126638   0.203   0.759   1.349  0.1134 -0.0219  0.0978
 1741TIP3    H226639   0.217   0.878   1.441 -0.1033 -0.9757  1.3893
 1742TIP3   OH226640   5.196   0.681   5.072 -0.6903 -0.5010  0.1075
 1742TIP3    H126641   5.210   0.668   5.165 -0.2532  0.0607  0.1211
 1742TIP3    H226642   5.189   0.592   5.037 -0.5784 -0.7199  0.6309
 1743TIP3   OH226643   5.341   1.819  13.764  0.7237 -0.4447 -0.3301
 1743TIP3    H126644   5.355   1.886  13.830  0.9340 -0.9311  0.1239
 1743TIP3    H226645   5.421   1.768  13.764 -0.2382 -2.0508  0.8956
 1744TIP3   OH226646   2.373   3.270  10.932 -0.0130 -0.1797 -0.2833
 1744TIP3    H126647   2.390   3.296  10.842  1.4738 -1.0272 -0.2818
 1744TIP3    H226648   2.437   3.318  10.984 -0.4767 -0.1432  0.2653
 1745TIP3   OH226649   0.186   0.426  16.445 -0.2318 -0.5710  0.1265
 1745TIP3    H126650   0.194   0.332  16.465 -1.9600 -0.6963  0.4264
 1745TIP3    H226651   0.182   0.468  16.530 -1.5824 -0.4765  0.0474
 1746TIP3   OH226652   4.027   2.143   4.016  0.2349  0.2127  0.2289
 1746TIP3    H126653   3.952   2.109   3.967  0.5736  1.3672 -1.1690
 1746TIP3    H226654   4.006   2.236   4.031  1.7250  0.7764 -0.9374
 1747TIP3   OH226655   1.998   5.965  14.308 -0.3277  0.4362  0.7105
 1747TIP3    H126656   1.957   5.999  14.388 -2.3531  0.6653 -0.3595
 1747TIP3    H226657   1.977   6.030  14.241  1.2917  0.2240 -0.0332
 1748TIP3   OH226658   6.446   2.554  14.741  0.2382  0.5065  0.1024
 1748TIP3    H126659   6.370   2.612  14.729  0.7958  1.3022  0.3170
 1748TIP3    H226660   6.408   2.469  14.764 -0.5644  1.0920  1.0383
 1749TIP3   OH226661   1.651   1.001  13.141 -0.4750 -0.1210 -0.6779
 1749TIP3    H126662   1.597   0.984  13.218 -1.5219 -2.0061 -1.7515
 1749TIP3    H226663   1.704   1.077  13.165 -1.7454  0.1911  1.3755
 1750TIP3   OH226664   3.345   0.812   2.741  0.2917 -0.0021  0.3107
 1750TIP3    H126665   3.258   0.793   2.776  0.8140 -0.1174  1.6196
 1750TIP3    H226666   3.336   0.804   2.646 -0.9005 -0.8927  0.4863
 1751TIP3   OH226667   1.701   3.014  15.779 -0.1740  0.8766 -0.1935
 1751TIP3    H126668   1.670   3.091  15.731 -0.9196  0.6388 -0.1086
 1751TIP3    H226669   1.641   2.944  15.753  1.5761 -0.1677 -1.7132
 1752TIP3   OH226670   2.095   3.242  11.513  0.2663  0.0495  0.0788
 1752TIP3    H126671   2.027   3.299  11.476 -0.0312 -1.0672 -1.1686
 1752TIP3    H226672   2.048   3.184  11.573  0.6427  1.3819  1.7375
 1753TIP3   OH226673   3.883   2.758   3.067  0.4024 -0.4812 -0.4759
 1753TIP3    H126674   3.896   2.710   2.986 -0.5028  0.5155 -1.2421
 1753TIP3    H226675   3.812   2.712   3.112 -1.4690  0.8864 -1.8803
 1754TIP3   OH226676   0.695   6.037   4.622  0.4053  0.2424  0.4376
 1754TIP3    H126677   0.632   6.000   4.684  1.0789 -0.6029  0.6276
 1754TIP3    H226678   0.747   6.097   4.675  0.4351  0.1552  0.5074
 1755TIP3   OH226679   2.332   2.238  12.943 -0.1793 -0.2775  0.4569
 1755TIP3    H126680   2.395   2.307  12.923 -0.8242 -0.2201 -1.5198
 1755TIP3    H226681   2.288   2.220  12.860 -1.5231 -1.5736  1.3984
 1756TIP3   OH226682   0.968   1.797   5.354 -0.0751  0.0688  0.3404
 1756TIP3    H126683   0.905   1.785   5.283 -0.9717 -0.6881  1.2347
 1756TIP3    H226684   0.925   1.855   5.416  0.5899  0.5076  0.4054
 1757TIP3   OH226685   4.356   2.536   4.522  0.5913  0.4752 -0.0776
 1757TIP3    H126686   4.323   2.446   4.529 -1.5766  1.0088 -2.1953
 1757TIP3    H226687   4.425   2.531   4.456  1.0723  0.2672  0.4250
 1758TIP3   OH226688   0.664   4.654   5.397 -0.1744 -0.0643 -0.0258
 1758TIP3    H126689   0.661   4.613   5.310 -0.6404 -0.1723  0.0393
 1758TIP3    H226690   0.757   4.669   5.413 -0.0259 -0.7570 -0.2098
 1759TIP3   OH226691   1.838   3.773   5.173  0.6784  0.1642 -0.1766
 1759TIP3    H126692   1.761   3.821   5.205  0.9869 -0.6051  1.8842
 1759TIP3    H226693   1.868   3.724   5.249  3.0566  0.2203 -1.0220
 1760TIP3   OH226694   0.749   4.013   3.564  0.1831  0.2673 -0.4368
 1760TIP3    H126695   0.764   3.918   3.569 -2.1386 -0.1006  0.9202
 1760TIP3    H226696   0.718   4.028   3.475  0.6933 -0.2054 -0.7016
 1761TIP3   OH226697   4.884   4.447   2.716  0.0196 -0.1033 -0.2228
 1761TIP3    H126698   4.911   4.461   2.624 -0.0940  0.7246 -0.1418
 1761TIP3    H226699   4.819   4.515   2.732 -2.5976 -2.3816 -0.5672
 1762TIP3   OH226700   6.035   2.369  12.616  0.0760  0.0628 -0.1294
 1762TIP3    H126701   5.970   2.355  12.548 -0.3092  0.0982  0.2225
 1762TIP3    H226702   6.034   2.464  12.631  0.6872  0.1415 -0.5867
 1763TIP3   OH226703   4.079   0.120   2.172 -0.2365  0.1819  0.3155
 1763TIP3    H126704   4.006   0.070   2.137 -0.1439  0.6681 -0.6056
 1763TIP3    H226705   4.039   0.188   2.225 -0.6983  2.2454 -2.4255
 1764TIP3   OH226706   4.013   2.912  14.620  0.1907  0.1707 -0.2936
 1764TIP3    H126707   4.086   2.861  14.654 -0.0969 -0.4375 -0.5739
 1764TIP3    H226708   3.994   2.873  14.535  0.2435  1.0217 -0.7069
 1765TIP3   OH226709   2.448   1.685   4.114  0.1769 -0.3362  0.0195
 1765TIP3    H126710   2.493   1.762   4.081 -0.7864  0.2307 -0.0011
 1765TIP3    H226711   2.429   1.705   4.206  0.6015 -0.8732  0.2336
 1766TIP3   OH226712   0.977   4.828  11.292 -0.2223 -0.1291  0.2006
 1766TIP3    H126713   0.979   4.883  11.213  0.0442 -1.4852 -0.7662
 1766TIP3    H226714   0.954   4.889  11.362  2.3637  1.7194 -0.4023
 1767TIP3   OH226715   6.608   4.322  15.016 -0.3609 -0.4490 -0.0475
 1767TIP3    H126716   6.672   4.252  15.032 -0.0801 -0.5597 -1.4828
 1767TIP3    H226717   6.627   4.387  15.083 -0.7043 -1.7903  1.3901
 1768TIP3   OH226718   3.573   4.631  17.036 -0.3125  0.4152 -0.3844
 1768TIP3    H126719   3.590   4.696  17.103  0.2874 -0.5496  0.4275
 1768TIP3    H226720   3.657   4.619  16.992  0.4863 -2.0337  1.5372
 1769TIP3   OH226721   0.815   5.383  10.865  0.0034  0.7410 -0.0975
 1769TIP3    H126722   0.881   5.336  10.916  2.5818  2.7582 -1.3517
 1769TIP3    H226723   0.846   5.474  10.864 -0.0758  0.9283 -4.8375
 1770TIP3   OH226724   4.728   4.158  16.008  0.0166 -0.6267 -0.4157
 1770TIP3    H126725   4.741   4.119  15.922  0.0144  0.2936 -0.8398
 1770TIP3    H226726   4.801   4.125  16.061 -0.8663 -2.5035 -0.2787
 1771TIP3   OH226727   0.516   2.972   3.990 -0.3603 -0.1303  0.2533
 1771TIP3    H126728   0.596   2.970   3.937 -1.2600 -0.2366 -1.1356
 1771TIP3    H226729   0.519   3.057   4.034  1.0758 -0.6029  1.1481
 1772TIP3   OH226730   5.378   3.509  11.418  0.0497 -0.4943 -0.0253
 1772TIP3    H126731   5.387   3.485  11.326 -1.8685 -1.9259  0.1008
 1772TIP3    H226732   5.363   3.426  11.463 -1.9077  0.4294  1.1590
 1773TIP3   OH226733   2.113   0.108  12.054  0.0337  0.1786 -0.3256
 1773TIP3    H126734   2.050   0.051  12.010  0.4154  0.5964 -1.4479
 1773TIP3    H226735   2.199   0.072  12.031  0.3143  1.6017 -1.6882
 1774TIP3   OH226736   6.635   3.061  12.452  0.6636  0.2372  0.0627
 1774TIP3    H126737   6.625   3.155  12.469  0.3349  0.1318  0.4668
 1774TIP3    H226738   6.721   3.039  12.489  0.6689  0.3443  0.1153
 1775TIP3   OH226739   6.353   5.067   0.793 -0.9693 -0.0035 -0.0780
 1775TIP3    H126740   6.383   5.074   0.883 -0.6836  0.2952 -0.1957
 1775TIP3    H226741   6.433   5.049   0.742 -0.9395  1.0528 -0.4250
 1776TIP3   OH226742   1.340   2.065   0.477  0.4118 -0.2111  0.0213
 1776TIP3    H126743   1.275   2.002   0.506 -1.6936  1.1490 -1.4065
 1776TIP3    H226744   1.414   2.012   0.448 -1.3461 -2.0932 -1.3237
 1777TIP3   OH226745   4.601   0.859  15.801  0.3837  0.1818  0.1087
 1777TIP3    H126746   4.598   0.944  15.757  3.5483  0.3467 -0.0389
 1777TIP3    H226747   4.690   0.827  15.785 -0.3282 -2.6649  1.1436
 1778TIP3   OH226748   3.499   0.577  14.038  0.0591 -0.2222 -0.2714
 1778TIP3    H126749   3.549   0.608  14.113 -1.4962  1.7166  0.0380
 1778TIP3    H226750   3.562   0.527  13.986  1.1339 -1.7426  2.3482
 1779TIP3   OH226751   3.761   3.686  13.453  0.7716  0.3549 -0.4212
 1779TIP3    H126752   3.686   3.664  13.398  1.4682  0.7715 -1.5632
 1779TIP3    H226753   3.731   3.669  13.542 -0.9022  1.1871 -0.7998
 1780TIP3   OH226754   6.633   4.551  11.693  0.0216  0.4566  0.4595
 1780TIP3    H126755   6.727   4.563  11.680 -0.2870  1.8349 -0.7310
 1780TIP3    H226756   6.614   4.600  11.774  0.5433 -1.0947  1.5715
 1781TIP3   OH226757   6.348   2.443  12.275 -0.5249 -0.6669  0.3614
 1781TIP3    H126758   6.327   2.364  12.223 -0.3359 -0.1916 -0.4538
 1781TIP3    H226759   6.264   2.487  12.286 -0.2130  0.7280 -2.0660
 1782TIP3   OH226760   1.009   6.252   1.510  0.3200  0.2984 -0.2869
 1782TIP3    H126761   0.953   6.240   1.587 -2.1392  0.3165 -1.9561
 1782TIP3    H226762   0.966   6.321   1.460  2.8265  1.5187 -0.8948
 1783TIP3   OH226763   2.419   5.398   4.747  0.6080 -0.1454  0.5975
 1783TIP3    H126764   2.324   5.410   4.747  0.6347  0.1370 -0.3734
 1783TIP3    H226765   2.435   5.334   4.678  1.1305 -0.1280  0.7005
 1784TIP3   OH226766   4.436   0.418   2.627  0.1688  0.0368 -0.6339
 1784TIP3    H126767   4.448   0.377   2.542  1.8751 -0.7435 -0.0644
 1784TIP3    H226768   4.344   0.445   2.628  0.1316  0.1362 -2.7221
 1785TIP3   OH226769   3.439   4.443  16.433 -0.4541 -0.2590 -0.4208
 1785TIP3    H126770   3.379   4.406  16.497  1.0128 -1.9167  0.0846
 1785TIP3    H226771   3.477   4.520  16.476 -0.5620 -0.5147  0.1284
 1786TIP3   OH226772   1.214   4.707   3.443  0.3162  0.0105  0.1235
 1786TIP3    H126773   1.174   4.621   3.455  0.4981 -0.1891 -0.6545
 1786TIP3    H226774   1.300   4.699   3.483  0.4368 -0.2513 -0.1892
 1787TIP3   OH226775   3.668   6.131   3.537 -0.2392 -0.2408  0.1817
 1787TIP3    H126776   3.729   6.175   3.596 -1.4328 -0.1229  1.3703
 1787TIP3    H226777   3.664   6.188   3.460 -0.1805  0.6705  0.8320
 1788TIP3   OH226778   1.637   3.028   2.405  0.0735 -0.1229  0.2318
 1788TIP3    H126779   1.646   3.058   2.315 -1.6507  0.0949  0.1152
 1788TIP3    H226780   1.554   2.981   2.408  0.0070  0.0183  1.7350
 1789TIP3   OH226781   5.307   6.254   4.224 -0.1554  0.2862 -0.0158
 1789TIP3    H126782   5.378   6.221   4.278 -0.2946 -1.0169 -0.6070
 1789TIP3    H226783   5.334   6.237   4.134 -1.3314 -0.5025 -0.2474
 1790TIP3   OH226784   3.257   1.082   1.965 -0.3652 -0.1822  0.4712
 1790TIP3    H126785   3.323   1.076   1.895  0.1239  0.0792  0.9058
 1790TIP3    H226786   3.276   1.008   2.022 -0.9483 -0.5659  0.1811
 1791TIP3   OH226787   6.714   5.251  10.750  0.1986 -0.4485 -0.0717
 1791TIP3    H126788   6.725   5.333  10.702 -1.0018  1.1352  2.1963
 1791TIP3    H226789   6.642   5.206  10.705  1.0260 -0.4500 -1.4803
 1792TIP3   OH226790   0.387   2.819   2.063  0.3714 -0.0988 -0.4371
 1792TIP3    H126791   0.452   2.751   2.080 -1.2996 -1.8561 -0.7122
 1792TIP3    H226792   0.348   2.837   2.148  1.3993  1.2278 -0.2061
 1793TIP3   OH226793   2.932   4.015  16.981  0.0658  0.4717  0.0698
 1793TIP3    H126794   2.980   3.939  16.950 -0.7184 -0.5242  1.1720
 1793TIP3    H226795   2.913   4.066  16.903  1.9665  0.3585 -0.5090
 1794TIP3   OH226796   0.568   4.244   6.159  1.0190  0.3719 -0.5364
 1794TIP3    H126797   0.642   4.303   6.144  1.2575  0.1642 -0.1717
 1794TIP3    H226798   0.491   4.301   6.152  1.0078  0.1592 -3.5354
 1795TIP3   OH226799   1.743   5.652   4.819  0.5388 -0.1930  0.5190
 1795TIP3    H126800   1.657   5.692   4.829  1.1210  1.2141  0.2439
 1795TIP3    H226801   1.728   5.558   4.824 -1.0704  0.0167  0.0295
 1796TIP3   OH226802   5.960   3.575   1.448  0.2145  1.1884  0.9111
 1796TIP3    H126803   5.983   3.653   1.498 -2.4872  1.5114  1.8173
 1796TIP3    H226804   5.907   3.608   1.376  0.9774  0.3568 -0.0622
 1797TIP3   OH226805   3.868   1.308   0.249 -0.2762  0.2155 -0.0840
 1797TIP3    H126806   3.916   1.378   0.294 -1.2043 -0.3474  1.8822
 1797TIP3    H226807   3.797   1.285   0.309  0.4745 -3.0057 -0.2511
 1798TIP3   OH226808   3.361   0.194   1.053  0.1888  0.0041  0.7089
 1798TIP3    H126809   3.405   0.137   0.990  0.1993  1.4621 -0.6741
 1798TIP3    H226810   3.409   0.181   1.135  1.0872 -0.8961  0.0693
 1799TIP3   OH226811   5.509   6.080  11.224  0.0091 -0.2798 -0.1196
 1799TIP3    H126812   5.534   6.072  11.132 -0.5223  0.4081 -0.3341
 1799TIP3    H226813   5.510   6.174  11.241  0.7680 -0.4407  0.7762
 1800TIP3   OH226814   6.587   0.564   2.936 -0.2066 -0.4052  0.1606
 1800TIP3    H126815   6.581   0.633   3.002 -0.3339  0.0159 -0.2888
 1800TIP3    H226816   6.681   0.544   2.931 -0.3640 -1.8404  1.8879
 1801TIP3   OH226817   6.301   3.246   5.100 -0.0798 -0.2213 -0.2830
 1801TIP3    H126818   6.335   3.246   5.190  0.4449  0.9954 -0.4664
 1801TIP3    H226819   6.360   3.304   5.052 -1.1951  0.2805 -1.0879
 1802TIP3   OH226820   1.017   5.318  17.143  0.4523 -0.3041  0.0506
 1802TIP3    H126821   1.039   5.232  17.178  0.8606 -0.1462  0.1915
 1802TIP3    H226822   0.958   5.356  17.207  1.6479  0.2135  0.8805
 1803TIP3   OH226823   4.211   3.957   4.413  0.3702 -0.1279  0.6454
 1803TIP3    H126824   4.248   4.014   4.346 -1.4011  1.5087  0.9666
 1803TIP3    H226825   4.211   4.010   4.493 -1.7634 -0.3212  0.8481
 1804TIP3   OH226826   2.919   2.034   3.835 -1.1586 -0.6956 -0.4086
 1804TIP3    H126827   2.938   2.035   3.928  0.4201  1.1432 -0.6821
 1804TIP3    H226828   2.883   2.121   3.817 -0.9999 -0.8556 -1.5825
 1805TIP3   OH226829   0.673   5.114  11.768 -0.2470 -0.1478 -0.1257
 1805TIP3    H126830   0.638   5.028  11.744  1.1119 -0.2876 -1.7793
 1805TIP3    H226831   0.596   5.165  11.792 -1.3770 -1.0351 -1.6807
 1806TIP3   OH226832   6.216   3.766  12.611 -0.1038 -0.0739  0.7343
 1806TIP3    H126833   6.165   3.841  12.643  0.8117  0.7200  0.3880
 1806TIP3    H226834   6.243   3.720  12.690 -4.7914 -3.0259  0.9883
 1807TIP3   OH226835   4.598   4.875   3.325 -0.5568 -0.1784  0.6453
 1807TIP3    H126836   4.689   4.849   3.310  0.0551  2.2568 -0.3626
 1807TIP3    H226837   4.583   4.860   3.418  1.0042 -0.3214  0.8900
 1808TIP3   OH226838   1.070   3.207   3.325 -0.4689 -0.1560  0.3642
 1808TIP3    H126839   0.988   3.160   3.313  0.7311 -2.1414 -0.5701
 1808TIP3    H226840   1.087   3.247   3.240 -1.3497  1.8379  1.0819
 1809TIP3   OH226841   4.305   2.519   5.723  0.1942  0.4174 -0.2038
 1809TIP3    H126842   4.235   2.504   5.659  1.1155  1.0923 -1.4142
 1809TIP3    H226843   4.354   2.437   5.725 -1.2793 -0.5051  1.5646
 1810TIP3   OH226844   2.060   0.569   0.633  0.1226  0.3352 -0.5560
 1810TIP3    H126845   1.994   0.560   0.701 -0.3299  0.4216 -0.9809
 1810TIP3    H226846   2.012   0.603   0.557  0.3935 -0.8539 -1.2839
 1811TIP3   OH226847   5.271   2.122   6.602 -0.3041 -0.1066 -0.1246
 1811TIP3    H126848   5.256   2.209   6.563 -0.7940 -0.5366 -0.9152
 1811TIP3    H226849   5.365   2.118   6.616 -0.4945  1.5829  2.3948
 1812TIP3   OH226850   2.509   0.815   2.008  0.4681 -0.7613  0.7603
 1812TIP3    H126851   2.496   0.736   1.954 -0.6905 -0.0115 -0.1116
 1812TIP3    H226852   2.424   0.831   2.047  0.3364  0.7440 -0.0606
 1813TIP3   OH226853   2.845   2.615  14.070  0.2905 -0.7098  0.1080
 1813TIP3    H126854   2.931   2.653  14.090  0.6349  0.6610 -3.2218
 1813TIP3    H226855   2.863   2.522  14.056  0.9263 -0.7288  0.9622
 1814TIP3   OH226856   5.989   2.251  13.677 -0.3563  0.0997  0.0841
 1814TIP3    H126857   6.070   2.200  13.669 -0.7181 -0.6610  1.0914
 1814TIP3    H226858   5.938   2.229  13.599  0.4803  0.7550 -0.6735
 1815TIP3   OH226859   1.169   5.615  16.207 -0.1619 -0.1536  0.3837
 1815TIP3    H126860   1.163   5.702  16.169  0.0041 -0.3435 -0.0724
 1815TIP3    H226861   1.104   5.563  16.160 -0.4443 -0.2178  0.8278
 1816TIP3   OH226862   4.922   4.842   1.762 -0.2282 -0.0114 -0.2224
 1816TIP3    H126863   4.885   4.770   1.814 -0.0070 -1.1131 -1.5180
 1816TIP3    H226864   5.004   4.806   1.728 -0.9616  0.1940 -2.3271
 1817TIP3   OH226865   0.717   0.850  13.872  0.3016  0.3166 -0.0950
 1817TIP3    H126866   0.674   0.771  13.838  1.6567 -0.4750 -0.0422
 1817TIP3    H226867   0.661   0.879  13.943 -0.7409 -0.0228 -0.7494
 1818TIP3   OH226868   0.611   2.722   4.121 -0.4513 -0.1621 -0.4226
 1818TIP3    H126869   0.576   2.731   4.210 -2.1365 -2.1606 -0.8124
 1818TIP3    H226870   0.615   2.812   4.088 -2.2983  0.4107  0.7773
 1819TIP3   OH226871   6.084   0.173  15.660 -0.0051  0.2829 -0.1759
 1819TIP3    H126872   6.165   0.152  15.705 -1.0141  0.2331  1.7157
 1819TIP3    H226873   6.078   0.269  15.664  1.5250  0.6328 -3.2829
 1820TIP3   OH226874   1.875   4.723  16.150 -0.1231 -0.3499 -0.1153
 1820TIP3    H126875   1.918   4.639  16.166 -0.0987 -0.3211 -0.0296
 1820TIP3    H226876   1.908   4.752  16.065  1.5713  0.6333  0.8345
 1821TIP3   OH226877   3.104   1.425  13.342 -0.3094  0.0282 -0.2405
 1821TIP3    H126878   3.167   1.417  13.270  0.5099 -0.3636  0.4991
 1821TIP3    H226879   3.029   1.371  13.314 -0.8347  1.4006 -1.6293
 1822TIP3   OH226880   5.834   4.895   5.327  0.2171  0.1786  0.4812
 1822TIP3    H126881   5.909   4.931   5.280 -0.4256  1.5068  0.4197
 1822TIP3    H226882   5.759   4.918   5.272 -0.3000 -0.5360  0.8812
 1823TIP3   OH226883   1.611   6.497  12.533  0.3842 -0.0490 -0.0507
 1823TIP3    H126884   1.679   6.553  12.496  0.8695 -0.7234 -0.1886
 1823TIP3    H226885   1.592   6.433  12.465  1.9585 -1.9053  1.1360
 1824TIP3   OH226886   2.300   0.822   1.455 -0.5510  0.2055 -0.0220
 1824TIP3    H126887   2.255   0.752   1.408 -1.8650 -0.6620  2.3483
 1824TIP3    H226888   2.282   0.901   1.404 -3.6558 -0.3403  0.0311
 1825TIP3   OH226889   5.986   2.422  16.759 -0.6467 -0.3544 -0.0620
 1825TIP3    H126890   5.921   2.493  16.759  0.3807  0.6261  0.4518
 1825TIP3    H226891   5.935   2.342  16.767 -1.7292  0.5056  3.2065
 1826TIP3   OH226892   1.106   6.657  17.169  0.1116  0.6259 -0.3297
 1826TIP3    H126893   1.021   6.618  17.189  1.1141 -0.1863  3.0182
 1826TIP3    H226894   1.141   6.604  17.097 -0.8906 -1.0980  0.3894
 1827TIP3   OH226895   3.740   2.990   4.398 -0.3327 -0.2061  0.5200
 1827TIP3    H126896   3.729   3.085   4.395  0.1972 -0.1442  0.4925
 1827TIP3    H226897   3.757   2.965   4.307  0.9674 -0.1426  0.7265
 1828TIP3   OH226898   1.454   1.992   1.448 -0.9221  0.1113 -0.1561
 1828TIP3    H126899   1.507   1.915   1.469 -0.4985  0.2440 -0.7202
 1828TIP3    H226900   1.368   1.956   1.425 -1.0124 -0.1218  0.5279
 1829TIP3   OH226901   4.280   2.883  16.878  0.0097 -0.1472  0.0113
 1829TIP3    H126902   4.351   2.824  16.853 -0.8595 -0.0836 -2.8886
 1829TIP3    H226903   4.308   2.969  16.845  0.0743  0.6032  1.8868
 1830TIP3   OH226904   0.527   1.508  14.620  0.0953  0.2365 -0.0010
 1830TIP3    H126905   0.557   1.581  14.566  1.2830 -0.5230 -0.3994
 1830TIP3    H226906   0.583   1.434  14.595 -1.7680 -1.1246 -0.3852
 1831TIP3   OH226907   4.433   6.154   1.644  0.5209 -0.1402  0.0470
 1831TIP3    H126908   4.354   6.174   1.594  0.0552 -0.9309  0.4387
 1831TIP3    H226909   4.402   6.106   1.720  1.2560  0.7217  0.9232
 1832TIP3   OH226910   5.069   1.790   2.454 -0.0971  0.2320 -0.1755
 1832TIP3    H126911   5.110   1.752   2.377  3.6392 -1.3457  2.2718
 1832TIP3    H226912   5.067   1.884   2.437 -0.4964 -0.1673 -2.5986
 1833TIP3   OH226913   0.748   1.790  15.816  0.0021  0.4712  0.6272
 1833TIP3    H126914   0.686   1.771  15.746  2.1650  0.2382 -1.3617
 1833TIP3    H226915   0.777   1.880  15.799 -1.4648  1.5054  2.9771
 1834TIP3   OH226916   5.513   5.904  16.853 -0.3814 -0.7059  0.5303
 1834TIP3    H126917   5.590   5.850  16.836 -1.6155 -1.7014 -2.4911
 1834TIP3    H226918   5.447   5.842  16.886 -1.2286 -0.7911 -1.2064
 1835TIP3   OH226919   6.347   6.638   1.989 -0.1548  0.2348  0.2107
 1835TIP3    H126920   6.374   6.692   1.915  1.1600  0.7306  1.0244
 1835TIP3    H226921   6.380   6.551   1.968  2.5908  0.8869  1.3389
 1836TIP3   OH226922   0.475   1.441   2.995 -0.7708  0.0727  0.8643
 1836TIP3    H126923   0.431   1.505   2.939 -0.6058 -0.0051  0.6437
 1836TIP3    H226924   0.565   1.441   2.964 -0.8863 -0.6403  0.5314
 1837TIP3   OH226925   2.578   5.317  15.186  0.0850  0.0585  0.5026
 1837TIP3    H126926   2.631   5.237  15.192  1.5283  0.8650 -0.6085
 1837TIP3    H226927   2.544   5.317  15.097  0.9010  1.1127  0.1555
 1838TIP3   OH226928   4.032   1.603   3.189 -0.3571 -0.0834 -0.0319
 1838TIP3    H126929   3.979   1.529   3.218 -2.0099 -0.5202 -3.6363
 1838TIP3    H226930   3.973   1.679   3.196  0.1586  0.2858  0.3692
 1839TIP3   OH226931   1.118   2.398   1.126 -0.4219 -0.5399  0.1582
 1839TIP3    H126932   1.096   2.422   1.036 -1.0685 -0.9470  0.2021
 1839TIP3    H226933   1.173   2.469   1.157 -1.2011  0.2121 -0.1527
 1840TIP3   OH226934   3.688   1.465  12.989  0.0618 -0.0585  0.5337
 1840TIP3    H126935   3.744   1.472  13.067 -0.3243  0.9510  0.7408
 1840TIP3    H226936   3.742   1.419  12.925  1.0950  0.7860  0.7645
 1841TIP3   OH226937   3.772   0.588  16.539  0.2651 -0.1817 -0.3429
 1841TIP3    H126938   3.864   0.565  16.554  0.5258  0.5198 -0.8308
 1841TIP3    H226939   3.739   0.519  16.483 -0.3629 -2.1325  2.2133
 1842TIP3   OH226940   3.977   3.693  16.025  0.1505 -0.4181 -0.1889
 1842TIP3    H126941   3.889   3.699  16.061  0.1741 -2.1660  0.2033
 1842TIP3    H226942   4.001   3.784  16.005 -1.3481  0.1698  0.5972
 1843TIP3   OH226943   0.421   2.323  12.410  0.6679 -0.3420 -0.6768
 1843TIP3    H126944   0.395   2.274  12.333  0.1810 -0.9041 -0.1676
 1843TIP3    H226945   0.412   2.261  12.482  1.4390  0.0717 -0.2105
 1844TIP3   OH226946   1.865   5.533   6.126  0.0976  0.2816  0.3870
 1844TIP3    H126947   1.895   5.612   6.081 -2.1705  1.3194  0.5545
 1844TIP3    H226948   1.783   5.510   6.083  1.5632 -3.2287 -0.9814
 1845TIP3   OH226949   4.066   1.223   5.935 -1.1830 -0.3616 -0.8380
 1845TIP3    H126950   4.044   1.289   6.000  1.7252 -0.4298  0.3769
 1845TIP3    H226951   4.048   1.140   5.978  0.1783 -0.3957 -0.2889
 1846TIP3   OH226952   2.526   2.684  15.048  0.5213 -0.4704  0.3467
 1846TIP3    H126953   2.435   2.678  15.079 -1.0918  1.7303 -3.3118
 1846TIP3    H226954   2.542   2.600  15.004 -0.2019 -0.4175 -0.0331
 1847TIP3   OH226955   0.963   4.034  11.178  0.2122 -0.3353  0.4395
 1847TIP3    H126956   1.032   4.019  11.243 -2.8101 -0.2526  4.0454
 1847TIP3    H226957   0.954   4.130  11.174  0.3371 -0.3437 -0.0238
 1848TIP3   OH226958   6.112   6.523  16.364  0.1216  0.1321  0.1290
 1848TIP3    H126959   6.072   6.559  16.285 -0.5251 -0.0324  0.3807
 1848TIP3    H226960   6.065   6.563  16.437 -0.3683 -0.9209  0.4174
 1849TIP3   OH226961   2.011   4.723   5.963 -0.2310  0.0165 -0.1546
 1849TIP3    H126962   2.083   4.720   6.026  0.6710  1.4121 -1.0595
 1849TIP3    H226963   2.036   4.662   5.894 -0.8181 -0.8813  0.4109
 1850TIP3   OH226964   5.500   0.271  10.845 -0.0083  0.2931 -0.3555
 1850TIP3    H126965   5.529   0.360  10.830  0.0114  0.3610  0.0781
 1850TIP3    H226966   5.570   0.216  10.810  0.5006  0.4524  0.4023
 1851TIP3   OH226967   5.653   5.927   6.179 -0.2529 -0.1391 -0.0667
 1851TIP3    H126968   5.558   5.921   6.186 -0.2485 -1.1068 -0.6783
 1851TIP3    H226969   5.675   6.008   6.225 -1.3010 -0.2573  0.6901
 1852TIP3   OH226970   0.140   1.293   4.527  0.0666  0.1596 -0.4723
 1852TIP3    H126971   0.149   1.301   4.432  1.1508  1.9822 -0.2737
 1852TIP3    H226972   0.230   1.279   4.558 -0.5219 -3.1380  0.1712
 1853TIP3   OH226973   0.038   5.634  12.646 -0.0529  0.7269  0.3451
 1853TIP3    H126974   0.069   5.549  12.615  0.1207  1.1356 -0.6214
 1853TIP3    H226975  -0.022   5.664  12.577 -0.6742  1.0665  1.0206
 1854TIP3   OH226976   5.836   0.173   0.920 -0.2872  0.0398 -0.7029
 1854TIP3    H126977   5.911   0.217   0.960 -0.7956 -0.7542  1.2470
 1854TIP3    H226978   5.766   0.238   0.921 -0.1686  0.1661 -0.6778
 1855TIP3   OH226979   6.327   5.469  16.183 -0.1732  0.2702  0.1107
 1855TIP3    H126980   6.281   5.530  16.124  1.8408  1.6475 -0.1414
 1855TIP3    H226981   6.355   5.397  16.126 -0.5519  0.2569 -0.0640
 1856TIP3   OH226982   3.727   5.691  15.701  0.2347  0.2052  0.1576
 1856TIP3    H126983   3.677   5.771  15.688  2.1124  1.6227  1.1527
 1856TIP3    H226984   3.662   5.626  15.729 -1.5618  0.9083 -2.1263
 1857TIP3   OH226985   2.748   0.024   2.024 -0.0405 -0.0557  0.1343
 1857TIP3    H126986   2.835  -0.015   2.034  0.5243  1.0518 -0.1919
 1857TIP3    H226987   2.756   0.110   2.065 -0.1148  1.2046 -2.3035
 1858TIP3   OH226988   4.041   5.925  14.648  0.4111 -0.0796 -0.5485
 1858TIP3    H126989   4.026   5.881  14.564  0.5308 -0.6479 -0.2784
 1858TIP3    H226990   4.089   6.005  14.625  1.0872 -0.5898 -0.9542
 1859TIP3   OH226991   5.816   2.807  14.371  0.0501  0.3163  0.1755
 1859TIP3    H126992   5.844   2.784  14.459  1.0227 -0.1694 -0.2422
 1859TIP3    H226993   5.722   2.788  14.370 -0.0217  0.5506  1.1634
 1860TIP3   OH226994   4.218   0.260   0.504 -0.6138  0.5355  0.3166
 1860TIP3    H126995   4.220   0.189   0.440 -1.3092  0.4600  0.3665
 1860TIP3    H226996   4.219   0.340   0.452 -1.0059  0.4747  0.2096
 1861TIP3   OH226997   3.766   5.690   3.414  0.3720 -0.3333  0.0661
 1861TIP3    H126998   3.682   5.644   3.412  0.5617 -0.6738 -0.2072
 1861TIP3    H226999   3.809   5.658   3.493 -0.5782  1.3439  1.3262
 1862TIP3   OH227000   3.599   6.468  12.189 -0.2496 -0.2637 -0.8539
 1862TIP3    H127001   3.658   6.433  12.256 -0.2581 -0.9748 -1.2122
 1862TIP3    H227002   3.513   6.466  12.230 -0.2288 -0.5306 -0.8174
 1863TIP3   OH227003   5.077   2.999  12.328  1.1446  0.2874 -0.7221
 1863TIP3    H127004   4.996   3.023  12.282  1.0571  0.0802 -0.6772
 1863TIP3    H227005   5.059   2.911  12.363  1.2065  0.4515 -0.2790
 1864TIP3   OH227006   6.403   2.985  12.212  0.0751 -0.0661 -0.1549
 1864TIP3    H127007   6.441   3.064  12.250 -0.1430  0.0894 -0.2570
 1864TIP3    H227008   6.470   2.918  12.223  0.7377  0.4176 -1.1323
 1865TIP3   OH227009   0.129   3.950  15.216  0.2176 -1.0328 -0.2382
 1865TIP3    H127010   0.170   3.995  15.142 -0.7748  2.1751  0.9779
 1865TIP3    H227011   0.123   4.017  15.284  1.8572 -4.0241  3.1591
 1866TIP3   OH227012   4.428   3.867  11.012 -0.6373 -0.1642 -0.1947
 1866TIP3    H127013   4.408   3.823  11.095 -1.5244 -0.0267 -0.3274
 1866TIP3    H227014   4.355   3.928  10.999  0.4988  1.2718 -0.0738
 1867TIP3   OH227015   0.101   5.708   4.050  0.5852  0.4412 -0.1370
 1867TIP3    H127016   0.163   5.655   3.998 -1.0340 -0.5900 -1.1184
 1867TIP3    H227017   0.068   5.773   3.988  0.4847  0.7967  0.2917
 1868TIP3   OH227018   5.221   0.859   2.220 -0.5585 -0.2593 -0.0768
 1868TIP3    H127019   5.205   0.949   2.249  0.8293  0.1192 -0.4121
 1868TIP3    H227020   5.310   0.840   2.250 -0.0678 -0.7993 -1.7933
 1869TIP3   OH227021   1.574   3.264  14.365  0.2662  0.0911  0.4783
 1869TIP3    H127022   1.571   3.346  14.316 -0.4328  0.6361  1.4083
 1869TIP3    H227023   1.571   3.196  14.298  1.1822  0.8152 -0.3207
 1870TIP3   OH227024   3.731   5.418   2.486 -0.7280 -0.2463 -0.8131
 1870TIP3    H127025   3.750   5.338   2.438 -2.3357 -0.1951 -1.6052
 1870TIP3    H227026   3.802   5.478   2.464  1.1046 -1.7664  0.6499
 1871TIP3   OH227027   1.104   3.703  14.994 -0.2927  0.0262 -0.4438
 1871TIP3    H127028   1.136   3.613  15.007 -0.9409 -0.0504  0.7846
 1871TIP3    H227029   1.183   3.757  14.991  0.0620 -0.4696 -0.1877
 1872TIP3   OH227030   3.931   3.854  15.643  0.0547 -0.1953  0.1609
 1872TIP3    H127031   3.911   3.909  15.567  0.2035 -1.0788 -0.5435
 1872TIP3    H227032   3.958   3.915  15.711  0.3856  0.5852 -0.6499
 1873TIP3   OH227033   3.905   4.128  14.016  0.0999  0.9598 -0.3583
 1873TIP3    H127034   3.858   4.183  14.079 -1.1078 -0.5081  0.0932
 1873TIP3    H227035   3.972   4.085  14.068 -0.8493 -0.1947 -0.0412
 1874TIP3   OH227036   3.735   3.480   5.368  0.3456  0.4845 -0.4671
 1874TIP3    H127037   3.654   3.459   5.416 -0.9781  1.1164 -2.2991
 1874TIP3    H227038   3.717   3.565   5.328  2.6725  1.5660  0.5742
 1875TIP3   OH227039   5.598   2.704  13.149  0.1283 -0.8502 -0.1673
 1875TIP3    H127040   5.514   2.725  13.108 -0.5749 -4.7516 -1.0762
 1875TIP3    H227041   5.577   2.643  13.220  2.0805 -0.6265  0.6955
 1876TIP3   OH227042   1.561   2.802   4.919  0.2432 -0.6633 -0.2828
 1876TIP3    H127043   1.642   2.816   4.967 -0.4587 -0.6474  0.9431
 1876TIP3    H227044   1.492   2.830   4.980 -0.6292  0.7011 -1.8037
 1877TIP3   OH227045   6.510   2.666  10.625 -0.1641 -0.3350 -0.0162
 1877TIP3    H127046   6.460   2.705  10.554 -0.5053 -1.5887 -0.4985
 1877TIP3    H227047   6.548   2.740  10.672 -0.7246  0.5481 -0.9241
 1878TIP3   OH227048   1.987   0.501   2.335 -0.3698 -0.1560  0.2943
 1878TIP3    H127049   1.898   0.520   2.308 -1.1891 -0.9575  2.2102
 1878TIP3    H227050   2.005   0.564   2.405  0.7374  0.2500 -0.3260
 1879TIP3   OH227051   2.722   2.460  13.624  0.3084 -0.4411  0.5825
 1879TIP3    H127052   2.639   2.470  13.671 -0.4771 -0.1834 -0.7844
 1879TIP3    H227053   2.723   2.368  13.596  1.3400 -0.9193  2.0607
 1880TIP3   OH227054   2.576   5.777   3.328 -0.5181 -0.6925  0.5812
 1880TIP3    H127055   2.594   5.693   3.369  0.9470 -0.9427 -0.4970
 1880TIP3    H227056   2.658   5.826   3.337 -1.0383  0.2537  0.3180
 1881TIP3   OH227057   0.491   1.420   5.337 -0.5747 -0.0913 -0.4303
 1881TIP3    H127058   0.583   1.403   5.360 -0.6826  0.1314  0.1724
 1881TIP3    H227059   0.472   1.355   5.269 -0.9232 -2.4053  1.7107
 1882TIP3   OH227060   4.211   4.259   1.532 -0.0209 -0.0971 -0.5882
 1882TIP3    H127061   4.203   4.269   1.437 -2.2999  0.2954 -0.4211
 1882TIP3    H227062   4.176   4.172   1.550 -1.3018  0.4990 -0.0000
 1883TIP3   OH227063   0.685   2.811   1.771  0.4601  0.3764  0.4275
 1883TIP3    H127064   0.734   2.751   1.828  1.0163 -0.2869 -0.7308
 1883TIP3    H227065   0.683   2.768   1.686 -2.4782  0.2019  0.5099
 1884TIP3   OH227066   6.106   4.562  16.064  0.1221 -0.2434 -0.3643
 1884TIP3    H127067   6.074   4.507  16.136  1.5873  0.2655  0.7354
 1884TIP3    H227068   6.083   4.514  15.985 -1.2418 -0.9908  0.4458
 1885TIP3   OH227069   4.575   0.862   5.681  0.2851 -0.1350  0.4495
 1885TIP3    H127070   4.569   0.955   5.699 -0.3389 -0.3228  1.2683
 1885TIP3    H227071   4.500   0.823   5.726  1.1346 -1.1587  1.0310
 1886TIP3   OH227072   2.921   2.911  12.010  0.1259  0.0643  0.4048
 1886TIP3    H127073   2.932   2.817  12.002 -1.1727  0.0001 -1.1730
 1886TIP3    H227074   3.006   2.947  11.985  1.1720 -0.6765  2.6526
 1887TIP3   OH227075   5.405   5.719  11.323 -0.5055  0.3389  0.3388
 1887TIP3    H127076   5.338   5.667  11.368 -0.8588 -0.4087 -1.0079
 1887TIP3    H227077   5.361   5.801  11.302 -0.7292  0.1894  0.2213
 1888TIP3   OH227078   6.722   1.962  16.460  0.2018 -0.0677  0.5734
 1888TIP3    H127079   6.720   1.930  16.370 -0.9784 -1.4973  1.0677
 1888TIP3    H227080   6.716   2.057  16.452 -0.4733 -0.2074 -0.8432
 1889TIP3   OH227081   1.672   2.133  16.440  0.7812  0.3536  0.1351
 1889TIP3    H127082   1.662   2.163  16.349  0.4948  1.1043  0.4059
 1889TIP3    H227083   1.634   2.045  16.440  1.7404 -0.0860 -0.7046
 1890TIP3   OH227084   6.186   3.642  15.007 -0.9228  0.1031 -0.4193
 1890TIP3    H127085   6.176   3.664  15.100 -2.2604  1.3098 -0.8162
 1890TIP3    H227086   6.141   3.559  14.997  0.9132 -1.0533  0.3550
 1891TIP3   OH227087   3.185   0.039  14.997  0.3342  0.1700  0.1605
 1891TIP3    H127088   3.114   0.024  14.935 -0.5285  2.1444  0.6244
 1891TIP3    H227089   3.253   0.083  14.946  1.1506 -1.4429 -0.2083
 1892TIP3   OH227090   3.174   3.051  10.854 -0.2455 -0.6844  0.0061
 1892TIP3    H127091   3.142   3.106  10.783  1.1840 -2.2457 -1.9759
 1892TIP3    H227092   3.104   2.987  10.868 -1.3225  0.7083  1.3788
 1893TIP3   OH227093   6.135   4.959  15.511  0.2363 -0.0205  0.1629
 1893TIP3    H127094   6.195   5.032  15.530  0.4837  0.4343 -2.0593
 1893TIP3    H227095   6.162   4.890  15.571  0.0992  1.6352  2.2326
 1894TIP3   OH227096   4.654   5.781   3.475  0.3332 -0.1055 -0.4151
 1894TIP3    H127097   4.729   5.740   3.432  0.4189  0.4136 -0.7591
 1894TIP3    H227098   4.583   5.718   3.464  0.8842 -0.9048  0.4981
 1895TIP3   OH227099   5.445   5.121  13.169 -0.2079 -0.0805  0.4973
 1895TIP3    H127100   5.526   5.165  13.143  0.1217 -0.3153  1.1131
 1895TIP3    H227101   5.379   5.191  13.169 -0.0189  0.1064 -0.0283
 1896TIP3   OH227102   3.170   0.582   1.541  0.5747 -0.4626  0.4635
 1896TIP3    H127103   3.127   0.543   1.617  0.3342 -0.6850  0.2171
 1896TIP3    H227104   3.186   0.673   1.565 -3.1164  0.6535 -0.6584
 1897TIP3   OH227105   3.076   4.496   2.763 -0.1917  0.1053  0.3192
 1897TIP3    H127106   2.988   4.463   2.782 -0.5745  0.5001 -0.7008
 1897TIP3    H227107   3.089   4.567   2.826 -1.3217  1.2067 -0.6124
 1898TIP3   OH227108   6.551   6.505  13.625  0.3739 -0.4041  0.1880
 1898TIP3    H127109   6.543   6.600  13.635  0.3452 -0.3393 -0.4110
 1898TIP3    H227110   6.645   6.489  13.624  0.3848 -0.3033 -0.4075
 1899TIP3   OH227111   2.287   3.153   3.265 -0.2451  0.2035  0.2613
 1899TIP3    H127112   2.242   3.144   3.181 -0.3025  0.0305  0.3110
 1899TIP3    H227113   2.291   3.248   3.279  1.2665  0.3250 -0.7535
 1900TIP3   OH227114   6.310   5.129  12.882 -0.3073  0.2252 -0.2639
 1900TIP3    H127115   6.357   5.089  12.809 -0.8587  0.4388 -0.7437
 1900TIP3    H227116   6.261   5.201  12.842 -0.7348  0.2468  0.2951
 1901TIP3   OH227117   4.303   3.749  13.891  0.5095 -0.0923 -0.0989
 1901TIP3    H127118   4.353   3.765  13.811 -1.6217  1.0175 -1.2892
 1901TIP3    H227119   4.362   3.776  13.961  2.6330 -1.5807 -1.1939
 1902TIP3   OH227120   5.659   1.553   1.974 -0.4353  0.0007 -0.0067
 1902TIP3    H127121   5.635   1.643   1.950  1.5905  0.1911 -1.6530
 1902TIP3    H227122   5.716   1.563   2.050  0.5088  0.2288 -0.7230
 1903TIP3   OH227123   4.108   4.129   4.934  0.1724 -0.2573 -0.0612
 1903TIP3    H127124   4.048   4.162   5.000 -0.1619 -0.2907 -0.3451
 1903TIP3    H227125   4.165   4.203   4.914  0.8547 -0.4996  0.9017
 1904TIP3   OH227126   2.362   1.645  16.576  0.9069  0.5163 -0.7523
 1904TIP3    H127127   2.370   1.734  16.541  0.4055  0.8439 -0.0628
 1904TIP3    H227128   2.326   1.657  16.664 -0.9199 -0.4668 -1.3032
 1905TIP3   OH227129   6.295   5.134   4.391  0.4816  0.6501 -0.0368
 1905TIP3    H127130   6.386   5.163   4.394  0.6474  0.1643 -0.1909
 1905TIP3    H227131   6.301   5.039   4.384 -0.0208  0.7010 -1.5102
 1906TIP3   OH227132   6.182   1.294   6.058  0.2583 -0.7966 -0.1923
 1906TIP3    H127133   6.263   1.337   6.086  0.5857 -0.4156 -1.6451
 1906TIP3    H227134   6.125   1.298   6.135  0.7245  1.1699  0.1002
 1907TIP3   OH227135   1.355   2.318   3.492 -0.1372 -0.1829 -0.2536
 1907TIP3    H127136   1.325   2.353   3.576 -0.3150 -0.5977 -0.1408
 1907TIP3    H227137   1.328   2.226   3.493  0.8975 -0.5001 -0.2719
 1908TIP3   OH227138   5.708   1.449   1.736 -0.4258  0.0346  0.2693
 1908TIP3    H127139   5.659   1.372   1.708 -0.9390  0.7988 -1.0316
 1908TIP3    H227140   5.686   1.458   1.829  0.9658 -2.3087  0.8960
 1909TIP3   OH227141   4.390   2.443   4.900  0.0823 -0.0687  0.0605
 1909TIP3    H127142   4.332   2.461   4.826  0.8547  1.2853 -0.2467
 1909TIP3    H227143   4.332   2.441   4.976 -0.6415 -0.9172 -0.4936
 1910TIP3   OH227144   0.590   3.691   0.127  0.2717 -0.7816 -0.3557
 1910TIP3    H127145   0.559   3.601   0.136 -1.5515 -0.0500  2.0343
 1910TIP3    H227146   0.651   3.703   0.200 -1.5682  0.5772  1.0859
 1911TIP3   OH227147   2.103   3.874   5.026 -0.2390 -0.0738  0.3125
 1911TIP3    H127148   2.198   3.872   5.019 -0.3152 -1.2355 -0.8072
 1911TIP3    H227149   2.086   3.924   5.106  1.1781  3.3297 -1.3117
 1912TIP3   OH227150   3.777   2.368   2.651 -0.1970 -0.4467  0.3332
 1912TIP3    H127151   3.826   2.389   2.571  1.5629  0.0317  1.4755
 1912TIP3    H227152   3.815   2.285   2.681 -1.7487 -1.3025  0.0056
 1913TIP3   OH227153   6.251   6.598  11.005 -0.0272 -0.8831  0.2351
 1913TIP3    H127154   6.323   6.660  10.993  0.2715 -1.3924 -0.6765
 1913TIP3    H227155   6.228   6.606  11.097 -0.5824  1.2268 -0.0309
 1914TIP3   OH227156   5.824   2.597  12.085 -0.2745  0.1578  0.1139
 1914TIP3    H127157   5.845   2.680  12.128 -0.7236  1.4445 -1.9862
 1914TIP3    H227158   5.908   2.564  12.054 -0.4234  1.7368 -2.1894
 1915TIP3   OH227159   3.242   0.841   5.232 -0.1055  0.2821 -0.3411
 1915TIP3    H127160   3.301   0.808   5.299  1.4842  1.0121 -1.3256
 1915TIP3    H227161   3.299   0.888   5.171 -1.7759  1.4646 -1.0582
 1916TIP3   OH227162   6.108   4.375   5.887 -0.1150 -0.2717  0.0269
 1916TIP3    H127163   6.175   4.435   5.919 -1.7826  0.9856  1.3062
 1916TIP3    H227164   6.076   4.331   5.966 -0.5581 -1.1517 -0.6209
 1917TIP3   OH227165   0.872   3.430   3.141 -0.4649  0.2744 -0.5555
 1917TIP3    H127166   0.853   3.427   3.235 -1.2463 -1.6248 -0.7292
 1917TIP3    H227167   0.799   3.479   3.104 -1.6778 -1.3226 -0.4338
 1918TIP3   OH227168   5.474   3.479  14.150 -0.1258 -0.2048 -0.2732
 1918TIP3    H127169   5.531   3.525  14.212 -2.4658  1.1029  1.0535
 1918TIP3    H227170   5.471   3.389  14.183  1.3011 -0.3492 -0.4945
 1919TIP3   OH227171   2.417   3.854  16.672  0.4901 -0.3878 -0.0811
 1919TIP3    H127172   2.421   3.946  16.646 -0.5024 -0.5154 -0.7495
 1919TIP3    H227173   2.457   3.807  16.599 -0.6223 -0.6030 -0.5821
 1920TIP3   OH227174   6.169   4.335   0.860 -0.1052  0.2825 -0.6549
 1920TIP3    H127175   6.082   4.324   0.821 -0.7310 -0.9849  0.9907
 1920TIP3    H227176   6.191   4.427   0.844 -2.3819  1.0301  0.1177
 1921TIP3   OH227177   2.534   2.353  15.957  0.2727 -0.4002  0.2548
 1921TIP3    H127178   2.586   2.379  16.033  0.1333 -0.0733  0.2401
 1921TIP3    H227179   2.567   2.267  15.934  1.5536  0.2456 -0.4145
 1922TIP3   OH227180   4.991   3.645   0.433  0.1878 -0.4090 -0.6449
 1922TIP3    H127181   5.024   3.733   0.446 -0.3652 -0.2568 -0.2521
 1922TIP3    H227182   4.922   3.654   0.368 -1.0980 -0.2651  0.6998
 1923TIP3   OH227183   2.338   2.791   4.808 -0.2909 -0.0800 -0.2447
 1923TIP3    H127184   2.415   2.776   4.753 -0.7367  1.0051 -1.2092
 1923TIP3    H227185   2.341   2.720   4.873  1.5409 -0.0196 -0.2076
 1924TIP3   OH227186   4.628   6.074  15.471 -0.3428 -0.1813  0.5628
 1924TIP3    H127187   4.646   6.034  15.386 -1.7797 -1.5921  0.8874
 1924TIP3    H227188   4.677   6.156  15.469 -0.7715  0.0946 -1.8576
 1925TIP3   OH227189   0.782   3.930  13.080  0.4560 -0.3628  0.3208
 1925TIP3    H127190   0.728   3.895  13.151  1.4002 -0.9165  0.7841
 1925TIP3    H227191   0.721   3.939  13.006 -0.7787  1.2196  1.4690
 1926TIP3   OH227192   5.897   1.425   2.461 -0.5083 -0.3047  0.1204
 1926TIP3    H127193   5.914   1.463   2.548 -0.5769  2.6471 -1.0600
 1926TIP3    H227194   5.982   1.390   2.434 -0.1561  0.0039  0.8040
 1927TIP3   OH227195   0.306   5.462   5.879 -0.0310  0.4018  0.4410
 1927TIP3    H127196   0.255   5.542   5.866  0.3362  0.4271 -1.0006
 1927TIP3    H227197   0.392   5.492   5.907  0.5360  0.6268 -1.4206
 1928TIP3   OH227198   3.148   0.840  11.851  1.0202  0.7110  0.2845
 1928TIP3    H127199   3.120   0.927  11.881 -0.2815  0.1280  0.8052
 1928TIP3    H227200   3.211   0.811  11.918 -0.6968  0.0764  1.7026
 1929TIP3   OH227201   1.087   5.924  14.270  0.1302  0.7025  0.4105
 1929TIP3    H127202   1.074   5.994  14.205 -1.2342  0.9033  0.8633
 1929TIP3    H227203   1.025   5.945  14.340  1.5009  0.4238  1.7481
 1930TIP3   OH227204   4.084   1.042  14.074 -0.1272 -0.4589  0.2992
 1930TIP3    H127205   4.159   1.097  14.053 -0.9600 -0.1077 -2.1462
 1930TIP3    H227206   4.111   0.954  14.048  0.0771 -0.6650  1.1879
 1931TIP3   OH227207   0.624   1.098  15.075 -0.0928 -0.2687  0.6951
 1931TIP3    H127208   0.628   1.027  15.012  0.6299 -1.7322  2.2808
 1931TIP3    H227209   0.571   1.063  15.147 -1.2667  1.5014  0.7433
 1932TIP3   OH227210   4.875   2.595   3.571  0.3585  0.7326 -0.3470
 1932TIP3    H127211   4.864   2.667   3.509  1.5969  1.0986 -0.1754
 1932TIP3    H227212   4.889   2.518   3.517  0.2606  0.8382 -0.5235
 1933TIP3   OH227213   5.936   5.388   3.186 -0.0979 -0.5377  0.1516
 1933TIP3    H127214   5.854   5.350   3.152 -0.8795  2.1369 -1.2270
 1933TIP3    H227215   6.004   5.349   3.131 -0.5898 -1.5673  0.2382
 1934TIP3   OH227216   1.445   2.172   2.125  0.4754 -0.2110 -0.2020
 1934TIP3    H127217   1.397   2.239   2.173  0.2674  1.5486 -2.6536
 1934TIP3    H227218   1.380   2.103   2.110  0.0676  0.0125  0.4921
 1935TIP3   OH227219   4.070   4.458   0.636 -0.2742  0.2177  0.4921
 1935TIP3    H127220   4.037   4.432   0.722  0.0943 -1.1546  0.2532
 1935TIP3    H227221   4.122   4.536   0.652  1.4896 -1.1573  1.8856
 1936TIP3   OH227222   2.312   4.402  15.322 -0.0530  0.2119  0.2316
 1936TIP3    H127223   2.388   4.425  15.269  0.5588 -0.6983  0.6777
 1936TIP3    H227224   2.332   4.436  15.410  1.1252 -2.3459  1.0475
 1937TIP3   OH227225   2.704   5.857   0.221  0.0682 -0.1970 -0.2844
 1937TIP3    H127226   2.659   5.820   0.145 -3.2041  0.8171  0.9941
 1937TIP3    H227227   2.725   5.947   0.195  0.4991 -0.3697 -0.5456
 1938TIP3   OH227228   2.990   6.484  11.100  0.1277  0.0809  0.3322
 1938TIP3    H127229   2.979   6.473  11.006 -0.5612  0.4210  0.3647
 1938TIP3    H227230   3.042   6.409  11.127  1.7221  0.8017 -0.5665
 1939TIP3   OH227231   1.845   4.416  14.172 -0.0641 -0.1802 -0.4519
 1939TIP3    H127232   1.753   4.407  14.195 -0.4467 -0.6843 -2.0158
 1939TIP3    H227233   1.887   4.336  14.203 -0.5499 -0.8240 -1.4196
 1940TIP3   OH227234   1.421   6.023   2.343 -0.4439  0.0222  0.2495
 1940TIP3    H127235   1.512   6.001   2.362  0.3377  2.3587 -0.4077
 1940TIP3    H227236   1.374   6.008   2.425  0.8051  0.0847  0.9900
 1941TIP3   OH227237   5.292   5.457  11.097  0.3410 -0.3071 -0.0028
 1941TIP3    H127238   5.285   5.500  11.182  0.0758  0.6990 -0.5191
 1941TIP3    H227239   5.228   5.386  11.101  0.2223 -0.1742  0.5771
 1942TIP3   OH227240   0.353   2.077  16.006  0.2947  0.0347  0.0245
 1942TIP3    H127241   0.406   2.127  16.067  1.8481 -0.5431 -0.7968
 1942TIP3    H227242   0.325   2.141  15.940  2.1870 -0.0822 -0.9659
 1943TIP3   OH227243   2.601   4.675  13.005 -0.0986 -0.3531  0.7579
 1943TIP3    H127244   2.640   4.626  12.933 -0.4123  1.0144 -0.3961
 1943TIP3    H227245   2.654   4.652  13.081  0.9371 -0.9952 -0.1205
 1944TIP3   OH227246   1.890   1.187   4.607 -0.1231 -0.1057  0.1955
 1944TIP3    H127247   1.974   1.204   4.564 -0.1517  0.5766  0.4030
 1944TIP3    H227248   1.829   1.172   4.535  0.2140 -0.8082  0.0480
 1945TIP3   OH227249   0.557   1.011   1.518  0.1111  0.0481  0.4278
 1945TIP3    H127250   0.626   0.952   1.488 -0.1898 -0.3808  0.5603
 1945TIP3    H227251   0.601   1.070   1.580  0.2654 -0.5327  0.8855
 1946TIP3   OH227252   4.301   0.168  15.060 -0.5640 -0.2794  0.0435
 1946TIP3    H127253   4.263   0.217  14.987 -2.3831 -1.7022 -0.0500
 1946TIP3    H227254   4.354   0.100  15.018 -0.1332  0.0081  0.1132
 1947TIP3   OH227255   5.934   2.053  15.814 -0.3651  0.1384  0.4528
 1947TIP3    H127256   5.914   1.993  15.886  0.9315  0.1959  0.8806
 1947TIP3    H227257   6.030   2.055  15.810 -0.4128  0.2134 -1.2200
 1948TIP3   OH227258   1.449   4.204  12.845 -0.4689 -0.3009  0.9286
 1948TIP3    H127259   1.506   4.281  12.843 -1.1688  0.2016 -0.5506
 1948TIP3    H227260   1.363   4.238  12.871 -0.6097 -0.7035  1.0037
 1949TIP3   OH227261   3.811   0.843   4.854 -0.3721 -0.7288 -0.0404
 1949TIP3    H127262   3.725   0.815   4.822 -0.6919  0.0590  0.1040
 1949TIP3    H227263   3.818   0.935   4.827  0.1648 -0.6121  0.4692
 1950TIP3   OH227264   4.241   2.134   3.558  0.0659  0.1454  0.1488
 1950TIP3    H127265   4.181   2.068   3.591  0.0867 -1.7942 -3.1699
 1950TIP3    H227266   4.315   2.131   3.618 -0.8351 -1.3650  1.2643
 1951TIP3   OH227267   2.695   3.144  12.613 -0.3574  0.0868 -0.0256
 1951TIP3    H127268   2.781   3.126  12.573  0.0155  0.0163  0.7933
 1951TIP3    H227269   2.672   3.231  12.579  0.4438  0.4875  0.4115
 1952TIP3   OH227270   4.695   3.327  16.119  0.4910  0.4327 -0.1665
 1952TIP3    H127271   4.776   3.334  16.168  0.4588 -1.3627  0.1763
 1952TIP3    H227272   4.711   3.257  16.055 -1.4953 -1.6018  1.4216
 1953TIP3   OH227273   6.374   2.799   2.130  0.4467 -0.2868 -0.0902
 1953TIP3    H127274   6.361   2.751   2.212  1.5897  0.2552  0.4423
 1953TIP3    H227275   6.467   2.788   2.110 -0.0549 -1.4486 -2.0207
 1954TIP3   OH227276   2.802   0.132  11.866 -0.1712 -0.2534  0.1452
 1954TIP3    H127277   2.879   0.135  11.924 -0.3038 -0.7325  0.3559
 1954TIP3    H227278   2.838   0.109  11.780  0.0699  0.8303 -0.0549
 1955TIP3   OH227279   4.058   0.579  12.647  0.1463 -0.5624  0.3758
 1955TIP3    H127280   4.088   0.519  12.716  1.5952 -0.5417 -0.1899
 1955TIP3    H227281   4.113   0.657  12.657  0.3305 -0.5285 -0.7267
 1956TIP3   OH227282   2.760   3.656  11.381 -0.2684  0.0127  0.3035
 1956TIP3    H127283   2.801   3.707  11.451 -0.3326  0.0039  0.3474
 1956TIP3    H227284   2.831   3.602  11.346 -0.0795  0.5136 -0.0927
 1957TIP3   OH227285   5.685   2.921  12.727 -0.0775 -0.2494  0.1843
 1957TIP3    H127286   5.758   2.899  12.669 -0.1621  2.4495 -1.0947
 1957TIP3    H227287   5.647   2.837  12.751  1.4398 -1.5755 -1.7837
 1958TIP3   OH227288   3.843   1.130   0.711  0.3311  0.3360  0.1069
 1958TIP3    H127289   3.772   1.189   0.737  1.5236  1.9019 -0.0201
 1958TIP3    H227290   3.807   1.080   0.637 -1.6925 -1.2564  2.0478
 1959TIP3   OH227291   4.762   6.221   4.672  0.2182  0.2122 -0.4360
 1959TIP3    H127292   4.704   6.293   4.646  0.4118 -0.1021 -1.8418
 1959TIP3    H227293   4.705   6.144   4.674  0.6141 -0.1673 -2.1955
 1960TIP3   OH227294   1.535   0.081   2.686  0.1536 -0.2168  0.5131
 1960TIP3    H127295   1.494   0.132   2.756  0.3329 -0.4747  0.8029
 1960TIP3    H227296   1.466   0.021   2.657 -0.5525  1.1412 -0.8172
 1961TIP3   OH227297   0.209   1.224   4.059 -0.3709  0.0141  0.0771
 1961TIP3    H127298   0.246   1.293   4.004 -0.7841  0.0953 -0.0995
 1961TIP3    H227299   0.153   1.173   4.000  1.4242 -1.6789 -0.2903
 1962TIP3   OH227300   0.066   1.587   4.212 -0.3645  0.2203 -0.6229
 1962TIP3    H127301   0.157   1.603   4.186  0.6392 -1.3395  1.6155
 1962TIP3    H227302   0.046   1.657   4.274  0.9275 -1.7833  2.2557
 1963TIP3   OH227303   0.778   6.127  13.730  0.1281  0.4309  0.1491
 1963TIP3    H127304   0.849   6.071  13.761 -0.1677  0.4741  0.9300
 1963TIP3    H227305   0.708   6.066  13.707 -0.6476  0.4928  2.1539
 1964TIP3   OH227306   4.663   0.586   2.344  0.3198 -0.0916 -0.4466
 1964TIP3    H127307   4.695   0.675   2.329 -1.2107  0.3998 -0.9782
 1964TIP3    H227308   4.739   0.539   2.378  0.7060  1.8996  1.7264
 1965TIP3   OH227309   0.635   3.367   4.934 -0.1064  0.1454  0.1124
 1965TIP3    H127310   0.562   3.374   4.995  0.4393  1.3856  0.6548
 1965TIP3    H227311   0.707   3.334   4.987 -0.5025 -2.1450 -0.6560
 1966TIP3   OH227312   4.523   0.045  13.319 -0.5362 -0.0595  0.5329
 1966TIP3    H127313   4.584  -0.011  13.367  0.9043 -1.1942 -2.3922
 1966TIP3    H227314   4.543   0.134  13.350  1.5370 -0.5632  0.8241
 1967TIP3   OH227315   4.289   5.195  10.654 -0.2970 -0.7924 -0.4680
 1967TIP3    H127316   4.297   5.175  10.560  0.5982  0.8694 -0.7708
 1967TIP3    H227317   4.214   5.254  10.660  0.0859 -0.3199 -0.2437
 1968TIP3   OH227318   3.573   5.401   2.191  0.2532  0.1850 -0.2265
 1968TIP3    H127319   3.558   5.307   2.204  0.6338  0.2905  1.1220
 1968TIP3    H227320   3.657   5.405   2.145  0.2595 -0.1261 -0.2474
 1969TIP3   OH227321   3.024   3.513   5.353  0.3287  0.1267  0.2024
 1969TIP3    H127322   3.049   3.527   5.444 -1.8773 -0.4829  0.9556
 1969TIP3    H227323   2.972   3.590   5.331 -0.3019 -0.3820 -0.0926
 1970TIP3   OH227324   2.504   2.286  12.266  0.0874 -0.1118  0.0156
 1970TIP3    H127325   2.543   2.317  12.185  0.8985 -0.5583  0.2171
 1970TIP3    H227326   2.577   2.246  12.314 -0.7989 -1.8462 -0.0057
 1971TIP3   OH227327   0.073   5.852   4.288  0.7175  0.3403  0.0080
 1971TIP3    H127328  -0.022   5.857   4.298  0.8098  2.1857  0.2627
 1971TIP3    H227329   0.086   5.795   4.213 -0.5407 -0.9374  0.7093
 1972TIP3   OH227330   6.547   1.814  15.292 -0.2777 -0.0793  0.6930
 1972TIP3    H127331   6.635   1.848  15.280 -0.6812  1.1964  1.1968
 1972TIP3    H227332   6.560   1.731  15.339  0.6825 -0.3564 -0.0193
 1973TIP3   OH227333   3.824   0.255  17.144 -0.2062 -0.7609 -1.0288
 1973TIP3    H127334   3.845   0.183  17.204 -3.1360 -1.9780 -1.3010
 1973TIP3    H227335   3.876   0.236  17.065  1.4257 -0.7815 -0.0050
 1974TIP3   OH227336   0.178   3.267   0.743 -0.2815  0.3900 -0.4060
 1974TIP3    H127337   0.248   3.214   0.781 -1.5011 -0.5007  0.6946
 1974TIP3    H227338   0.160   3.333   0.811 -0.8908  0.2625 -0.4452
 1975TIP3   OH227339   6.374   6.108  15.858  0.2329  0.2356 -0.4086
 1975TIP3    H127340   6.441   6.176  15.859  0.1625  0.3326  1.2086
 1975TIP3    H227341   6.422   6.027  15.844  0.7813  0.2561  1.1492
 1976TIP3   OH227342   3.753   5.771  15.044  0.3107 -0.3144  0.0692
 1976TIP3    H127343   3.728   5.715  14.970 -2.3763 -0.4784  1.0272
 1976TIP3    H227344   3.756   5.859  15.007  0.3939 -0.5620 -0.5304
 1977TIP3   OH227345   2.015   3.669  16.847 -0.4314 -0.4950 -0.4646
 1977TIP3    H127346   1.989   3.761  16.843 -1.0854 -0.5802  1.1770
 1977TIP3    H227347   1.958   3.625  16.784 -0.2251  0.1986 -1.1418
 1978TIP3   OH227348   2.117   5.563   5.594  0.2160 -0.1430 -0.8757
 1978TIP3    H127349   2.110   5.526   5.682 -0.2397 -1.3967 -1.4116
 1978TIP3    H227350   2.149   5.652   5.607  0.2439 -0.3478  0.5468
 1979TIP3   OH227351   5.417   1.058   1.386 -0.2310 -0.1890 -0.3840
 1979TIP3    H127352   5.480   0.989   1.410  0.2612  0.4116  0.0809
 1979TIP3    H227353   5.443   1.083   1.297  0.0092 -0.1471 -0.3047
 1980TIP3   OH227354   6.007   0.703   1.506  0.0897 -0.2987  0.0887
 1980TIP3    H127355   6.056   0.741   1.434  0.7532 -0.3924  0.4799
 1980TIP3    H227356   6.073   0.654   1.556  0.0276  1.1949  1.7425
 1981TIP3   OH227357   5.655   2.923  15.521  0.1584 -0.0466  0.3796
 1981TIP3    H127358   5.581   2.961  15.474  0.6340 -0.7485 -0.9948
 1981TIP3    H227359   5.699   2.998  15.562  0.0360  0.6615 -0.7443
 1982TIP3   OH227360   4.883   2.735   2.800  0.3978  0.4149 -0.5175
 1982TIP3    H127361   4.864   2.666   2.864  0.1009 -0.1483 -1.2033
 1982TIP3    H227362   4.936   2.692   2.733  0.5588  0.9589 -0.7422
 1983TIP3   OH227363   5.488   5.471   1.295  0.2938  0.7624  0.1874
 1983TIP3    H127364   5.460   5.388   1.257  1.6242  0.2579  0.2537
 1983TIP3    H227365   5.429   5.536   1.257  0.6613  0.0807 -1.6114
 1984TIP3   OH227366   0.246   5.760  16.538 -0.2970 -0.4481 -0.1969
 1984TIP3    H127367   0.159   5.796  16.523  0.3709  0.5674 -1.9164
 1984TIP3    H227368   0.241   5.670  16.505 -0.6528 -0.3284 -0.4796
 1985TIP3   OH227369   2.331   1.907  16.487 -0.2585  0.0790  0.0803
 1985TIP3    H127370   2.386   1.970  16.533  0.5681 -1.6073  1.5664
 1985TIP3    H227371   2.354   1.916  16.395  1.8019  0.1409  0.5547
 1986TIP3   OH227372   5.553   3.587  11.068 -0.0620 -0.3044 -0.3261
 1986TIP3    H127373   5.613   3.660  11.081 -0.8890  0.5895 -1.3682
 1986TIP3    H227374   5.607   3.517  11.032  0.6507 -0.0593  0.2551
 1987TIP3   OH227375   4.503   1.371   0.151 -0.0825  0.1482  0.2802
 1987TIP3    H127376   4.593   1.361   0.181  0.0860 -0.0684 -0.2900
 1987TIP3    H227377   4.468   1.442   0.204  0.4330  0.2637  0.4733
 1988TIP3   OH227378   5.107   1.342  14.540  0.4035 -0.7290 -0.2379
 1988TIP3    H127379   5.113   1.313  14.449 -1.2823 -1.1646 -0.2550
 1988TIP3    H227380   5.068   1.430  14.534 -0.6371 -1.1485  0.0709
 1989TIP3   OH227381   2.559   1.139   2.142  0.0163 -0.3430  0.2099
 1989TIP3    H127382   2.618   1.162   2.070 -0.7743  2.0457  0.2557
 1989TIP3    H227383   2.476   1.119   2.100 -0.0644 -0.3311  0.3640
 1990TIP3   OH227384   1.317   0.887  13.929  0.2185  0.1902 -0.0226
 1990TIP3    H127385   1.401   0.934  13.923  1.0945 -1.4258 -1.2701
 1990TIP3    H227386   1.304   0.852  13.841 -1.9515  0.6620  0.0760
 1991TIP3   OH227387   6.686   3.907  15.078 -0.1639  0.0992  0.1224
 1991TIP3    H127388   6.690   3.845  15.005  0.4865  0.5049 -0.1900
 1991TIP3    H227389   6.771   3.899  15.121 -0.6208 -0.3069  0.9909
 1992TIP3   OH227390   0.566   1.121  11.844 -0.0118  0.3383  0.3677
 1992TIP3    H127391   0.598   1.055  11.783  0.7361  0.2172  0.8766
 1992TIP3    H227392   0.640   1.181  11.856  0.4330 -0.4944  2.3251
 1993TIP3   OH227393   1.418   6.197   0.642  0.0514 -0.0520 -0.8301
 1993TIP3    H127394   1.361   6.189   0.719  1.0390  0.4855 -0.0183
 1993TIP3    H227395   1.505   6.175   0.674  0.5541  0.6018 -1.6933
 1994TIP3   OH227396   6.087   3.067   2.313 -0.5011  0.0911 -0.4563
 1994TIP3    H127397   6.098   2.974   2.328  0.3668  0.7188  4.1143
 1994TIP3    H227398   5.997   3.085   2.340  0.7361  1.1018  3.6973
 1995TIP3   OH227399   0.356   5.730  13.780  0.1263  0.2813 -0.1755
 1995TIP3    H127400   0.426   5.719  13.715  1.2551  0.7395  0.9214
 1995TIP3    H227401   0.361   5.650  13.833 -0.1610  0.3372 -0.0680
 1996TIP3   OH227402   6.172   4.329  14.437 -0.5135 -0.1649  0.1990
 1996TIP3    H127403   6.192   4.356  14.527  1.0725  0.4532 -0.3116
 1996TIP3    H227404   6.219   4.247  14.426 -0.9212 -0.3743  0.0077
 1997TIP3   OH227405   5.759   0.657   2.701 -0.7058 -0.4997 -0.3938
 1997TIP3    H127406   5.754   0.703   2.785  0.5781 -1.4522  0.2336
 1997TIP3    H227407   5.853   0.641   2.687 -0.9853 -1.4288 -1.4091
 1998TIP3   OH227408   2.292   5.440  14.786  0.5868  0.4797  0.0385
 1998TIP3    H127409   2.344   5.426  14.865  1.3231  0.5111 -0.4182
 1998TIP3    H227410   2.202   5.444  14.816  0.8313  0.2131  0.8393
 1999TIP3   OH227411   0.470   1.413   6.370  0.2537 -0.5219  0.1387
 1999TIP3    H127412   0.442   1.395   6.280  1.0750 -0.2581 -0.1779
 1999TIP3    H227413   0.494   1.327   6.405 -0.4330 -0.6770  0.2386
 2000TIP3   OH227414   1.759   3.388   5.245  0.2443 -0.4952  0.5712
 2000TIP3    H127415   1.717   3.319   5.194 -2.0248  0.4493  0.9990
 2000TIP3    H227416   1.687   3.426   5.297  1.7845  0.8784  1.8153
 2001TIP3   OH227417   5.273   0.969   4.351  0.0172 -0.2267 -0.2936
 2001TIP3    H127418   5.265   0.901   4.285 -1.8298 -0.0117 -0.3402
 2001TIP3    H227419   5.183   0.985   4.381  0.4044  2.0694 -0.1715
 2002TIP3   OH227420   5.428   3.319   0.473 -0.4096 -0.4938  0.2634
 2002TIP3    H127421   5.481   3.322   0.393  1.7159  2.1216  1.5894
 2002TIP3    H227422   5.370   3.394   0.467  1.3211  1.1228  1.9849
 2003TIP3   OH227423   2.483   4.744   1.508 -0.1468 -0.4374  0.0777
 2003TIP3    H127424   2.451   4.654   1.503 -0.0295 -0.4236 -1.5010
 2003TIP3    H227425   2.569   4.741   1.465 -0.0165  0.3677  0.2621
 2004TIP3   OH227426   5.046   2.243   5.830 -0.0811 -0.3492 -0.3813
 2004TIP3    H127427   5.073   2.151   5.838  0.2457 -0.2524 -0.3943
 2004TIP3    H227428   5.035   2.273   5.921 -0.7433 -0.5631 -0.3802
 2005TIP3   OH227429   0.965   6.019  15.704 -0.7192 -0.1947 -0.0797
 2005TIP3    H127430   0.919   6.101  15.723  0.1942  0.2424  0.3293
 2005TIP3    H227431   1.007   6.035  15.619  1.5786  0.7819  1.1260
 2006TIP3   OH227432   4.774   3.180  12.886 -0.2427  0.1434  0.4945
 2006TIP3    H127433   4.702   3.143  12.936  0.8649 -0.2293  1.8648
 2006TIP3    H227434   4.808   3.107  12.835  1.4174 -0.6369  2.5798
 2007TIP3   OH227435   1.655   0.528  13.753 -0.2365 -0.4636 -0.4489
 2007TIP3    H127436   1.600   0.521  13.675 -2.8770 -2.3098  1.4102
 2007TIP3    H227437   1.723   0.462  13.740  0.4482  0.4421 -1.8634
 2008TIP3   OH227438   2.800   1.323  14.150 -0.0568 -0.2824  0.0520
 2008TIP3    H127439   2.873   1.263  14.161  0.3951  0.0853 -0.8464
 2008TIP3    H227440   2.833   1.392  14.093 -0.6967  0.6021  0.7075
 2009TIP3   OH227441   5.325   6.302  13.500  0.8967  0.5500  0.1060
 2009TIP3    H127442   5.250   6.342  13.455  2.1604  2.4504 -0.4367
 2009TIP3    H227443   5.291   6.219  13.534 -1.5667  1.5412  0.2571
 2010TIP3   OH227444   5.997   6.498   6.011 -0.7165 -0.0595 -0.1080
 2010TIP3    H127445   6.037   6.412   6.007  1.0612  0.6915  0.5100
 2010TIP3    H227446   5.961   6.504   6.099  0.2086  0.2571  0.2553
 2011TIP3   OH227447   4.212   3.340   0.471  0.0338 -0.1358  0.2734
 2011TIP3    H127448   4.196   3.358   0.564 -0.3371 -0.3284  0.2465
 2011TIP3    H227449   4.125   3.335   0.432  0.2121  1.6401 -0.4166
 2012TIP3   OH227450   0.093   2.329   3.254 -0.0417  0.5754  0.2261
 2012TIP3    H127451   0.022   2.322   3.318  0.7761 -0.1355  1.0677
 2012TIP3    H227452   0.085   2.418   3.220  0.9360  1.8128  3.0048
 2013TIP3   OH227453   2.049   1.469   4.537 -0.2776  0.2136  0.1424
 2013TIP3    H127454   2.020   1.560   4.535 -0.9658  0.0098  0.6863
 2013TIP3    H227455   2.100   1.461   4.618 -1.1789 -0.1654  0.6823
 2014TIP3   OH227456   3.784   4.557   2.026 -0.5162 -0.4077  0.3279
 2014TIP3    H127457   3.796   4.571   2.120  0.7356 -0.3260  0.1764
 2014TIP3    H227458   3.737   4.635   1.996  0.0639  0.0986  0.7058
 2015TIP3   OH227459   5.738   4.850  13.885  0.1747  0.0234  0.5004
 2015TIP3    H127460   5.729   4.937  13.923  0.4015  0.5675 -0.6435
 2015TIP3    H227461   5.723   4.790  13.958 -0.2172  1.0128  1.2546
 2016TIP3   OH227462   1.961   0.892  16.194 -0.4537 -0.2312 -0.1926
 2016TIP3    H127463   1.918   0.872  16.111 -2.2917  0.6584  0.4970
 2016TIP3    H227464   1.958   0.987  16.201  1.1765 -0.1765  0.1503
 2017TIP3   OH227465   2.700   5.792  13.601  0.3367  0.2990  0.1204
 2017TIP3    H127466   2.699   5.712  13.549 -0.0367 -0.1326  0.7752
 2017TIP3    H227467   2.791   5.821  13.600  0.6096 -0.5396  0.4887
 2018TIP3   OH227468   1.120   4.415  17.196  0.2097  0.6155  0.4678
 2018TIP3    H127469   1.132   4.350  17.265  2.3171 -0.5401 -0.8787
 2018TIP3    H227470   1.162   4.494  17.230 -0.3466  0.6062  1.1975
 2019TIP3   OH227471   4.740   4.024   0.661 -0.0681  0.4829 -0.5129
 2019TIP3    H127472   4.668   4.079   0.632  1.6592  2.3377 -1.5255
 2019TIP3    H227473   4.765   4.059   0.746 -0.4526 -0.2484 -0.0953
 2020TIP3   OH227474   6.497   1.954  14.686 -0.5110  0.1234  0.0123
 2020TIP3    H127475   6.538   2.035  14.715 -0.3690  0.5795 -1.3973
 2020TIP3    H227476   6.408   1.958  14.723 -0.6952  1.2091 -0.4976
 2021TIP3   OH227477   2.034   5.267   6.385 -0.3493 -0.2372 -0.3982
 2021TIP3    H127478   2.054   5.333   6.451  0.0371 -0.4225 -0.3287
 2021TIP3    H227479   2.024   5.186   6.435  1.1805 -0.6247 -0.6888
 2022TIP3   OH227480   1.104   6.769  16.154  0.1758  0.0022  0.4377
 2022TIP3    H127481   1.026   6.724  16.120 -1.0473  1.1390  1.6466
 2022TIP3    H227482   1.074   6.857  16.175  2.4662  1.4203 -1.6935
 2023TIP3   OH227483   5.091   4.172  11.319 -0.0321  0.0954  0.1300
 2023TIP3    H127484   5.083   4.251  11.373 -0.5806  1.3878 -1.7452
 2023TIP3    H227485   5.006   4.165  11.275  0.9608  0.1165 -1.8652
 2024TIP3   OH227486   0.735   5.739   5.739  0.2429 -0.4372 -0.6398
 2024TIP3    H127487   0.646   5.704   5.740 -0.0046  0.1851 -0.6333
 2024TIP3    H227488   0.728   5.824   5.783  0.2825  0.8777 -2.9697
 2025TIP3   OH227489   3.941   0.523  17.159  0.1233 -0.1364 -0.1872
 2025TIP3    H127490   3.887   0.453  17.122  0.0291 -0.9025  1.3484
 2025TIP3    H227491   3.885   0.564  17.225 -0.6048  2.7983 -2.3901
 2026TIP3   OH227492   6.744   6.019  12.920  0.1920  0.5650  0.2174
 2026TIP3    H127493   6.776   5.935  12.954 -1.5014 -0.5240 -0.6597
 2026TIP3    H227494   6.823   6.069  12.901  1.3662 -1.4990 -0.7963
 2027TIP3   OH227495   6.580   0.964  16.041 -0.3561 -0.0231 -0.5032
 2027TIP3    H127496   6.630   1.008  15.973 -0.8161  1.1505 -0.1019
 2027TIP3    H227497   6.533   0.894  15.995  1.0528 -0.6873 -0.9989
 2028TIP3   OH227498   5.937   0.284   2.559 -0.6466  0.0070 -0.2861
 2028TIP3    H127499   5.944   0.290   2.655  0.5172 -0.5910 -0.3044
 2028TIP3    H227500   5.876   0.212   2.544 -0.4194 -0.2549  0.0191
 2029TIP3   OH227501   1.800   6.708  16.919  0.2078  0.2747  0.2912
 2029TIP3    H127502   1.725   6.764  16.941 -1.5656 -2.0434  0.5315
 2029TIP3    H227503   1.799   6.702  16.824  0.5592  0.8146  0.2485
 2030TIP3   OH227504   4.535   3.451  16.518  0.0189  0.1791 -0.0356
 2030TIP3    H127505   4.449   3.472  16.553  0.0019 -1.3304  0.9305
 2030TIP3    H227506   4.518   3.394  16.442  0.1414  1.1951 -0.8489
 2031TIP3   OH227507   2.751   0.867  11.280 -0.4250 -0.6458 -0.5162
 2031TIP3    H127508   2.827   0.856  11.224  0.2375  0.2551  0.1936
 2031TIP3    H227509   2.709   0.947  11.249 -0.8707 -0.9199 -0.6428
 2032TIP3   OH227510   0.720   0.133  15.024 -0.2779  0.4521  0.0195
 2032TIP3    H127511   0.730   0.211  15.079 -1.1460 -0.0242  0.8865
 2032TIP3    H227512   0.704   0.062  15.086 -2.6358  0.1182 -0.8766
 2033TIP3   OH227513   5.319   4.130  15.391 -0.2317  0.2842  0.3942
 2033TIP3    H127514   5.286   4.096  15.474  0.8987  0.8476  1.1010
 2033TIP3    H227515   5.297   4.223  15.392 -1.9471 -0.0615 -0.8435
 2034TIP3   OH227516   1.558   5.063  12.325 -0.3523  0.0313 -0.4123
 2034TIP3    H127517   1.536   5.136  12.267  1.7668  1.1711  0.1272
 2034TIP3    H227518   1.615   5.007  12.272  1.0999  0.7635  0.3423
 2035TIP3   OH227519   1.245   3.575  12.173  0.0517 -0.0005  0.1291
 2035TIP3    H127520   1.256   3.669  12.168 -0.3319 -0.0097 -2.7273
 2035TIP3    H227521   1.315   3.539  12.119  0.3456 -1.3809  1.3679
 2036TIP3   OH227522   4.023   4.677   3.106 -0.1673 -0.5005  0.0005
 2036TIP3    H127523   3.954   4.707   3.166 -2.6285 -1.9143 -1.9521
 2036TIP3    H227524   3.997   4.589   3.082  1.5871 -0.5519 -1.9476
 2037TIP3   OH227525   4.879   2.472   5.991  0.3451  0.2961  0.2620
 2037TIP3    H127526   4.918   2.481   5.904 -0.2497 -1.3820 -0.2055
 2037TIP3    H227527   4.785   2.483   5.977  0.3452  1.4573  0.9492
 2038TIP3   OH227528   2.788   6.163  16.248 -0.7390  0.0709 -0.1106
 2038TIP3    H127529   2.725   6.163  16.176 -0.1642 -0.0013 -0.6220
 2038TIP3    H227530   2.873   6.176  16.206 -0.4100  0.1792  0.5715
 2039TIP3   OH227531   0.278   5.611   4.335 -0.2327 -0.2124 -0.5569
 2039TIP3    H127532   0.310   5.698   4.358  0.4278 -0.8641  1.1782
 2039TIP3    H227533   0.217   5.589   4.405 -0.9527 -0.8689 -1.3643
 2040TIP3   OH227534   6.180   5.914   6.238 -0.0823  0.4150 -0.3132
 2040TIP3    H127535   6.121   5.848   6.273  1.1526  0.1951  1.4541
 2040TIP3    H227536   6.129   5.995   6.238 -0.3466  0.2789  1.4144
 2041TIP3   OH227537   3.729   1.160  12.114  0.3789  0.3371  0.2840
 2041TIP3    H127538   3.785   1.235  12.091  1.7677 -0.6365  0.3683
 2041TIP3    H227539   3.743   1.148  12.208  1.3319 -0.9110  0.0118
 2042TIP3   OH227540   5.011   2.547  11.249 -0.6290 -0.0114  0.0529
 2042TIP3    H127541   5.067   2.509  11.317 -1.3556 -1.3114 -0.0264
 2042TIP3    H227542   5.049   2.517  11.167  0.5355  1.9650 -0.1925
 2043TIP3   OH227543   2.826   2.161   4.506 -0.3386 -0.0045 -0.1679
 2043TIP3    H127544   2.789   2.228   4.564 -0.8058  1.6576 -2.2253
 2043TIP3    H227545   2.912   2.195   4.483 -0.5705 -0.0926 -1.2207
 2044TIP3   OH227546   0.559   3.380   6.618 -0.5414  0.1196 -0.8919
 2044TIP3    H127547   0.499   3.451   6.595  0.4866  1.8740  1.4546
 2044TIP3    H227548   0.645   3.412   6.591 -0.0570 -0.1739  0.2482
 2045TIP3   OH227549   6.571   2.685   5.733 -0.1633 -0.2511 -0.1618
 2045TIP3    H127550   6.612   2.610   5.691 -0.6524 -0.3643 -0.4526
 2045TIP3    H227551   6.631   2.710   5.803 -0.5201 -1.6177  0.6779
 2046TIP3   OH227552   2.350   3.497   4.863 -0.1748 -0.1600 -0.0027
 2046TIP3    H127553   2.356   3.453   4.778 -0.1923 -1.1194  0.4747
 2046TIP3    H227554   2.328   3.588   4.842 -0.3100 -0.4153 -1.0108
 2047TIP3   OH227555   2.599   2.493  15.425  0.1656  0.3197 -0.2046
 2047TIP3    H127556   2.507   2.472  15.443  0.5237 -2.4568 -1.1578
 2047TIP3    H227557   2.635   2.514  15.511 -1.1142  0.3451  0.3588
 2048TIP3   OH227558   1.912   6.064   5.476  0.5485 -0.2335  0.5881
 2048TIP3    H127559   1.991   6.031   5.432  0.6861 -0.3182  0.9012
 2048TIP3    H227560   1.840   6.020   5.430  0.6368  0.4077 -0.1936
 2049TIP3   OH227561   0.683   1.863  11.267  0.5774 -0.4976  0.7011
 2049TIP3    H127562   0.764   1.893  11.227 -0.8004 -0.5406 -2.4140
 2049TIP3    H227563   0.708   1.787  11.319  2.7332  0.4800  1.1948
 2050TIP3   OH227564   0.218   1.533  10.823  0.9757  0.8666  0.0138
 2050TIP3    H127565   0.127   1.513  10.847  1.1124 -0.2964 -0.3987
 2050TIP3    H227566   0.215   1.624  10.793  0.2809  1.4362  1.6861
 2051TIP3   OH227567   4.266   2.550   4.003 -0.0074  0.0722 -0.7065
 2051TIP3    H127568   4.226   2.624   3.957 -0.3673  0.2353 -0.1452
 2051TIP3    H227569   4.267   2.479   3.938 -2.4776 -0.3653 -0.3881
 2052TIP3   OH227570   0.660   2.684  11.900  0.0492 -0.4657 -0.3867
 2052TIP3    H127571   0.631   2.656  11.813 -0.5536  1.0424 -0.6947
 2052TIP3    H227572   0.617   2.768  11.914  2.0194  0.4927  0.3512
 2053TIP3   OH227573   6.412   1.602   4.649  0.2577 -0.0858 -0.5282
 2053TIP3    H127574   6.462   1.624   4.571  1.3307 -0.5946 -0.0046
 2053TIP3    H227575   6.322   1.625   4.627  0.8713  2.0467 -1.0560
 2054TIP3   OH227576   0.146   6.700  16.865 -0.4835  0.4643  0.2726
 2054TIP3    H127577   0.204   6.647  16.920 -0.1551  0.9264  0.3843
 2054TIP3    H227578   0.061   6.658  16.872 -0.1593 -0.2285  0.1041
 2055TIP3   OH227579   0.211   2.416   2.892 -0.2838  0.0909 -0.1799
 2055TIP3    H127580   0.268   2.388   2.963 -0.0082  0.9434 -0.0526
 2055TIP3    H227581   0.239   2.505   2.872 -1.8399  0.7039  0.1831
 2056TIP3   OH227582   3.663   5.345  15.545  0.3263 -0.1018  0.0459
 2056TIP3    H127583   3.656   5.408  15.473  1.4019  1.0812  0.9626
 2056TIP3    H227584   3.613   5.384  15.616  0.5427 -0.5531  0.4459
 2057TIP3   OH227585   1.328   4.821  12.406 -0.0327 -0.6109  0.3516
 2057TIP3    H127586   1.361   4.892  12.460 -2.6495  1.8846 -1.0592
 2057TIP3    H227587   1.328   4.856  12.316 -0.1383 -2.8966 -0.6154
 2058TIP3   OH227588   1.819   1.809   0.197 -0.0257  0.0840  0.1416
 2058TIP3    H127589   1.884   1.740   0.189 -0.0213  0.0427  0.4984
 2058TIP3    H227590   1.844   1.874   0.132  0.2821 -0.0061  0.1697
 2059TIP3   OH227591   3.207   2.608  13.479 -0.2724 -0.3311  0.5750
 2059TIP3    H127592   3.145   2.604  13.406 -0.4077 -1.0827  0.7170
 2059TIP3    H227593   3.167   2.667  13.542 -0.1870  0.2731  0.0711
 2060TIP3   OH227594   4.653   3.564   4.370  0.7691  0.0024  0.3432
 2060TIP3    H127595   4.600   3.497   4.411  3.2449 -1.0854  2.0212
 2060TIP3    H227596   4.590   3.628   4.337 -1.7269 -3.0341 -1.3411
 2061TIP3   OH227597   6.472   0.986  14.502 -0.4362  0.5640 -0.7192
 2061TIP3    H127598   6.435   1.003  14.588 -0.2469  1.9062 -0.8786
 2061TIP3    H227599   6.562   1.018  14.508 -0.2873  0.2765 -1.2940
 2062TIP3   OH227600   1.341   1.419   0.933  0.1410  0.4372 -0.1993
 2062TIP3    H127601   1.353   1.373   1.016  1.2341 -0.4854 -0.8379
 2062TIP3    H227602   1.246   1.426   0.922 -0.0090  0.2776  0.9632
 2063TIP3   OH227603   4.978   6.524   2.686  0.1441  0.5175 -0.1834
 2063TIP3    H127604   4.997   6.539   2.593 -1.7094  2.6604 -0.3235
 2063TIP3    H227605   4.886   6.496   2.687  0.6907 -1.3922  0.9193
 2064TIP3   OH227606   6.018   0.652  14.379  0.0769 -0.1399  0.0661
 2064TIP3    H127607   5.939   0.599  14.380 -0.3788  0.5419  0.3945
 2064TIP3    H227608   5.990   0.739  14.407  1.0858 -0.0969  1.0280
 2065TIP3   OH227609   2.051   0.445  16.287  0.9812 -0.1740  0.3112
 2065TIP3    H127610   2.016   0.387  16.219  0.7923 -0.8558  0.9772
 2065TIP3    H227611   2.146   0.438  16.279  0.9629 -0.0499 -0.0441
 2066TIP3   OH227612   6.057   4.809   3.403 -0.0652  0.1380 -0.4270
 2066TIP3    H127613   6.003   4.787   3.327 -1.2371 -1.9053  0.8859
 2066TIP3    H227614   5.996   4.852   3.463  0.2693 -0.3342  0.2594
 2067TIP3   OH227615   6.508   0.297   0.643 -0.3569  0.4962  0.0597
 2067TIP3    H127616   6.471   0.261   0.724 -0.1492 -0.7805 -0.3844
 2067TIP3    H227617   6.485   0.233   0.576  1.5422  0.2882 -0.4594
 2068TIP3   OH227618   2.833   1.994  13.316 -0.0270  0.5820 -0.0913
 2068TIP3    H127619   2.876   1.931  13.374 -0.5340  1.6694  1.5488
 2068TIP3    H227620   2.900   2.018  13.252  1.1953  0.7665  1.2098
 2069TIP3   OH227621   0.175   3.295   2.274  0.1262  0.0323 -0.1103
 2069TIP3    H127622   0.120   3.268   2.348 -1.6759  0.5040 -1.2025
 2069TIP3    H227623   0.182   3.217   2.219  0.3452  0.0387 -0.0907
 2070TIP3   OH227624   4.691   4.083   0.169  0.0944  0.5640 -0.3064
 2070TIP3    H127625   4.652   4.049   0.089  2.5905  0.8961 -1.7779
 2070TIP3    H227626   4.625   4.068   0.236 -2.6518  1.3749 -2.6008
 2071TIP3   OH227627   0.751   1.076  11.211  0.0180  0.1129 -0.8047
 2071TIP3    H127628   0.844   1.088  11.230  0.3549 -1.6524 -1.1891
 2071TIP3    H227629   0.738   0.981  11.210 -2.1736  0.3153  1.0302
 2072TIP3   OH227630   6.639   4.752   3.130  0.0670 -0.2596 -0.0431
 2072TIP3    H127631   6.609   4.838   3.158 -0.7538 -0.7685  0.6789
 2072TIP3    H227632   6.578   4.726   3.061 -1.4471 -1.4316  1.6441
 2073TIP3   OH227633   6.449   3.175  13.799 -0.1813  0.2314 -0.5586
 2073TIP3    H127634   6.470   3.197  13.890  0.0696  0.1937 -0.6070
 2073TIP3    H227635   6.377   3.233  13.776 -0.4316  0.0450 -0.2440
 2074TIP3   OH227636   0.697   3.161  16.203  0.1018 -0.4810  0.3087
 2074TIP3    H127637   0.676   3.075  16.166 -0.4931 -0.2718  0.1528
 2074TIP3    H227638   0.793   3.163  16.207  0.2157 -0.3609 -1.5716
 2075TIP3   OH227639   2.186   1.896  15.298 -0.5009 -0.2421  0.3412
 2075TIP3    H127640   2.263   1.952  15.288 -1.1952  0.4538 -1.7130
 2075TIP3    H227641   2.220   1.807  15.286  0.0623  0.0253 -0.1525
 2076TIP3   OH227642   1.062   3.288  15.774  0.1838 -0.2587 -0.0833
 2076TIP3    H127643   1.022   3.318  15.856 -0.9550 -0.2629 -0.6211
 2076TIP3    H227644   1.003   3.319  15.705  0.7745 -0.8226 -0.8653
 2077TIP3   OH227645   0.313   6.704  15.242  0.0931 -0.8778 -0.3576
 2077TIP3    H127646   0.241   6.695  15.304 -0.5067 -1.2761 -1.0979
 2077TIP3    H227647   0.392   6.699  15.296 -0.4254  0.3678  0.5650
 2078TIP3   OH227648   0.689   6.608   0.341 -0.2653 -0.5729  0.2844
 2078TIP3    H127649   0.646   6.557   0.272  0.7406 -2.6227  1.1052
 2078TIP3    H227650   0.620   6.626   0.405 -0.8559  0.0368 -0.5022
 2079TIP3   OH227651   0.459   3.808   2.807  0.0862 -0.0149 -0.0572
 2079TIP3    H127652   0.427   3.719   2.794 -1.1683  0.3906  0.1238
 2079TIP3    H227653   0.514   3.826   2.731 -0.7519 -0.4668 -0.7785
 2080TIP3   OH227654   1.919   1.842  15.627  0.0450  0.0434 -0.2352
 2080TIP3    H127655   1.835   1.815  15.663 -0.2622 -1.0153 -1.6365
 2080TIP3    H227656   1.905   1.932  15.598 -1.0968 -0.5446 -1.7067
 2081TIP3   OH227657   0.971   3.805  14.077  0.2352 -0.3884 -0.3566
 2081TIP3    H127658   0.884   3.784  14.111 -0.1406 -0.5556 -1.3751
 2081TIP3    H227659   1.012   3.857  14.146 -0.5955 -0.4727  0.2178
 2082TIP3   OH227660   1.695   6.592  11.272 -0.2732 -0.3330 -0.2632
 2082TIP3    H127661   1.672   6.504  11.300 -0.3193 -0.4392 -0.6242
 2082TIP3    H227662   1.695   6.588  11.176  0.6793 -0.1863 -0.2792
 2083TIP3   OH227663   6.578   3.917   4.348 -0.7244 -0.2893 -0.2910
 2083TIP3    H127664   6.670   3.913   4.320 -1.0456 -1.5207 -1.2658
 2083TIP3    H227665   6.582   3.949   4.438  0.4763  2.2039 -1.1346
 2084TIP3   OH227666   0.489   5.992  16.159  0.0737 -0.0238 -0.0918
 2084TIP3    H127667   0.471   6.056  16.090 -0.5111  2.0618  1.8636
 2084TIP3    H227668   0.404   5.951  16.176 -0.9844  2.7879  2.3974
 2085TIP3   OH227669   0.063   4.168  16.160 -0.2667  0.5998 -0.2790
 2085TIP3    H127670   0.156   4.189  16.164 -0.2773  1.4447 -2.7934
 2085TIP3    H227671   0.057   4.098  16.095 -1.2658 -0.5874  1.0359
 2086TIP3   OH227672   4.073   6.051  16.090  0.2313  0.6577 -0.3158
 2086TIP3    H127673   4.080   6.129  16.034 -0.3990  0.1451 -1.1273
 2086TIP3    H227674   4.061   5.978  16.029 -1.0815  0.1432  0.5097
 2087TIP3   OH227675   1.609   2.987  13.122 -0.4825  0.0182  0.6114
 2087TIP3    H127676   1.638   3.078  13.117  0.4468 -0.1866  1.8704
 2087TIP3    H227677   1.668   2.939  13.063 -0.5635  0.1284  0.4387
 2088TIP3   OH227678   3.082   4.951  14.832  0.4487 -0.6236 -0.0883
 2088TIP3    H127679   3.145   4.993  14.890 -0.6851 -0.8246  1.3445
 2088TIP3    H227680   3.104   4.858  14.835  0.2160 -0.6671  0.2316
 2089TIP3   OH227681   4.214   2.327  16.178  0.3369  0.0037 -0.7011
 2089TIP3    H127682   4.196   2.398  16.116  1.2299  1.5371  0.6839
 2089TIP3    H227683   4.152   2.342  16.250  1.8797  0.6757  0.5495
 2090TIP3   OH227684   4.499   0.920   5.014 -0.0368 -0.0336  0.0320
 2090TIP3    H127685   4.557   0.976   4.961 -0.2933  0.3481  0.1493
 2090TIP3    H227686   4.423   0.905   4.959  0.5175 -1.2068 -0.4351
 2091TIP3   OH227687   6.032   0.234   3.153 -0.0235  0.3554 -0.1064
 2091TIP3    H127688   6.111   0.181   3.143  0.4085  1.1285 -0.9147
 2091TIP3    H227689   6.013   0.266   3.065 -0.0602  1.8245  0.4054
 2092TIP3   OH227690   4.162   4.273   2.852  0.0894  0.1036 -0.0068
 2092TIP3    H127691   4.187   4.365   2.865  0.2193  0.2543 -1.2458
 2092TIP3    H227692   4.240   4.223   2.878  1.0662  0.4871 -1.9814
 2093TIP3   OH227693   3.944   6.645   4.982 -0.3909  0.2664 -0.1713
 2093TIP3    H127694   3.943   6.733   5.021  1.0431 -0.1175  0.8391
 2093TIP3    H227695   3.873   6.599   5.026  0.2462  0.2931  0.9226
 2094TIP3   OH227696   6.221   0.846   2.453 -0.9764  0.1041 -0.1269
 2094TIP3    H127697   6.268   0.811   2.377 -1.3768  1.2666 -0.9476
 2094TIP3    H227698   6.244   0.939   2.454 -4.0719  1.0129 -1.2877
 2095TIP3   OH227699   3.716   0.816  13.534  0.1159 -0.0620 -0.2468
 2095TIP3    H127700   3.653   0.807  13.462  0.7279  2.5775 -1.2166
 2095TIP3    H227701   3.664   0.851  13.607 -0.0041 -0.2223 -0.2545
 2096TIP3   OH227702   4.113   2.262  16.764  0.1542 -0.0263  0.5832
 2096TIP3    H127703   4.105   2.355  16.787  0.9119 -0.2954  1.9789
 2096TIP3    H227704   4.196   2.257  16.716 -0.3287  0.1501 -0.2996
 2097TIP3   OH227705   0.431   0.841  15.671 -0.4205  0.7671 -0.1896
 2097TIP3    H127706   0.381   0.822  15.592  0.0662 -0.1485 -0.2916
 2097TIP3    H227707   0.518   0.865  15.638 -0.4863  1.3121  0.0290
 2098TIP3   OH227708   3.098   3.197  14.240  0.1662 -0.1219  0.0286
 2098TIP3    H127709   3.155   3.142  14.185 -0.0786  0.6126 -1.0049
 2098TIP3    H227710   3.151   3.217  14.317  0.5424 -1.1419  0.0548
 2099TIP3   OH227711   0.175   1.711   5.747  0.2728  0.0462 -0.6353
 2099TIP3    H127712   0.147   1.802   5.756  1.6068  0.5577 -1.3905
 2099TIP3    H227713   0.155   1.688   5.657 -0.3288 -0.5262 -0.3660
 2100TIP3   OH227714   6.781   2.551   6.358  0.3719 -0.1270 -0.1371
 2100TIP3    H127715   6.755   2.598   6.438  0.5583  0.7615 -0.5809
 2100TIP3    H227716   6.784   2.619   6.291  1.0016 -0.7249 -0.7273
 2101TIP3   OH227717   0.063   0.396  13.834 -0.2778  0.4230  0.3867
 2101TIP3    H127718  -0.010   0.454  13.857 -0.8265 -0.4068  0.7915
 2101TIP3    H227719   0.026   0.308  13.839  0.4367  0.0427 -0.5900
 2102TIP3   OH227720   6.719   1.389  16.732  0.0038 -0.5884 -0.3023
 2102TIP3    H127721   6.788   1.337  16.691 -0.3570  0.1158 -1.8674
 2102TIP3    H227722   6.699   1.458  16.668  0.2358  1.2931  1.5410
 2103TIP3   OH227723   1.411   6.646  15.739  0.1756 -0.3939  0.2393
 2103TIP3    H127724   1.390   6.567  15.689 -0.2582  0.0805 -0.3483
 2103TIP3    H227725   1.332   6.664  15.790  0.0858 -0.0441 -0.0242
 2104TIP3   OH227726   2.330   4.698  16.043  0.4462  0.1962  0.0667
 2104TIP3    H127727   2.273   4.759  16.089  1.6689  2.0077 -0.7291
 2104TIP3    H227728   2.279   4.669  15.968  0.1487  0.9320 -0.0248
 2105TIP3   OH227729   5.305   2.002  14.541 -0.2570 -0.1635  0.1751
 2105TIP3    H127730   5.236   1.958  14.492  0.2861  0.5088 -1.2676
 2105TIP3    H227731   5.375   1.938  14.547 -0.0848 -0.0456 -0.5050
 2106TIP3   OH227732   4.748   0.739   3.475  0.2121 -0.0188  0.0699
 2106TIP3    H127733   4.685   0.703   3.413  0.8023 -3.1892  1.1094
 2106TIP3    H227734   4.703   0.738   3.559  0.4695  1.1510  0.2305
 2107TIP3   OH227735   4.464   2.752  14.096  0.0230  0.6743  0.2175
 2107TIP3    H127736   4.505   2.770  14.181  0.1736  0.8839  0.1042
 2107TIP3    H227737   4.444   2.839  14.061 -0.7870  0.5663  0.3976
 2108TIP3   OH227738   2.111   4.565  11.642  0.1676 -0.1702  0.0091
 2108TIP3    H127739   2.079   4.547  11.554 -1.2575  1.0956  0.2376
 2108TIP3    H227740   2.170   4.640  11.631  0.0031 -0.0224  0.1356
 2109TIP3   OH227741   3.298   1.639  14.939  0.6208  0.5834  0.2234
 2109TIP3    H127742   3.232   1.571  14.925 -0.8737  1.7425  1.2890
 2109TIP3    H227743   3.377   1.606  14.896 -0.1531 -1.6408  0.4143
 2110TIP3   OH227744   1.793   1.133  17.134 -0.1058  0.3121  0.1008
 2110TIP3    H127745   1.762   1.174  17.053 -0.2890 -0.2114 -0.0951
 2110TIP3    H227746   1.735   1.058  17.147  0.8074 -0.4358 -0.0523
 2111TIP3   OH227747   0.487   3.787  11.134 -0.1156  0.9418 -0.2085
 2111TIP3    H127748   0.515   3.821  11.049  0.2237 -1.1538 -0.9791
 2111TIP3    H227749   0.569   3.764  11.178 -0.3504  0.9534  0.2362
 2112TIP3   OH227750   3.764   0.947  15.410 -0.1179  0.1042  0.4412
 2112TIP3    H127751   3.735   1.032  15.375 -0.5620 -0.1863  0.0920
 2112TIP3    H227752   3.839   0.923  15.355 -0.7323 -0.2875 -0.2413
 2113TIP3   OH227753   6.623   3.488  11.829 -0.2856  0.3659  0.1692
 2113TIP3    H127754   6.543   3.528  11.796  0.4336  0.7756 -1.1374
 2113TIP3    H227755   6.690   3.554  11.817  0.2110  0.1533  1.5711
 2114TIP3   OH227756   1.400   2.674   1.868  0.3396  0.0092 -0.0810
 2114TIP3    H127757   1.494   2.659   1.867  0.1884 -1.2183 -2.3631
 2114TIP3    H227758   1.365   2.603   1.921  0.5615 -0.9889 -1.2173
 2115TIP3   OH227759   1.013   6.177   3.061 -0.0244 -0.5781 -0.1277
 2115TIP3    H127760   1.027   6.264   3.023  0.7070 -0.4823  0.3509
 2115TIP3    H227761   1.051   6.116   2.998  0.3282 -0.4872 -0.0001
 2116TIP3   OH227762   5.343   0.074   3.655  0.0858  0.0224  0.4513
 2116TIP3    H127763   5.275   0.139   3.634 -0.7860 -0.9653  0.1127
 2116TIP3    H227764   5.329   0.004   3.591  2.6757  0.6254 -0.9347
 2117TIP3   OH227765   1.528   5.044   3.322 -0.3515  1.0784  0.2564
 2117TIP3    H127766   1.438   5.077   3.324 -0.0335  2.4196 -2.6667
 2117TIP3    H227767   1.529   4.982   3.249  0.7802 -0.1026  1.2233
 2118TIP3   OH227768   6.677   4.303   3.061 -0.0207 -0.1821  0.3966
 2118TIP3    H127769   6.667   4.381   3.116  0.1825  0.2790 -0.2150
 2118TIP3    H227770   6.763   4.314   3.020  0.1066 -0.8449  0.4828
 2119TIP3   OH227771   5.695   2.663   0.950  0.4478 -0.0204 -0.0795
 2119TIP3    H127772   5.618   2.665   1.007 -0.2352  1.4774 -0.9988
 2119TIP3    H227773   5.686   2.580   0.902 -0.1979 -0.2055  0.3441
 2120TIP3   OH227774   1.806   0.038   3.956 -0.0993  0.1898  0.4979
 2120TIP3    H127775   1.724   0.022   4.002  1.5495 -4.1268  2.4792
 2120TIP3    H227776   1.853   0.100   4.013 -0.8588  0.4436  0.8588
 2121TIP3   OH227777   6.250   1.488   5.332 -0.8066 -0.0592  0.2321
 2121TIP3    H127778   6.204   1.481   5.249 -1.0609  0.8285  0.2845
 2121TIP3    H227779   6.185   1.463   5.398 -0.3719 -1.5483  0.1297
 2122TIP3   OH227780   4.885   6.690   3.507  0.0797  0.9505  0.0184
 2122TIP3    H127781   4.900   6.600   3.536 -0.3289  0.0140 -2.4499
 2122TIP3    H227782   4.798   6.712   3.541 -0.1606  0.1275 -0.0560
 2123TIP3   OH227783   1.278   3.091  16.275 -0.0801  0.3607  0.0816
 2123TIP3    H127784   1.275   3.031  16.350  0.1588 -2.5265 -2.0333
 2123TIP3    H227785   1.370   3.092  16.249  0.3466  3.4906  1.2928
 2124TIP3   OH227786   6.189   3.447  17.024  0.2302  0.3283 -0.2069
 2124TIP3    H127787   6.219   3.528  17.065  1.2553 -0.7086  1.2219
 2124TIP3    H227788   6.237   3.378  17.070 -0.6761 -1.1018 -1.3087
 2125TIP3   OH227789   6.387   2.947  11.172 -0.1039  0.0628  0.9064
 2125TIP3    H127790   6.326   2.971  11.242 -0.1496 -1.4673  1.4216
 2125TIP3    H227791   6.415   3.031  11.135 -1.3807  0.8379  1.6354
 2126TIP3   OH227792   0.528   2.476  12.879 -0.3901 -0.1549 -0.3000
 2126TIP3    H127793   0.610   2.511  12.913 -0.1789  1.4339 -2.2731
 2126TIP3    H227794   0.545   2.458  12.786 -1.7560 -1.5760 -0.3343
 2127TIP3   OH227795   6.376   6.498  12.290  0.8069  0.1237 -0.2792
 2127TIP3    H127796   6.327   6.532  12.366  0.0425 -1.7139  0.1083
 2127TIP3    H227797   6.458   6.547  12.290  0.2180  1.1701  0.8709
 2128TIP3   OH227798   0.907   2.365  15.109 -0.5995  0.3439 -0.8218
 2128TIP3    H127799   0.862   2.323  15.182 -0.2799 -0.9916 -1.3712
 2128TIP3    H227800   0.965   2.430  15.151 -0.2374 -0.5752  0.1382
 2129TIP3   OH227801   2.994   0.477  11.297 -0.2105 -0.4531 -0.2230
 2129TIP3    H127802   2.903   0.480  11.270 -0.4154 -0.6253  0.4075
 2129TIP3    H227803   3.036   0.415  11.237 -1.0044 -2.0490  0.7916
 2130TIP3   OH227804   3.904   4.731   0.423  0.2217  0.5605  0.6166
 2130TIP3    H127805   3.934   4.795   0.488 -1.3521  0.7216  1.2220
 2130TIP3    H227806   3.869   4.785   0.352  3.9804  0.4707 -1.5387
 2131TIP3   OH227807   1.910   4.287   2.233 -0.2339  0.1876  0.0489
 2131TIP3    H127808   1.914   4.329   2.319  0.3276  0.3470 -0.0567
 2131TIP3    H227809   1.889   4.195   2.253  3.1366 -0.5975  0.6114
 2132TIP3   OH227810   5.246   6.700  16.735  0.1397 -0.1778  0.0070
 2132TIP3    H127811   5.233   6.783  16.689  0.9469 -0.6469 -1.1178
 2132TIP3    H227812   5.186   6.704  16.810 -1.7621  0.3361 -1.4575
 2133TIP3   OH227813   5.869   6.274   0.047  1.4388  0.3703  0.0236
 2133TIP3    H127814   5.921   6.248   0.124  0.4040 -0.3426  0.5144
 2133TIP3    H227815   5.863   6.369   0.054  0.1655  0.2192  1.6620
 2134TIP3   OH227816   4.082   2.827  10.585 -0.0550 -0.8224  0.3523
 2134TIP3    H127817   4.025   2.814  10.509 -1.3232  2.7242  0.5326
 2134TIP3    H227818   4.025   2.812  10.661 -0.6356  1.8981  0.5313
 2135TIP3   OH227819   6.701   4.291  12.745  0.0968 -0.5883  0.9557
 2135TIP3    H127820   6.610   4.318  12.733 -0.4590 -2.5783  0.1889
 2135TIP3    H227821   6.702   4.251  12.832 -0.3781 -2.5938  0.1038
 2136TIP3   OH227822   3.593   3.462   4.091 -0.4750 -0.7110  0.5250
 2136TIP3    H127823   3.629   3.379   4.058  0.7277 -0.2376  0.5937
 2136TIP3    H227824   3.624   3.528   4.029 -0.6763 -0.1915  0.9655
 2137TIP3   OH227825   2.154   2.183   2.183 -0.1992 -0.1435  0.3940
 2137TIP3    H127826   2.194   2.125   2.118  1.1175  1.3866 -0.2493
 2137TIP3    H227827   2.204   2.265   2.175 -1.5299  0.8489  1.7299
 2138TIP3   OH227828   4.757   3.926   3.864  0.4574 -0.1937 -0.1654
 2138TIP3    H127829   4.781   3.869   3.938  0.7028 -0.9936 -0.8457
 2138TIP3    H227830   4.829   3.988   3.857  0.3179  0.0435  0.4124
 2139TIP3   OH227831   0.131   1.111   3.807 -0.1556  0.6894 -0.0136
 2139TIP3    H127832   0.043   1.150   3.807 -0.7287 -0.5268 -0.5893
 2139TIP3    H227833   0.121   1.032   3.753  0.9142 -0.3019  1.1944
 2140TIP3   OH227834   1.072   6.506   5.474 -0.9714  0.7272  0.2906
 2140TIP3    H127835   1.076   6.531   5.382  0.5662  0.5441  0.2779
 2140TIP3    H227836   0.988   6.462   5.484 -1.4844  1.3950 -0.8436
 2141TIP3   OH227837   1.713   1.409   5.859  1.0677  0.1890  0.3330
 2141TIP3    H127838   1.670   1.487   5.823  1.0264  0.4832  1.0112
 2141TIP3    H227839   1.644   1.363   5.907  0.6952 -1.1029 -1.3483
 2142TIP3   OH227840   4.616   6.200   0.420  0.1240  0.4754  0.3300
 2142TIP3    H127841   4.678   6.228   0.487  2.1810  0.6186 -1.5015
 2142TIP3    H227842   4.667   6.201   0.339 -1.5698 -2.0138 -0.8870
 2143TIP3   OH227843   2.250   6.374   0.483 -0.3879 -0.0887  0.8432
 2143TIP3    H127844   2.255   6.468   0.468 -1.9211 -0.2932 -1.2738
 2143TIP3    H227845   2.165   6.360   0.523 -0.5825 -0.6806  0.2328
 2144TIP3   OH227846   4.757   0.440   5.217  0.1787 -0.0481 -0.2101
 2144TIP3    H127847   4.811   0.377   5.265  0.0653 -0.0399 -0.0700
 2144TIP3    H227848   4.709   0.387   5.153  1.0730  0.0716 -0.9957
 2145TIP3   OH227849   4.387   1.857  13.435  0.2506  0.0734 -0.0799
 2145TIP3    H127850   4.350   1.868  13.348 -1.0579  1.3923  0.6111
 2145TIP3    H227851   4.426   1.942  13.456  0.4748 -0.2002  0.6420
 2146TIP3   OH227852   1.652   1.813   5.833  0.1603  0.4653  0.4298
 2146TIP3    H127853   1.651   1.863   5.751  1.9586 -0.4953 -0.2477
 2146TIP3    H227854   1.650   1.721   5.804  1.0353  0.1147  1.4497
 2147TIP3   OH227855   6.085   4.146  11.678 -0.5383 -0.0623 -0.1486
 2147TIP3    H127856   5.997   4.115  11.658 -0.9686  0.4790  0.7858
 2147TIP3    H227857   6.138   4.067  11.686 -1.1452 -0.4411  0.1741
 2148TIP3   OH227858   2.192   0.641  12.143  0.7679 -0.6053  0.4419
 2148TIP3    H127859   2.124   0.660  12.078  1.3606  0.3279  0.0687
 2148TIP3    H227860   2.267   0.693  12.114  2.6063 -3.6343 -0.6817
 2149TIP3   OH227861   2.529   0.843   0.813  0.2203  0.2601  0.2293
 2149TIP3    H127862   2.439   0.813   0.826  0.5574 -1.8110 -1.6663
 2149TIP3    H227863   2.542   0.841   0.718  1.7002  2.3657  0.3117
 2150TIP3   OH227864   1.398   0.114  16.289 -0.3050  0.2779 -0.2702
 2150TIP3    H127865   1.489   0.114  16.260 -0.5020  1.5449 -0.9609
 2150TIP3    H227866   1.360   0.035  16.251  1.1415 -1.8466  2.2949
 2151TIP3   OH227867   6.134   4.087  13.244  0.3808  0.0901  0.7480
 2151TIP3    H127868   6.050   4.043  13.251 -0.5083  1.7737  1.1504
 2151TIP3    H227869   6.193   4.036  13.300 -0.9413  0.1803  2.2816
 2152TIP3   OH227870   4.207   2.660  17.216  0.0104  0.2139 -0.1701
 2152TIP3    H127871   4.133   2.628  17.164  0.1293 -1.4830  0.6344
 2152TIP3    H227872   4.180   2.647  17.307  0.2349  2.1293  0.2133
 2153TIP3   OH227873   5.462   4.592   2.072  0.3358  0.2652 -0.0897
 2153TIP3    H127874   5.514   4.524   2.113  0.4974 -0.8336 -2.0457
 2153TIP3    H227875   5.486   4.672   2.119  1.7110 -0.6588  0.8359
 2154TIP3   OH227876   6.151   0.299  13.402 -0.1363 -0.3191  0.0749
 2154TIP3    H127877   6.092   0.243  13.351 -0.9827  0.5342  0.0859
 2154TIP3    H227878   6.203   0.238  13.454 -1.8602 -1.0810  0.9870
 2155TIP3   OH227879   4.915   5.928  12.356 -0.8350 -0.0459 -0.1457
 2155TIP3    H127880   4.987   5.931  12.294  0.6946  1.1075  1.5849
 2155TIP3    H227881   4.873   6.014  12.348 -1.4097 -0.3463 -0.4322
 2156TIP3   OH227882   2.256   4.067   4.473  0.4326  0.7821 -0.3408
 2156TIP3    H127883   2.226   3.991   4.523  1.1752  0.2508 -0.6757
 2156TIP3    H227884   2.211   4.142   4.513  0.2322  0.2559  0.4472
 2157TIP3   OH227885   0.967   5.215   2.305  0.2373 -0.5434 -1.0932
 2157TIP3    H127886   0.989   5.238   2.215  1.3704  0.7414 -0.5190
 2157TIP3    H227887   0.936   5.296   2.344  0.1718 -0.9823 -0.2077
 2158TIP3   OH227888   1.165   4.329   2.022  0.0223  0.5136 -0.8195
 2158TIP3    H127889   1.119   4.247   2.007  0.3628  0.5778 -2.3816
 2158TIP3    H227890   1.154   4.346   2.116 -1.1815 -0.6214 -0.7269
 2159TIP3   OH227891   3.755   3.972  12.830  0.0678  0.1236 -0.2449
 2159TIP3    H127892   3.679   3.916  12.843  0.3456 -0.3304 -0.5099
 2159TIP3    H227893   3.790   3.944  12.745  0.3886  0.4883 -0.2349
 2160TIP3   OH227894   5.182   2.753  16.376 -0.3363  0.1114 -0.5318
 2160TIP3    H127895   5.136   2.737  16.459  2.1391  0.5691  1.0376
 2160TIP3    H227896   5.205   2.846  16.379  1.1028 -0.1993 -0.9631
 2161TIP3   OH227897   1.695   0.329   3.788 -0.7035  0.8309  0.3964
 2161TIP3    H127898   1.785   0.302   3.771 -1.3909 -2.7265  1.4717
 2161TIP3    H227899   1.703   0.411   3.837  1.8915  0.9096 -0.0173
 2162TIP3   OH227900   1.198   2.722   3.761  0.0957 -0.4721  0.2378
 2162TIP3    H127901   1.215   2.643   3.711 -2.0565  0.1137 -1.5944
 2162TIP3    H227902   1.249   2.790   3.716  0.0453 -0.3798  0.3201
 2163TIP3   OH227903   6.641   2.875  10.752 -0.7042 -0.0612 -0.0692
 2163TIP3    H127904   6.725   2.857  10.793  0.1755  0.6721 -1.4804
 2163TIP3    H227905   6.646   2.967  10.727 -0.8958 -0.6347 -2.4333
 2164TIP3   OH227906   3.344   2.273   3.146 -0.0782  0.2890 -0.1356
 2164TIP3    H127907   3.405   2.202   3.164  0.2314  0.6627  0.3233
 2164TIP3    H227908   3.267   2.252   3.199  0.0621  0.3571  0.0982
 2165TIP3   OH227909   4.382   4.854  11.632 -0.0831  0.5330 -0.0861
 2165TIP3    H127910   4.454   4.866  11.570  0.1776 -0.2568  0.0563
 2165TIP3    H227911   4.399   4.769  11.673 -2.8522 -1.3356 -2.3923
 2166TIP3   OH227912   3.601   0.250   4.868  0.1181  0.1059 -0.6596
 2166TIP3    H127913   3.631   0.335   4.898 -1.0270  0.6540 -1.0152
 2166TIP3    H227914   3.582   0.262   4.775 -1.8976  0.0101 -0.2985
 2167TIP3   OH227915   3.289   0.757  13.163  0.3658 -0.0392 -0.1492
 2167TIP3    H127916   3.224   0.696  13.199 -0.1375  0.0136 -0.9513
 2167TIP3    H227917   3.237   0.828  13.126  0.9028  0.2536 -0.3425
 2168TIP3   OH227918   0.891   1.122   3.891 -0.5408  0.6058 -0.1358
 2168TIP3    H127919   0.871   1.208   3.928 -0.3598  1.0350 -1.0131
 2168TIP3    H227920   0.806   1.086   3.868 -0.6298  0.4762  0.3894
 2169TIP3   OH227921   0.467   6.097  11.607  0.3071 -0.1274  0.4839
 2169TIP3    H127922   0.489   6.171  11.551 -0.2406 -2.0219 -2.5162
 2169TIP3    H227923   0.551   6.058  11.630  0.5276  0.4679  0.7014
 2170TIP3   OH227924   0.253   6.697  11.021  0.2907 -0.8899 -0.1627
 2170TIP3    H127925   0.171   6.695  11.071  0.2552 -2.3544 -0.2549
 2170TIP3    H227926   0.315   6.649  11.075  0.8683 -0.5342 -0.5019
 2171TIP3   OH227927   6.035   6.191   0.275 -0.5217 -0.3628  0.4510
 2171TIP3    H127928   6.036   6.270   0.330 -1.4150  1.7469 -2.3247
 2171TIP3    H227929   6.127   6.167   0.265 -0.2094  0.5517  1.0409
 2172TIP3   OH227930   1.020   0.018   3.155  0.2398  0.4840 -0.1182
 2172TIP3    H127931   0.996  -0.028   3.236  1.4108  0.8770  0.4623
 2172TIP3    H227932   1.103   0.061   3.175 -0.6154  2.5567 -0.7596
 2173TIP3   OH227933   3.230   0.474  12.085 -0.1128  0.5139 -0.1077
 2173TIP3    H127934   3.169   0.450  12.154 -1.3060  0.2273 -1.2141
 2173TIP3    H227935   3.293   0.402  12.080 -0.8409 -0.1181 -0.2313
 2174TIP3   OH227936   3.865   5.973  14.875  0.0443 -0.3195 -0.1726
 2174TIP3    H127937   3.927   5.950  14.806  0.6603 -0.5186  0.4316
 2174TIP3    H227938   3.908   6.043  14.923  0.1952 -1.0459  0.7850
 2175TIP3   OH227939   2.163   2.650   0.376 -0.5157 -0.0558  0.2813
 2175TIP3    H127940   2.125   2.572   0.336  0.8792  0.2010 -1.6917
 2175TIP3    H227941   2.096   2.717   0.365  0.1769  0.2962 -2.7894
 2176TIP3   OH227942   2.717   5.783  14.053  0.1034 -0.3192 -0.2166
 2176TIP3    H127943   2.724   5.824  14.139 -0.6484 -0.0329 -0.2830
 2176TIP3    H227944   2.664   5.704  14.069 -1.0357  0.3449 -0.6037
 2177TIP3   OH227945   3.496   4.097   5.243  0.3831  0.2022 -0.3641
 2177TIP3    H127946   3.538   4.182   5.234  0.3429  0.4633  1.5651
 2177TIP3    H227947   3.548   4.051   5.309 -0.8312 -0.4362  0.1927
 2178TIP3   OH227948   1.105   3.506  13.773 -0.6240  0.0792  0.3361
 2178TIP3    H127949   1.172   3.510  13.705  0.3587  2.7957  1.3140
 2178TIP3    H227950   1.023   3.496  13.725  0.2885 -1.8981 -0.9664
 2179TIP3   OH227951   0.700   2.711   2.087  0.4749  0.1980 -0.1581
 2179TIP3    H127952   0.731   2.668   2.166  1.3183 -1.3854 -1.2893
 2179TIP3    H227953   0.720   2.803   2.100 -2.6259  0.6385  2.9395
 2180TIP3   OH227954   1.433   0.808   4.609 -0.6124 -0.2492 -0.3424
 2180TIP3    H127955   1.343   0.775   4.606 -0.5391 -0.4331 -0.5225
 2180TIP3    H227956   1.488   0.731   4.597 -0.4273 -0.1444 -0.1853
 2181TIP3   OH227957   2.622   6.042  13.762 -0.6925 -0.0219  0.0226
 2181TIP3    H127958   2.663   5.960  13.733  2.2196  0.5191  2.2218
 2181TIP3    H227959   2.674   6.111  13.720 -1.9383  0.7629 -0.3041
 2182TIP3   OH227960   3.940   0.943   5.499 -0.0230 -0.1249 -0.5079
 2182TIP3    H127961   3.988   0.944   5.582 -1.3075  1.1480  0.2804
 2182TIP3    H227962   3.985   0.878   5.445  1.7036  0.0315  0.6699
 2183TIP3   OH227963   2.252   1.518  16.284  0.2906 -0.5345 -0.0582
 2183TIP3    H127964   2.248   1.461  16.361 -0.1529 -1.0477 -0.4593
 2183TIP3    H227965   2.178   1.578  16.295  0.1683 -0.6713 -0.1352
 2184TIP3   OH227966   0.293   4.475  12.367 -0.1546  0.0981 -0.0974
 2184TIP3    H127967   0.294   4.384  12.339 -0.6455 -0.7533  2.3895
 2184TIP3    H227968   0.203   4.504  12.351  0.1556  0.3868 -1.4590
 2185TIP3   OH227969   2.429   4.376  12.597 -0.4207  0.0286 -0.0768
 2185TIP3    H127970   2.490   4.395  12.526 -1.0218  0.1117 -0.5790
 2185TIP3    H227971   2.434   4.453  12.654  1.0963 -0.6242  0.7387
 2186TIP3   OH227972   2.885   5.502  15.079 -0.0285 -0.1991 -0.2352
 2186TIP3    H127973   2.798   5.524  15.114 -0.8226 -0.2384 -2.0532
 2186TIP3    H227974   2.892   5.556  15.000  1.5467 -0.3296 -0.1992
 2187TIP3   OH227975   4.579   2.541   0.452 -0.4930  0.0092  0.0535
 2187TIP3    H127976   4.525   2.463   0.445 -0.8844  0.4034 -2.0142
 2187TIP3    H227977   4.521   2.613   0.428  0.0947  0.8362  1.0534
 2188TIP3   OH227978   0.062   3.569   5.460 -0.2866 -0.1822  0.0647
 2188TIP3    H127979   0.051   3.572   5.365  0.8159 -3.2959 -0.2942
 2188TIP3    H227980  -0.005   3.507   5.490  0.8159 -1.0059  0.9505
 2189TIP3   OH227981   2.478   5.500   3.826 -0.1051  0.0712 -0.5990
 2189TIP3    H127982   2.441   5.574   3.875  1.4756  0.1979  0.4752
 2189TIP3    H227983   2.421   5.427   3.847 -0.5203  0.5464 -0.0178
 2190TIP3   OH227984   3.006   5.092   1.116 -0.5344  0.1979  0.0638
 2190TIP3    H127985   2.966   5.166   1.069 -0.2224 -1.4862 -3.1735
 2190TIP3    H227986   3.055   5.132   1.187 -3.6699  2.7418  1.0284
 2191TIP3   OH227987   3.054   1.929   2.089 -0.1096  0.9794  0.0200
 2191TIP3    H127988   3.033   2.008   2.039  1.8330 -0.3109 -3.1535
 2191TIP3    H227989   3.141   1.947   2.127  0.3356  0.4119 -0.7083
 2192TIP3   OH227990   5.203   0.268   1.604 -0.0208  0.3298  0.0956
 2192TIP3    H127991   5.127   0.212   1.622  0.8998 -1.5037 -1.2670
 2192TIP3    H227992   5.175   0.323   1.531 -0.5286  0.7475  0.6006
 2193TIP3   OH227993   5.340   5.064   2.403 -0.1896 -0.2776  0.0453
 2193TIP3    H127994   5.391   5.072   2.322  0.0412 -0.3242  0.1833
 2193TIP3    H227995   5.259   5.112   2.386 -0.2468 -0.4897 -0.2971
 2194TIP3   OH227996   4.298   6.639  17.106 -0.1643  0.1491  0.5317
 2194TIP3    H127997   4.329   6.549  17.092  1.1049  0.7397 -0.7667
 2194TIP3    H227998   4.300   6.651  17.201 -0.8415 -1.3469  0.7613
 2195TIP3   OH227999   3.626   2.184  11.918 -0.5831 -0.8463 -0.6828
 2195TIP3    H128000   3.584   2.253  11.866  0.5244  0.5977  0.2836
 2195TIP3    H228001   3.672   2.131  11.853  0.9279  1.0327 -1.2273
 2196TIP3   OH228002   0.179   0.035  13.058 -0.3507  0.2526  0.5429
 2196TIP3    H128003   0.198  -0.047  13.013 -1.2659  0.9422 -1.1959
 2196TIP3    H228004   0.203   0.019  13.149  0.1405 -1.7029  0.1029
 2197TIP3   OH228005   6.150   3.973   0.258 -0.5621  0.2862 -0.4213
 2197TIP3    H128006   6.066   3.950   0.296  0.6101 -1.1768  1.4626
 2197TIP3    H228007   6.193   4.027   0.325  0.7128 -0.5562 -0.5212
 2198TIP3   OH228008   0.805   5.524   6.063  0.2829  0.0275 -0.3717
 2198TIP3    H128009   0.812   5.440   6.108  1.1621 -0.6028 -1.5989
 2198TIP3    H228010   0.726   5.565   6.099  0.3725 -0.8943  0.9274
 2199TIP3   OH228011   0.289   6.411   0.123 -0.1150  0.2217  0.1917
 2199TIP3    H128012   0.229   6.443   0.056  0.3970 -0.8168 -0.8031
 2199TIP3    H228013   0.325   6.329   0.086  1.6523  0.6364  0.8781
 2200TIP3   OH228014   6.255   0.042  16.048 -0.2608  0.6182 -0.1050
 2200TIP3    H128015   6.331   0.032  15.990 -0.0821 -1.3196  0.3950
 2200TIP3    H228016   6.238   0.137  16.049 -0.3311  0.7397 -3.3683
 2201TIP3   OH228017   6.298   2.849   6.541 -0.5603  0.3103 -0.4921
 2201TIP3    H128018   6.365   2.917   6.545 -0.1314 -0.0422 -1.3663
 2201TIP3    H228019   6.342   2.775   6.499 -1.4971  0.0760 -1.1010
 2202TIP3   OH228020   2.289   6.643   5.253 -0.2563 -0.4134  0.9839
 2202TIP3    H128021   2.359   6.601   5.203 -0.0069 -0.6895  1.5704
 2202TIP3    H228022   2.210   6.597   5.226 -0.8087  1.9775 -2.2288
 2203TIP3   OH228023   5.850   3.390   3.795  0.6182  0.0376 -0.5911
 2203TIP3    H128024   5.878   3.303   3.823  1.9462  0.5803 -0.1712
 2203TIP3    H228025   5.855   3.444   3.874 -0.2062  0.5017 -0.8451
 2204TIP3   OH228026   5.186   3.127   3.092  0.3615  0.0648  0.3261
 2204TIP3    H128027   5.200   3.035   3.070  1.1697  0.1589  0.4197
 2204TIP3    H228028   5.101   3.128   3.136  0.1502 -0.5721 -0.0430
 2205TIP3   OH228029   6.684   4.856  12.876 -0.7545 -0.4473 -0.3398
 2205TIP3    H128030   6.657   4.930  12.822 -0.3144  0.0722  0.1386
 2205TIP3    H228031   6.700   4.785  12.814 -0.6986  0.0079 -0.8523
 2206TIP3   OH228032   4.910   5.017  14.287 -0.0992  0.2164 -0.0479
 2206TIP3    H128033   4.889   5.087  14.225 -0.9834 -1.4621 -1.7372
 2206TIP3    H228034   4.845   5.027  14.357 -0.1776  1.0820 -0.2324
 2207TIP3   OH228035   5.425   0.330   5.041  0.3239 -0.4536 -0.1900
 2207TIP3    H128036   5.482   0.259   5.012  0.9185 -0.1039  0.1198
 2207TIP3    H228037   5.451   0.346   5.132 -0.1926 -0.2173 -0.0815
 2208TIP3   OH228038   6.047   2.320   4.265 -0.0061 -0.5123 -0.1423
 2208TIP3    H128039   6.086   2.232   4.262 -1.8841 -1.4454  0.8838
 2208TIP3    H228040   5.997   2.321   4.347 -0.5859  1.2776 -0.4864
 2209TIP3   OH228041   1.325   5.027  15.349 -0.2098  0.3445  0.1542
 2209TIP3    H128042   1.287   5.020  15.261 -1.5859 -1.6798  0.8319
 2209TIP3    H228043   1.354   4.938  15.369 -0.0762  0.7386  1.8014
 2210TIP3   OH228044   0.027   2.220  12.184 -0.2789 -0.0114  0.0573
 2210TIP3    H128045   0.093   2.153  12.171 -0.6374 -0.0400 -1.7831
 2210TIP3    H228046  -0.009   2.237  12.097 -0.3184  2.4384  0.4744
 2211TIP3   OH228047   5.069   1.275  14.040 -0.4329 -0.0904 -0.3631
 2211TIP3    H128048   5.072   1.371  14.033  2.4416 -0.1367 -0.9958
 2211TIP3    H228049   5.038   1.246  13.954  0.6671  0.2778 -0.9118
 2212TIP3   OH228050   1.383   3.044  11.270 -0.3761 -0.2708  0.0112
 2212TIP3    H128051   1.326   2.968  11.280 -1.9390  0.7069 -0.9940
 2212TIP3    H228052   1.395   3.052  11.175  0.8234  0.0038  0.1726
 2213TIP3   OH228053   1.635   4.714  15.263 -0.3319  0.5836 -0.1677
 2213TIP3    H128054   1.579   4.737  15.188 -2.7502  0.4166  1.4725
 2213TIP3    H228055   1.576   4.672  15.325  2.2847 -2.5108  0.4538
 2214TIP3   OH228056   5.730   3.857  10.835 -0.1001  0.3295 -0.1340
 2214TIP3    H128057   5.776   3.775  10.817  0.7280  1.0533 -1.4668
 2214TIP3    H228058   5.799   3.923  10.836 -0.7320  1.0085  1.1275
 2215TIP3   OH228059   2.298   5.926  15.197 -0.5512  0.2038  0.6064
 2215TIP3    H128060   2.335   5.951  15.113  0.1267  0.7922  1.0701
 2215TIP3    H228061   2.208   5.959  15.195  0.1005  2.1192  0.9333
 2216TIP3   OH228062   3.701   6.066   4.484  0.4354 -0.6700  0.2179
 2216TIP3    H128063   3.792   6.056   4.512  0.3582  0.3089  0.8914
 2216TIP3    H228064   3.667   5.977   4.482  1.1761 -0.9817  0.7819
 2217TIP3   OH228065   1.500   0.579  13.521 -0.2351 -0.2553 -0.4153
 2217TIP3    H128066   1.527   0.645  13.457 -2.2068  0.1580 -0.8723
 2217TIP3    H228067   1.539   0.497  13.489  0.0652  0.2126 -1.2795
 2218TIP3   OH228068   5.123   3.922   2.017  0.3129 -0.1461  0.2643
 2218TIP3    H128069   5.066   3.854   2.052  1.2725 -1.0428  0.1318
 2218TIP3    H228070   5.077   3.955   1.940 -0.8290  0.3741  1.1312
 2219TIP3   OH228071   3.054   3.341   6.143  0.4129  0.1794 -0.8867
 2219TIP3    H128072   2.990   3.413   6.148  0.9409  0.5896  2.4744
 2219TIP3    H228073   3.009   3.267   6.185  1.5442 -0.0135  0.0089
 2220TIP3   OH228074   6.178   1.761   0.903 -0.1971 -0.2823 -0.4414
 2220TIP3    H128075   6.213   1.850   0.908  1.6741 -1.0503  2.0421
 2220TIP3    H228076   6.149   1.752   0.812  1.7599  2.0666 -1.4217
 2221TIP3   OH228077   0.021   3.894   4.882  0.4040  0.1016 -0.6306
 2221TIP3    H128078   0.016   3.985   4.854  0.0789  0.3125  0.0991
 2221TIP3    H228079   0.076   3.852   4.816  0.7959  0.8845 -0.8118
 2222TIP3   OH228080   0.448   5.562  15.509  0.0597  0.4799 -0.3162
 2222TIP3    H128081   0.460   5.471  15.535  1.4554  0.7538  0.0970
 2222TIP3    H228082   0.356   5.568  15.482 -0.0169 -1.0637 -0.4629
 2223TIP3   OH228083   4.142   3.454  16.015  0.4335 -0.0478 -0.4322
 2223TIP3    H128084   4.096   3.536  16.000  0.9085  0.3767  0.3801
 2223TIP3    H228085   4.234   3.479  16.028  0.5554 -0.6814  0.0023
 2224TIP3   OH228086   1.401   0.425  17.223  0.1120  0.4219  0.0463
 2224TIP3    H128087   1.315   0.468  17.216 -0.5622 -0.3653  2.3518
 2224TIP3    H228088   1.443   0.468  17.298  0.8661 -0.5677  0.2142
 2225TIP3   OH228089   6.462   1.253   5.541 -0.4818 -0.1089  0.0585
 2225TIP3    H128090   6.439   1.263   5.634  0.2175 -0.4027  0.2665
 2225TIP3    H228091   6.377   1.247   5.497 -0.8887 -2.4403  0.9563
 2226TIP3   OH228092   4.627   1.316  16.788 -0.2978  0.7272  0.0508
 2226TIP3    H128093   4.588   1.240  16.831  1.0260 -0.2058 -0.3090
 2226TIP3    H228094   4.613   1.300  16.694  1.9850 -0.3179 -0.1851
 2227TIP3   OH228095   6.308   2.675  11.452  0.1595  0.1562  0.3599
 2227TIP3    H128096   6.298   2.580  11.454 -0.0834  0.1674 -0.1070
 2227TIP3    H228097   6.344   2.694  11.365 -2.1774  0.6771 -0.5820
 2228TIP3   OH228098   0.573   5.352   2.420 -0.6148 -0.1191 -0.2253
 2228TIP3    H128099   0.605   5.263   2.411 -3.8526 -1.4720  0.4107
 2228TIP3    H228100   0.509   5.363   2.349 -0.1906  1.7992 -0.3921
 2229TIP3   OH228101   3.511   2.237   2.039  0.0320  0.7055 -0.1008
 2229TIP3    H128102   3.505   2.232   1.944  0.3468 -0.7485 -0.0682
 2229TIP3    H228103   3.448   2.306   2.064 -0.0244  1.1211 -1.3458
 2230TIP3   OH228104   6.259   1.080  11.029 -0.1563 -0.2349 -0.0474
 2230TIP3    H128105   6.209   1.000  11.014 -0.3546  0.0884 -1.1855
 2230TIP3    H228106   6.287   1.108  10.942  2.5038 -0.6916  0.5826
 2231TIP3   OH228107   6.408   2.132   3.378  0.0508 -0.1232  0.0755
 2231TIP3    H128108   6.501   2.114   3.365  0.1952  1.7051 -1.8996
 2231TIP3    H228109   6.405   2.211   3.431 -0.4300 -0.5089  0.6527
 2232TIP3   OH228110   4.135   3.719   1.671  0.1598  0.2505 -0.0334
 2232TIP3    H128111   4.062   3.687   1.725  0.5039 -0.3022  0.1142
 2232TIP3    H228112   4.119   3.681   1.585  0.3221  0.0530  0.0230
 2233TIP3   OH228113   1.536   5.803   0.345  0.2056  0.0607  0.0413
 2233TIP3    H128114   1.495   5.803   0.431  0.3976 -0.5652  0.1396
 2233TIP3    H228115   1.493   5.873   0.297  0.6073  0.9066  0.8901
 2234TIP3   OH228116   6.013   6.277  12.083 -0.8806 -0.0033  0.4097
 2234TIP3    H128117   5.978   6.350  12.032 -0.6420  0.2737  0.6374
 2234TIP3    H228118   5.968   6.282  12.167 -0.9217 -0.1638  0.3968
 2235TIP3   OH228119   1.917   4.250   5.277 -0.5999 -0.1763  0.5887
 2235TIP3    H128120   1.941   4.159   5.292 -2.0859 -0.9390 -1.2653
 2235TIP3    H228121   2.000   4.294   5.259  0.0082 -1.4593  0.1219
 2236TIP3   OH228122   3.597   0.444   2.963  0.0804  0.8494 -0.0048
 2236TIP3    H128123   3.672   0.497   2.990 -0.6737  1.5335  0.8268
 2236TIP3    H228124   3.620   0.411   2.876 -0.2168  4.1544 -1.4630
 2237TIP3   OH228125   5.352   5.780   4.358  0.3453  0.4502 -0.7015
 2237TIP3    H128126   5.284   5.848   4.355 -0.3269 -0.2181 -1.6212
 2237TIP3    H228127   5.405   5.802   4.434 -2.2023 -0.2197  1.4507
 2238TIP3   OH228128   0.065   5.299  14.640 -0.1949 -0.4615  0.0746
 2238TIP3    H128129   0.154   5.272  14.660 -0.0636 -0.2072 -0.1660
 2238TIP3    H228130   0.060   5.295  14.544  0.4447  2.2651 -0.1459
 2239TIP3   OH228131   3.619   6.096   1.991  0.6713 -0.9254  0.2120
 2239TIP3    H128132   3.661   6.070   1.909  0.5473 -1.3427  0.2778
 2239TIP3    H228133   3.690   6.099   2.054  0.8688  0.0037 -0.0440
 2240TIP3   OH228134   0.259   4.803  16.933 -0.0432  0.5249  0.7174
 2240TIP3    H128135   0.224   4.715  16.946  0.8464  0.1203  0.4528
 2240TIP3    H228136   0.191   4.848  16.882 -1.1707  0.4794  2.1030
 2241TIP3   OH228137   5.790   2.871   4.874  0.5474  0.0930  1.2737
 2241TIP3    H128138   5.839   2.952   4.862 -0.6224  0.8706  1.6285
 2241TIP3    H228139   5.703   2.899   4.901 -0.6360 -1.1704 -0.9276
 2242TIP3   OH228140   6.456   4.719   2.912  0.3089  0.2180  0.5087
 2242TIP3    H128141   6.364   4.742   2.894  0.0723 -0.0439  1.3192
 2242TIP3    H228142   6.450   4.641   2.966  1.0164  0.2628  0.6541
 2243TIP3   OH228143   3.694   4.708   3.586  0.5786  0.4920 -0.1639
 2243TIP3    H128144   3.660   4.769   3.521 -1.1231 -0.2517 -0.0322
 2243TIP3    H228145   3.694   4.623   3.541 -0.1489  0.0534  0.6355
 2244TIP3   OH228146   5.428   6.373   0.016  0.0046  0.2779 -0.6682
 2244TIP3    H128147   5.409   6.457  -0.027  1.5744  0.3457 -1.3083
 2244TIP3    H228148   5.342   6.332   0.027 -0.9444  2.4206  0.6836
 2245TIP3   OH228149   4.591   1.959   0.764 -0.4418 -0.5340 -0.3100
 2245TIP3    H128150   4.684   1.950   0.785 -0.2005  0.5650 -0.8326
 2245TIP3    H228151   4.550   1.885   0.808  0.2312  0.7043  2.7055
 2246TIP3   OH228152   1.540   6.160   4.558  0.1916 -0.3391 -0.7929
 2246TIP3    H128153   1.574   6.079   4.595 -0.0063  0.6264  1.6999
 2246TIP3    H228154   1.448   6.163   4.586  0.8495  1.9028  1.4828
 2247TIP3   OH228155   3.275   3.289  11.034 -0.0237  0.1414  0.0716
 2247TIP3    H128156   3.322   3.309  10.953  2.1760 -0.9970  0.9815
 2247TIP3    H228157   3.229   3.207  11.016  1.0743 -0.5207  0.1523
 2248TIP3   OH228158   1.300   1.618  11.082 -0.2331 -0.3332  0.4310
 2248TIP3    H128159   1.249   1.544  11.048  0.0882 -1.2637  1.9043
 2248TIP3    H228160   1.255   1.695  11.048 -1.1370 -1.1803 -0.3716
 2249TIP3   OH228161   1.477   6.026  11.434  0.1625 -0.1861 -0.5217
 2249TIP3    H128162   1.502   6.091  11.368  2.2107 -1.7722 -1.4310
 2249TIP3    H228163   1.387   6.002  11.413 -1.0920  3.0829  0.5356
 2250TIP3   OH228164   2.840   5.174  10.610 -0.3286 -0.2038  0.7781
 2250TIP3    H128165   2.875   5.195  10.524 -0.3603 -0.6920  0.6439
 2250TIP3    H228166   2.872   5.244  10.667 -1.7170  1.0976  0.0368
 2251TIP3   OH228167   1.604   1.472  12.496  0.7119  0.0106 -0.8600
 2251TIP3    H128168   1.570   1.560  12.513  1.2303 -0.1310  1.1964
 2251TIP3    H228169   1.527   1.417  12.484  0.3829  0.6708 -1.9040
 2252TIP3   OH228170   2.237   6.163   2.605  0.3470  0.2467  0.0221
 2252TIP3    H128171   2.312   6.172   2.664  0.9712  0.1986 -0.7455
 2252TIP3    H228172   2.183   6.094   2.644  1.7716 -1.2153 -0.5021
 2253TIP3   OH228173   3.038   4.905  12.520  0.0799 -0.0320  0.1419
 2253TIP3    H128174   3.009   4.828  12.568  2.2729  0.4796  2.4861
 2253TIP3    H228175   3.014   4.979  12.576  2.7770  0.5807  0.6285
 2254TIP3   OH228176   0.317   3.561  11.882 -0.1583  0.8374  0.2794
 2254TIP3    H128177   0.317   3.634  11.944 -0.5459  0.8106  0.3119
 2254TIP3    H228178   0.255   3.498  11.917 -0.5299  0.9085 -0.2291
 2255TIP3   OH228179   5.728   2.823   2.242  0.2095  0.1291 -0.0068
 2255TIP3    H128180   5.658   2.789   2.186  1.1523  0.8525 -1.7196
 2255TIP3    H228181   5.806   2.773   2.215  1.0824  1.8272 -0.7470
 2256TIP3   OH228182   5.898   6.405  16.050  0.2223 -0.0885 -0.0857
 2256TIP3    H128183   5.936   6.483  16.088 -0.5410  0.0639  0.3959
 2256TIP3    H228184   5.924   6.333  16.108 -0.0954 -0.0036  0.1675
 2257TIP3   OH228185   3.330   2.109   5.285  0.0500 -0.7540  0.0632
 2257TIP3    H128186   3.251   2.084   5.238  0.1447 -0.5229 -0.2246
 2257TIP3    H228187   3.338   2.045   5.355 -1.6613  0.5787  1.5494
 2258TIP3   OH228188   5.747   0.105  17.074 -0.0981 -0.0282  0.4364
 2258TIP3    H128189   5.819   0.074  17.019  0.4372  3.6490 -1.2234
 2258TIP3    H228190   5.784   0.178  17.124 -2.1447  0.5874  1.1487
 2259TIP3   OH228191   4.272   0.709  16.156 -0.3833 -0.4082  0.3346
 2259TIP3    H128192   4.199   0.719  16.095 -3.0068  0.4549  3.3522
 2259TIP3    H228193   4.350   0.702  16.100 -2.3915  1.5879 -3.0087
 2260TIP3   OH228194   6.747   2.475  10.590  0.1618 -0.4758 -0.1163
 2260TIP3    H128195   6.663   2.518  10.575  0.2399 -1.0954 -2.7797
 2260TIP3    H228196   6.812   2.545  10.583  0.1105 -0.5709 -2.0557
 2261TIP3   OH228197   2.873   0.662  12.685  0.0032  0.4867  0.0080
 2261TIP3    H128198   2.814   0.631  12.616 -0.1547 -0.8875  0.7112
 2261TIP3    H228199   2.823   0.651  12.765  1.9547 -3.1202  0.9351
 2262TIP3   OH228200   2.387   1.906   1.924 -0.2211 -1.0206  0.1154
 2262TIP3    H128201   2.357   1.842   1.859 -1.6046  0.4132 -0.7453
 2262TIP3    H228202   2.310   1.960   1.941  1.4325  1.9101 -1.0299
 2263TIP3   OH228203   1.939   1.182  14.415 -0.0608 -0.1639 -0.1624
 2263TIP3    H128204   2.000   1.256  14.413 -0.3609  0.0907  0.0911
 2263TIP3    H228205   1.891   1.192  14.497 -0.1497 -0.6033 -0.1591
 2264TIP3   OH228206   4.008   1.132  15.433 -0.2720 -0.6702 -0.5544
 2264TIP3    H128207   4.055   1.071  15.376  0.2029  0.3282 -1.2647
 2264TIP3    H228208   4.010   1.091  15.519  3.5709  0.1026 -0.0843
 2265TIP3   OH228209   0.670   6.508   5.805 -0.1450  0.9452  0.1188
 2265TIP3    H128210   0.618   6.491   5.727 -0.3502  1.0934  0.2220
 2265TIP3    H228211   0.623   6.578   5.851 -0.7134 -0.0173  1.0349
 2266TIP3   OH228212   5.299   1.377   5.642  0.1271  0.3513  0.3547
 2266TIP3    H128213   5.268   1.463   5.613 -0.8590 -0.1790 -0.2374
 2266TIP3    H228214   5.368   1.396   5.705  0.8235  1.5617 -0.7271
 2267TIP3   OH228215   5.412   4.825   1.226  0.0079 -0.1141  0.3664
 2267TIP3    H128216   5.457   4.858   1.148 -0.6032 -2.2731 -0.9714
 2267TIP3    H228217   5.326   4.866   1.223 -1.2351 -2.6027 -2.0198
 2268TIP3   OH228218   5.652   1.585  13.129 -0.6771  0.5180 -0.9548
 2268TIP3    H128219   5.599   1.506  13.135 -0.2421  0.2993  0.3667
 2268TIP3    H228220   5.670   1.595  13.036  0.3555 -1.6878 -1.0472
 2269TIP3   OH228221   5.732   3.882  16.493  0.1188  0.8481 -0.5844
 2269TIP3    H128222   5.730   3.969  16.532 -0.6253  0.2439  0.7540
 2269TIP3    H228223   5.663   3.884  16.427 -1.2929  0.6559  0.8374
 2270TIP3   OH228224   0.124   1.487   1.294 -0.3084  0.2237 -0.0915
 2270TIP3    H128225   0.091   1.488   1.384  2.6630  1.9573  1.1131
 2270TIP3    H228226   0.065   1.428   1.248 -1.0080 -2.0454  3.3426
 2271TIP3   OH228227   6.782   5.089  12.646  0.6843  0.3614 -0.0358
 2271TIP3    H128228   6.840   5.014  12.649  0.2939  0.0818  0.7746
 2271TIP3    H228229   6.838   5.163  12.623  1.0901 -0.1488 -0.7155
 2272TIP3   OH228230   3.418   0.694   5.705 -0.0058  0.3286 -0.6797
 2272TIP3    H128231   3.497   0.679   5.653 -0.1923  0.7035 -1.0783
 2272TIP3    H228232   3.450   0.713   5.793  0.2972 -0.7504 -0.5418
 2273TIP3   OH228233   1.917   1.369  13.249  0.0294 -0.0736  0.1183
 2273TIP3    H128234   2.011   1.387  13.245 -0.0982  0.4162 -1.1353
 2273TIP3    H228235   1.911   1.274  13.236  0.2141  0.2895 -3.5488
 2274TIP3   OH228236   2.327   6.667   0.432  0.4732 -0.6142 -0.4882
 2274TIP3    H128237   2.422   6.661   0.422  0.4395 -1.2764 -0.4280
 2274TIP3    H228238   2.293   6.674   0.343  0.6291  0.6035 -0.4769
 2275TIP3   OH228239   0.745   2.246  13.218 -0.6460 -0.8219  0.0648
 2275TIP3    H128240   0.748   2.337  13.246 -0.3825 -0.6961 -0.3633
 2275TIP3    H228241   0.836   2.223  13.197 -0.7969 -0.9816 -0.4456
 2276TIP3   OH228242   5.264   6.419   0.591 -0.1518  0.2724  0.3298
 2276TIP3    H128243   5.198   6.480   0.623 -0.3604 -0.1318  0.6840
 2276TIP3    H228244   5.298   6.377   0.670  0.7455  0.6877  0.1787
 2277TIP3   OH228245   2.525   3.707   2.572 -0.9491 -0.4464 -0.8411
 2277TIP3    H128246   2.604   3.710   2.518 -0.1337 -2.6707  0.1441
 2277TIP3    H228247   2.466   3.772   2.532  1.5729  1.8057 -1.1984
 2278TIP3   OH228248   6.500   4.855  13.315 -0.1477 -0.1268 -0.0298
 2278TIP3    H128249   6.563   4.825  13.381 -0.4782  1.9238  1.3112
 2278TIP3    H228250   6.448   4.921  13.361  0.3607  2.2675 -2.6549
 2279TIP3   OH228251   3.779   0.134  14.597 -0.0951  0.1360  0.5135
 2279TIP3    H128252   3.841   0.153  14.667  0.8394 -1.6648  0.2402
 2279TIP3    H228253   3.693   0.132  14.641  0.2526  0.8917  1.2366
 2280TIP3   OH228254   2.751   5.048  16.645  0.0124 -0.1424 -0.2869
 2280TIP3    H128255   2.761   5.025  16.553 -1.1316  1.1800 -0.7624
 2280TIP3    H228256   2.658   5.070  16.655  0.3498  0.8302  0.9265
 2281TIP3   OH228257   5.061   2.657  14.995 -0.4593 -0.5301 -0.1961
 2281TIP3    H128258   5.110   2.663  15.077  1.1830  0.2285 -1.1822
 2281TIP3    H228259   4.969   2.665  15.021 -0.0582 -1.5266  1.6697
 2282TIP3   OH228260   5.346   6.567  17.055 -0.4703 -0.2017 -0.3064
 2282TIP3    H128261   5.291   6.640  17.027 -0.1544  0.2297  0.1966
 2282TIP3    H228262   5.374   6.526  16.974 -0.5145  0.3314 -0.5947
 2283TIP3   OH228263   4.131   4.358   3.153  0.4515  0.3050  0.2427
 2283TIP3    H128264   4.092   4.326   3.071 -0.7567  1.1349  0.4623
 2283TIP3    H228265   4.191   4.288   3.180  0.0873 -0.4408 -0.8042
 2284TIP3   OH228266   5.109   1.014   0.496 -0.2207  0.0720  0.3575
 2284TIP3    H128267   5.141   1.039   0.410  1.9440 -2.2414  0.3818
 2284TIP3    H228268   5.160   1.066   0.557 -0.2625  0.1883  0.2936
 2285TIP3   OH228269   4.540   1.629  13.293 -0.1494  0.0374  0.4347
 2285TIP3    H128270   4.480   1.701  13.313 -0.8104 -0.2355 -0.5325
 2285TIP3    H228271   4.620   1.652  13.340 -0.6477  0.9447  0.8812
 2286TIP3   OH228272   5.035   6.727   5.858  0.0646 -0.6514 -0.1059
 2286TIP3    H128273   5.019   6.796   5.922  1.3303 -0.9084  0.5233
 2286TIP3    H228274   4.989   6.756   5.779 -0.7674  0.1095  0.6413
 2287TIP3   OH228275   5.803   6.689  16.692 -0.2516 -0.3736  0.2050
 2287TIP3    H128276   5.791   6.735  16.609  0.2824  0.5720  0.6421
 2287TIP3    H228277   5.715   6.658  16.715 -0.5045 -0.1248 -0.4135
 2288TIP3   OH228278   6.569   2.399   6.425 -0.6241 -0.3981  0.6579
 2288TIP3    H128279   6.503   2.468   6.429 -0.0068  0.2073  0.5135
 2288TIP3    H228280   6.650   2.444   6.401  0.0093 -1.0106  1.5732
 2289TIP3   OH228281   3.942   5.081   6.695 -0.1934  0.6553 -0.0483
 2289TIP3    H128282   3.906   5.161   6.657 -0.0313  0.3212 -0.9324
 2289TIP3    H228283   3.922   5.013   6.631  1.9405  0.4516 -0.5688
 2290TIP3   OH228284   3.529   0.006  10.846  1.0758  0.5640  0.8719
 2290TIP3    H128285   3.507  -0.050  10.771  0.0525 -0.9875  2.2606
 2290TIP3    H228286   3.497   0.093  10.821  1.9122  0.3860 -0.9887
 2291TIP3   OH228287   0.052   3.256  14.802  0.0965  0.3135  0.2844
 2291TIP3    H128288  -0.026   3.201  14.804  0.1593  0.2380  0.9791
 2291TIP3    H228289   0.022   3.342  14.833  0.5907 -0.1377  2.1362
 2292TIP3   OH228290   3.065   3.906   3.602  0.3054  0.1547 -0.2240
 2292TIP3    H128291   3.004   3.979   3.609 -0.8497 -0.7510 -0.5767
 2292TIP3    H228292   3.088   3.904   3.509 -1.9518 -1.6683 -0.8418
 2293TIP3   OH228293   6.353   1.179  13.637 -0.1819 -0.2799  0.0085
 2293TIP3    H128294   6.289   1.238  13.597 -2.1742 -1.8419  0.7164
 2293TIP3    H228295   6.340   1.190  13.731  1.0509 -0.1915  0.1864
 2294TIP3   OH228296   4.766   2.710  12.076 -0.0611  0.2521  0.4175
 2294TIP3    H128297   4.709   2.684  12.004  0.2663  1.2296 -0.2126
 2294TIP3    H228298   4.832   2.766  12.035 -0.9594  2.4126  1.7505
 2295TIP3   OH228299   4.280   4.690  11.063 -0.1902  0.0594 -0.3941
 2295TIP3    H128300   4.369   4.687  11.099 -1.1809  0.8323  2.3922
 2295TIP3    H228301   4.268   4.780  11.035 -0.4824  0.2633  0.3708
 2296TIP3   OH228302   1.515   6.545  16.315 -0.3077  0.3733 -0.2993
 2296TIP3    H128303   1.495   6.454  16.336  1.7098 -0.1200 -0.2977
 2296TIP3    H228304   1.447   6.571  16.253  0.7676 -2.1642 -2.7654
 2297TIP3   OH228305   5.296   3.119   0.815 -0.3006 -0.5227 -0.2612
 2297TIP3    H128306   5.209   3.088   0.842 -1.2493 -1.1360 -3.5499
 2297TIP3    H228307   5.279   3.200   0.768  1.0767 -0.0342  0.0478
 2298TIP3   OH228308   3.162   6.080   5.827  0.2544  0.5203  0.6611
 2298TIP3    H128309   3.155   6.005   5.768  1.1884  0.7894  0.1781
 2298TIP3    H228310   3.250   6.114   5.812 -0.3310  2.0533  0.4635
 2299TIP3   OH228311   6.417   0.361   1.705  0.1333  0.1277  0.1325
 2299TIP3    H128312   6.386   0.437   1.655  0.4167 -0.2593 -0.6309
 2299TIP3    H228313   6.344   0.299   1.702 -0.0883  0.3465  0.7361
 2300TIP3   OH228314   2.309   4.289  11.432  0.0897  0.5403 -0.4297
 2300TIP3    H128315   2.283   4.201  11.459  0.9760  0.2674 -0.4529
 2300TIP3    H228316   2.317   4.338  11.514  3.1115 -0.3770 -0.0608
 2301TIP3   OH228317   3.563   5.129  13.421 -0.0966  0.1915 -0.2530
 2301TIP3    H128318   3.600   5.154  13.337  1.0711 -1.5502 -0.2927
 2301TIP3    H228319   3.579   5.205  13.477  0.6975  0.6834 -1.1224
 2302TIP3   OH228320   4.743   3.000   4.377  0.7098 -0.1653  0.1186
 2302TIP3    H128321   4.663   2.971   4.420  1.2466  0.1488  1.3882
 2302TIP3    H228322   4.813   2.978   4.439  1.4545  0.8160 -0.3406
 2303TIP3   OH228323   4.984   2.968  14.431  0.2134  0.1049 -0.0808
 2303TIP3    H128324   5.014   3.058  14.440  0.4478 -0.0491  0.7362
 2303TIP3    H228325   4.888   2.975  14.429  0.2415  0.4464 -1.0304
 2304TIP3   OH228326   5.391   1.482  16.472 -0.0575  0.3625  0.3139
 2304TIP3    H128327   5.347   1.404  16.506 -0.1142  0.9890  1.7331
 2304TIP3    H228328   5.437   1.451  16.394  2.6913 -1.9645  2.6085
 2305TIP3   OH228329   4.062   3.653  11.310  0.2226 -0.2978  0.0730
 2305TIP3    H128330   4.130   3.623  11.370  0.1678  0.3535  0.4697
 2305TIP3    H228331   4.022   3.573  11.276 -0.9660 -0.7172  2.2582
 2306TIP3   OH228332   3.373   0.543   1.373 -0.2878  0.1400 -0.1149
 2306TIP3    H128333   3.304   0.576   1.431 -0.2345  0.3313 -0.1606
 2306TIP3    H228334   3.345   0.568   1.285 -0.2935 -0.0186 -0.1584
 2307TIP3   OH228335   0.279   2.388   5.690  0.0149  0.0943  0.0695
 2307TIP3    H128336   0.286   2.302   5.733  0.4189  0.9032  1.7073
 2307TIP3    H228337   0.363   2.430   5.708  0.6977  0.0554 -2.6016
 2308TIP3   OH228338   0.655   4.008   0.140 -0.4978 -0.4727 -0.4573
 2308TIP3    H128339   0.586   4.037   0.080 -0.5852 -1.2350 -0.7321
 2308TIP3    H228340   0.608   3.974   0.216 -0.3974  0.0566 -0.1573
 2309TIP3   OH228341   1.120   4.151   5.007 -0.3704  0.2134 -0.2278
 2309TIP3    H128342   1.040   4.182   4.963 -0.9823 -1.1449 -0.1073
 2309TIP3    H228343   1.162   4.094   4.943  0.3708  0.6887 -0.1765
 2310TIP3   OH228344   3.694   3.024   3.727  0.7261 -0.5287 -0.6053
 2310TIP3    H128345   3.701   3.087   3.655  2.1249  1.0253  0.8027
 2310TIP3    H228346   3.602   3.026   3.753  0.2670 -0.8840 -2.0883
 2311TIP3   OH228347   2.879   5.598  13.911 -0.0058 -0.0623  0.2383
 2311TIP3    H128348   2.826   5.672  13.940  1.0208  0.9601 -0.4004
 2311TIP3    H228349   2.827   5.556  13.842 -0.2665  0.5221  0.0747
 2312TIP3   OH228350   3.054   3.231   4.977  0.1221 -0.5067  0.2263
 2312TIP3    H128351   3.015   3.232   5.064  0.3115 -0.8054  0.3155
 2312TIP3    H228352   3.114   3.306   4.977  0.0425 -0.4426  0.3168
 2313TIP3   OH228353   1.158   3.892   3.982 -0.0234 -0.0885  0.4407
 2313TIP3    H128354   1.148   3.964   4.043 -1.2639  0.0839  0.0454
 2313TIP3    H228355   1.069   3.870   3.955  0.4646 -0.5007 -0.9024
 2314TIP3   OH228356   0.635   4.472  12.485  0.6403 -0.2068 -0.1141
 2314TIP3    H128357   0.589   4.423  12.418 -0.3802 -1.0961  1.1816
 2314TIP3    H228358   0.663   4.552  12.442 -2.0325  0.3274 -1.0077
 2315TIP3   OH228359   2.783   3.896   2.400 -0.2694 -0.0532 -0.7180
 2315TIP3    H128360   2.765   3.924   2.311 -0.2092  1.0946 -0.3785
 2315TIP3    H228361   2.795   3.801   2.393 -0.7645 -0.0477 -1.8399
 2316TIP3   OH228362   6.434   6.284  11.367 -0.1280 -0.4968  0.0722
 2316TIP3    H128363   6.504   6.295  11.431 -1.0669 -1.0902  1.2539
 2316TIP3    H228364   6.354   6.308  11.414 -0.4946  4.1395 -2.3611
 2317TIP3   OH228365   6.262   5.050   5.850 -0.1366  0.4861  0.0697
 2317TIP3    H128366   6.345   5.053   5.896 -0.3190 -0.3964  0.4658
 2317TIP3    H228367   6.236   4.958   5.852 -1.4379  0.8339  0.5380
 2318TIP3   OH228368   0.091   5.787  12.087  0.3043 -0.4841 -0.4563
 2318TIP3    H128369   0.103   5.875  12.122  1.7593 -1.1009  0.6837
 2318TIP3    H228370   0.133   5.730  12.150  0.7811 -1.8787 -1.9692
 2319TIP3   OH228371   4.916   0.514   0.968 -0.1333  0.6923  0.4511
 2319TIP3    H128372   4.993   0.564   0.942 -0.7966  1.6130  0.2079
 2319TIP3    H228373   4.913   0.523   1.063  0.0855  0.6089  0.4673
 2320TIP3   OH228374   2.771   5.984  13.060 -0.1674  0.2801  0.1828
 2320TIP3    H128375   2.813   5.913  13.013 -1.5790  1.4203 -3.1127
 2320TIP3    H228376   2.698   5.943  13.106 -0.2974 -0.5491 -0.7437
 2321TIP3   OH228377   3.612   3.352   5.603  0.3340 -0.1298  0.3078
 2321TIP3    H128378   3.612   3.261   5.631  0.3756 -0.1131  0.3609
 2321TIP3    H228379   3.523   3.366   5.570  0.5949 -0.4505 -0.5528
 2322TIP3   OH228380   4.859   2.533  14.825  0.6000 -0.6535 -0.2745
 2322TIP3    H128381   4.825   2.533  14.736  0.5390  1.0147 -0.2872
 2322TIP3    H228382   4.949   2.503  14.817  0.8375  0.2124 -1.0276
 2323TIP3   OH228383   0.136   0.855  15.522  0.4759 -0.3946  0.3716
 2323TIP3    H128384   0.167   0.773  15.484  1.1241  0.0211 -0.0288
 2323TIP3    H228385   0.099   0.903  15.448 -0.5803 -0.6209  0.7338
 2324TIP3   OH228386   4.394   5.161  11.937  0.3848  0.0753  1.1140
 2324TIP3    H128387   4.457   5.092  11.955  0.6672  0.2474  0.7906
 2324TIP3    H228388   4.442   5.225  11.886 -0.2391 -0.1172  0.2689
 2325TIP3   OH228389   1.216   5.315   2.484 -0.9192  0.4135  0.2969
 2325TIP3    H128390   1.257   5.343   2.402 -1.6298  0.1156 -0.1637
 2325TIP3    H228391   1.153   5.249   2.458  0.3941 -1.3239  1.3228
 2326TIP3   OH228392   2.094   6.716  14.538 -0.1508 -0.1476 -0.0042
 2326TIP3    H128393   1.999   6.715  14.521 -0.0451  0.2014 -0.6488
 2326TIP3    H228394   2.122   6.626  14.521 -0.4142 -0.3285  0.4938
 2327TIP3   OH228395   4.739   5.044   1.743  0.0564 -0.2208 -0.0767
 2327TIP3    H128396   4.725   5.085   1.657 -1.8864 -1.9593 -0.6917
 2327TIP3    H228397   4.808   4.981   1.728 -0.3993 -0.6462 -0.4382
 2328TIP3   OH228398   6.392   3.576  17.148 -0.5515  0.2143 -0.4782
 2328TIP3    H128399   6.484   3.599  17.153 -0.6843  0.9025 -0.9634
 2328TIP3    H228400   6.377   3.518  17.223  0.9242 -2.3732 -2.0356
 2329TIP3   OH228401   4.062   5.877  12.012  0.8025  0.0511 -0.0882
 2329TIP3    H128402   4.106   5.955  11.978  0.9429  0.4777  1.0083
 2329TIP3    H228403   3.986   5.911  12.060  0.4205 -0.5437 -0.2657
 2330TIP3   OH228404   1.266   2.212   2.438 -0.0526 -0.0971 -0.8372
 2330TIP3    H128405   1.220   2.159   2.502  1.0895 -0.6123 -0.4115
 2330TIP3    H228406   1.357   2.211   2.467  0.2052  1.0575 -1.5314
 2331TIP3   OH228407   1.721   4.833  12.278 -0.1161 -0.5704  0.0964
 2331TIP3    H128408   1.658   4.780  12.229  0.3191 -0.6586 -0.3729
 2331TIP3    H228409   1.717   4.798  12.367 -0.5448 -0.7409  0.0134
 2332TIP3   OH228410   5.208   0.336   4.648 -0.4782  0.5133 -0.0714
 2332TIP3    H128411   5.189   0.382   4.730 -4.7588 -0.1517 -0.4594
 2332TIP3    H228412   5.143   0.266   4.644  2.2487 -2.1734 -2.1616
 2333TIP3   OH228413   3.403   3.318   3.867  0.0150  0.3808 -0.1048
 2333TIP3    H128414   3.425   3.243   3.922 -0.3214 -0.3354 -0.9356
 2333TIP3    H228415   3.382   3.388   3.930 -1.8415 -0.8444  0.7225
 2334TIP3   OH228416   3.613   3.833  15.859 -0.3127  0.8962  0.1851
 2334TIP3    H128417   3.659   3.916  15.875  2.3499 -0.4585  0.1593
 2334TIP3    H228418   3.659   3.770  15.913 -0.3352 -1.1176 -1.9911
 2335TIP3   OH228419   0.626   0.847  12.305 -0.0975  0.0816  0.6802
 2335TIP3    H128420   0.582   0.814  12.227 -0.2322  2.5978 -0.3852
 2335TIP3    H228421   0.564   0.909  12.343  0.2846 -0.5257  2.3918
 2336TIP3   OH228422   4.669   2.495   2.618 -0.3726  0.6226 -0.1594
 2336TIP3    H128423   4.719   2.496   2.536  0.3571  1.5606  0.2737
 2336TIP3    H228424   4.716   2.433   2.674  0.1482  1.2710  0.1382
 2337TIP3   OH228425   1.317   6.145  13.943  0.4234 -0.4340  0.2835
 2337TIP3    H128426   1.379   6.113  14.008 -0.1636  1.6833  2.0478
 2337TIP3    H228427   1.349   6.233  13.921  0.4024 -0.9568 -2.0992
 2338TIP3   OH228428   3.516   6.695   3.320 -0.2333  0.4308  0.1628
 2338TIP3    H128429   3.606   6.688   3.288 -0.2369 -1.3310  0.4464
 2338TIP3    H228430   3.511   6.783   3.358  0.6945  1.4024 -1.7765
 2339TIP3   OH228431   4.143   4.148   5.310 -0.7120  0.0677 -0.4574
 2339TIP3    H128432   4.114   4.138   5.401  0.1091  0.5661 -0.1331
 2339TIP3    H228433   4.070   4.112   5.258 -1.9431  1.3300  0.3243
 2340TIP3   OH228434   0.487   1.214  13.745 -0.6352  0.1114  0.1540
 2340TIP3    H128435   0.408   1.257  13.778 -1.3442 -2.0490  1.4923
 2340TIP3    H228436   0.549   1.216  13.818 -1.4650 -2.8697  1.1106
 2341TIP3   OH228437   6.202   5.615  12.146 -0.1015 -0.6897 -0.1774
 2341TIP3    H128438   6.205   5.679  12.217 -0.3761 -2.3698  1.4107
 2341TIP3    H228439   6.117   5.629  12.104 -0.3552 -0.3262  0.4573
 2342TIP3   OH228440   3.303   2.694  12.603 -0.1601 -0.0989 -0.5777
 2342TIP3    H128441   3.278   2.704  12.694 -2.0839 -0.1098 -1.0561
 2342TIP3    H228442   3.224   2.715  12.554  0.3507 -1.6295 -2.1823
 2343TIP3   OH228443   4.314   0.106  13.126 -0.3139 -0.0736  0.2547
 2343TIP3    H128444   4.356   0.144  13.203  1.1422 -0.0400 -0.5171
 2343TIP3    H228445   4.371   0.132  13.053 -0.9806 -1.1427 -0.6703
 2344TIP3   OH228446   6.338   5.161  11.733  0.2537  0.2660  0.9190
 2344TIP3    H128447   6.390   5.084  11.711 -1.3291 -0.5319 -0.1963
 2344TIP3    H228448   6.248   5.130  11.731 -0.5009  2.3881 -0.5706
 2345TIP3   OH228449   4.539   4.292   5.974 -0.2206 -0.4576  0.7601
 2345TIP3    H128450   4.536   4.201   5.943 -1.7224 -0.7567  1.6998
 2345TIP3    H228451   4.465   4.299   6.034  0.1356  1.2818  1.0303
 2346TIP3   OH228452   5.361   6.170  13.900  0.0742 -0.3538 -0.4833
 2346TIP3    H128453   5.422   6.211  13.839 -0.0497 -0.1335 -0.4619
 2346TIP3    H228454   5.301   6.241  13.924 -0.1415 -0.5492 -0.4461
 2347TIP3   OH228455   0.535   6.118   2.614  0.5949 -0.1524  0.5549
 2347TIP3    H128456   0.574   6.088   2.532 -0.4226  0.6346 -0.2387
 2347TIP3    H228457   0.448   6.078   2.615  0.1525  0.8018  0.6685
 2348TIP3   OH228458   1.878   0.433   1.067  0.0564 -0.4378  0.4439
 2348TIP3    H128459   1.880   0.363   1.001 -0.9255  0.8184 -0.9946
 2348TIP3    H228460   1.929   0.504   1.028 -0.2999  0.2284  1.1686
 2349TIP3   OH228461   0.172   4.762   0.262 -0.3002 -0.2433 -0.0551
 2349TIP3    H128462   0.205   4.851   0.265  0.2622 -0.4465 -0.0673
 2349TIP3    H228463   0.243   4.711   0.222 -0.6660 -0.6696 -0.1728
 2350TIP3   OH228464   3.865   5.138  16.892 -0.2275  0.2693  0.4132
 2350TIP3    H128465   3.839   5.075  16.959  2.4407 -1.3156  0.0989
 2350TIP3    H228466   3.827   5.104  16.811 -0.0512 -0.0981  0.4823
 2351TIP3   OH228467   0.773   1.937   6.395 -0.0432  0.2272 -0.6181
 2351TIP3    H128468   0.868   1.927   6.395  0.0453  0.6657  0.9810
 2351TIP3    H228469   0.756   1.999   6.466 -1.5319  0.0668 -0.8056
 2352TIP3   OH228470   3.024   2.094  17.103 -0.1339 -0.4737  0.3268
 2352TIP3    H128471   2.983   2.148  17.171  1.7064  0.7332  0.5609
 2352TIP3    H228472   3.083   2.036  17.152  0.6589 -0.1052 -0.1871
 2353TIP3   OH228473   6.327   4.276   1.080  0.2860  0.0948  0.2306
 2353TIP3    H128474   6.290   4.298   0.994 -1.0101  0.1094  0.7735
 2353TIP3    H228475   6.359   4.186   1.070  2.1991  0.8382 -0.8977
 2354TIP3   OH228476   3.135   2.918   1.161  0.2371 -0.1449  0.8123
 2354TIP3    H128477   3.087   2.852   1.111 -1.6172  0.5252  1.6374
 2354TIP3    H228478   3.213   2.935   1.108 -1.4564  0.2978 -1.7306
 2355TIP3   OH228479   4.828   0.733  15.712 -0.1024  0.3439 -0.1869
 2355TIP3    H128480   4.884   0.797  15.668  1.1855 -0.1367  0.6718
 2355TIP3    H228481   4.827   0.657  15.653  0.9208  0.0185  0.1944
 2356TIP3   OH228482   5.126   3.679  11.293  0.1811 -0.2425 -0.1416
 2356TIP3    H128483   5.060   3.748  11.284  0.7767  0.2677 -0.6573
 2356TIP3    H228484   5.192   3.699  11.226  0.0405 -1.6830 -0.7570
 2357TIP3   OH228485   1.667   3.198   2.909 -0.2739  0.2604 -0.2638
 2357TIP3    H128486   1.668   3.146   2.829 -1.0044 -0.3283  0.0933
 2357TIP3    H228487   1.676   3.133   2.979 -0.2585  0.7066  0.1500
 2358TIP3   OH228488   1.623   4.175  13.833 -0.2467 -0.0732  0.6518
 2358TIP3    H128489   1.693   4.219  13.880 -1.6474  2.4659  0.5193
 2358TIP3    H228490   1.570   4.246  13.797 -2.8687 -1.8673  0.7193
 2359TIP3   OH228491   6.340   1.379  14.491 -0.4162  0.1607 -0.3157
 2359TIP3    H128492   6.379   1.308  14.440  0.8409  0.5884  0.0152
 2359TIP3    H228493   6.407   1.447  14.492 -1.2354  0.9775  0.1655
 2360TIP3   OH228494   2.662   1.386  12.641  0.3162 -0.1671  1.1867
 2360TIP3    H128495   2.568   1.382  12.622  0.2815 -1.0861  1.4686
 2360TIP3    H228496   2.704   1.382  12.555  0.1207 -2.1626  1.1382
 2361TIP3   OH228497   0.849   0.743  14.514 -0.0683  0.0546 -0.0391
 2361TIP3    H128498   0.864   0.650  14.498  0.9565  0.2332 -0.2365
 2361TIP3    H228499   0.905   0.764  14.589  0.2063  0.6385 -0.3966
 2362TIP3   OH228500   1.090   0.717   2.551 -0.1581  0.2851  0.5469
 2362TIP3    H128501   1.162   0.763   2.508  0.4889 -0.7574  0.4755
 2362TIP3    H228502   1.069   0.772   2.627  0.3165  0.9015  0.2477
 2363TIP3   OH228503   0.126   4.824  12.627 -0.0431  0.2807 -0.0974
 2363TIP3    H128504   0.162   4.754  12.681  1.2576  1.6644  0.9263
 2363TIP3    H228505   0.093   4.780  12.549  1.0594 -1.4214  0.3381
 2364TIP3   OH228506   3.086   0.036  17.008  0.3904  0.1135 -0.2292
 2364TIP3    H128507   3.046   0.077  17.084  0.1686  1.6512 -1.1359
 2364TIP3    H228508   3.095  -0.056  17.032 -3.5376 -0.3315  0.1172
 2365TIP3   OH228509   1.300   4.091   6.464  0.2180  0.1209 -0.1897
 2365TIP3    H128510   1.339   4.044   6.538  0.3885  0.2183 -0.2165
 2365TIP3    H228511   1.371   4.146   6.431 -0.0662  0.6126  0.0154
 2366TIP3   OH228512   1.222   0.671  16.078 -0.0558 -0.5235  0.3040
 2366TIP3    H128513   1.144   0.716  16.110 -0.0603  0.3023 -0.8108
 2366TIP3    H228514   1.196   0.632  15.995  0.8421  0.2558 -0.3785
 2367TIP3   OH228515   5.716   2.259  13.806 -0.6276 -0.1757  0.4443
 2367TIP3    H128516   5.811   2.252  13.808 -0.3806  2.3191  1.5251
 2367TIP3    H228517   5.689   2.249  13.897 -1.4449 -1.0467  0.1286
 2368TIP3   OH228518   0.024   4.471  16.869  0.1950  0.1579  0.4034
 2368TIP3    H128519  -0.042   4.539  16.864 -0.1507 -0.2435 -1.1580
 2368TIP3    H228520   0.102   4.509  16.829  0.2272 -0.0931  0.2192
 2369TIP3   OH228521   3.835   0.818   6.102 -0.6761 -0.0876  0.1361
 2369TIP3    H128522   3.745   0.849   6.116 -0.3138  0.3684  1.6028
 2369TIP3    H228523   3.833   0.727   6.129  0.1881  0.9698  4.3843
 2370TIP3   OH228524   2.639   4.666   5.291  0.3536 -0.1577 -0.3647
 2370TIP3    H128525   2.676   4.737   5.239  1.5354 -0.6992 -0.2944
 2370TIP3    H228526   2.633   4.592   5.230 -0.2422 -0.2066 -0.2600
 2371TIP3   OH228527   5.095   5.460   3.241  0.1926 -0.0901  0.2595
 2371TIP3    H128528   5.094   5.453   3.145  1.6373  2.0944  0.0041
 2371TIP3    H228529   5.157   5.393   3.269  0.3152 -0.2734 -0.4319
 2372TIP3   OH228530   2.078   2.994   4.850 -0.1193  0.1001 -0.5893
 2372TIP3    H128531   2.066   2.901   4.869 -2.5484  0.6167  0.7944
 2372TIP3    H228532   2.102   3.032   4.934 -0.5889  0.9186 -0.8198
 2373TIP3   OH228533   4.297   5.106   4.248  0.5450 -0.2770  0.2878
 2373TIP3    H128534   4.321   5.171   4.182  0.1541  0.1170  0.5283
 2373TIP3    H228535   4.202   5.096   4.238  0.3730  0.2709  1.2164
 2374TIP3   OH228536   6.471   1.551   4.917  0.1180 -0.1518 -0.4384
 2374TIP3    H128537   6.554   1.506   4.902  1.3217  0.7460  2.6658
 2374TIP3    H228538   6.436   1.568   4.829  3.9981  0.8448 -2.0104
 2375TIP3   OH228539   3.103   6.767  15.249  0.1956 -0.1720  0.3588
 2375TIP3    H128540   3.123   6.779  15.156  1.6116  0.8953  0.7693
 2375TIP3    H228541   3.080   6.674  15.256 -1.6510  0.0865 -1.3179
 2376TIP3   OH228542   1.020   3.962  15.097 -0.0075  0.3882 -0.5292
 2376TIP3    H128543   1.069   3.959  15.180 -0.1443  1.7296 -0.3909
 2376TIP3    H228544   1.020   3.871  15.067  0.8572  0.0365  0.4683
 2377TIP3   OH228545   4.576   2.105   1.079 -0.4446 -0.1078 -0.1817
 2377TIP3    H128546   4.493   2.104   1.127 -0.3390  1.1705  0.0790
 2377TIP3    H228547   4.569   2.182   1.022 -0.3811 -1.3251 -1.9130
 2378TIP3   OH228548   5.629   4.581   2.904 -0.1298 -0.1395  0.2854
 2378TIP3    H128549   5.608   4.637   2.978 -1.1694  0.3241 -0.3275
 2378TIP3    H228550   5.652   4.497   2.943  2.0573  0.8375  1.2433
 2379TIP3   OH228551   5.646   5.608  12.133  0.9287  0.1402  0.1301
 2379TIP3    H128552   5.682   5.524  12.104 -0.3290  0.2633 -2.0408
 2379TIP3    H228553   5.602   5.643  12.055  0.3697  2.2524  1.3144
 2380TIP3   OH228554   1.357   6.750   3.059 -0.2218 -0.2379  0.1601
 2380TIP3    H128555   1.402   6.665   3.060  0.5628  0.1296 -1.5500
 2380TIP3    H228556   1.271   6.730   3.022  0.5827 -0.0416 -1.9144
 2381TIP3   OH228557   2.646   3.211  13.770 -0.4663 -0.7625 -0.5142
 2381TIP3    H128558   2.715   3.219  13.704 -0.1862  0.9332 -0.0605
 2381TIP3    H228559   2.565   3.225  13.722 -0.3292 -0.4165 -0.6434
 2382TIP3   OH228560   0.807   4.653   4.876  0.5024 -0.3013  0.4925
 2382TIP3    H128561   0.791   4.574   4.823 -2.1287 -1.9295  3.4110
 2382TIP3    H228562   0.751   4.720   4.835  1.5321 -0.3263 -1.0561
 2383TIP3   OH228563   2.496   2.707  13.110 -0.1074 -0.2603  0.1158
 2383TIP3    H128564   2.452   2.638  13.160  0.7573 -0.0675  1.1735
 2383TIP3    H228565   2.577   2.667  13.080 -1.0012 -0.6423 -1.9109
 2384TIP3   OH228566   1.867   5.079  12.767  0.5799 -0.0525 -0.2190
 2384TIP3    H128567   1.926   5.151  12.741  2.1619 -0.9892  0.6107
 2384TIP3    H228568   1.825   5.053  12.686  0.3694  1.4496 -0.6332
 2385TIP3   OH228569   0.341   5.886  14.277  0.2270 -0.3619 -0.1839
 2385TIP3    H128570   0.290   5.819  14.231  1.3957 -0.4084 -1.4750
 2385TIP3    H228571   0.416   5.903  14.220  0.7642  0.9437  0.8501
 2386TIP3   OH228572   4.333   5.403  10.996 -0.0305  0.1379 -0.3700
 2386TIP3    H128573   4.336   5.389  11.091  1.0020 -0.8020 -0.5318
 2386TIP3    H228574   4.242   5.429  10.979 -0.0679  0.9849  0.9575
 2387TIP3   OH228575   2.643   1.980   2.725  0.0433  0.2921 -0.3636
 2387TIP3    H128576   2.552   2.006   2.711  0.1020  0.6962 -0.0250
 2387TIP3    H228577   2.678   2.048   2.783 -0.1609 -1.2653  1.6734
 2388TIP3   OH228578   1.063   4.665  12.704  0.0183 -0.0248  0.4431
 2388TIP3    H128579   1.017   4.591  12.664  0.8267  0.7436 -2.1045
 2388TIP3    H228580   0.994   4.726  12.728 -0.4683 -0.1151 -0.6720
 2389TIP3   OH228581   3.549   0.990  10.977 -0.1844  0.2793 -0.3160
 2389TIP3    H128582   3.616   1.058  10.972  0.7838 -0.6705 -0.8253
 2389TIP3    H228583   3.563   0.950  11.063 -0.2563  0.2410 -0.3230
 2390TIP3   OH228584   5.580   1.870   4.240 -0.9367 -0.6064  0.2834
 2390TIP3    H128585   5.669   1.896   4.214 -0.3005 -0.5549  2.2718
 2390TIP3    H228586   5.557   1.933   4.309 -1.4843 -2.1240  1.5484
 2391TIP3   OH228587   5.709   5.578  15.988 -0.3292 -0.0627  0.7255
 2391TIP3    H128588   5.689   5.569  16.081  2.6742 -1.7472  1.3388
 2391TIP3    H228589   5.677   5.496  15.949 -0.2889 -0.0016  0.5638
 2392TIP3   OH228590   5.701   3.825  15.360  0.8375  0.0221  0.6139
 2392TIP3    H128591   5.747   3.852  15.439 -0.7329  0.5995  1.3630
 2392TIP3    H228592   5.637   3.894  15.344 -0.6190 -1.3275  0.3395
 2393TIP3   OH228593   6.066   0.659   0.166 -0.3013  0.7336 -0.0623
 2393TIP3    H128594   6.109   0.575   0.151 -0.1502  1.0193 -1.3469
 2393TIP3    H228595   6.126   0.707   0.222  0.6180  0.7626 -1.0487
 2394TIP3   OH228596   0.818   6.612  16.453  0.0709 -0.1414  0.4983
 2394TIP3    H128597   0.775   6.618  16.368 -1.3933  1.3164  1.3024
 2394TIP3    H228598   0.833   6.519  16.466  0.0148 -0.4131 -1.1920
 2395TIP3   OH228599   3.510   3.954  13.215  0.0611  0.2671 -0.3664
 2395TIP3    H128600   3.581   3.913  13.166  1.0638 -0.7055  1.7932
 2395TIP3    H228601   3.536   3.946  13.307 -1.9545  1.5968  0.3840
 2396TIP3   OH228602   1.236   1.139  13.372 -0.0114 -0.0953 -0.3190
 2396TIP3    H128603   1.313   1.139  13.429 -0.1961 -0.7156 -0.0561
 2396TIP3    H228604   1.184   1.065  13.403 -0.1506 -0.3946 -1.2471
 2397TIP3   OH228605   2.483   5.394  13.606  0.5520 -0.6002  0.0207
 2397TIP3    H128606   2.491   5.413  13.512 -0.6507  0.9005  0.1698
 2397TIP3    H228607   2.396   5.353  13.615  1.2681 -2.1258  0.3186
 2398TIP3   OH228608   6.097   0.512  15.987 -0.2960  0.6931  0.3730
 2398TIP3    H128609   6.032   0.495  15.919 -0.7276 -1.0392  1.1559
 2398TIP3    H228610   6.137   0.595  15.962  1.0566 -0.8301 -3.1649
 2399TIP3   OH228611   5.070   2.895   5.953 -0.0044 -0.2330 -0.5839
 2399TIP3    H128612   5.148   2.950   5.963 -0.5184  0.8875 -2.3597
 2399TIP3    H228613   5.094   2.831   5.887 -0.8452  0.6961 -1.8310
 2400TIP3   OH228614   2.937   5.555  11.609  0.0721 -0.2372  0.1339
 2400TIP3    H128615   3.012   5.614  11.607 -1.0772  1.3670  1.4079
 2400TIP3    H228616   2.908   5.556  11.700 -0.8796 -1.6317 -0.1171
 2401TIP3   OH228617   4.421   0.252  14.411 -0.5963  0.8665  0.0581
 2401TIP3    H128618   4.358   0.183  14.389  0.5457 -0.4806  0.8579
 2401TIP3    H228619   4.417   0.258  14.506 -0.0261  1.2934  0.0578
 2402TIP3   OH228620   5.575   2.203   4.877  0.1369 -0.0501  0.2839
 2402TIP3    H128621   5.563   2.286   4.831  0.2742 -1.0361 -1.6026
 2402TIP3    H228622   5.576   2.228   4.970 -1.0542  1.9037 -0.1546
 2403TIP3   OH228623   5.579   3.366  14.943  0.2861  0.1883 -0.0739
 2403TIP3    H128624   5.556   3.277  14.917  1.5361  0.0729 -0.8843
 2403TIP3    H228625   5.538   3.378  15.028 -4.2900  0.6519 -2.0630
 2404TIP3   OH228626   1.603   5.118  14.438  0.1434 -0.0159 -0.4114
 2404TIP3    H128627   1.518   5.105  14.396  1.0183 -1.8652 -1.7374
 2404TIP3    H228628   1.651   5.176  14.379  0.2158  0.1029 -0.2401
 2405TIP3   OH228629   1.422   5.599   5.353 -0.1333  0.8852  0.0708
 2405TIP3    H128630   1.339   5.632   5.318 -0.7011  0.8568  1.3087
 2405TIP3    H228631   1.488   5.658   5.319 -0.6406  0.8180 -1.0700
 2406TIP3   OH228632   5.392   2.585  14.129  0.0140  0.9659  0.5901
 2406TIP3    H128633   5.404   2.663  14.074  2.5091 -0.8663 -1.7480
 2406TIP3    H228634   5.481   2.562  14.157 -0.6532 -1.0373  1.2282
 2407TIP3   OH228635   0.427   5.108  16.045  0.5620  0.6329  0.0450
 2407TIP3    H128636   0.363   5.038  16.036  1.1066  0.1583 -0.2227
 2407TIP3    H228637   0.397   5.177  15.985  0.2451  0.4586  0.0048
 2408TIP3   OH228638   0.901   5.160   3.961 -0.6911  1.0491 -0.3936
 2408TIP3    H128639   0.911   5.162   3.866  0.5522 -0.7488 -0.3482
 2408TIP3    H228640   0.914   5.251   3.988 -1.7174  1.7065 -1.9718
 2409TIP3   OH228641   5.410   0.182  16.398 -0.4001  0.5075  0.0119
 2409TIP3    H128642   5.483   0.125  16.422  0.6822  2.1296  0.8475
 2409TIP3    H228643   5.386   0.156  16.309 -0.7365 -1.9625  0.7730
 2410TIP3   OH228644   3.492   4.857  12.260  0.5607  0.9840  0.7128
 2410TIP3    H128645   3.413   4.857  12.207  0.3172 -2.5554  0.8206
 2410TIP3    H228646   3.564   4.861  12.197  0.2622 -2.0187  0.0569
 2411TIP3   OH228647   5.044   4.859  12.577 -0.1797 -0.0536 -0.6606
 2411TIP3    H128648   5.018   4.939  12.621  2.7643 -0.4321  2.1200
 2411TIP3    H228649   4.995   4.790  12.622  0.0920 -0.1215 -0.4657
 2412TIP3   OH228650   5.427   0.406   1.384  0.1952 -0.0406 -0.6967
 2412TIP3    H128651   5.376   0.417   1.304 -0.8370  1.3151  0.0938
 2412TIP3    H228652   5.518   0.405   1.355 -0.1611  0.4642 -1.8883
 2413TIP3   OH228653   1.351   0.955   1.549 -0.1844 -0.3171 -0.4551
 2413TIP3    H128654   1.267   0.980   1.587  0.3799  0.9076  0.0211
 2413TIP3    H228655   1.371   0.871   1.590  0.6053  1.1398  2.3560
 2414TIP3   OH228656   1.455   4.006  11.686  0.0738  0.1918 -0.1862
 2414TIP3    H128657   1.520   3.969  11.746  0.6676 -0.7354 -1.3610
 2414TIP3    H228658   1.497   4.083  11.650 -0.2623  0.7187  0.5198
 2415TIP3   OH228659   0.536   3.131  11.354  0.4223 -0.0013  0.0791
 2415TIP3    H128660   0.441   3.138  11.344  0.2118 -2.2647 -0.0681
 2415TIP3    H228661   0.569   3.127  11.264  0.8795  2.3018  0.0728
 2416TIP3   OH228662   4.126   4.539  12.949  0.2652  0.2048  0.1892
 2416TIP3    H128663   4.208   4.570  12.986  0.4253 -0.2842  0.2469
 2416TIP3    H228664   4.075   4.510  13.025  0.7410 -1.1519  0.0111
 2417TIP3   OH228665   4.460   3.212  13.687 -0.2509 -0.5657  1.1417
 2417TIP3    H128666   4.422   3.300  13.683 -0.0082 -0.4826  0.6503
 2417TIP3    H228667   4.425   3.167  13.609 -0.6800 -1.0284  1.5931
 2418TIP3   OH228668   6.502   3.100  11.821 -0.6053 -0.2415  0.3211
 2418TIP3    H128669   6.548   3.108  11.737 -2.2158  0.7267 -0.5148
 2418TIP3    H228670   6.514   3.008  11.846 -0.9189 -0.8152 -1.4854
 2419TIP3   OH228671   2.403   6.144   4.894  0.1891  0.2206 -0.4292
 2419TIP3    H128672   2.333   6.150   4.959  1.1943 -0.9955  0.8208
 2419TIP3    H228673   2.391   6.222   4.839 -0.4768  1.4934  1.4208
 2420TIP3   OH228674   3.650   1.251  10.868  0.1215 -0.2912 -0.1984
 2420TIP3    H128675   3.715   1.303  10.914 -0.8627  0.0861  0.8201
 2420TIP3    H228676   3.573   1.307  10.864 -0.4021 -1.0289 -0.6447
 2421TIP3   OH228677   0.883   6.510  11.230 -0.2174  0.4478  0.3723
 2421TIP3    H128678   0.961   6.455  11.238 -0.4839  0.1100  0.7078
 2421TIP3    H228679   0.905   6.574  11.163 -0.4517 -1.0422 -1.1765
 2422TIP3   OH228680   2.289   5.878  12.744  0.0444  0.6544 -0.5676
 2422TIP3    H128681   2.317   5.873  12.836  2.6782 -0.4084 -1.3318
 2422TIP3    H228682   2.228   5.806  12.733  0.3353  0.2885  0.1750
 2423TIP3   OH228683   1.973   1.680  16.352 -0.1507  0.6383 -0.8378
 2423TIP3    H128684   1.994   1.722  16.435  1.2386 -0.3489 -0.6589
 2423TIP3    H228685   1.953   1.752  16.292  0.0343  1.4209  0.0277
 2424TIP3   OH228686   2.745   0.069   5.270 -0.1560  0.1839 -0.1913
 2424TIP3    H128687   2.821   0.034   5.317 -1.3586 -0.7772  1.1194
 2424TIP3    H228688   2.722   0.000   5.208 -0.6627 -0.0560  0.2524
 2425TIP3   OH228689   3.340   0.110  12.785  0.3155 -0.1642 -0.6385
 2425TIP3    H128690   3.270   0.174  12.797 -0.4218 -0.9852 -0.4277
 2425TIP3    H228691   3.362   0.116  12.692 -0.4795 -0.3242 -0.8476
 2426TIP3   OH228692   0.030   3.755  12.549  0.6350 -0.1269  0.1427
 2426TIP3    H128693  -0.063   3.730  12.548  0.5249  0.2585  0.3887
 2426TIP3    H228694   0.072   3.684  12.597  0.4081 -0.1195  0.3591
 2427TIP3   OH228695   2.732   6.291   2.706  0.7629 -0.3083 -0.0735
 2427TIP3    H128696   2.644   6.283   2.743  0.7236 -1.0066 -0.2995
 2427TIP3    H228697   2.771   6.365   2.753 -0.9716  2.0074 -2.0095
 2428TIP3   OH228698   6.774   5.064  11.872 -0.0504  0.0663 -0.2919
 2428TIP3    H128699   6.831   5.072  11.948 -2.3888 -1.9171  1.8490
 2428TIP3    H228700   6.822   5.006  11.812 -0.0449 -2.3974  1.8821
 2429TIP3   OH228701   1.591   1.728   2.663  0.7375  0.1015 -0.3610
 2429TIP3    H128702   1.579   1.807   2.715  1.0005 -0.4688  0.5736
 2429TIP3    H228703   1.622   1.662   2.725 -0.7888 -1.1295 -0.8462
 2430TIP3   OH228704   5.563   6.199   4.468 -0.0871  0.0934 -0.0337
 2430TIP3    H128705   5.586   6.136   4.400 -1.5844 -2.3009  1.5382
 2430TIP3    H228706   5.637   6.198   4.528  0.2336  0.4456 -0.4202
 2431TIP3   OH228707   4.767   4.464   0.891  0.5688  0.1263  0.0739
 2431TIP3    H128708   4.704   4.484   0.821 -0.9481 -0.7420  1.1332
 2431TIP3    H228709   4.802   4.549   0.916  0.4231  0.5473 -1.0810
 2432TIP3   OH228710   6.670   5.165   3.307  0.3287 -0.3923 -0.1875
 2432TIP3    H128711   6.714   5.153   3.391 -0.1403  0.7107  0.2307
 2432TIP3    H228712   6.635   5.254   3.310 -0.9580 -0.8442 -0.9707
 2433TIP3   OH228713   3.095   5.938  12.206 -0.1427 -0.1669  0.2779
 2433TIP3    H128714   3.044   6.018  12.193  0.7898  0.2354 -1.1423
 2433TIP3    H228715   3.101   5.928  12.301 -3.3024 -0.5417  0.5254
 2434TIP3   OH228716   5.102   0.655   4.712  0.5501  0.1168 -0.2400
 2434TIP3    H128717   5.116   0.579   4.769 -1.9901  0.3220  0.8203
 2434TIP3    H228718   5.114   0.621   4.623 -0.7383 -1.6472  0.1852
 2435TIP3   OH228719   6.550   2.264  11.361  0.5336 -0.3498 -0.0386
 2435TIP3    H128720   6.616   2.211  11.317  1.3786 -0.1366  0.9296
 2435TIP3    H228721   6.600   2.329  11.410 -0.3492 -0.6413  1.3172
 2436TIP3   OH228722   6.468   0.693   3.174  0.2915  0.4290  0.0008
 2436TIP3    H128723   6.402   0.628   3.197  2.2236 -2.0047 -0.8391
 2436TIP3    H228724   6.534   0.687   3.243  1.2684  0.3261 -0.9175
 2437TIP3   OH228725   5.480   1.104  14.171  0.1835 -0.1562 -0.3228
 2437TIP3    H128726   5.517   1.065  14.092 -2.3217 -2.2337 -0.6136
 2437TIP3    H228727   5.520   1.055  14.243  0.1842 -0.3888 -0.4799
 2438TIP3   OH228728   3.079   0.502   2.777 -0.4073  0.6699  0.0117
 2438TIP3    H128729   2.998   0.501   2.725  0.4425  0.6287 -1.3627
 2438TIP3    H228730   3.138   0.444   2.729  0.4817  0.7898  0.9453
 2439TIP3   OH228731   6.054   5.441  15.028 -0.6193  0.6414 -0.6757
 2439TIP3    H128732   6.092   5.508  14.971 -0.1246 -0.0720 -1.2009
 2439TIP3    H228733   6.082   5.358  14.990 -2.2930  0.0933 -0.7902
 2440TIP3   OH228734   2.859   2.494   3.532 -0.2142 -0.6496  0.5068
 2440TIP3    H128735   2.790   2.446   3.577 -0.3706  0.2551  1.2508
 2440TIP3    H228736   2.846   2.586   3.557  0.0102 -0.1774 -0.9661
 2441TIP3   OH228737   5.194   3.938   1.153  0.0447 -0.2010  0.4255
 2441TIP3    H128738   5.258   3.867   1.166  1.9006  0.8951 -2.0002
 2441TIP3    H228739   5.121   3.914   1.210  1.3211 -3.1386  1.0447
 2442TIP3   OH228740   4.385   0.047  12.261  0.1514 -0.4044  0.1246
 2442TIP3    H128741   4.396  -0.004  12.342 -0.7613 -1.7190 -0.5508
 2442TIP3    H228742   4.411  -0.012  12.191  1.2943  0.8508 -0.5524
 2443TIP3   OH228743   5.250   4.120   1.751 -0.4042 -0.3710  0.3010
 2443TIP3    H128744   5.323   4.162   1.704 -1.9086  2.6784  0.4739
 2443TIP3    H228745   5.207   4.066   1.684  0.6266 -0.4062 -0.3765
 2444TIP3   OH228746   6.718   4.942  14.939 -0.1167 -0.4405 -0.4356
 2444TIP3    H128747   6.693   5.019  14.990  0.3324 -1.3250  1.1736
 2444TIP3    H228748   6.789   4.972  14.883  1.2558 -0.0562  1.4140
 2445TIP3   OH228749   2.846   4.364  13.574 -0.0517 -0.2035 -0.4488
 2445TIP3    H128750   2.783   4.435  13.587 -0.1606 -0.5976  1.3666
 2445TIP3    H228751   2.846   4.350  13.479 -1.2050  1.1374 -0.6880
 2446TIP3   OH228752   3.850   4.259  12.175  0.2345 -0.6065  0.3004
 2446TIP3    H128753   3.924   4.294  12.225  1.1646  0.9554 -1.9964
 2446TIP3    H228754   3.786   4.331  12.173  1.0607  0.2033 -2.2593
 2447TIP3   OH228755   3.056   1.864  12.424 -0.4564 -0.0452  0.2622
 2447TIP3    H128756   2.981   1.836  12.476 -0.6971 -1.0703 -0.5933
 2447TIP3    H228757   3.120   1.794  12.434 -0.6081 -0.3954 -0.9992
 2448TIP3   OH228758   6.615   2.085   6.828  0.5507 -0.1787  0.1741
 2448TIP3    H128759   6.640   1.992   6.827 -2.8245 -1.3181 -2.9866
 2448TIP3    H228760   6.643   2.118   6.743 -0.8429  0.8332  0.0697
 2449TIP3   OH228761   4.655   1.811  11.059  0.1794  0.0401 -0.7881
 2449TIP3    H128762   4.634   1.795  10.967 -0.6549  1.8828 -0.9462
 2449TIP3    H228763   4.657   1.906  11.068  0.3903 -0.0986  1.0827
 2450TIP3   OH228764   0.686   2.415  14.943  0.7986  0.2395  0.1529
 2450TIP3    H128765   0.632   2.338  14.925  1.6376 -0.4331  0.4135
 2450TIP3    H228766   0.754   2.383  15.003  1.3623  1.1070 -0.0000
 2451TIP3   OH228767   1.164   0.855   5.867 -0.5696  0.0576  0.8560
 2451TIP3    H128768   1.160   0.760   5.861 -0.7771  0.0413  1.1976
 2451TIP3    H228769   1.088   0.879   5.921 -1.0784  0.4963 -0.0450
 2452TIP3   OH228770   4.594   5.211   1.550 -0.0916  0.3213  0.2574
 2452TIP3    H128771   4.686   5.232   1.539  0.1637 -0.1310  1.3820
 2452TIP3    H228772   4.552   5.240   1.469  0.9302  1.1277  0.0033
 2453TIP3   OH228773   2.714   2.328   2.248 -0.0454  0.5585  0.5825
 2453TIP3    H128774   2.684   2.239   2.270 -2.8945  1.7311  1.9420
 2453TIP3    H228775   2.737   2.367   2.332  4.1203  0.3382 -0.2151
 2454TIP3   OH228776   2.812   5.408   4.620  0.0978 -0.0100  0.5415
 2454TIP3    H128777   2.724   5.424   4.586  0.3649  0.0059 -0.1486
 2454TIP3    H228778   2.810   5.317   4.650 -0.2164  0.0594  0.7431
 2455TIP3   OH228779   5.132   6.397  15.064  0.3882  0.4858  0.3825
 2455TIP3    H128780   5.043   6.399  15.100 -0.3478  0.7135 -1.3484
 2455TIP3    H228781   5.146   6.485  15.029  1.5221  0.6184  1.1248
 2456TIP3   OH228782   5.757   2.181   4.003 -0.7171  0.6894  0.3699
 2456TIP3    H128783   5.766   2.114   3.935  0.2219  1.3591 -0.1918
 2456TIP3    H228784   5.672   2.164   4.043 -1.2296  0.2095 -0.8981
 2457TIP3   OH228785   1.192   3.979  15.333  0.6007  0.9517 -0.6215
 2457TIP3    H128786   1.204   4.073  15.348  2.9814  0.8203 -1.3318
 2457TIP3    H228787   1.278   3.947  15.307 -0.3525 -1.2866 -1.3133
 2458TIP3   OH228788   1.693   1.368  12.796  0.1145 -0.4806  0.0209
 2458TIP3    H128789   1.632   1.318  12.850  0.1111  0.3477  0.8107
 2458TIP3    H228790   1.646   1.449  12.776  0.5788 -0.2633 -0.2024
 2459TIP3   OH228791   5.155   4.637   0.613  0.2838  0.3008 -0.6475
 2459TIP3    H128792   5.160   4.624   0.708 -1.5889 -2.3535 -0.7952
 2459TIP3    H228793   5.217   4.573   0.577 -1.0635 -0.7295 -1.2261
 2460TIP3   OH228794   2.581   6.236  17.138  0.3406 -0.1353  0.5229
 2460TIP3    H128795   2.489   6.233  17.113  0.2896 -3.7964  0.5122
 2460TIP3    H228796   2.626   6.272  17.062 -0.9998  1.2197  0.3319
 2461TIP3   OH228797   5.347   1.702  16.617 -0.6715  0.0269 -0.3565
 2461TIP3    H128798   5.375   1.626  16.567 -2.7607 -0.9769 -0.1187
 2461TIP3    H228799   5.372   1.777  16.562  0.8726 -0.8254 -0.8799
 2462TIP3   OH228800   1.168   5.626   1.089  0.0716 -0.1586  0.0322
 2462TIP3    H128801   1.115   5.548   1.105  3.4016 -2.5928  0.2772
 2462TIP3    H228802   1.178   5.666   1.176 -1.4549  0.4981 -0.0590
 2463TIP3   OH228803   5.680   1.413  12.612  0.2488  0.1574 -0.5364
 2463TIP3    H128804   5.592   1.426  12.576  0.5634  1.0180 -1.0123
 2463TIP3    H228805   5.737   1.469  12.559  0.8817  0.6900  0.6597
 2464TIP3   OH228806   0.399   5.023  15.586  0.1702  0.2140 -0.3620
 2464TIP3    H128807   0.471   5.042  15.646  0.7102  2.1378 -1.5156
 2464TIP3    H228808   0.321   5.057  15.631  0.4578  0.9147 -0.3729
 2465TIP3   OH228809   3.203   3.998  11.923  0.1448 -0.3777  0.3027
 2465TIP3    H128810   3.244   3.912  11.932  0.0837 -0.4049  0.3185
 2465TIP3    H228811   3.109   3.981  11.928  0.1413 -0.2711  0.6672
 2466TIP3   OH228812   4.185   6.428   1.903  0.1504 -0.2351 -0.6747
 2466TIP3    H128813   4.210   6.481   1.828  0.1099  0.9027  0.0871
 2466TIP3    H228814   4.095   6.454   1.923  0.9886  1.4084  1.3163
 2467TIP3   OH228815   5.823   1.416  17.170 -0.1063 -0.4759  0.5559
 2467TIP3    H128816   5.732   1.411  17.141  0.4360  0.0298 -1.3793
 2467TIP3    H228817   5.867   1.344  17.126  0.8789  0.6699 -0.4226
 2468TIP3   OH228818   6.355   5.754   6.569  0.7785 -0.2280  0.3929
 2468TIP3    H128819   6.366   5.769   6.663  2.6913 -1.8663  0.5068
 2468TIP3    H228820   6.310   5.669   6.564 -1.7226  1.0313 -0.2351
 2469TIP3   OH228821   6.173   6.114   3.400  0.3016  0.4507 -0.0874
 2469TIP3    H128822   6.141   6.064   3.324  1.5855  0.9787 -1.0118
 2469TIP3    H228823   6.162   6.205   3.375  0.5074  0.6250  0.4528
 2470TIP3   OH228824   0.222   2.416   3.891  0.1883 -0.0956  0.1791
 2470TIP3    H128825   0.233   2.501   3.848  1.2792  0.3435  1.2670
 2470TIP3    H228826   0.162   2.433   3.963  1.7278  0.1763  1.4447
 2471TIP3   OH228827   2.987   0.887   0.458 -0.2497  0.1204  0.4779
 2471TIP3    H128828   3.042   0.964   0.463  0.7810 -0.5894  0.3317
 2471TIP3    H228829   3.038   0.824   0.407 -1.6563 -0.1787 -0.6274
 2472TIP3   OH228830   0.006   0.568   4.727 -0.1204  0.1723 -0.4178
 2472TIP3    H128831  -0.015   0.660   4.710  0.0177  0.0920 -1.0667
 2472TIP3    H228832   0.101   0.566   4.731 -0.1489  0.4041  1.7482
 2473TIP3   OH228833   0.887   5.878   1.257 -0.2644 -0.3051  0.2137
 2473TIP3    H128834   0.818   5.812   1.249 -2.5444  2.1233 -2.2469
 2473TIP3    H228835   0.861   5.931   1.333  0.4871 -1.0181  0.9880
 2474TIP3   OH228836   4.121   6.354   0.035  0.0884  0.1193 -0.0674
 2474TIP3    H128837   4.136   6.273  -0.015 -0.3372 -0.0541  0.0784
 2474TIP3    H228838   4.198   6.362   0.091 -0.3524 -0.7776  0.7021
 2475TIP3   OH228839   3.559   4.342   4.997 -0.0283  0.4557  0.1073
 2475TIP3    H128840   3.615   4.307   4.928 -0.2574  2.5030 -1.1951
 2475TIP3    H228841   3.470   4.328   4.965 -0.2375 -0.5055  1.0229
 2476TIP3   OH228842   5.182   3.037   0.230 -0.4413 -0.1145 -0.6888
 2476TIP3    H128843   5.139   3.073   0.308  1.6173  0.1594  0.3863
 2476TIP3    H228844   5.147   2.949   0.221 -3.2704  0.9725 -1.5405
 2477TIP3   OH228845   4.508   4.939   1.823  0.0390 -0.0998  0.2695
 2477TIP3    H128846   4.473   4.867   1.771 -0.0819 -1.2987  1.9247
 2477TIP3    H228847   4.591   4.962   1.780 -0.8024  0.0539 -1.3374
 2478TIP3   OH228848   0.960   2.087   5.179 -0.2696 -0.1185 -0.1764
 2478TIP3    H128849   0.906   2.138   5.239  0.3363  1.1003 -0.6352
 2478TIP3    H228850   0.903   2.015   5.150 -1.2345  0.4575  0.2689
 2479TIP3   OH228851   1.739   0.572  14.834  0.1392  0.1458  0.4578
 2479TIP3    H128852   1.743   0.654  14.883 -0.1215  0.3152  0.1968
 2479TIP3    H228853   1.647   0.546  14.840  0.6452 -1.4654  2.7319
 2480TIP3   OH228854   0.996   3.779  12.260 -0.2273  0.2821  0.0582
 2480TIP3    H128855   0.983   3.823  12.175 -0.4717 -0.0024 -0.0578
 2480TIP3    H228856   0.999   3.686  12.238  0.3058  0.2423  0.2988
 2481TIP3   OH228857   0.607   3.211   3.721  0.2784 -0.2153  0.0684
 2481TIP3    H128858   0.560   3.286   3.756 -0.7241 -1.0924  0.6508
 2481TIP3    H228859   0.699   3.237   3.724  0.1041  0.3595  1.8954
 2482TIP3   OH228860   4.174   2.289   2.825 -0.3011  0.2280  0.0510
 2482TIP3    H128861   4.173   2.377   2.788 -0.2030  0.9700  1.7456
 2482TIP3    H228862   4.248   2.288   2.886  0.1979 -1.2921 -0.5238
 2483TIP3   OH228863   2.212   3.061  16.057  0.3831  0.4068  0.1516
 2483TIP3    H128864   2.158   2.999  16.009  0.5945 -0.3935  0.9214
 2483TIP3    H228865   2.301   3.046  16.025  0.2175  1.6390 -1.0265
 2484TIP3   OH228866   2.880   1.582  11.907 -0.3567 -0.5386  0.2918
 2484TIP3    H128867   2.882   1.613  11.817  2.2435 -1.2478  0.0332
 2484TIP3    H228868   2.962   1.612  11.945 -0.1176 -2.5971  1.5614
 2485TIP3   OH228869   0.466   6.001   1.695 -0.4342  0.5491 -0.2897
 2485TIP3    H128870   0.444   5.932   1.632  0.9951 -0.3268  0.1117
 2485TIP3    H228871   0.533   6.053   1.651  0.2821  0.1707  0.3332
 2486TIP3   OH228872   5.808   6.315  13.913 -0.0477 -0.6821  0.4165
 2486TIP3    H128873   5.821   6.228  13.876  2.4271 -1.0436  1.9560
 2486TIP3    H228874   5.831   6.375  13.842  0.0185 -1.2819 -0.0761
 2487TIP3   OH228875   2.801   3.103   4.931  0.2118  0.0277 -0.2981
 2487TIP3    H128876   2.750   3.176   4.897  0.5248 -0.3269 -1.5900
 2487TIP3    H228877   2.888   3.140   4.947 -0.1395  0.3758  0.8781
 2488TIP3   OH228878   3.048   4.996  11.583  0.3531  0.3574 -0.6784
 2488TIP3    H128879   2.962   4.962  11.609 -0.4281  2.3410 -0.4408
 2488TIP3    H228880   3.048   5.086  11.615  2.2531  0.6186 -1.3110
 2489TIP3   OH228881   4.653   0.741   0.840  0.2026  0.0662 -0.1120
 2489TIP3    H128882   4.614   0.748   0.927 -0.3787  0.9135 -0.4247
 2489TIP3    H228883   4.712   0.817   0.834 -0.5461  0.6111 -0.8271
 2490TIP3   OH228884   5.080   4.569  11.158 -0.4314 -0.2725  0.1396
 2490TIP3    H128885   5.034   4.485  11.161  1.5659 -1.4135  1.5216
 2490TIP3    H228886   5.138   4.566  11.234  0.1747  2.1022 -0.1769
 2491TIP3   OH228887   0.899   5.314   3.250 -0.1635 -0.2412  0.1748
 2491TIP3    H128888   0.950   5.368   3.311 -0.0206  0.5276 -0.6006
 2491TIP3    H228889   0.896   5.366   3.170  0.0885 -1.4545 -0.6405
 2492TIP3   OH228890   1.718   1.336   6.253 -0.3504 -0.8007 -0.3390
 2492TIP3    H128891   1.751   1.284   6.326  4.2057  0.1585 -1.3867
 2492TIP3    H228892   1.735   1.282   6.176 -0.3962  0.1871 -1.0537
 2493TIP3   OH228893   5.351   5.430   2.480  0.3055 -0.2303 -0.0997
 2493TIP3    H128894   5.420   5.366   2.460  0.0949 -0.0016 -1.6550
 2493TIP3    H228895   5.270   5.388   2.450  0.1162  0.5972 -0.7818
 2494TIP3   OH228896   2.761   4.997   0.829  0.3381 -0.0358 -0.2317
 2494TIP3    H128897   2.732   4.927   0.770  0.9505 -0.3270 -0.1885
 2494TIP3    H228898   2.819   4.953   0.892  0.4831  0.4546 -0.0224
 2495TIP3   OH228899   6.145   6.436   5.511  0.2665  0.3393 -0.8128
 2495TIP3    H128900   6.100   6.475   5.436 -0.6219  2.7487  0.8453
 2495TIP3    H228901   6.080   6.381   5.553  0.2756  0.2426 -0.9256
 2496TIP3   OH228902   5.536   5.448   5.741 -0.4481  0.4709 -0.6715
 2496TIP3    H128903   5.581   5.365   5.758 -0.1605 -0.2144 -4.0940
 2496TIP3    H228904   5.460   5.447   5.799 -1.3239 -2.9586 -1.6935
 2497TIP3   OH228905   6.660   2.513   4.562  0.0131 -0.3921  0.2739
 2497TIP3    H128906   6.694   2.477   4.481 -0.0312 -0.5756  0.3361
 2497TIP3    H228907   6.639   2.604   4.541  0.8982 -0.1689  0.3367
 2498TIP3   OH228908   1.309   1.537   2.063  0.1691  0.0272 -0.3082
 2498TIP3    H128909   1.228   1.563   2.106 -1.8792  1.0382 -4.2490
 2498TIP3    H228910   1.358   1.618   2.054  0.0472  0.0510 -0.8035
 2499TIP3   OH228911   3.130   2.133  15.892 -0.1580 -0.2333  0.6737
 2499TIP3    H128912   3.046   2.129  15.937 -0.4485  0.0462  0.1571
 2499TIP3    H228913   3.140   2.225  15.867 -0.7956 -0.6747 -1.3368
 2500TIP3   OH228914   4.002   3.983  17.165  0.7241 -0.2753  0.1502
 2500TIP3    H128915   3.973   4.059  17.214 -1.7037  0.0662 -1.6089
 2500TIP3    H228916   4.065   4.018  17.102  1.8376 -0.2705  1.2376
 2501TIP3   OH228917   1.712   0.712   2.475 -0.0729  0.3759 -0.1390
 2501TIP3    H128918   1.802   0.738   2.459 -0.3366  0.8246 -0.9716
 2501TIP3    H228919   1.695   0.641   2.412  0.2271 -0.9513  1.2124
 2502TIP3   OH228920   4.050   0.814  16.432  0.5386 -0.4236 -0.4923
 2502TIP3    H128921   4.108   0.876  16.477  0.6047  0.4869 -1.7544
 2502TIP3    H228922   3.991   0.870  16.380 -2.0440 -1.2594  1.3182
 2503TIP3   OH228923   2.886   1.436   5.015  0.3051 -0.0794  0.1827
 2503TIP3    H128924   2.800   1.424   5.055 -0.1254 -1.6742 -1.0919
 2503TIP3    H228925   2.945   1.451   5.089 -0.5502 -2.2225  1.3930
 2504TIP3   OH228926   1.953   4.027   4.833  0.1637 -0.4446  0.2415
 2504TIP3    H128927   2.023   4.047   4.895  0.0165 -0.5614  0.4498
 2504TIP3    H228928   1.985   4.059   4.749  1.1862 -2.0162 -0.0115
 2505TIP3   OH228929   1.465   4.623   4.873 -0.1021  0.1642  0.1035
 2505TIP3    H128930   1.486   4.541   4.918 -0.3917  0.6729  1.1938
 2505TIP3    H228931   1.521   4.689   4.915  2.6475  0.0590 -2.9645
 2506TIP3   OH228932   2.951   1.504  12.976  0.3068 -0.0084  0.0584
 2506TIP3    H128933   3.009   1.428  12.977  1.1476  0.5367 -1.7100
 2506TIP3    H228934   3.008   1.578  12.993 -0.5176  0.2723  1.8385
 2507TIP3   OH228935   5.497   2.291  15.133  1.3520 -0.4399 -0.4523
 2507TIP3    H128936   5.528   2.349  15.202 -3.0528  0.3363  1.1830
 2507TIP3    H228937   5.467   2.350  15.063  0.6270 -0.9220 -0.5650
 2508TIP3   OH228938   4.191   0.584   1.780  0.1661 -0.6376 -0.3987
 2508TIP3    H128939   4.205   0.536   1.861 -1.3518 -0.7797 -0.1853
 2508TIP3    H228940   4.110   0.633   1.795  1.5841  1.9480 -0.6493
 2509TIP3   OH228941   5.582   5.134  17.064  0.2963  0.3156  0.0227
 2509TIP3    H128942   5.542   5.050  17.041 -1.4150  0.6896  1.4791
 2509TIP3    H228943   5.562   5.191  16.990  1.1423 -0.4156 -0.8013
 2510TIP3   OH228944   5.470   2.648  17.064 -0.0345 -0.4028 -0.2069
 2510TIP3    H128945   5.405   2.712  17.036 -0.1469 -0.8757 -1.0529
 2510TIP3    H228946   5.455   2.638  17.158  0.1154  0.9520 -0.0118
 2511TIP3   OH228947   3.983   3.191  11.332 -0.1745  0.5350  0.7144
 2511TIP3    H128948   3.900   3.144  11.336 -0.2230  0.6067  0.5790
 2511TIP3    H228949   3.983   3.246  11.410 -0.8094  1.4391  0.0963
 2512TIP3   OH228950   6.461   5.851  15.488  0.1622 -0.2812 -0.0359
 2512TIP3    H128951   6.528   5.874  15.552 -2.4721  0.1304  2.8229
 2512TIP3    H228952   6.441   5.933  15.444 -0.7781  0.4173  1.5813
 2513TIP3   OH228953   1.352   5.450  12.111  0.9016 -0.4391 -0.1165
 2513TIP3    H128954   1.298   5.485  12.182 -0.5293  1.6601 -2.0973
 2513TIP3    H228955   1.426   5.407  12.156 -0.9548 -1.0466  2.6425
 2514TIP3   OH228956   3.494   0.756   3.798 -0.0990  0.1334 -0.2109
 2514TIP3    H128957   3.531   0.668   3.804 -2.4634 -0.8601  0.9778
 2514TIP3    H228958   3.514   0.796   3.882  0.8978  0.7559 -0.7187
 2515TIP3   OH228959   2.147   3.665  14.330 -0.3253  0.2643 -0.5244
 2515TIP3    H128960   2.142   3.723  14.406 -1.0337  0.9206 -1.0519
 2515TIP3    H228961   2.076   3.602  14.343 -0.2962  0.2314 -0.5256
 2516TIP3   OH228962   5.834   1.707  11.489  0.0956  0.1533 -0.1125
 2516TIP3    H128963   5.920   1.669  11.505  0.7511 -0.8780 -4.6540
 2516TIP3    H228964   5.775   1.633  11.482 -0.2715  0.5037 -0.9960
 2517TIP3   OH228965   3.312   5.905   1.119 -0.1525 -0.1007 -0.0742
 2517TIP3    H128966   3.249   5.837   1.144 -0.2195  0.5216  1.5732
 2517TIP3    H228967   3.267   5.955   1.051 -1.8322  0.8528  1.6429
 2518TIP3   OH228968   4.318   0.983   2.358 -0.3611  0.0911  0.1453
 2518TIP3    H128969   4.379   1.052   2.332 -1.9557  1.0609 -1.2318
 2518TIP3    H228970   4.374   0.911   2.385  1.3617  1.5904  0.7486
 2519TIP3   OH228971   4.106   5.090  11.627  0.5778 -0.1425 -0.1786
 2519TIP3    H128972   4.175   5.150  11.598  0.1210  0.4884  0.0151
 2519TIP3    H228973   4.106   5.020  11.562  0.9329  0.2116 -0.5661
 2520TIP3   OH228974   2.663   6.078   2.112 -0.2660 -0.4436 -0.2586
 2520TIP3    H128975   2.725   6.144   2.080 -1.0451 -0.4018 -1.7620
 2520TIP3    H228976   2.646   6.103   2.203  0.2286  0.8326 -0.4998
 2521TIP3   OH228977   5.394   3.361  13.742  0.0522 -0.0202  0.2260
 2521TIP3    H128978   5.313   3.406  13.718 -1.0139 -1.0566  1.7462
 2521TIP3    H228979   5.446   3.360  13.661 -2.3849 -1.2996 -1.4271
 2522TIP3   OH228980   0.706   3.693  16.880  0.2466 -0.3064  0.2273
 2522TIP3    H128981   0.638   3.741  16.926  0.9469  0.8877  0.0773
 2522TIP3    H228982   0.742   3.633  16.945 -1.1258 -1.1766  0.2181
 2523TIP3   OH228983   5.483   0.309  12.211 -0.2818  0.2245  0.2865
 2523TIP3    H128984   5.396   0.273  12.229 -0.8569  0.4953 -1.7258
 2523TIP3    H228985   5.466   0.392  12.167  0.9929  0.1416 -0.4045
 2524TIP3   OH228986   1.780   0.042   0.079 -0.2171  0.1269  0.7867
 2524TIP3    H128987   1.799  -0.003   0.161  1.8833  0.1150  0.3498
 2524TIP3    H228988   1.761  -0.028   0.016  0.9045 -0.0572  0.6290
 2525TIP3   OH228989   2.149   1.364  14.424  0.3728  0.3273 -0.3158
 2525TIP3    H128990   2.140   1.428  14.495  0.9255  0.3613 -0.2767
 2525TIP3    H228991   2.212   1.403  14.364 -0.6127  0.6299 -1.1998
 2526TIP3   OH228992   2.089   2.294  14.023  0.1272  0.0314 -0.2532
 2526TIP3    H128993   2.114   2.358  13.956  0.6578  0.9049  0.7490
 2526TIP3    H228994   2.130   2.327  14.104 -1.3956 -0.3972  0.7250
 2527TIP3   OH228995   0.126   3.815   4.340 -0.1174  0.2369 -0.3672
 2527TIP3    H128996   0.127   3.719   4.339 -1.2112  0.1952  0.4707
 2527TIP3    H228997   0.074   3.839   4.263 -2.9720  0.0042  1.3510
 2528TIP3   OH228998   2.748   0.513  13.317 -0.1439  0.1961 -0.3373
 2528TIP3    H128999   2.769   0.575  13.386  0.8417 -2.6910  2.1754
 2528TIP3    H229000   2.740   0.429  13.361  1.0195 -1.9530 -3.8020
 2529TIP3   OH229001   5.723   1.834   1.605 -0.7649  0.1247 -0.1912
 2529TIP3    H129002   5.770   1.752   1.622  0.4061  0.9425  0.6396
 2529TIP3    H229003   5.668   1.846   1.682 -1.8178 -0.4503 -0.8321
 2530TIP3   OH229004   2.454   1.365   2.605 -0.1327  0.1039  0.3281
 2530TIP3    H129005   2.410   1.357   2.689  0.4537  1.6873  0.8325
 2530TIP3    H229006   2.547   1.355   2.625 -0.0356 -0.1491 -0.2357
 2531TIP3   OH229007   3.990   6.201  12.118  0.6818  0.2584  0.2445
 2531TIP3    H129008   4.078   6.184  12.084  0.0210 -1.3524 -0.7196
 2531TIP3    H229009   3.942   6.239  12.045 -0.7127 -3.1183 -0.7626
 2532TIP3   OH229010   0.917   2.777  15.976 -0.0977 -0.5332  0.0670
 2532TIP3    H129011   0.830   2.770  16.014 -0.5687 -0.5888 -0.9725
 2532TIP3    H229012   0.925   2.701  15.919  0.3148 -0.1221 -0.4403
 2533TIP3   OH229013   5.784   4.048  17.124  0.2496 -0.5941  0.3696
 2533TIP3    H129014   5.767   4.048  17.218  1.4315 -1.0614  0.5966
 2533TIP3    H229015   5.815   3.959  17.105  1.3396 -0.1132 -0.2053
 2534TIP3   OH229016   5.133   0.200   3.160 -0.2779  0.1600  0.1913
 2534TIP3    H129017   5.040   0.210   3.180 -0.0369  0.8718  1.0218
 2534TIP3    H229018   5.140   0.113   3.122 -1.1243 -0.3511  1.1514
 2535TIP3   OH229019   6.615   5.997   1.452 -0.0872  0.5938  0.4052
 2535TIP3    H129020   6.584   5.907   1.459 -0.8182  0.7960 -0.0906
 2535TIP3    H229021   6.597   6.036   1.537  0.2238  0.2791  0.6189
 2536TIP3   OH229022   3.243   5.781  13.763  0.1165 -0.1969 -0.1366
 2536TIP3    H129023   3.251   5.806  13.671  0.5633  2.4975  0.5453
 2536TIP3    H229024   3.223   5.688  13.761 -0.3140 -0.1263 -2.9588
 2537TIP3   OH229025   5.968   3.616   5.402 -0.4812  0.4519 -0.0134
 2537TIP3    H129026   5.965   3.670   5.481  2.4675  0.2483  0.3409
 2537TIP3    H229027   6.016   3.669   5.338 -2.0447  0.2493 -1.4317
 2538TIP3   OH229028   6.126   3.244   2.527 -0.2802 -0.2949 -0.0378
 2538TIP3    H129029   6.101   3.189   2.452  0.9114 -0.4379 -0.3519
 2538TIP3    H229030   6.158   3.325   2.488 -0.8475  0.1388  0.3816
 2539TIP3   OH229031   2.882   6.201  11.247  0.1634 -0.6242 -0.0143
 2539TIP3    H129032   2.820   6.131  11.265  0.2553 -2.0468 -4.1431
 2539TIP3    H229033   2.836   6.261  11.188  0.2942  2.6786  2.9185
 2540TIP3   OH229034   4.691   0.868   0.295 -0.8042  0.0440 -1.0699
 2540TIP3    H129035   4.728   0.786   0.261 -0.4406 -0.6407  0.8619
 2540TIP3    H229036   4.602   0.845   0.320  0.2921 -0.8225  2.6762
 2541TIP3   OH229037   4.948   2.852  16.000 -0.2330  0.6830  0.1001
 2541TIP3    H129038   4.891   2.779  16.024  0.2588 -0.1553 -1.1478
 2541TIP3    H229039   5.034   2.827  16.036  0.0174  0.4450 -0.6352
 2542TIP3   OH229040   1.152   5.417   5.890  0.6639  0.4082 -0.2243
 2542TIP3    H129041   1.157   5.373   5.975  0.5942  0.4964 -0.1746
 2542TIP3    H229042   1.080   5.479   5.900  0.1358 -0.1329 -0.5939
 2543TIP3   OH229043   4.494   0.866  15.176  0.6000  0.2291  0.0448
 2543TIP3    H129044   4.587   0.874  15.156  0.4368  0.0636 -0.8410
 2543TIP3    H229045   4.488   0.790  15.234  0.9742  0.0058 -0.2058
 2544TIP3   OH229046   2.994   5.486  16.711 -0.2931  0.0407  0.2950
 2544TIP3    H129047   2.903   5.515  16.709  0.0343  1.1047  0.2270
 2544TIP3    H229048   2.989   5.392  16.727 -1.3613  0.3059  1.6972
 2545TIP3   OH229049   1.712   4.669   2.190  0.1029  0.7551  0.6565
 2545TIP3    H129050   1.800   4.664   2.153 -0.3397 -3.4135 -0.2926
 2545TIP3    H229051   1.655   4.685   2.115 -0.2111 -0.0599  0.7179
 2546TIP3   OH229052   4.510   0.353   0.426 -0.3422 -0.3434 -0.4760
 2546TIP3    H129053   4.517   0.262   0.454  0.7406  0.7718  3.5953
 2546TIP3    H229054   4.601   0.382   0.419 -0.6443  1.0296  0.8541
 2547TIP3   OH229055   1.443   1.593   0.150  0.1899 -0.9583  0.1054
 2547TIP3    H129056   1.515   1.533   0.130 -0.1784 -1.1369 -0.7153
 2547TIP3    H229057   1.408   1.562   0.234  1.7738 -0.1849  1.1131
 2548TIP3   OH229058   5.893   2.985  15.673  0.1543  0.0167  0.4721
 2548TIP3    H129059   5.824   2.940  15.723 -0.0013 -1.1514 -0.7483
 2548TIP3    H229060   5.963   2.921  15.666  1.3177  1.1243  1.5103
 2549TIP3   OH229061   6.133   4.936  15.233 -0.6091 -0.2205  0.5137
 2549TIP3    H129062   6.149   5.030  15.218  1.1217 -0.4886  0.4845
 2549TIP3    H229063   6.135   4.926  15.328  1.0227 -0.4775  0.4822
 2550TIP3   OH229064   2.431   0.926  14.825  0.4180  0.5271  0.2419
 2550TIP3    H129065   2.479   0.880  14.894  0.7409 -0.2567 -0.4854
 2550TIP3    H229066   2.340   0.899  14.837 -0.1474  2.9138  2.3541
 2551TIP3   OH229067   2.148   1.728  11.929  0.1327  0.1565 -0.0583
 2551TIP3    H129068   2.101   1.775  11.998 -0.3508 -1.5374  0.8414
 2551TIP3    H229069   2.238   1.726  11.960 -0.1291 -0.8302  0.7053
 2552TIP3   OH229070   3.935   0.262  15.044  0.0694 -0.0642  0.3051
 2552TIP3    H129071   4.023   0.289  15.021 -0.9680  3.3439 -0.2144
 2552TIP3    H229072   3.933   0.263  15.140  0.5407 -0.0986  0.3165
 2553TIP3   OH229073   5.397   2.360  15.863  0.2371 -0.9123  0.2984
 2553TIP3    H129074   5.441   2.276  15.848 -1.3039 -1.5998 -0.7619
 2553TIP3    H229075   5.436   2.419  15.799  0.5141 -1.1622  0.2361
 2554TIP3   OH229076   0.534   2.961  11.990 -0.1988 -0.2003 -0.5494
 2554TIP3    H129077   0.466   2.930  11.930 -0.7305  1.0671 -0.6173
 2554TIP3    H229078   0.548   3.052  11.967  1.0917 -0.2640 -0.1158
 2555TIP3   OH229079   4.948   4.392   1.719 -0.3856  0.1195  0.0291
 2555TIP3    H129080   4.853   4.384   1.732 -0.5036  0.9107 -0.2368
 2555TIP3    H229081   4.986   4.367   1.803 -0.7402 -1.5651 -0.2837
 2556TIP3   OH229082   6.763   5.696   5.623  0.7732 -0.2130  0.1182
 2556TIP3    H129083   6.719   5.714   5.540  0.6297  3.7357  0.8880
 2556TIP3    H229084   6.701   5.641   5.672 -1.2937  1.3144 -0.6383
 2557TIP3   OH229085   3.691   0.333   3.382  0.5926 -0.2221  0.1340
 2557TIP3    H129086   3.628   0.405   3.380 -0.0061 -0.5647  2.6744
 2557TIP3    H229087   3.639   0.256   3.360  0.7366 -0.1824 -0.3619
 2558TIP3   OH229088   4.898   4.783  14.055  0.7019 -0.4090  0.3292
 2558TIP3    H129089   4.905   4.822  13.968  1.5973  0.3639  0.7258
 2558TIP3    H229090   4.914   4.857  14.115 -0.9964 -0.6769  1.1794
 2559TIP3   OH229091   0.672   3.856   1.374 -0.8599 -0.0507  0.4249
 2559TIP3    H129092   0.692   3.791   1.441 -0.9399  1.1520  1.6538
 2559TIP3    H229093   0.711   3.937   1.406 -2.1108  0.8768 -0.2828
 2560TIP3   OH229094   1.521   1.032   3.848 -0.6562  0.2827 -0.3966
 2560TIP3    H129095   1.552   0.945   3.823  0.4031  0.7218 -0.6395
 2560TIP3    H229096   1.558   1.091   3.782  0.2511  1.1644  0.8571
 2561TIP3   OH229097   3.877   5.835  16.291 -0.2782 -0.0175  0.0886
 2561TIP3    H129098   3.806   5.894  16.265 -0.4040 -1.7235 -4.2060
 2561TIP3    H229099   3.942   5.893  16.332 -2.8452  2.0273  1.6188
 2562TIP3   OH229100   0.471   5.712   1.552  0.0955  0.0907  0.2373
 2562TIP3    H129101   0.412   5.645   1.588 -0.1325  0.5336  0.7018
 2562TIP3    H229102   0.476   5.691   1.459 -3.3832  1.9051 -0.5061
 2563TIP3   OH229103   6.776   2.297  11.897  0.3976 -0.0509 -0.9521
 2563TIP3    H129104   6.759   2.390  11.915 -4.6623 -0.9026  0.1417
 2563TIP3    H229105   6.762   2.289  11.802  0.3047  0.1776 -0.9605
 2564TIP3   OH229106   1.264   3.832  14.429  0.0581  0.5426  0.0902
 2564TIP3    H129107   1.203   3.759  14.430  0.0982  0.5150  0.4147
 2564TIP3    H229108   1.331   3.806  14.365 -0.6581  0.8984 -0.8322
 2565TIP3   OH229109   6.250   4.678   2.580  0.1908 -0.1474  0.0856
 2565TIP3    H129110   6.303   4.606   2.615  1.5208  0.3654 -0.7914
 2565TIP3    H229111   6.291   4.757   2.614 -0.3386  0.2522 -0.1873
 2566TIP3   OH229112   2.273   0.994  11.836  0.3524  0.5039  0.4090
 2566TIP3    H129113   2.210   1.066  11.838  0.7653  0.8701  0.6052
 2566TIP3    H229114   2.268   0.960  11.746  0.1058  0.7381  0.3338
 2567TIP3   OH229115   3.651   0.184  15.965 -0.1837  0.2293 -0.0487
 2567TIP3    H129116   3.611   0.166  15.880  0.4798  0.5085 -0.4317
 2567TIP3    H229117   3.603   0.259  15.999 -1.0758 -0.4641  0.2597
 2568TIP3   OH229118   2.685   5.105  14.363 -0.0690  0.2720 -0.0946
 2568TIP3    H129119   2.596   5.070  14.360  0.5144 -1.5587  1.5423
 2568TIP3    H229120   2.708   5.104  14.456  1.4030  1.4496 -0.4014
 2569TIP3   OH229121   2.041   2.671   3.033 -0.3361  0.4531  0.1529
 2569TIP3    H129122   2.055   2.582   3.002 -0.1865  0.6507 -0.3503
 2569TIP3    H229123   2.109   2.685   3.099 -0.7621 -0.0271  0.7098
 2570TIP3   OH229124   3.275   1.499   2.530 -0.3625  0.1687  0.5194
 2570TIP3    H129125   3.261   1.477   2.438  0.4328  2.1502 -0.1353
 2570TIP3    H229126   3.361   1.462   2.550 -1.2456 -1.7362  1.0225
 2571TIP3   OH229127   2.494   0.332   1.619  0.2049  0.1126 -0.2230
 2571TIP3    H129128   2.573   0.323   1.672 -1.2201  0.5762  2.1008
 2571TIP3    H229129   2.424   0.298   1.674 -0.9625 -2.9888 -3.2269
 2572TIP3   OH229130   5.196   2.251  16.296  0.6524 -0.6516 -0.2545
 2572TIP3    H129131   5.263   2.261  16.364 -0.7904 -0.2543  1.1906
 2572TIP3    H229132   5.131   2.192  16.336 -1.4440  1.4837 -0.2470
 2573TIP3   OH229133   1.659   1.430   0.038  0.3912  0.0354 -0.3113
 2573TIP3    H129134   1.578   1.446  -0.012  0.4012  1.3300  0.0351
 2573TIP3    H229135   1.728   1.462  -0.020  0.5369  0.0818 -0.1113
 2574TIP3   OH229136   0.819   1.618   4.978 -0.1946 -0.2125 -0.8834
 2574TIP3    H129137   0.816   1.583   4.890 -0.2488 -0.4362 -0.7930
 2574TIP3    H229138   0.822   1.541   5.035  1.3205 -0.0716 -0.7376
 2575TIP3   OH229139   2.433   3.943   1.370 -0.7426  0.4337  0.1046
 2575TIP3    H129140   2.508   3.962   1.428 -0.1592 -0.8116 -0.2034
 2575TIP3    H229141   2.461   3.973   1.284 -0.6310  0.0612  0.0088
 2576TIP3   OH229142   5.174   6.393  11.109 -0.1554  0.3615 -0.5956
 2576TIP3    H129143   5.136   6.473  11.145  2.9655  1.2476  1.0833
 2576TIP3    H229144   5.237   6.364  11.175 -1.2752 -3.7067 -1.0038
 2577TIP3   OH229145   6.714   2.256   5.126  0.0361  0.3179  0.0363
 2577TIP3    H129146   6.723   2.340   5.171 -3.1484  0.0072  1.5250
 2577TIP3    H229147   6.636   2.266   5.071  0.6974 -1.1048 -1.2514
 2578TIP3   OH229148   6.336   1.956   5.031  0.0773  0.5470 -0.7883
 2578TIP3    H129149   6.368   1.866   5.034  1.4027  1.0260  1.1208
 2578TIP3    H229150   6.247   1.952   5.065  0.7197  0.1487  0.9245
 2579TIP3   OH229151   6.670   1.645  12.486  0.5699  0.6789  0.0447
 2579TIP3    H129152   6.699   1.735  12.470 -2.0310  1.5188 -0.4202
 2579TIP3    H229153   6.594   1.654  12.543 -0.3348 -1.1518 -0.7976
 2580TIP3   OH229154   5.799   0.505   3.168 -0.1286 -0.0805  0.8395
 2580TIP3    H129155   5.845   0.519   3.086 -1.8054  1.6741  0.1178
 2580TIP3    H229156   5.847   0.558   3.232 -0.5941  1.0459  0.2854
 2581TIP3   OH229157   1.468   5.439  14.126 -0.4355  0.2502 -0.1743
 2581TIP3    H129158   1.407   5.415  14.196 -0.2305 -1.2902 -0.4951
 2581TIP3    H229159   1.491   5.530  14.145 -0.1646 -0.2073  1.9266
 2582TIP3   OH229160   5.703   4.130   1.823 -0.3415 -0.0588 -0.0278
 2582TIP3    H129161   5.658   4.213   1.814 -1.1717 -0.4549  0.3841
 2582TIP3    H229162   5.646   4.066   1.781 -0.3330 -0.6164  0.7775
 2583TIP3   OH229163   5.315   6.594  12.664 -0.1145  0.2548 -0.5567
 2583TIP3    H129164   5.309   6.502  12.688 -1.3190  0.6745  0.8670
 2583TIP3    H229165   5.324   6.593  12.568  0.1224 -1.3357 -0.5393
 2584TIP3   OH229166   2.088   1.690   3.460  0.3216  0.0721  0.4115
 2584TIP3    H129167   2.163   1.655   3.413 -0.1041  0.5882 -0.7208
 2584TIP3    H229168   2.013   1.643   3.424 -0.1894  1.6209 -0.6820
 2585TIP3   OH229169   3.224   5.246  14.439 -0.2084  0.0550 -0.0134
 2585TIP3    H129170   3.316   5.220  14.442  0.0707  0.9262 -0.7207
 2585TIP3    H229171   3.182   5.193  14.508  0.3960 -1.9915 -1.1340
 2586TIP3   OH229172   2.543   0.191  13.259 -0.0143  0.3636 -0.4391
 2586TIP3    H129173   2.539   0.286  13.269  1.1799  0.3254  0.7052
 2586TIP3    H229174   2.576   0.178  13.170 -0.5356  1.0059 -0.7334
 2587TIP3   OH229175   2.448   5.026  15.120 -0.0224  0.2996 -0.2167
 2587TIP3    H129176   2.540   5.002  15.117  0.3065  1.3334  0.8994
 2587TIP3    H229177   2.434   5.060  15.208 -0.8978  2.3030 -1.0673
 2588TIP3   OH229178   1.920   2.870   2.893  0.6735  0.7015  0.2310
 2588TIP3    H129179   1.975   2.820   2.953  0.1692 -0.2215 -0.0466
 2588TIP3    H229180   1.908   2.812   2.817 -0.9881  0.6932  0.4557
 2589TIP3   OH229181   0.349   0.770  11.699 -0.4353  0.5600  0.3463
 2589TIP3    H129182   0.304   0.781  11.782 -0.6107 -0.3913  0.3862
 2589TIP3    H229183   0.286   0.801  11.633 -0.8293  0.0238  0.4674
 2590TIP3   OH229184   0.959   3.612   3.453  0.0909 -0.2984 -0.3413
 2590TIP3    H129185   1.001   3.651   3.530 -1.6275  0.2954  0.3376
 2590TIP3    H229186   0.958   3.683   3.389 -0.4409 -0.1019 -0.1228
 2591TIP3   OH229187   2.260   2.419   1.130 -0.3687  0.5362  0.4121
 2591TIP3    H129188   2.207   2.449   1.204  0.5026 -0.1902  1.3433
 2591TIP3    H229189   2.251   2.323   1.132 -0.7051  0.5316 -0.7107
 2592TIP3   OH229190   4.540   1.412   1.228  1.0657 -0.0408 -0.0438
 2592TIP3    H129191   4.615   1.361   1.260  1.6222  1.7177  1.6075
 2592TIP3    H229192   4.568   1.503   1.234 -0.7750  0.6062 -0.5760
 2593TIP3   OH229193   5.347   3.089   4.199  0.1337  0.0371  0.0426
 2593TIP3    H129194   5.439   3.099   4.175  0.6254  0.5140  1.9800
 2593TIP3    H229195   5.344   3.006   4.247 -0.1475  0.6938  1.1961
 2594TIP3   OH229196   2.014   4.087   6.004  0.2573  0.6983  0.0358
 2594TIP3    H129197   1.997   4.181   5.994 -0.0293  0.6517  0.0722
 2594TIP3    H229198   1.928   4.049   6.023  0.3430  0.4064 -0.1467
 2595TIP3   OH229199   1.350   1.045  15.497 -0.0855 -0.0622  0.5626
 2595TIP3    H129200   1.261   1.022  15.521 -0.1860  0.4693  0.7179
 2595TIP3    H229201   1.347   1.054  15.401 -0.7336  2.0329  0.7161
 2596TIP3   OH229202   6.788   2.844  11.245  0.2933 -0.3948  0.4013
 2596TIP3    H129203   6.796   2.935  11.219 -0.9858 -0.5559 -0.6534
 2596TIP3    H229204   6.859   2.799  11.200  0.8234  0.0362  0.7932
 2597TIP3   OH229205   3.346   6.467  12.313 -0.2510 -0.0209  0.2550
 2597TIP3    H129206   3.303   6.390  12.276 -1.0137  0.4387  0.1887
 2597TIP3    H229207   3.342   6.453  12.408  0.2448 -0.4002  0.2259
 2598TIP3   OH229208   6.066   0.933   5.387  0.0013 -0.0188 -0.3442
 2598TIP3    H129209   6.093   1.024   5.393 -0.4548  0.0261  1.8840
 2598TIP3    H229210   5.977   0.936   5.353 -0.0421  0.3615 -0.1940
 2599TIP3   OH229211   4.146   4.522   5.607  0.4070  0.3901  0.0089
 2599TIP3    H129212   4.212   4.495   5.671 -1.4632 -0.4760  1.6740
 2599TIP3    H229213   4.129   4.614   5.628  1.6050  0.8557 -0.9502
 2600TIP3   OH229214   0.250   3.447  11.311 -0.1758  0.2259 -0.1777
 2600TIP3    H129215   0.312   3.476  11.378 -0.6455 -0.0204  0.3766
 2600TIP3    H229216   0.213   3.528  11.276  1.9310  0.4874 -1.9815
 2601TIP3   OH229217   5.276   2.198  14.761  0.2437 -0.1102  0.3729
 2601TIP3    H129218   5.238   2.128  14.707 -0.4722  1.3081 -1.0417
 2601TIP3    H229219   5.357   2.160  14.795  0.6983 -1.1003 -1.6659
 2602TIP3   OH229220   0.766   3.086   1.752  0.0432 -0.1763 -0.0607
 2602TIP3    H129221   0.755   2.991   1.757  2.8134 -0.5445  0.9896
 2602TIP3    H229222   0.832   3.106   1.818 -0.5331  2.5389 -0.1619
 2603TIP3   OH229223   2.036   0.214  13.276 -0.4162  0.1312 -0.2286
 2603TIP3    H129224   1.981   0.149  13.320 -1.4379 -0.5383 -2.3573
 2603TIP3    H229225   1.980   0.291  13.266 -0.5465 -0.0971 -1.2831
 2604TIP3   OH229226   2.989   4.133  12.773  0.1245 -0.1754  0.0191
 2604TIP3    H129227   2.896   4.144  12.751 -0.0291  1.2194  1.2063
 2604TIP3    H229228   3.007   4.041  12.754 -1.5049 -0.4851 -0.2127
 2605TIP3   OH229229   5.715   0.906   0.247  0.2535  0.6692  0.3083
 2605TIP3    H129230   5.806   0.915   0.276 -0.0832 -0.8739  1.9852
 2605TIP3    H229231   5.663   0.916   0.327 -1.1425  2.3194 -0.7422
 2606TIP3   OH229232   0.292   3.889  15.825 -0.1693  0.3203  0.2148
 2606TIP3    H129233   0.207   3.903  15.784  0.3076  0.0905 -0.8702
 2606TIP3    H229234   0.300   3.962  15.887  0.5200  2.7058 -2.4829
 2607TIP3   OH229235   1.526   1.853  15.394 -0.0216  0.8066 -0.1697
 2607TIP3    H129236   1.434   1.832  15.378  0.1545 -1.0217  0.8963
 2607TIP3    H229237   1.575   1.792  15.339  0.5443  1.0925  0.0084
 2608TIP3   OH229238   0.338   5.597   2.374  0.6231 -0.4299  0.0872
 2608TIP3    H129239   0.375   5.574   2.459  1.0275 -1.1348 -0.2701
 2608TIP3    H229240   0.413   5.598   2.314  0.3025 -0.2212 -0.3198
 2609TIP3   OH229241   2.736   2.182  12.869 -0.2917  0.3696 -0.3227
 2609TIP3    H129242   2.754   2.168  12.776  0.2315  0.0396 -0.1783
 2609TIP3    H229243   2.706   2.098  12.902  0.6183  0.1690  0.0433
 2610TIP3   OH229244   5.308   3.498  10.478  0.0048 -0.1008  0.3283
 2610TIP3    H129245   5.232   3.551  10.455 -1.1582 -0.3121  3.1958
 2610TIP3    H229246   5.270   3.418  10.516  1.6863 -1.0029  0.1923
 2611TIP3   OH229247   4.248   2.113   4.561  0.5844  0.3967  0.0951
 2611TIP3    H129248   4.162   2.153   4.545  0.5220 -0.1109 -0.9451
 2611TIP3    H229249   4.228   2.025   4.593  0.6674 -0.2658 -1.5495
 2612TIP3   OH229250   0.056   4.537   2.688  0.4699  0.1196  0.7005
 2612TIP3    H129251  -0.015   4.495   2.640  1.1180  0.8324 -0.9276
 2612TIP3    H229252   0.030   4.628   2.696  0.1751 -0.0605  2.1328
 2613TIP3   OH229253   5.535   1.683  13.886 -0.1214  0.6280  0.5232
 2613TIP3    H129254   5.475   1.693  13.960  0.9497 -0.7060  1.6311
 2613TIP3    H229255   5.536   1.589  13.869  1.2275  0.6855  0.1910
 2614TIP3   OH229256   4.992   1.524   6.299  0.5009 -0.2173  0.3020
 2614TIP3    H129257   4.967   1.449   6.245  0.3796 -0.4985  0.7442
 2614TIP3    H229258   5.081   1.547   6.269  1.2084 -1.5663  1.2653
 2615TIP3   OH229259   1.575   6.479   2.054 -0.2806  0.2771 -0.5065
 2615TIP3    H129260   1.482   6.457   2.053  0.0441 -1.2731  0.1519
 2615TIP3    H229261   1.618   6.400   2.087  1.3396  0.7218 -1.4226
 2616TIP3   OH229262   5.484   5.793  15.677 -0.1024 -0.5006  0.2812
 2616TIP3    H129263   5.433   5.712  15.669 -0.0929 -0.5920  1.0690
 2616TIP3    H229264   5.524   5.787  15.763  0.1203  0.2206  0.2286
 2617TIP3   OH229265   1.703   5.359   4.860 -0.0251  0.2017  0.5889
 2617TIP3    H129266   1.622   5.349   4.908 -0.0981 -0.6446  0.2975
 2617TIP3    H229267   1.756   5.283   4.884  0.4290  0.4141  0.2938
 2618TIP3   OH229268   5.075   0.314   3.568 -0.0100  0.3489  0.0217
 2618TIP3    H129269   4.984   0.314   3.537 -0.1148 -0.5376  0.3001
 2618TIP3    H229270   5.071   0.271   3.653  0.4940  1.4787  0.6427
 2619TIP3   OH229271   3.822   0.674  16.041 -0.6993 -0.1292 -0.0247
 2619TIP3    H129272   3.834   0.700  15.950  0.5147  1.0741  0.4422
 2619TIP3    H229273   3.805   0.580  16.037 -3.7192  0.3677 -1.6718
 2620TIP3   OH229274   2.722   5.551   6.257  0.1176 -0.2434  0.2105
 2620TIP3    H129275   2.687   5.528   6.170  0.8096  0.0463 -0.1571
 2620TIP3    H229276   2.645   5.556   6.313 -0.3724 -0.1462 -0.4541
 2621TIP3   OH229277   0.406   3.851   4.768 -0.4059  0.3389 -0.4317
 2621TIP3    H129278   0.345   3.781   4.792  0.5941 -0.5047 -0.2649
 2621TIP3    H229279   0.476   3.844   4.832  0.4355  0.5505 -1.3139
 2622TIP3   OH229280   5.534   0.316  11.841 -0.4183  0.3077  0.0157
 2622TIP3    H129281   5.476   0.363  11.901 -0.5301  0.8757 -0.5278
 2622TIP3    H229282   5.488   0.234  11.822 -0.3987  0.1453  0.6694
 2623TIP3   OH229283   5.025   4.666  15.137 -0.1462  0.1574 -0.4186
 2623TIP3    H129284   5.034   4.646  15.044  0.2971 -1.8370 -0.0028
 2623TIP3    H229285   5.039   4.761  15.143  1.2872  0.1157 -2.2007
 2624TIP3   OH229286   2.854   2.147  16.033  0.0496  0.0002 -0.2939
 2624TIP3    H129287   2.848   2.134  16.127  0.5233  0.8697 -0.1344
 2624TIP3    H229288   2.817   2.067  15.995 -0.1574 -0.3479  0.6219
 2625TIP3   OH229289   5.175   3.784  14.787 -0.3666  0.4015 -0.1765
 2625TIP3    H129290   5.114   3.738  14.729  0.3604 -0.0049 -0.6392
 2625TIP3    H229291   5.162   3.877  14.767 -1.8634  0.4264  0.7827
 2626TIP3   OH229292   1.721   3.415  15.680 -0.3255  0.3485  0.0308
 2626TIP3    H129293   1.670   3.491  15.654  1.5281  1.8662  0.5648
 2626TIP3    H229294   1.701   3.348  15.614 -0.2064  2.1074 -1.8781
 2627TIP3   OH229295   1.552   4.128  14.372 -0.3104  0.0805  0.2548
 2627TIP3    H129296   1.553   4.077  14.453 -0.9886 -2.3123 -1.1447
 2627TIP3    H229297   1.460   4.152  14.360 -0.2203  0.3798  0.1440
 2628TIP3   OH229298   1.438   6.669   5.581  0.4581  0.7795  0.8489
 2628TIP3    H129299   1.469   6.596   5.527  0.1683 -0.1637  1.9124
 2628TIP3    H229300   1.474   6.747   5.539  1.9621 -0.0712  0.4810
 2629TIP3   OH229301   0.959   1.789  15.016  0.8090 -0.3584 -0.0342
 2629TIP3    H129302   0.927   1.707  15.053 -1.2728  0.1042 -0.6693
 2629TIP3    H229303   0.944   1.854  15.084 -0.3347 -0.0185 -0.5769
 2630TIP3   OH229304   2.680   2.976  11.276  0.1000  0.3099  0.0796
 2630TIP3    H129305   2.702   3.017  11.192  0.2527 -0.3245 -0.1980
 2630TIP3    H229306   2.658   2.886  11.253  0.0739  0.1534  0.7168
 2631TIP3   OH229307   4.586   1.661   2.350 -0.4022 -0.2737  0.3960
 2631TIP3    H129308   4.667   1.674   2.399 -0.3088 -0.3745  0.2697
 2631TIP3    H229309   4.530   1.610   2.410  1.1297 -3.9002 -0.9636
 2632TIP3   OH229310   1.672   5.317  11.404 -0.3281 -0.5628  0.4876
 2632TIP3    H129311   1.759   5.353  11.389 -0.3913 -0.4037  0.4907
 2632TIP3    H229312   1.640   5.364  11.481 -0.2040 -1.0103  0.8117
 2633TIP3   OH229313   2.307   1.857   3.885 -0.8209 -0.8829 -0.4808
 2633TIP3    H129314   2.236   1.812   3.838  0.9863 -2.2669 -1.9985
 2633TIP3    H229315   2.387   1.823   3.846  0.7070  2.3152 -0.3811
 2634TIP3   OH229316   2.832   1.801  12.570 -0.1530 -0.2764 -0.4849
 2634TIP3    H129317   2.741   1.791  12.542  0.5371 -1.6471 -2.4475
 2634TIP3    H229318   2.837   1.754  12.653 -0.8630 -1.7599 -1.2522
 2635TIP3   OH229319   3.665   3.080  13.918 -0.0163 -0.1629  0.7280
 2635TIP3    H129320   3.620   3.159  13.948 -0.4258 -0.5166  1.0515
 2635TIP3    H229321   3.607   3.008  13.943 -0.2675 -0.4892 -0.6883
 2636TIP3   OH229322   0.226   2.551   1.440  0.0786 -0.0263 -0.1557
 2636TIP3    H129323   0.154   2.501   1.401  0.7535 -0.2349 -1.1528
 2636TIP3    H229324   0.260   2.494   1.509 -1.7154  0.7179  1.4694
 2637TIP3   OH229325   3.687   0.129   3.148  0.0087  0.4854  0.2441
 2637TIP3    H129326   3.616   0.077   3.110  0.6937 -0.9726  0.8747
 2637TIP3    H229327   3.668   0.219   3.122 -0.2140 -0.2683 -2.5364
 2638TIP3   OH229328   3.665   6.654   4.668  0.5600 -0.3663  0.9426
 2638TIP3    H129329   3.702   6.569   4.691  2.2218  0.1533  0.3171
 2638TIP3    H229330   3.596   6.669   4.733  0.3869 -2.0675  1.1909
 2639TIP3   OH229331   3.494   2.933  14.254 -0.4155 -0.5225 -0.4082
 2639TIP3    H129332   3.415   2.939  14.200 -0.2021  0.7128 -0.6065
 2639TIP3    H229333   3.564   2.967  14.199 -0.4160  2.1305  1.0223
 2640TIP3   OH229334   2.167   4.350   4.404  0.1872 -0.2938 -0.1798
 2640TIP3    H129335   2.247   4.329   4.355  0.2433 -1.6643  0.4585
 2640TIP3    H229336   2.129   4.424   4.356 -0.1087 -1.9547 -2.7256
 2641TIP3   OH229337   5.002   3.297  12.958  0.2174 -0.1863 -0.0872
 2641TIP3    H129338   4.915   3.260  12.945  0.6412 -1.4865  0.5931
 2641TIP3    H229339   5.018   3.291  13.052  1.4980 -1.0958 -0.3260
 2642TIP3   OH229340   3.123   5.565   3.690  0.6259  0.8403 -0.6004
 2642TIP3    H129341   3.141   5.499   3.623  1.1615 -0.3458  0.6481
 2642TIP3    H229342   3.045   5.532   3.735  2.9471 -1.0389  2.4315
 2643TIP3   OH229343   3.376   1.249   3.950  0.0699 -0.3857 -0.0163
 2643TIP3    H129344   3.337   1.165   3.927  0.1059 -0.0536 -1.3677
 2643TIP3    H229345   3.455   1.255   3.897 -0.0788  0.6208 -0.1592
 2644TIP3   OH229346   3.249   6.739   4.562 -0.4116 -0.1310 -0.1372
 2644TIP3    H129347   3.165   6.733   4.607 -1.3368 -1.0432 -1.8943
 2644TIP3    H229348   3.275   6.649   4.547 -0.3256  0.1353 -1.7344
 2645TIP3   OH229349   1.890   5.462   5.353 -0.2945 -0.4965 -0.2430
 2645TIP3    H129350   1.872   5.519   5.428  0.5919  0.2267 -0.5557
 2645TIP3    H229351   1.921   5.380   5.391  1.3577  0.2982  0.1848
 2646TIP3   OH229352   0.605   5.016   0.633  0.4154 -0.0501  0.1280
 2646TIP3    H129353   0.644   4.960   0.700 -0.8781  0.9105  1.7679
 2646TIP3    H229354   0.611   5.104   0.669 -1.3742  0.3647 -0.4647
 2647TIP3   OH229355   0.565   4.129   5.269  0.2491  0.4864 -0.0834
 2647TIP3    H129356   0.596   4.081   5.192 -0.4257 -1.4643  0.7900
 2647TIP3    H229357   0.528   4.210   5.233  2.2718  0.8425 -1.5292
 2648TIP3   OH229358   1.007   1.853  12.168 -0.0521  0.3062 -0.5622
 2648TIP3    H129359   1.060   1.884  12.242 -0.3688  1.8068 -0.9325
 2648TIP3    H229360   0.926   1.821  12.209  0.2476  0.0365 -0.1706
 2649TIP3   OH229361   4.690   1.058   3.506  0.0807  0.0958  0.2977
 2649TIP3    H129362   4.609   1.069   3.556 -0.0521  0.9909 -0.1012
 2649TIP3    H229363   4.697   1.137   3.453 -0.1200 -1.0559 -1.5736
 2650TIP3   OH229364   6.572   3.919   5.285 -0.1709 -0.0530 -0.5474
 2650TIP3    H129365   6.602   3.952   5.370  0.2731 -0.6403 -0.4737
 2650TIP3    H229366   6.652   3.911   5.233 -0.6418  2.4816 -1.8182
 2651TIP3   OH229367   2.430   0.399  15.171 -0.4727 -0.0707 -0.1653
 2651TIP3    H129368   2.432   0.356  15.257 -2.5059 -0.5717 -0.3275
 2651TIP3    H229369   2.515   0.377  15.132 -0.1360 -1.1401  1.0790
 2652TIP3   OH229370   4.453   0.337  12.264  0.3063 -0.2134  0.6230
 2652TIP3    H129371   4.410   0.393  12.329 -1.3487 -0.5594 -0.1033
 2652TIP3    H229372   4.432   0.248  12.291  0.5321 -0.3892  0.2290
 2653TIP3   OH229373   6.346   2.328  12.814 -0.0595  0.5437 -0.0878
 2653TIP3    H129374   6.439   2.312  12.831  0.0588 -1.4060 -2.0283
 2653TIP3    H229375   6.312   2.363  12.896  1.9511 -0.7443  1.3960
 2654TIP3   OH229376   0.179   1.092  12.104  0.0007 -0.1219 -0.3497
 2654TIP3    H129377   0.196   1.032  12.176  0.2990 -0.2202 -0.5014
 2654TIP3    H229378   0.084   1.104  12.105  0.1863  2.7031  2.3753
 2655TIP3   OH229379   1.266   1.414  13.950 -0.7376  0.3100  0.5490
 2655TIP3    H129380   1.200   1.452  13.893 -0.6545  0.2257  0.3952
 2655TIP3    H229381   1.295   1.487  14.005  1.4390  1.2104 -1.6190
 2656TIP3   OH229382   2.013   6.742   0.899 -0.1319 -0.2377 -0.2123
 2656TIP3    H129383   2.070   6.696   0.838  0.0976 -0.8989  0.4844
 2656TIP3    H229384   1.951   6.676   0.929 -0.9459  0.3476 -0.5617
 2657TIP3   OH229385   6.647   3.246   1.816  0.3532  0.0808  0.5585
 2657TIP3    H129386   6.626   3.153   1.805  0.5724 -0.2940  2.8649
 2657TIP3    H229387   6.688   3.271   1.733  0.1980 -1.8514 -0.1499
 2658TIP3   OH229388   6.085   1.171  12.780 -0.3999  0.2896  0.3618
 2658TIP3    H129389   6.162   1.114  12.778  0.7307  1.7814  0.0829
 2658TIP3    H229390   6.011   1.110  12.786  0.6497 -1.3093 -1.4929
 2659TIP3   OH229391   1.829   4.522   5.811  0.0905  0.4513  0.1317
 2659TIP3    H129392   1.837   4.598   5.868  0.9563 -0.6994  1.6089
 2659TIP3    H229393   1.747   4.537   5.763 -0.7626  1.4037  1.7750
 2660TIP3   OH229394   0.163   1.114  14.155  0.0949  0.2977 -0.0993
 2660TIP3    H129395   0.168   1.044  14.219 -1.2922  0.2914  0.0363
 2660TIP3    H229396   0.186   1.193  14.203 -0.3431  0.2087  0.2556
 2661TIP3   OH229397   2.092   6.627  14.250  0.3224 -0.4233 -0.3707
 2661TIP3    H129398   2.056   6.712  14.224 -0.8437 -0.9846 -0.6711
 2661TIP3    H229399   2.184   6.645  14.269  0.3311  0.7220 -1.3586
 2662TIP3   OH229400   0.645   3.868   5.179  0.6398  0.6646 -0.9920
 2662TIP3    H129401   0.629   3.795   5.239 -1.0601  1.1228 -0.8347
 2662TIP3    H229402   0.736   3.893   5.196  0.5265  0.1122  0.6507
 2663TIP3   OH229403   1.365   2.175  15.315  0.4753  0.5225 -0.1594
 2663TIP3    H129404   1.316   2.093  15.319  1.3661  0.0267  1.1001
 2663TIP3    H229405   1.325   2.222  15.242  0.7163 -1.5330 -1.7284
 2664TIP3   OH229406   4.146   5.322   2.808  0.5865  0.3462  0.0303
 2664TIP3    H129407   4.213   5.294   2.744  0.1315 -0.2956 -0.1815
 2664TIP3    H229408   4.187   5.395   2.855  1.6651 -0.3976  0.3006
 2665TIP3   OH229409   2.333   4.486  13.540  0.2550 -0.4979  0.1181
 2665TIP3    H129410   2.268   4.555  13.545  0.6027 -0.2539  2.2837
 2665TIP3    H229411   2.282   4.405  13.529 -0.3435 -0.1956  0.6397
 2666TIP3   OH229412   5.770   1.666  13.392  0.3665 -0.7649  0.5365
 2666TIP3    H129413   5.708   1.595  13.409 -0.3073 -0.1677  0.5707
 2666TIP3    H229414   5.769   1.677  13.297  0.0453 -0.4217  0.5776
 2667TIP3   OH229415   5.507   4.515  15.589 -0.7458  0.1495  0.9411
 2667TIP3    H129416   5.503   4.588  15.526 -0.7336  0.2423  1.0477
 2667TIP3    H229417   5.539   4.441  15.537  1.6017  0.7992  1.3509
 2668TIP3   OH229418   0.161   3.505   5.025  0.2221  0.1311 -0.4981
 2668TIP3    H129419   0.209   3.426   5.002 -0.1406 -0.7826  1.6563
 2668TIP3    H229420   0.228   3.564   5.061  0.4264  0.6699 -1.7268
 2669TIP3   OH229421   2.453   3.651   3.026  0.3989  0.0641  0.4554
 2669TIP3    H129422   2.386   3.582   3.021 -1.3761  1.6964  0.6989
 2669TIP3    H229423   2.515   3.628   2.957 -0.8320 -1.0684 -0.3396
 2670TIP3   OH229424   6.604   5.265   4.007 -0.0032 -0.0931 -0.0380
 2670TIP3    H129425   6.518   5.229   3.984 -0.6166  0.0868  1.7765
 2670TIP3    H229426   6.622   5.329   3.939 -1.8356  0.6692  0.1234
 2671TIP3   OH229427   1.259   1.153  11.221 -0.2799  0.6893  0.8655
 2671TIP3    H129428   1.218   1.237  11.203  0.1957  0.6782 -0.3803
 2671TIP3    H229429   1.331   1.174  11.280  0.1285  1.2397  0.1891
 2672TIP3   OH229430   1.875   3.977   0.257 -0.1800 -0.4467 -0.2336
 2672TIP3    H129431   1.781   3.991   0.251 -0.0889  1.4215  1.6481
 2672TIP3    H229432   1.885   3.894   0.303 -0.8892 -0.7212 -0.5612
 2673TIP3   OH229433   3.835   1.981   5.576  0.9556 -0.3120  0.0743
 2673TIP3    H129434   3.820   1.896   5.536  0.7500 -1.7061  2.8385
 2673TIP3    H229435   3.925   2.005   5.551  0.3437 -0.3046 -2.3438
 2674TIP3   OH229436   3.857   2.498  11.879 -0.4586 -1.0636 -0.4047
 2674TIP3    H129437   3.799   2.573  11.874  1.1402  0.1844 -1.4396
 2674TIP3    H229438   3.823   2.436  11.814  0.2108  0.3179 -2.1570
 2675TIP3   OH229439   5.223   4.185   3.023  0.0238 -0.4121  0.1454
 2675TIP3    H129440   5.202   4.221   3.109 -1.0423 -0.4663 -0.0822
 2675TIP3    H229441   5.144   4.140   2.995  0.5546 -0.9027 -0.6145
 2676TIP3   OH229442   3.172   4.061   5.665  0.0986 -0.5873  0.4609
 2676TIP3    H129443   3.134   4.107   5.740 -0.4005  1.5684 -1.0199
 2676TIP3    H229444   3.258   4.101   5.654 -0.8239  0.9706 -1.5912
 2677TIP3   OH229445   2.133   5.649  14.627 -0.0948  0.0912 -0.3657
 2677TIP3    H129446   2.121   5.675  14.536 -1.5712 -1.0720 -0.5436
 2677TIP3    H229447   2.111   5.555  14.629 -0.1462  0.1012  1.1897
 2678TIP3   OH229448   6.057   6.699   5.030  0.1985 -0.4344 -0.3049
 2678TIP3    H129449   6.119   6.665   4.966 -0.8748 -1.1751 -0.9813
 2678TIP3    H229450   6.039   6.789   5.002  2.6128  0.6257  1.1669
 2679TIP3   OH229451   2.888   2.409  13.823 -0.1246 -0.6648 -0.0744
 2679TIP3    H129452   2.950   2.361  13.768 -0.2645 -1.3585  0.3591
 2679TIP3    H229453   2.830   2.453  13.761 -0.8389 -2.1581 -0.5244
 2680TIP3   OH229454   2.927   3.335   3.446 -0.4742  0.2531  0.1620
 2680TIP3    H129455   2.884   3.274   3.507 -0.2094  0.7959  0.8982
 2680TIP3    H229456   2.880   3.418   3.458  1.0226  0.9783  1.2894
 2681TIP3   OH229457   2.263   2.273  12.431  0.0251  0.1323 -0.8375
 2681TIP3    H129458   2.321   2.290  12.357 -0.7590 -2.8150 -2.2849
 2681TIP3    H229459   2.175   2.282  12.396 -0.4265  1.5023  0.5379
 2682TIP3   OH229460   0.012   5.706  12.901  0.1907  0.1028 -0.1435
 2682TIP3    H129461   0.042   5.679  12.814  0.5143  0.7366 -0.2315
 2682TIP3    H229462  -0.038   5.631  12.933  0.6473 -0.4064 -0.5951
 2683TIP3   OH229463   5.526   2.475  15.669 -0.0459 -0.1658 -0.0565
 2683TIP3    H129464   5.560   2.407  15.610 -0.6278 -0.3581 -0.1785
 2683TIP3    H229465   5.587   2.547  15.660  1.0102 -0.9446  0.6366
 2684TIP3   OH229466   3.740   3.909  11.537 -0.5387  0.7321 -0.1888
 2684TIP3    H129467   3.766   3.852  11.609 -1.6310  0.6176  0.1367
 2684TIP3    H229468   3.818   3.916  11.482  0.6820  1.6893  1.5488
 2685TIP3   OH229469   4.902   2.517  12.254  0.5862  0.6953  0.1697
 2685TIP3    H129470   4.855   2.561  12.184 -0.7473  0.1657  0.6848
 2685TIP3    H229471   4.879   2.424  12.244  4.4027 -0.2403 -1.7316
 2686TIP3   OH229472   1.250   1.645  12.080  0.2217 -0.2584 -0.0282
 2686TIP3    H129473   1.228   1.604  11.996 -2.0121  1.4216 -0.3667
 2686TIP3    H229474   1.233   1.576  12.144 -1.8074 -0.4738 -0.7097
 2687TIP3   OH229475   2.927   5.157   5.998  0.2880  0.4993  0.7638
 2687TIP3    H129476   2.973   5.119   6.073  0.7644 -1.7411 -0.5878
 2687TIP3    H229477   2.838   5.171   6.029  0.4459 -0.5133  1.7204
 2688TIP3   OH229478   5.861   2.507   3.667 -0.0476  0.7040 -0.6726
 2688TIP3    H129479   5.847   2.466   3.752 -1.6525  0.7882 -0.8819
 2688TIP3    H229480   5.926   2.576   3.685 -0.0616  0.4626  0.3876
 2689TIP3   OH229481   0.717   0.889   5.585 -0.4287 -0.0113  0.4556
 2689TIP3    H129482   0.720   0.800   5.549  0.5989 -0.3115  1.2284
 2689TIP3    H229483   0.807   0.920   5.578 -0.8725  1.1674 -0.2370
 2690TIP3   OH229484   0.340   4.962  13.726  0.5256 -0.0565  0.8150
 2690TIP3    H129485   0.307   4.875  13.701 -1.0031  0.7737 -0.1966
 2690TIP3    H229486   0.429   4.964  13.691  0.8877 -1.4816  1.5389
 2691TIP3   OH229487   3.949   2.255   1.249 -0.3648 -0.6699 -0.0038
 2691TIP3    H129488   3.905   2.317   1.308 -0.2896 -0.2626 -0.3675
 2691TIP3    H229489   3.878   2.201   1.214 -0.6745  0.3120 -0.9778
 2692TIP3   OH229490   4.352   3.529   6.420 -0.3595 -0.3490 -0.1576
 2692TIP3    H129491   4.297   3.504   6.495 -0.2386  0.9482  0.3913
 2692TIP3    H229492   4.434   3.558   6.459 -0.1611  0.0032 -0.8227
 2693TIP3   OH229493   3.895   1.882   2.396  0.1032  0.1423  0.1458
 2693TIP3    H129494   3.912   1.789   2.414  0.0659 -0.1305 -1.1277
 2693TIP3    H229495   3.838   1.881   2.320  0.4159  1.2332 -0.1165
 2694TIP3   OH229496   4.728   1.261   0.248 -0.5112 -0.1175 -0.1033
 2694TIP3    H129497   4.774   1.192   0.200 -1.6542 -0.3040 -0.9697
 2694TIP3    H229498   4.796   1.300   0.304  0.6609 -0.4827 -1.2082
 2695TIP3   OH229499   2.194   2.317  14.297  0.2069  0.1940  0.4406
 2695TIP3    H129500   2.228   2.389  14.350  0.8381 -0.6340  1.1801
 2695TIP3    H229501   2.264   2.299  14.235 -1.1164  2.2094 -1.8369
 2696TIP3   OH229502   4.219   0.494   5.727  0.2807 -0.2451 -0.0403
 2696TIP3    H129503   4.213   0.550   5.805 -1.0021 -0.6096  0.1400
 2696TIP3    H229504   4.299   0.524   5.683  0.0667  1.1907  0.4757
 2697TIP3   OH229505   3.480   5.913   3.359 -0.6070 -0.0640  0.4388
 2697TIP3    H129506   3.446   5.835   3.314 -0.6326 -0.5576  1.2961
 2697TIP3    H229507   3.409   5.976   3.354 -0.3205  0.1786 -0.9040
 2698TIP3   OH229508   4.182   5.249   3.372  0.0039  0.2372 -0.3514
 2698TIP3    H129509   4.224   5.168   3.344 -1.5033 -1.3609  1.7076
 2698TIP3    H229510   4.243   5.288   3.433  0.3899  0.2342 -0.7325
 2699TIP3   OH229511   3.854   4.775   3.294  0.0927 -0.8922 -0.0902
 2699TIP3    H129512   3.772   4.816   3.323 -1.4104 -1.1165 -3.5130
 2699TIP3    H229513   3.885   4.726   3.370 -1.9019  0.7733  1.9092
 2700TIP3   OH229514   3.390   1.788   0.460 -0.2119 -0.0560  1.0842
 2700TIP3    H129515   3.445   1.843   0.404 -1.8881 -0.3758 -1.0250
 2700TIP3    H229516   3.439   1.707   0.471  0.2344  0.0777  0.1721
 2701TIP3   OH229517   0.883   4.792  15.302 -0.7629  0.1944  0.0096
 2701TIP3    H129518   0.817   4.748  15.357 -2.1682  1.6224 -0.4366
 2701TIP3    H229519   0.852   4.778  15.212 -0.5230  0.9510 -0.1978
 2702TIP3   OH229520   2.061   5.543  16.159 -0.0006 -0.4385 -0.2489
 2702TIP3    H129521   2.037   5.566  16.069 -1.6442 -3.0863 -0.6210
 2702TIP3    H229522   2.082   5.449  16.154  2.1597 -0.1345  1.7501
 2703TIP3   OH229523   3.080   4.727  11.564  0.6782  0.3138  0.7662
 2703TIP3    H129524   2.985   4.720  11.560  0.8132 -1.1434 -1.8264
 2703TIP3    H229525   3.098   4.821  11.566 -0.7803  0.6029  1.4696
 2704TIP3   OH229526   1.701   2.802   2.083 -0.2252 -0.2771  0.1030
 2704TIP3    H129527   1.723   2.750   2.161 -1.3618 -0.5590  0.2593
 2704TIP3    H229528   1.729   2.748   2.009  0.5198 -0.1741  0.3062
 2705TIP3   OH229529   3.013   1.322  16.568 -0.0468 -0.1321  0.6803
 2705TIP3    H129530   2.965   1.403  16.551  0.8978  0.4699  0.7749
 2705TIP3    H229531   3.062   1.340  16.648 -1.0505 -1.3760  1.6194
 2706TIP3   OH229532   2.936   5.245  14.686  0.0423 -0.4324  0.1876
 2706TIP3    H129533   2.853   5.196  14.687 -0.6861  0.7449 -0.0796
 2706TIP3    H229534   2.996   5.188  14.638 -0.5927 -1.3375  0.4299
 2707TIP3   OH229535   0.548   4.293  12.253 -0.2047  0.2938 -0.2611
 2707TIP3    H129536   0.486   4.225  12.226 -0.1459  0.5181 -0.9772
 2707TIP3    H229537   0.634   4.252  12.242 -0.2166 -0.0741  0.8871
 2708TIP3   OH229538   5.770   2.987  11.918 -0.3561 -0.3661 -0.0703
 2708TIP3    H129539   5.813   3.066  11.885  0.2340 -0.7240 -0.1617
 2708TIP3    H229540   5.724   3.017  11.997 -0.3839  0.1321 -0.2726
 2709TIP3   OH229541   4.145   0.775   2.173 -0.4384  0.2649 -0.0173
 2709TIP3    H129542   4.132   0.867   2.149 -2.2561  0.4853  1.5356
 2709TIP3    H229543   4.219   0.776   2.234 -1.2956  0.9138  1.0359
 2710TIP3   OH229544   5.574   4.463   5.256  0.1769 -0.6061  0.6238
 2710TIP3    H129545   5.526   4.483   5.336 -0.4033  0.9259 -0.0699
 2710TIP3    H229546   5.642   4.401   5.283 -0.2755 -0.4403  2.1970
 2711TIP3   OH229547   3.101   4.011   3.945 -0.0394 -0.7265  0.1068
 2711TIP3    H129548   3.034   4.063   3.899  0.9373  1.6411  1.1663
 2711TIP3    H229549   3.124   4.065   4.020  3.3767 -1.2222 -0.4523
 2712TIP3   OH229550   5.655   4.397   1.617 -0.4281  0.1446 -0.0304
 2712TIP3    H129551   5.740   4.404   1.660  1.1523 -2.5595 -2.3708
 2712TIP3    H229552   5.639   4.483   1.579  1.4625  0.6127  0.1769
 2713TIP3   OH229553   6.490   6.119   4.423  0.1621  0.1298  0.0325
 2713TIP3    H129554   6.395   6.117   4.431  0.1715  1.0073  0.5536
 2713TIP3    H229555   6.520   6.040   4.468 -0.3000  0.0806  0.2580
 2714TIP3   OH229556   5.535   0.298  15.981 -0.0826 -0.0490  0.4744
 2714TIP3    H129557   5.452   0.321  16.024  0.3722  1.4501  0.6068
 2714TIP3    H229558   5.514   0.299  15.888 -0.3007 -0.0558  0.5212
 2715TIP3   OH229559   6.414   1.384   4.402 -0.5753 -0.0926  0.1943
 2715TIP3    H129560   6.335   1.404   4.453  0.7642 -0.8543  2.7580
 2715TIP3    H229561   6.466   1.464   4.405 -0.5438 -0.1019 -0.0817
 2716TIP3   OH229562   6.719   6.279  13.725 -0.2120 -0.2557 -0.6823
 2716TIP3    H129563   6.810   6.254  13.744 -0.0087  0.8739 -0.0704
 2716TIP3    H229564   6.682   6.299  13.811 -0.8049  0.0662 -1.0062
 2717TIP3   OH229565   5.193   3.579  14.101  0.3622 -0.4235 -0.0552
 2717TIP3    H129566   5.284   3.552  14.117  0.5678  0.5155  0.4891
 2717TIP3    H229567   5.148   3.563  14.183 -0.3007 -2.0808 -0.7069
 2718TIP3   OH229568   6.716   5.303   4.520  0.0500 -0.4066  0.3679
 2718TIP3    H129569   6.659   5.275   4.448 -0.4105  2.6424 -0.5995
 2718TIP3    H229570   6.671   5.273   4.599 -2.2120  0.6208 -0.4321
 2719TIP3   OH229571   5.221   2.789   4.737  0.1976  0.0316  0.5237
 2719TIP3    H129572   5.284   2.835   4.682  0.5078  0.1442  0.9676
 2719TIP3    H229573   5.197   2.852   4.805 -1.1039  0.3091 -0.1599
 2720TIP3   OH229574   0.378   6.526  16.323 -0.6419 -0.1935 -0.4348
 2720TIP3    H129575   0.314   6.458  16.302 -0.3002 -0.6345 -0.0441
 2720TIP3    H229576   0.398   6.513  16.415 -0.0229 -0.0209 -0.5440
 2721TIP3   OH229577   2.367   3.900  11.928 -0.2551 -0.2632  0.2492
 2721TIP3    H129578   2.453   3.910  11.968  0.0626 -1.3606 -0.1013
 2721TIP3    H229579   2.372   3.950  11.847 -0.2519  0.3968  0.6524
 2722TIP3   OH229580   5.152   1.604   4.231 -0.3727 -0.5224  0.0615
 2722TIP3    H129581   5.141   1.696   4.258 -0.6970 -0.5293 -0.0521
 2722TIP3    H229582   5.170   1.609   4.137  1.9591 -0.4072  0.4378
 2723TIP3   OH229583   0.558   5.579   4.405 -0.2345  0.0646 -0.6941
 2723TIP3    H129584   0.518   5.657   4.366  0.6502  0.8869 -0.0311
 2723TIP3    H229585   0.571   5.603   4.497 -0.6411 -1.1648 -0.2990
 2724TIP3   OH229586   2.459   5.799  13.259  0.1634 -0.9819 -0.5121
 2724TIP3    H129587   2.367   5.826  13.253 -0.1007 -1.7800 -0.2464
 2724TIP3    H229588   2.464   5.721  13.204  0.8456 -0.5534 -1.0665
 2725TIP3   OH229589   6.756   6.547  14.597  0.3061 -0.2928  0.5281
 2725TIP3    H129590   6.839   6.572  14.638  0.6245 -0.8643  0.2446
 2725TIP3    H229591   6.737   6.618  14.535  1.1091 -0.6596 -0.1494
 2726TIP3   OH229592   2.945   1.247   3.631 -0.0725  0.0512  0.2215
 2726TIP3    H129593   2.902   1.185   3.690  0.9108 -1.3747 -0.4867
 2726TIP3    H229594   3.000   1.300   3.688 -1.9706  1.2855  1.0192
 2727TIP3   OH229595   6.358   3.745   1.352  0.0744  0.2138 -0.4193
 2727TIP3    H129596   6.367   3.800   1.430 -1.0981 -0.1820  0.0267
 2727TIP3    H229597   6.306   3.798   1.291  0.6663  0.3757 -0.7848
 2728TIP3   OH229598   4.148   1.789  11.097  0.1011 -0.4856  0.1017
 2728TIP3    H129599   4.226   1.735  11.107 -0.8365 -1.7561  0.7076
 2728TIP3    H229600   4.078   1.727  11.080 -0.5200  0.7336 -2.2495
 2729TIP3   OH229601   2.056   1.970   5.274 -0.3402 -0.2552 -0.2316
 2729TIP3    H129602   2.047   1.881   5.307 -0.6041 -0.0276  0.3125
 2729TIP3    H229603   2.145   1.974   5.241 -0.4136 -0.8052 -0.5138
 2730TIP3   OH229604   2.541   4.449   5.688 -0.6695 -0.1431  0.0588
 2730TIP3    H129605   2.605   4.402   5.742 -1.6011 -1.6723 -0.1365
 2730TIP3    H229606   2.594   4.491   5.620  0.0651 -2.3448 -0.8030
 2731TIP3   OH229607   4.219   5.253   1.540  0.3958 -0.2785  0.1211
 2731TIP3    H129608   4.269   5.232   1.618  0.1304 -1.0019  0.1058
 2731TIP3    H229609   4.136   5.289   1.573  0.5034 -0.0706  0.1632
 2732TIP3   OH229610   4.640   1.253  16.492  0.2018  0.1855  0.1142
 2732TIP3    H129611   4.734   1.233  16.490 -0.1174 -1.5372  0.5731
 2732TIP3    H229612   4.598   1.171  16.466 -1.1747  1.1585 -0.9000
 2733TIP3   OH229613   5.710   4.808  11.606  0.4729  0.7663  0.0801
 2733TIP3    H129614   5.763   4.785  11.683 -1.7206 -1.0461  1.1697
 2733TIP3    H229615   5.700   4.903  11.612 -0.1944  0.6225  2.4871
 2734TIP3   OH229616   0.585   6.393   4.577  0.4422  0.0079 -0.0473
 2734TIP3    H129617   0.506   6.414   4.626 -0.1063 -1.0700 -0.4409
 2734TIP3    H229618   0.576   6.439   4.494  0.5543  0.4247  0.1673
 2735TIP3   OH229619   3.633   2.394   1.029  0.7827 -0.1503  0.0128
 2735TIP3    H129620   3.595   2.379   1.115  2.2645 -0.7061  0.5937
 2735TIP3    H229621   3.575   2.348   0.968 -1.1642  1.5442  0.4907
 2736TIP3   OH229622   3.636   5.196   4.033  0.2644 -0.0354  0.2940
 2736TIP3    H129623   3.646   5.104   4.008 -1.4222 -0.2884  0.4768
 2736TIP3    H229624   3.601   5.239   3.955 -1.6966 -0.1472  1.0676
 2737TIP3   OH229625   4.258   1.875   1.822 -0.0914  0.2562  0.3604
 2737TIP3    H129626   4.186   1.846   1.879 -3.9054  1.4631 -3.2956
 2737TIP3    H229627   4.283   1.796   1.774 -0.5340  0.2532  0.1312
 2738TIP3   OH229628   6.670   4.066   5.889 -0.2709 -0.1527 -0.1408
 2738TIP3    H129629   6.613   4.134   5.926  0.3837  0.9207 -1.0457
 2738TIP3    H229630   6.752   4.076   5.937 -0.1849 -0.3614 -0.2431
 2739TIP3   OH229631   2.106   4.190   1.086  0.5735 -0.3862 -0.1911
 2739TIP3    H129632   2.157   4.207   1.166  0.5797 -0.9649 -0.0729
 2739TIP3    H229633   2.025   4.239   1.100  1.6258  1.7553 -0.9955
 2740TIP3   OH229634   4.462   6.341  13.046  0.2403 -0.2461 -0.5020
 2740TIP3    H129635   4.524   6.345  13.119 -1.1475  0.0966  0.7133
 2740TIP3    H229636   4.420   6.427  13.046 -1.0716 -0.8670 -0.5147
 2741TIP3   OH229637   5.169   4.889   6.685 -0.1849 -1.1313  0.0734
 2741TIP3    H129638   5.216   4.810   6.658  0.6663 -0.7750  0.4627
 2741TIP3    H229639   5.096   4.897   6.624 -0.5445 -2.4620  0.2992
 2742TIP3   OH229640   2.302   1.504  11.700 -0.6551  0.0633 -0.3853
 2742TIP3    H129641   2.382   1.556  11.695 -0.5114  0.2643  2.2776
 2742TIP3    H229642   2.259   1.517  11.616  0.6991  2.2875 -0.8138
 2743TIP3   OH229643   1.550   5.331   5.219 -0.0433 -0.1775 -0.1644
 2743TIP3    H129644   1.554   5.413   5.267 -1.3441 -1.1283  1.6952
 2743TIP3    H229645   1.592   5.267   5.277  0.3668 -0.9587 -1.2946
 2744TIP3   OH229646   3.342   1.853  11.281 -0.1057  0.3626 -0.1848
 2744TIP3    H129647   3.437   1.860  11.291  0.1590 -1.3935 -0.9716
 2744TIP3    H229648   3.328   1.762  11.253 -2.1267  0.2098  1.1160
 2745TIP3   OH229649   0.320   6.568   2.410  0.2574  0.3859  0.1279
 2745TIP3    H129650   0.249   6.531   2.357 -0.5860  0.0569  1.4296
 2745TIP3    H229651   0.304   6.663   2.409 -0.4708  0.2810  0.7548
 2746TIP3   OH229652   1.016   1.888   3.060 -0.0766 -0.4932  0.0914
 2746TIP3    H129653   1.075   1.930   3.123 -0.9251  0.9399 -0.0300
 2746TIP3    H229654   0.961   1.830   3.114 -0.2623  0.1095  0.5642
 2747TIP3   OH229655   3.179   4.651   0.032 -0.1825  0.3837 -0.1840
 2747TIP3    H129656   3.193   4.639   0.126  1.6449  2.1375 -0.1590
 2747TIP3    H229657   3.089   4.684   0.025  0.0646  1.4179  1.1018
 2748TIP3   OH229658   5.668   6.248  15.901 -0.1786 -0.2647 -0.0977
 2748TIP3    H129659   5.759   6.276  15.917 -0.4301 -0.3891  1.7282
 2748TIP3    H229660   5.676   6.159  15.868  0.3375 -0.5257  0.7170
 2749TIP3   OH229661   5.361   6.224   3.956  0.7971 -0.0112 -0.1515
 2749TIP3    H129662   5.300   6.202   3.886  0.8559  1.5368 -0.7255
 2749TIP3    H229663   5.431   6.158   3.949 -0.3094 -1.2223 -0.0906
 2750TIP3   OH229664   4.150   5.119   1.007 -0.0687 -0.1861 -0.1490
 2750TIP3    H129665   4.135   5.058   1.080  0.8927  1.9369  1.9534
 2750TIP3    H229666   4.109   5.076   0.932 -1.1884 -2.4754  1.6176
 2751TIP3   OH229667   6.092   2.455  13.851  0.1960  0.6181 -0.5870
 2751TIP3    H129668   6.066   2.365  13.830  0.7397  0.5088 -0.8246
 2751TIP3    H229669   6.180   2.446  13.887  0.5785  1.1328 -1.3711
 2752TIP3   OH229670   3.572   0.340  10.159 -0.4591 -0.9826  0.0091
 2752TIP3    H129671   3.512   0.403  10.198  0.6721 -0.8211  1.6172
 2752TIP3    H229672   3.545   0.255  10.196 -0.7828 -1.1722 -0.6477
 2753TIP3   OH229673   3.309   1.721  12.707  0.0618  0.3155  0.4160
 2753TIP3    H129674   3.242   1.788  12.722 -1.2210 -0.7505 -0.3069
 2753TIP3    H229675   3.306   1.705  12.613 -0.4883 -1.5445  0.7068
 2754TIP3   OH229676   4.848   2.373   1.696 -0.4774 -0.0170  0.1634
 2754TIP3    H129677   4.792   2.408   1.627 -0.2083  0.3492  0.1291
 2754TIP3    H229678   4.787   2.326   1.754 -0.9351  0.9954  0.5276
 2755TIP3   OH229679   4.128   2.194  15.903 -0.1303  0.2440  0.1714
 2755TIP3    H129680   4.129   2.243  15.821 -4.4699  1.2401  0.4798
 2755TIP3    H229681   4.105   2.259  15.969 -2.3461 -1.4788  1.1941
 2756TIP3   OH229682   1.672   0.518  14.180 -0.1304  0.1144  0.4060
 2756TIP3    H129683   1.691   0.475  14.263  1.9647 -0.8190 -0.4977
 2756TIP3    H229684   1.644   0.607  14.205 -1.9701 -0.8763  2.1673
 2757TIP3   OH229685   3.448   1.910  13.949  0.1143 -0.4734 -0.0852
 2757TIP3    H129686   3.502   1.964  13.891  0.5219 -2.5736 -1.7758
 2757TIP3    H229687   3.491   1.917  14.035 -1.0338  3.4585  0.3872
 2758TIP3   OH229688   6.600   6.759   4.453  0.1111 -0.2726  0.0009
 2758TIP3    H129689   6.659   6.827   4.485  1.0210 -0.9587 -0.1765
 2758TIP3    H229690   6.513   6.799   4.455  0.3885  0.2954  1.6016
 2759TIP3   OH229691   2.156   0.535  13.760  0.3475  0.1506 -0.3567
 2759TIP3    H129692   2.227   0.475  13.735 -0.2882 -1.0651  0.6096
 2759TIP3    H229693   2.126   0.572  13.677  1.9289  0.5017 -0.8061
 2760TIP3   OH229694   3.348   3.161  13.687 -0.6715  0.3230 -0.2612
 2760TIP3    H129695   3.313   3.075  13.662 -1.7171  0.4138  0.8177
 2760TIP3    H229696   3.302   3.183  13.768 -0.1545  1.7494 -0.3313
 2761TIP3   OH229697   1.534   1.127   0.097 -0.1226 -0.1370  0.3993
 2761TIP3    H129698   1.499   1.057   0.042 -0.5723  1.4033 -1.3361
 2761TIP3    H229699   1.607   1.164   0.047 -0.0878  0.8513  1.1452
 2762TIP3   OH229700   3.754   1.287   5.438 -0.0872 -0.1473  0.6423
 2762TIP3    H129701   3.736   1.231   5.363 -0.6446  1.8644 -0.8085
 2762TIP3    H229702   3.849   1.297   5.438 -0.0624 -0.3681  0.3671
 2763TIP3   OH229703   3.909   0.701   4.089  0.6402  0.8013  0.3908
 2763TIP3    H129704   3.982   0.676   4.033 -0.3426  1.0195 -1.0534
 2763TIP3    H229705   3.867   0.774   4.043 -1.8164 -0.7551 -0.0633
 2764TIP3   OH229706   0.364   5.194  16.851  0.2799  0.4238 -0.2157
 2764TIP3    H129707   0.278   5.219  16.885  1.0732  0.2892  2.0311
 2764TIP3    H229708   0.412   5.277  16.844  0.1205  0.4536 -1.0890
 2765TIP3   OH229709   5.091   3.463  16.059 -0.0311  0.5056 -0.8470
 2765TIP3    H129710   5.054   3.450  15.971 -2.3025  0.7565  0.0036
 2765TIP3    H229711   5.082   3.378  16.101 -2.9123  1.3154  0.4551
 2766TIP3   OH229712   1.202   2.307   4.342  0.4852  0.1906  0.1380
 2766TIP3    H129713   1.260   2.318   4.267  0.1226 -0.7448 -0.2946
 2766TIP3    H229714   1.180   2.214   4.342 -0.8148  0.4744  0.4312
 2767TIP3   OH229715   1.354   0.985   1.096  0.6147 -0.5629 -0.3303
 2767TIP3    H129716   1.309   1.067   1.115 -1.1187 -0.3912 -4.1920
 2767TIP3    H229717   1.447   1.006   1.105  0.3344  2.4159 -2.7555
 2768TIP3   OH229718   6.029   0.577  16.787 -0.6012  0.0584 -0.2743
 2768TIP3    H129719   6.053   0.489  16.758 -0.1918  0.5057 -1.3312
 2768TIP3    H229720   5.982   0.563  16.870  1.4176 -1.0058  0.7698
 2769TIP3   OH229721   3.797   5.784  12.541 -0.3670  0.3942  0.6736
 2769TIP3    H129722   3.846   5.708  12.573  1.6186  0.3825 -2.0360
 2769TIP3    H229723   3.719   5.748  12.500  0.9445 -0.3547 -1.2945
 2770TIP3   OH229724   3.141   3.091   1.395  0.6181 -0.1794 -0.7452
 2770TIP3    H129725   3.151   3.018   1.334 -0.1014 -1.1970  0.2940
 2770TIP3    H229726   3.058   3.132   1.371 -0.8395 -1.9954  0.9061
 2771TIP3   OH229727   1.822   1.590   2.202 -0.3923  0.6206  0.2491
 2771TIP3    H129728   1.778   1.655   2.148 -1.5056 -0.0136  0.3719
 2771TIP3    H229729   1.914   1.596   2.176 -0.5570  1.8727 -0.1043
 2772TIP3   OH229730   4.415   5.881   5.121 -0.5417 -0.3380 -0.6363
 2772TIP3    H129731   4.386   5.790   5.116 -1.9649 -0.0142  0.8038
 2772TIP3    H229732   4.378   5.914   5.203  1.6452  0.9627 -0.0816
 2773TIP3   OH229733   5.113   0.913  11.580  0.2163 -0.0077  0.7348
 2773TIP3    H129734   5.100   0.977  11.511  1.0989  1.0795  1.5383
 2773TIP3    H229735   5.089   0.959  11.661 -0.3672 -1.1067  1.2188
 2774TIP3   OH229736   3.398   6.381  11.272  0.0262 -0.0591 -0.2298
 2774TIP3    H129737   3.351   6.398  11.354  0.6703  0.5443  0.0277
 2774TIP3    H229738   3.329   6.368  11.207 -0.4946  0.6596  0.1638
 2775TIP3   OH229739   1.600   4.785   1.510 -0.0402  0.4825  0.1083
 2775TIP3    H129740   1.629   4.694   1.508  0.4335  0.6259  0.1093
 2775TIP3    H229741   1.508   4.781   1.533  0.3288  0.0733  1.6183
 2776TIP3   OH229742   6.655   2.991   2.061 -0.8746 -0.2419 -0.0961
 2776TIP3    H129743   6.666   3.069   2.116  0.4807 -0.5251  0.0557
 2776TIP3    H229744   6.742   2.973   2.027 -1.3949 -1.0381 -1.0463
 2777TIP3   OH229745   3.136   1.693  13.038 -0.7635 -0.5929  0.2557
 2777TIP3    H129746   3.119   1.764  12.976 -0.1042  1.4087  2.2097
 2777TIP3    H229747   3.223   1.661  13.014  0.1174  1.1351  0.9000
 2778TIP3   OH229748   4.423   1.201  12.159  0.4318  0.1661 -0.1667
 2778TIP3    H129749   4.340   1.249  12.159  0.0089 -0.5513  0.6592
 2778TIP3    H229750   4.425   1.156  12.074  0.6085  1.2375 -0.7462
 2779TIP3   OH229751   4.894   5.996  14.270 -0.0375 -0.1567 -0.2154
 2779TIP3    H129752   4.857   6.068  14.321 -2.5993 -1.4081 -0.1420
 2779TIP3    H229753   4.818   5.955  14.228  1.6921 -0.7341 -3.0390
 2780TIP3   OH229754   4.223   2.039  16.241  0.7356 -0.9037 -0.0421
 2780TIP3    H129755   4.159   2.028  16.311  4.4463 -0.2168  3.9061
 2780TIP3    H229756   4.209   2.128  16.209 -0.5612 -0.9647  0.2869
 2781TIP3   OH229757   2.361   4.944   3.341 -0.0283 -0.5982 -0.6779
 2781TIP3    H129758   2.344   4.929   3.248  0.5375 -0.8509 -0.7443
 2781TIP3    H229759   2.282   4.988   3.373  0.4402  1.0771 -1.6571
 2782TIP3   OH229760   1.392   6.418   1.368 -0.3851 -0.3090  0.0300
 2782TIP3    H129761   1.404   6.330   1.333  0.3815 -0.1345 -0.1471
 2782TIP3    H229762   1.477   6.443   1.403 -1.1052 -0.4902  2.0830
 2783TIP3   OH229763   1.387   1.447  15.133  0.6054 -0.2452  0.3567
 2783TIP3    H129764   1.455   1.402  15.082  0.9899 -1.8769  2.1792
 2783TIP3    H229765   1.310   1.391  15.124  0.5544 -0.3137  1.1696
 2784TIP3   OH229766   6.471   3.702  11.341  0.2165  0.0525  0.2389
 2784TIP3    H129767   6.499   3.610  11.351  0.9265 -0.0417 -2.1176
 2784TIP3    H229768   6.546   3.753  11.371  1.0411 -0.1847 -1.3414
 2785TIP3   OH229769   3.557   0.687   4.897  0.1545  0.9978 -0.3527
 2785TIP3    H129770   3.484   0.628   4.880  0.7608  0.1948 -0.2664
 2785TIP3    H229771   3.629   0.628   4.922  1.2758  1.6429 -1.9598
 2786TIP3   OH229772   5.060   4.646   5.117  0.1702 -0.9517 -0.2938
 2786TIP3    H129773   5.133   4.602   5.160 -0.3096  1.4041  3.4559
 2786TIP3    H229774   5.000   4.576   5.092  2.8232 -2.8111 -1.9335
 2787TIP3   OH229775   0.534   2.241  16.141 -0.4714  0.3638 -0.2911
 2787TIP3    H129776   0.530   2.292  16.222 -1.9820 -2.5546  1.6922
 2787TIP3    H229777   0.626   2.215  16.133 -0.3419  0.4682  0.6897
 2788TIP3   OH229778   0.005   3.024  13.072 -0.1580 -0.1581 -0.5036
 2788TIP3    H129779   0.023   3.021  12.978  1.1828 -1.2268 -0.2351
 2788TIP3    H229780  -0.089   3.009  13.078 -0.2780  0.0029 -1.6793
 2789TIP3   OH229781   0.143   3.082   5.059 -0.5424 -0.2957  0.0050
 2789TIP3    H129782   0.062   3.108   5.015 -0.6314 -0.9374 -0.2201
 2789TIP3    H229783   0.142   3.131   5.142 -0.7881  0.2678 -0.3251
 2790TIP3   OH229784   5.542   2.531   5.828 -0.8314  0.0055 -0.3026
 2790TIP3    H129785   5.581   2.507   5.913 -2.5424 -1.2570  0.1781
 2790TIP3    H229786   5.455   2.492   5.830 -0.8390 -0.2279 -2.7513
 2791TIP3   OH229787   0.797   1.953  16.612  0.3245  0.2530 -0.0766
 2791TIP3    H129788   0.778   1.891  16.682 -0.5419  1.1807  0.5352
 2791TIP3    H229789   0.783   1.903  16.531 -2.5798  0.2035  0.3555
 2792TIP3   OH229790   0.153   4.937   4.763  0.0440  0.2848  0.3507
 2792TIP3    H129791   0.164   4.872   4.693  1.0466 -0.0650  0.8065
 2792TIP3    H229792   0.128   5.017   4.718 -2.0366 -0.5778 -0.1747
 2793TIP3   OH229793   3.137   4.860   2.551  0.4013  0.2489  0.6836
 2793TIP3    H129794   3.155   4.788   2.490  3.2711 -1.8299  3.6418
 2793TIP3    H229795   3.149   4.939   2.498  2.8126 -1.4036 -1.4817
 2794TIP3   OH229796   6.705   0.782   1.271  0.0418  0.0007  0.1693
 2794TIP3    H129797   6.749   0.719   1.214 -1.6782 -0.1800 -1.0481
 2794TIP3    H229798   6.772   0.810   1.332  1.4974 -1.1658 -0.8194
 2795TIP3   OH229799   0.484   6.587  11.846 -0.3190  0.1642  0.2017
 2795TIP3    H129800   0.549   6.542  11.793 -1.6698 -0.1479 -1.2724
 2795TIP3    H229801   0.511   6.678  11.847  0.7965 -0.1578  0.6660
 2796TIP3   OH229802   1.206   5.747  13.091  0.0209  0.3417 -0.7738
 2796TIP3    H129803   1.242   5.819  13.144 -0.5168  0.7874 -0.9923
 2796TIP3    H229804   1.190   5.677  13.154  1.1038  0.1876 -0.6500
 2797TIP3   OH229805   1.719   0.884   5.236  0.1301 -0.0647 -0.5212
 2797TIP3    H129806   1.756   0.821   5.298 -1.3707 -0.3973  0.0851
 2797TIP3    H229807   1.669   0.832   5.174 -1.2622  0.4989  0.0802
 2798TIP3   OH229808   6.553   6.077  12.633 -0.2182 -0.1954 -0.1757
 2798TIP3    H129809   6.537   6.162  12.674 -0.4728  0.1154 -0.9011
 2798TIP3    H229810   6.647   6.076  12.615 -0.0463 -0.4645  0.6827
 2799TIP3   OH229811   3.957   6.500   3.702  0.7874  0.3227 -0.1004
 2799TIP3    H129812   3.895   6.509   3.774  1.0408  0.7027  0.0777
 2799TIP3    H229813   3.931   6.566   3.639  1.5396  1.0977  0.3768
 2800TIP3   OH229814   4.887   6.110   0.824 -0.6164  0.2433 -0.2022
 2800TIP3    H129815   4.927   6.188   0.862 -1.1214  0.8150 -0.8330
 2800TIP3    H229816   4.946   6.038   0.849  1.7467  1.2471 -2.5077
 2801TIP3   OH229817   2.340   2.911   2.724  0.5573 -0.0964 -0.1644
 2801TIP3    H129818   2.271   2.958   2.678  0.4979 -0.8374 -0.8643
 2801TIP3    H229819   2.392   2.870   2.654  1.4990  0.1623  0.3595
 2802TIP3   OH229820   3.655   4.307  13.612 -0.3844 -0.0190 -0.0587
 2802TIP3    H129821   3.559   4.311  13.611 -0.5432 -2.1602  0.8575
 2802TIP3    H229822   3.676   4.238  13.549  0.5570  0.2560 -0.0619
 2803TIP3   OH229823   4.973   5.470  11.347  0.1306 -0.4333  0.3256
 2803TIP3    H129824   4.879   5.473  11.360  0.0779  1.1717 -0.2540
 2803TIP3    H229825   4.985   5.406  11.277 -0.7342  0.8257 -1.0295
 2804TIP3   OH229826   1.839   6.472  12.276  0.2133 -0.0607  0.2000
 2804TIP3    H129827   1.890   6.485  12.356 -0.7817 -2.2020  1.2771
 2804TIP3    H229828   1.872   6.390  12.239 -0.9235 -0.3139 -0.2971
 2805TIP3   OH229829   4.634   5.804  14.197 -0.8101  0.3583  0.2380
 2805TIP3    H129830   4.609   5.839  14.112 -1.9889 -0.6790  0.1359
 2805TIP3    H229831   4.570   5.840  14.258 -1.8400 -1.3008  0.1802
 2806TIP3   OH229832   6.038   3.178  15.912  0.4363  0.5635 -0.0834
 2806TIP3    H129833   5.988   3.212  15.838  2.1607  0.8014 -1.1876
 2806TIP3    H229834   5.971   3.150  15.975 -1.1682 -1.6569 -2.5749
 2807TIP3   OH229835   5.817   4.399   4.270  0.0540  0.0741 -0.3966
 2807TIP3    H129836   5.891   4.384   4.210  1.4755  1.1338  1.0103
 2807TIP3    H229837   5.767   4.317   4.266  0.4534 -0.1304 -2.5086
 2808TIP3   OH229838   1.060   5.176   3.471 -0.2858  0.2536  0.0169
 2808TIP3    H129839   1.036   5.142   3.385 -2.1654 -1.3847  1.0853
 2808TIP3    H229840   1.143   5.132   3.491 -0.4410 -0.2899 -0.4886
 2809TIP3   OH229841   3.587   3.410  15.102  0.2029  0.4860  0.1488
 2809TIP3    H129842   3.627   3.496  15.116  0.7317  0.1950  0.4649
 2809TIP3    H229843   3.659   3.348  15.114 -0.6375 -0.1546  2.1967
 2810TIP3   OH229844   1.383   2.618   1.573 -0.6411  0.1999 -0.7134
 2810TIP3    H129845   1.379   2.527   1.603  1.2106  0.2316 -0.3049
 2810TIP3    H229846   1.398   2.669   1.653 -2.2397  0.9689 -0.8523
 2811TIP3   OH229847   6.332   0.441   3.789 -0.6469 -0.1901  0.4482
 2811TIP3    H129848   6.305   0.351   3.768  0.5754 -0.3497 -0.6079
 2811TIP3    H229849   6.379   0.470   3.711 -0.1088  0.9955  1.1887
 2812TIP3   OH229850   6.734   6.250   1.025 -0.3534  0.0687  0.6930
 2812TIP3    H129851   6.799   6.183   1.047  1.0718  0.4540 -1.9261
 2812TIP3    H229852   6.778   6.333   1.040  0.4198  0.3426 -2.4318
 2813TIP3   OH229853   1.069   3.636   2.865  0.4180 -0.7701  0.3782
 2813TIP3    H129854   1.010   3.566   2.839 -1.4804  0.3819  1.3732
 2813TIP3    H229855   1.106   3.668   2.783 -1.7281 -0.3810 -0.4969
 2814TIP3   OH229856   0.890   3.998   5.169  0.8250 -0.3797  0.0823
 2814TIP3    H129857   0.984   3.994   5.156  0.7813 -0.9049 -0.1146
 2814TIP3    H229858   0.871   4.090   5.188  1.4737 -0.4056  0.9094
 2815TIP3   OH229859   3.502   1.350  14.651 -0.1257 -0.1409 -0.2237
 2815TIP3    H129860   3.561   1.306  14.589 -1.5452  0.7753 -2.3647
 2815TIP3    H229861   3.420   1.302  14.643 -0.3676  0.0488  0.9401
 2816TIP3   OH229862   2.803   6.562   3.224  0.0349  0.6445  0.1611
 2816TIP3    H129863   2.713   6.530   3.214  0.0030  0.7453  0.1258
 2816TIP3    H229864   2.822   6.549   3.317  1.4032 -3.1153 -0.4809
 2817TIP3   OH229865   1.916   5.602  11.361  0.9957  0.0190  0.2909
 2817TIP3    H129866   1.911   5.681  11.416 -1.0486 -0.0204  0.2398
 2817TIP3    H229867   1.946   5.534  11.420 -1.0080  0.0194  1.4082
 2818TIP3   OH229868   2.667   2.983  15.495 -0.1214 -0.6538  0.2638
 2818TIP3    H129869   2.727   3.045  15.453 -0.5940  1.2028  2.1631
 2818TIP3    H229870   2.656   2.913  15.431  2.7221 -0.2263 -0.8279
 2819TIP3   OH229871   2.267   3.269   0.244 -0.4882  0.2507 -0.1031
 2819TIP3    H129872   2.242   3.270   0.152  2.1212  0.5858 -0.9127
 2819TIP3    H229873   2.339   3.205   0.248  1.4188  2.2962  1.0364
 2820TIP3   OH229874   5.045   4.512   3.354 -0.3666 -0.2342 -0.4901
 2820TIP3    H129875   4.975   4.566   3.392  0.5871  1.7192 -1.3567
 2820TIP3    H229876   5.066   4.555   3.271  0.1507 -2.2565 -1.4736
 2821TIP3   OH229877   6.126   6.498   2.629  0.0699 -0.0301 -0.0521
 2821TIP3    H129878   6.148   6.537   2.713 -0.3354  2.2212 -0.9222
 2821TIP3    H229879   6.090   6.412   2.651  1.0666  0.0029  1.9592
 2822TIP3   OH229880   4.429   5.176   3.556 -0.1831  0.3384 -0.3191
 2822TIP3    H129881   4.499   5.136   3.608  0.0330  0.0959 -0.7852
 2822TIP3    H229882   4.395   5.103   3.503 -0.2313  0.6330 -0.6969
 2823TIP3   OH229883   1.882   2.477   5.084 -0.5602 -0.5559 -0.5093
 2823TIP3    H129884   1.828   2.513   5.014 -0.5425  0.4603 -0.0074
 2823TIP3    H229885   1.903   2.551   5.139 -0.2970 -1.2921  0.4054
 2824TIP3   OH229886   5.348   3.609   1.721  0.3739  0.1929  0.4555
 2824TIP3    H129887   5.421   3.654   1.762  0.4033  1.2842 -0.7342
 2824TIP3    H229888   5.275   3.620   1.782  1.2859 -1.3883  1.9205
 2825TIP3   OH229889   1.800   6.464   5.150  0.0854 -0.2554 -0.3172
 2825TIP3    H129890   1.793   6.479   5.056  2.1930  0.0246 -0.4798
 2825TIP3    H229891   1.839   6.544   5.184  1.3494 -1.1487  0.4425
 2826TIP3   OH229892   1.234   5.650  12.804  0.4974 -0.4055  0.3052
 2826TIP3    H129893   1.184   5.696  12.736 -0.8606 -0.3247  1.3159
 2826TIP3    H229894   1.238   5.712  12.877  0.6721 -1.0308  0.8359
 2827TIP3   OH229895   6.042   2.561   6.699  0.9060  0.1099 -0.3970
 2827TIP3    H129896   6.032   2.551   6.605  1.4430 -1.7052 -0.2947
 2827TIP3    H229897   6.136   2.549   6.714  0.7049 -0.4899  0.4471
 2828TIP3   OH229898   2.043   3.992   4.189  0.6405 -0.6004  0.1482
 2828TIP3    H129899   2.057   3.982   4.094 -2.0259  0.8128 -0.4725
 2828TIP3    H229900   2.097   4.067   4.213  0.4797 -0.2833 -0.4639
 2829TIP3   OH229901   2.399   0.372  13.678  0.2402  0.3932 -0.5440
 2829TIP3    H129902   2.369   0.330  13.597 -0.1996 -2.4929  0.9686
 2829TIP3    H229903   2.489   0.340  13.690  0.2323  0.6235  0.1928
 2830TIP3   OH229904   4.374   3.488  13.632 -0.2158  0.6590 -0.1059
 2830TIP3    H129905   4.417   3.550  13.573  1.6178 -1.0590 -0.6799
 2830TIP3    H229906   4.282   3.488  13.605  0.0795  1.8912 -1.1699
 2831TIP3   OH229907   2.724   4.784   3.740  0.3051 -0.0637  0.1720
 2831TIP3    H129908   2.667   4.825   3.674  0.9435  0.1575 -0.2578
 2831TIP3    H229909   2.813   4.803   3.709  0.6570  1.6233  2.0437
 2832TIP3   OH229910   4.364   0.682  15.676  0.1596 -0.1326 -0.4981
 2832TIP3    H129911   4.383   0.610  15.737  0.1099 -1.3120 -1.8115
 2832TIP3    H229912   4.447   0.730  15.671  0.1780 -0.0388  0.4473
 2833TIP3   OH229913   2.089   3.899  14.139 -0.0161 -0.0397  0.5317
 2833TIP3    H129914   2.109   3.941  14.055 -1.9161  0.1447  0.1383
 2833TIP3    H229915   2.130   3.812  14.132 -1.1882 -0.5210 -1.1246
 2834TIP3   OH229916   6.537   0.557  12.614  0.2773 -0.5915  0.1713
 2834TIP3    H129917   6.629   0.541  12.637  0.5085 -0.6954 -0.7892
 2834TIP3    H229918   6.541   0.604  12.531 -0.5054  0.8099  0.8830
 2835TIP3   OH229919   4.185   6.701  13.706 -0.1410  0.0070 -0.0489
 2835TIP3    H129920   4.093   6.702  13.733 -0.2647 -0.8000 -0.3871
 2835TIP3    H229921   4.225   6.775  13.752 -0.7656 -0.1608  0.7914
 2836TIP3   OH229922   0.131   5.010   5.543 -0.1078 -0.4241  0.0276
 2836TIP3    H129923   0.059   5.014   5.605  0.0974 -1.0787  0.3266
 2836TIP3    H229924   0.103   5.064   5.469 -0.3435  0.3893  0.6949
 2837TIP3   OH229925   0.738   3.200  15.785 -0.4046  0.3424 -0.4110
 2837TIP3    H129926   0.674   3.264  15.817  1.5138  1.9279  0.4398
 2837TIP3    H229927   0.731   3.205  15.689 -2.4346 -0.5310 -0.3774
 2838TIP3   OH229928   4.000   1.218   6.272  0.3933 -0.1030 -0.0725
 2838TIP3    H129929   4.049   1.164   6.210  1.3785 -1.6713  1.9880
 2838TIP3    H229930   4.065   1.277   6.311  0.2027 -0.5585  0.9595
 2839TIP3   OH229931   0.896   3.989  15.478  0.5685  0.6030 -0.2798
 2839TIP3    H129932   0.954   4.017  15.406  1.5040 -0.9660 -0.1823
 2839TIP3    H229933   0.899   4.062  15.540  2.3537  0.6418 -0.3504
 2840TIP3   OH229934   5.740   3.449  12.431 -0.2676 -0.4264  0.4003
 2840TIP3    H129935   5.827   3.418  12.458  0.0662 -0.6181 -0.8158
 2840TIP3    H229936   5.695   3.469  12.513  0.4315 -1.6434  1.1161
 2841TIP3   OH229937   6.398   3.261   6.224  0.0672  0.3632 -1.0225
 2841TIP3    H129938   6.413   3.252   6.318 -0.9234  2.0605 -0.6646
 2841TIP3    H229939   6.453   3.193   6.185 -0.4767 -1.2295  0.8289
 2842TIP3   OH229940   3.014   4.289   1.272 -0.1612 -0.5187  0.2983
 2842TIP3    H129941   3.081   4.347   1.308  1.0893 -1.7481  0.0366
 2842TIP3    H229942   3.042   4.201   1.299 -0.1060 -1.3348 -2.2108
 2843TIP3   OH229943   2.337   1.460  14.236 -0.0495  0.2143 -0.4062
 2843TIP3    H129944   2.359   1.539  14.187 -1.0239  0.1034 -1.0539
 2843TIP3    H229945   2.406   1.397  14.211  0.4606  0.7006 -0.2522
 2844TIP3   OH229946   1.352   0.182  14.007 -0.1457  0.2219 -0.0790
 2844TIP3    H129947   1.320   0.157  13.920 -4.1465  1.9996  0.6675
 2844TIP3    H229948   1.391   0.268  13.995 -0.1332  0.1949 -0.2259
 2845TIP3   OH229949   0.087   3.536  12.254 -0.3427 -0.3987  0.6751
 2845TIP3    H129950   0.168   3.508  12.298 -1.0951 -2.1265  1.0667
 2845TIP3    H229951   0.022   3.538  12.324 -0.9353 -0.3915  0.1285
 2846TIP3   OH229952   2.974   1.154  11.161 -0.2259  0.4460 -0.3253
 2846TIP3    H129953   2.900   1.210  11.139 -1.3209  0.5555  3.1456
 2846TIP3    H229954   3.040   1.176  11.095 -1.9252  3.0870 -1.3212
 2847TIP3   OH229955   2.140   4.921  14.372  0.0730 -0.0169  0.4423
 2847TIP3    H129956   2.144   5.008  14.412  0.2571 -1.2924  3.4780
 2847TIP3    H229957   2.047   4.901  14.367  0.0562 -0.4315  1.8120
 2848TIP3   OH229958   4.442   4.967  11.272 -0.6509 -0.2021  0.1437
 2848TIP3    H129959   4.368   4.965  11.211 -1.2517  1.0090  0.7854
 2848TIP3    H229960   4.461   4.875  11.290 -0.7666 -0.5738 -1.4715
 2849TIP3   OH229961   1.343   5.670  14.883  0.7216  0.1943  0.1685
 2849TIP3    H129962   1.366   5.579  14.900  0.8824  0.1500 -0.2705
 2849TIP3    H229963   1.394   5.694  14.805  1.6762  1.0469  1.0091
 2850TIP3   OH229964   6.473   6.761  10.995 -0.0209 -0.1353  0.4006
 2850TIP3    H129965   6.484   6.799  11.082 -0.4845  0.2909  0.2813
 2850TIP3    H229966   6.512   6.825  10.936  1.0827 -0.8307  0.3550
 2851TIP3   OH229967   3.957   6.274  11.408  1.1639  0.0260 -0.2340
 2851TIP3    H129968   3.881   6.329  11.391 -0.4066 -1.5936  1.1602
 2851TIP3    H229969   4.024   6.336  11.439 -0.9239  1.1349  2.5640
 2852TIP3   OH229970   4.857   5.384   3.372 -0.1762 -0.2761 -0.0647
 2852TIP3    H129971   4.940   5.406   3.330  0.3241 -1.7685  0.1151
 2852TIP3    H229972   4.847   5.290   3.358 -2.5828  0.0945 -1.4103
 2853TIP3   OH229973   1.598   3.877   2.554 -0.0292  0.0481  0.7869
 2853TIP3    H129974   1.603   3.956   2.499 -1.6811  0.5847  1.3421
 2853TIP3    H229975   1.516   3.887   2.602  0.5018 -1.2764  2.0368
 2854TIP3   OH229976   1.108   5.170   1.174  0.0018 -0.4267  0.1213
 2854TIP3    H129977   1.055   5.091   1.163 -1.5577  0.5452  0.3528
 2854TIP3    H229978   1.129   5.174   1.267  0.6208 -0.8805  0.0078
 2855TIP3   OH229979   5.154   5.357  15.541 -0.2458  0.2454  0.2025
 2855TIP3    H129980   5.141   5.274  15.496 -1.1802  0.3041  0.3554
 2855TIP3    H229981   5.067   5.385  15.567 -0.0618  1.7053 -0.6029
 2856TIP3   OH229982   1.145   2.904   4.469  0.0604 -0.6075  0.2395
 2856TIP3    H129983   1.063   2.857   4.484  0.6927 -1.3718  1.4752
 2856TIP3    H229984   1.156   2.904   4.374 -0.8078 -1.4716  0.1200
 2857TIP3   OH229985   6.169   2.745   1.959  0.3987 -0.6206 -0.0272
 2857TIP3    H129986   6.238   2.720   1.897  0.2630  0.3611 -0.5892
 2857TIP3    H229987   6.215   2.791   2.028  0.2830  0.3073 -0.5565
 2858TIP3   OH229988   3.499   5.436  15.798  0.1176 -0.3102 -0.3188
 2858TIP3    H129989   3.450   5.512  15.765  0.9046  1.2801  1.9711
 2858TIP3    H229990   3.483   5.436  15.892  1.8656 -1.7410  0.0294
 2859TIP3   OH229991   3.918   6.653   2.100 -0.0435 -0.5614 -0.0028
 2859TIP3    H129992   3.831   6.618   2.118  0.5243 -1.4087  1.2470
 2859TIP3    H229993   3.935   6.628   2.009 -1.4387  0.4006 -0.5558
 2860TIP3   OH229994   0.210   0.140  16.030 -0.5385 -0.1428  0.6312
 2860TIP3    H129995   0.194   0.216  16.085 -0.3523  0.5747 -0.2891
 2860TIP3    H229996   0.231   0.070  16.092 -1.2096  0.4130  1.5164
 2861TIP3   OH229997   2.832   1.405   5.623  0.0822 -0.2208  0.3362
 2861TIP3    H129998   2.774   1.359   5.685  0.6298 -1.0369  0.2594
 2861TIP3    H229999   2.845   1.342   5.552 -0.6644  0.7640 -0.7001
 2862TIP3   OH230000   4.003   5.417   0.259  0.2405  0.0132  0.0941
 2862TIP3    H130001   3.932   5.386   0.203 -0.9787  2.2066  0.3100
 2862TIP3    H230002   3.990   5.512   0.264  1.7990  0.1909  2.0646
 2863TIP3   OH230003   4.869   3.989  14.262 -0.5951  0.0981  0.2651
 2863TIP3    H130004   4.917   3.907  14.252  2.8804  2.0781 -0.8950
 2863TIP3    H230005   4.840   4.010  14.173  1.4623  1.6372 -0.1185
 2864TIP3   OH230006   5.129   0.574  16.705  0.2122  0.0354 -0.2461
 2864TIP3    H130007   5.171   0.635  16.645  1.4137 -0.2319  0.2970
 2864TIP3    H230008   5.071   0.628  16.758  1.0276  0.6504  0.0176
 2865TIP3   OH230009   2.371   2.981   5.006  0.1191  0.1148  0.8432
 2865TIP3    H130010   2.351   2.959   5.097 -2.1979  0.7547  0.5393
 2865TIP3    H230011   2.336   2.908   4.955 -1.3399  1.1430  0.3069
 2866TIP3   OH230012   0.876   6.779  16.629 -0.2870  0.1442 -0.0393
 2866TIP3    H130013   0.843   6.711  16.570 -1.4173  1.0364 -0.4625
 2866TIP3    H230014   0.967   6.791  16.604 -0.4529 -0.2593 -0.8569
 2867TIP3   OH230015   0.647   5.133  14.502  0.4845 -0.1007 -0.2324
 2867TIP3    H130016   0.691   5.074  14.440  3.0188  0.9672  0.4665
 2867TIP3    H230017   0.660   5.220  14.465  0.6923  0.4072  1.0134
 2868TIP3   OH230018   0.449   2.742  11.355  0.4811  0.2855 -0.2036
 2868TIP3    H130019   0.421   2.830  11.382 -0.8613  0.2016 -1.2138
 2868TIP3    H230020   0.521   2.758  11.293  0.2331  0.6787 -0.3973
 2869TIP3   OH230021   5.992   0.289   0.644  0.1293 -0.0053 -0.5011
 2869TIP3    H130022   6.017   0.379   0.621 -2.8126  1.1532  0.3958
 2869TIP3    H230023   5.979   0.245   0.560 -0.2028  0.9616 -0.9612
 2870TIP3   OH230024   1.754   4.695   2.840 -0.9128  0.7579  0.0217
 2870TIP3    H130025   1.703   4.616   2.818 -0.5784  0.2798  0.9029
 2870TIP3    H230026   1.775   4.684   2.932  2.2713  0.0563 -0.6830
 2871TIP3   OH230027   6.609   5.551   4.145  0.4437 -0.4439  0.3834
 2871TIP3    H130028   6.639   5.468   4.181  0.7057  0.1379  1.5664
 2871TIP3    H230029   6.673   5.573   4.078  0.0400 -1.4737 -0.3609
 2872TIP3   OH230030   5.775   6.534   0.261 -0.1376 -0.1662  0.0827
 2872TIP3    H130031   5.846   6.521   0.198 -0.7566 -0.2922 -0.6053
 2872TIP3    H230032   5.819   6.556   0.343  0.7981 -2.4602  0.2747
 2873TIP3   OH230033   0.314   4.317   5.587  0.3666  0.1031 -0.3801
 2873TIP3    H130034   0.308   4.225   5.563 -0.5769  0.2476 -0.7319
 2873TIP3    H230035   0.367   4.317   5.667  1.4132 -0.6150 -1.0432
 2874TIP3   OH230036   1.385   1.722  11.504  0.2916  0.0727  0.0999
 2874TIP3    H130037   1.364   1.796  11.448  0.3702 -0.9263 -1.2986
 2874TIP3    H230038   1.302   1.676  11.516  0.5002 -0.4011 -0.2364
 2875TIP3   OH230039   4.499   5.817   5.716 -0.8647 -0.0879 -0.2048
 2875TIP3    H130040   4.410   5.846   5.695 -1.6052 -1.5335  0.7497
 2875TIP3    H230041   4.514   5.742   5.659  0.2955  0.9295 -1.3055
 2876TIP3   OH230042   3.714   3.742   4.627  0.0207 -0.7869 -0.4787
 2876TIP3    H130043   3.728   3.656   4.667 -0.6518 -1.6360 -1.9934
 2876TIP3    H230044   3.765   3.739   4.546 -1.2489 -0.3571 -1.3271
 2877TIP3   OH230045   2.067   4.172  13.251  0.4528  0.1901  0.0867
 2877TIP3    H130046   2.071   4.234  13.324 -0.2882  0.3605 -0.0088
 2877TIP3    H230047   2.148   4.188  13.201  0.5810  0.6167  0.4312
 2878TIP3   OH230048   2.434   2.704   1.712  0.1524  0.0397  0.0247
 2878TIP3    H130049   2.494   2.729   1.643  0.5138  2.2522  1.0552
 2878TIP3    H230050   2.418   2.785   1.761 -0.8583 -1.2314  1.9333
 2879TIP3   OH230051   2.797   3.154   0.734 -0.2097 -0.0740  0.3928
 2879TIP3    H130052   2.881   3.111   0.719 -0.1578  0.4948 -1.1466
 2879TIP3    H230053   2.747   3.136   0.654 -0.4910  2.0095  0.0427
 2880TIP3   OH230054   0.673   6.137   1.583  0.2016  0.4668 -0.0848
 2880TIP3    H130055   0.684   6.230   1.605  2.3932  0.3860 -0.6200
 2880TIP3    H230056   0.739   6.092   1.637 -1.0069 -0.8369  0.3575
 2881TIP3   OH230057   4.120   2.306  11.169 -0.7672 -0.5035 -0.1160
 2881TIP3    H130058   4.093   2.228  11.121  0.1876 -0.3193 -0.9924
 2881TIP3    H230059   4.196   2.279  11.221 -1.0048 -0.3821  0.3026
 2882TIP3   OH230060   6.506   1.559  15.398 -0.2798 -0.0966 -0.5500
 2882TIP3    H130061   6.453   1.560  15.477  0.4707  1.2047 -0.0397
 2882TIP3    H230062   6.449   1.521  15.331 -1.3425 -0.0680  0.3165
 2883TIP3   OH230063   0.133   2.359   0.124  0.1363 -0.1002  0.2257
 2883TIP3    H130064   0.145   2.439   0.073  0.2651  0.6736  1.4309
 2883TIP3    H230065   0.085   2.300   0.066 -0.4088  1.0319 -0.5063
 2884TIP3   OH230066   0.846   6.194  14.664 -0.4660 -0.4422 -0.0488
 2884TIP3    H130067   0.764   6.230  14.631 -0.2108 -0.3743 -0.6281
 2884TIP3    H230068   0.832   6.185  14.758 -1.6872 -1.8685 -0.3230
 2885TIP3   OH230069   4.377   0.735  16.689 -0.0574 -0.4587 -0.0312
 2885TIP3    H130070   4.367   0.755  16.596 -1.1141  0.4943  0.2756
 2885TIP3    H230071   4.315   0.663  16.705 -1.7106  1.0040  0.4296
 2886TIP3   OH230072   1.368   1.901   3.023  0.1580 -0.6482  0.8048
 2886TIP3    H130073   1.447   1.849   3.012  1.5131  1.5619 -0.6052
 2886TIP3    H230074   1.334   1.912   2.935  0.7010  1.9056  0.8293
 2887TIP3   OH230075   5.608   0.251  13.900  0.0125  0.1616  0.4206
 2887TIP3    H130076   5.590   0.160  13.924 -0.5228  0.2900  0.5135
 2887TIP3    H230077   5.529   0.279  13.853  0.4661  0.3601 -0.2332
 2888TIP3   OH230078   1.277   4.275   5.489  0.5098 -0.6189 -0.3952
 2888TIP3    H130079   1.336   4.200   5.497  1.0260 -0.0363  2.5994
 2888TIP3    H230080   1.204   4.254   5.548  0.1932  0.7991 -0.2506
 2889TIP3   OH230081   1.151   3.489  13.472  0.0244 -0.0064  0.6441
 2889TIP3    H130082   1.165   3.408  13.522 -2.3769 -1.6568 -1.1709
 2889TIP3    H230083   1.172   3.465  13.382  2.4405  2.3951  0.4327
 2890TIP3   OH230084   5.161   1.871   4.263 -0.2316 -0.1574  0.3100
 2890TIP3    H130085   5.192   1.870   4.354 -0.7788 -1.3167  0.5069
 2890TIP3    H230086   5.240   1.881   4.210  0.4384 -2.2337  0.8282
 2891TIP3   OH230087   5.489   3.748   4.205 -0.6276 -0.1940  0.3015
 2891TIP3    H130088   5.441   3.785   4.131 -2.0360 -1.2819  0.6219
 2891TIP3    H230089   5.528   3.824   4.248 -1.1989  0.6309 -0.5784
 2892TIP3   OH230090   3.242   3.506  11.321  0.1177 -0.9719 -0.1931
 2892TIP3    H130091   3.148   3.499  11.332  0.2884 -1.9576  0.7426
 2892TIP3    H230092   3.261   3.451  11.244  0.2580 -3.3018  1.4020
 2893TIP3   OH230093   2.517   4.696  14.798  0.4317  0.2593  0.1469
 2893TIP3    H130094   2.592   4.728  14.848  1.1566  0.1500 -0.8374
 2893TIP3    H230095   2.478   4.629  14.855 -0.1656  1.7267  1.5357
 2894TIP3   OH230096   0.293   0.912  16.170  0.3096 -0.2717 -0.1850
 2894TIP3    H130097   0.257   0.957  16.246  1.5916  2.4417 -1.0472
 2894TIP3    H230098   0.387   0.910  16.185  0.4434 -1.0630 -1.0125
 2895TIP3   OH230099   3.387   5.104   2.100  0.3447  0.1578 -0.8238
 2895TIP3    H130100   3.308   5.102   2.045 -1.3820  0.4834  1.4866
 2895TIP3    H230101   3.402   5.013   2.125  0.8523  0.0719 -1.4077
 2896TIP3   OH230102   3.759   6.132   0.009  0.0095  0.1729  0.2180
 2896TIP3    H130103   3.831   6.151   0.070  1.2528 -0.3483 -1.0261
 2896TIP3    H230104   3.702   6.209   0.015  0.9481  0.8445  0.8581
 2897TIP3   OH230105   4.370   4.010  12.771 -0.7439 -0.2486 -0.0145
 2897TIP3    H130106   4.302   3.966  12.720 -1.0454 -0.2700  0.4045
 2897TIP3    H230107   4.452   3.975  12.736 -0.9821 -1.2364  0.3930
 2898TIP3   OH230108   2.455   1.863   6.230  0.2814 -0.8485 -0.3245
 2898TIP3    H130109   2.373   1.846   6.182  0.2789  1.7391 -1.4045
 2898TIP3    H230110   2.522   1.864   6.162  0.5212  1.3328 -0.1035
 2899TIP3   OH230111   1.941   4.642   4.843 -0.1329  0.5578 -0.0933
 2899TIP3    H130112   1.890   4.717   4.874 -0.8139  0.1123 -0.1322
 2899TIP3    H230113   1.969   4.667   4.755 -1.1526  0.3834 -0.4753
 2900TIP3   OH230114   2.196   0.554  11.744 -0.1364  0.3543  0.1168
 2900TIP3    H130115   2.236   0.612  11.679  0.0716 -0.9953 -1.0080
 2900TIP3    H230116   2.107   0.587  11.754 -0.2656  0.4010 -1.0915
 2901TIP3   OH230117   3.593   3.573   3.042  0.1695 -0.2707 -0.3846
 2901TIP3    H130118   3.532   3.624   2.988 -0.3591  1.6754  1.8869
 2901TIP3    H230119   3.678   3.613   3.025 -0.0289  0.4823  0.3489
 2902TIP3   OH230120   6.541   1.861  12.645 -0.5303 -0.0701 -0.0998
 2902TIP3    H130121   6.594   1.892  12.571  0.6654 -0.1061  0.7154
 2902TIP3    H230122   6.498   1.940  12.678  1.4274  0.5578  1.1122
 2903TIP3   OH230123   4.516   3.330   2.233 -0.4190  0.5597  0.3182
 2903TIP3    H130124   4.458   3.403   2.212  1.3675  1.7037 -0.9325
 2903TIP3    H230125   4.522   3.279   2.153  1.3367  1.2573 -0.0483
 2904TIP3   OH230126   4.497   4.825  16.322 -0.3042 -0.0246 -0.1332
 2904TIP3    H130127   4.464   4.786  16.241 -0.2829  0.3982 -0.3503
 2904TIP3    H230128   4.486   4.920  16.309 -1.6038 -0.0065  0.9209
 2905TIP3   OH230129   1.524   4.408   5.974  0.2409 -0.1318  0.1420
 2905TIP3    H130130   1.561   4.486   5.932  0.4674 -0.2382  0.1427
 2905TIP3    H230131   1.495   4.353   5.901 -2.1107  0.9868  0.1522
 2906TIP3   OH230132   5.499   2.982   5.221 -0.0402 -0.4190 -0.2515
 2906TIP3    H130133   5.491   3.069   5.181 -1.3469 -0.9867 -1.3163
 2906TIP3    H230134   5.557   2.995   5.296  0.7078  1.1365 -1.0566
 2907TIP3   OH230135   0.026   4.766  10.592 -0.3967 -0.2513  0.7780
 2907TIP3    H130136   0.108   4.801  10.626 -0.6518  1.2499 -0.0775
 2907TIP3    H230137  -0.018   4.841  10.553 -2.8020 -0.7194  2.3663
 2908TIP3   OH230138   0.849   1.935   3.728 -0.1565 -0.1190 -0.6482
 2908TIP3    H130139   0.938   1.970   3.736 -0.4646  0.5193  0.1949
 2908TIP3    H230140   0.811   1.949   3.815 -1.0671 -0.4266 -0.9930
 2909TIP3   OH230141   3.022   5.200  11.349  0.7480 -0.0744 -0.6220
 2909TIP3    H130142   2.996   5.165  11.435  0.7584  2.7783  0.6379
 2909TIP3    H230143   2.939   5.209  11.302  0.5119  0.1397 -0.1788
 2910TIP3   OH230144   4.608   0.842  13.112  0.6461  0.9822 -0.0550
 2910TIP3    H130145   4.534   0.796  13.151  0.5299  0.8772 -0.3880
 2910TIP3    H230146   4.674   0.774  13.099  1.6740  1.4530  2.2606
 2911TIP3   OH230147   0.213   0.716   1.665  0.2112  0.5980  0.3903
 2911TIP3    H130148   0.175   0.801   1.644 -1.3501 -0.0952  0.2842
 2911TIP3    H230149   0.197   0.662   1.588 -1.4159 -0.6092  1.5001
 2912TIP3   OH230150   6.484   1.205  15.617 -0.0045 -0.1259 -0.2848
 2912TIP3    H130151   6.511   1.211  15.526  0.4134  0.2106 -0.1421
 2912TIP3    H230152   6.405   1.151  15.615  0.4967 -0.8545 -0.7381
 2913TIP3   OH230153   4.530   3.782   2.473  0.0541 -0.1584 -0.0506
 2913TIP3    H130154   4.444   3.740   2.479  0.2916 -0.6165  0.2740
 2913TIP3    H230155   4.529   3.849   2.541  0.7408 -1.6591  1.5241
 2914TIP3   OH230156   0.442   2.025  16.703  0.2841  0.3104 -0.0934
 2914TIP3    H130157   0.415   1.978  16.782 -1.0791  2.0928  0.5683
 2914TIP3    H230158   0.456   1.957  16.637 -0.7294 -1.0541  1.0698
 2915TIP3   OH230159   1.033   0.315  14.839  0.9007  0.2200 -0.1897
 2915TIP3    H130160   0.956   0.370  14.851  1.5241  1.6103 -2.0750
 2915TIP3    H230161   1.082   0.325  14.921 -1.1779 -1.2821  1.3450
 2916TIP3   OH230162   0.631   3.548   3.433  0.8109  0.2342 -0.3873
 2916TIP3    H130163   0.680   3.466   3.433  0.3114 -0.0661 -0.0543
 2916TIP3    H230164   0.557   3.532   3.374 -0.0806 -0.0439  0.7680
 2917TIP3   OH230165   6.463   4.875   1.586  0.3999 -0.3292 -0.6047
 2917TIP3    H130166   6.546   4.913   1.617  0.2340 -0.4464 -0.0035
 2917TIP3    H230167   6.409   4.951   1.566  0.0794 -0.2363  0.5715
 2918TIP3   OH230168   2.340   1.993  13.479  0.3444 -0.0703 -0.0512
 2918TIP3    H130169   2.340   1.920  13.418 -0.0016 -2.0149  2.1012
 2918TIP3    H230170   2.415   1.977  13.537 -0.6922  0.3107  1.4825
 2919TIP3   OH230171   4.799   5.750   6.307 -0.2926 -0.2799  0.7411
 2919TIP3    H130172   4.799   5.789   6.395 -1.2164 -0.7141  0.9486
 2919TIP3    H230173   4.886   5.711   6.299  0.7669  1.9558  0.4416
 2920TIP3   OH230174   5.125   0.016  16.973 -0.1970 -0.4062 -0.0061
 2920TIP3    H130175   5.137   0.062  17.056 -1.7384 -0.9632  0.5686
 2920TIP3    H230176   5.033   0.032  16.951  0.0524 -0.7308 -1.3263
 2921TIP3   OH230177   6.617   0.485   2.082 -0.2260 -0.3913 -0.6552
 2921TIP3    H130178   6.617   0.573   2.120 -1.0989 -0.5951 -0.1567
 2921TIP3    H230179   6.561   0.493   2.005  2.2100  0.2315 -2.5020
 2922TIP3   OH230180   1.827   0.099  12.958 -0.3084  0.1783 -0.4669
 2922TIP3    H130181   1.873   0.016  12.945  0.7908  0.9237 -1.6278
 2922TIP3    H230182   1.862   0.156  12.890 -1.8533  1.2705 -0.3985
 2923TIP3   OH230183   4.286   5.596  12.522  0.1267 -0.6890 -0.1730
 2923TIP3    H130184   4.380   5.587  12.531  0.4504  1.0379 -1.2707
 2923TIP3    H230185   4.274   5.683  12.483 -2.0679  0.6833  3.0195
 2924TIP3   OH230186   1.379   2.925   3.754  0.3153 -0.0571 -0.3837
 2924TIP3    H130187   1.386   3.017   3.728 -0.1756 -0.3454 -1.5983
 2924TIP3    H230188   1.469   2.899   3.773  0.5024  0.5820 -0.3638
 2925TIP3   OH230189   4.490   0.767   4.369 -0.7270  0.0153  0.0321
 2925TIP3    H130190   4.570   0.812   4.394 -1.7491  1.6807  0.4994
 2925TIP3    H230191   4.489   0.770   4.273  0.3498 -1.1479 -0.0355
 2926TIP3   OH230192   6.507   0.571   3.609 -0.2838  0.2399  0.2812
 2926TIP3    H130193   6.580   0.524   3.568  0.8029  1.6411  0.5526
 2926TIP3    H230194   6.545   0.652   3.641 -1.9712  1.0238  0.4222
 2927TIP3   OH230195   4.495   5.197   4.721  0.3427  1.0371 -0.1411
 2927TIP3    H130196   4.506   5.254   4.796 -0.6747  0.7288  0.2680
 2927TIP3    H230197   4.409   5.220   4.686 -0.0017 -0.0886 -0.0847
 2928TIP3   OH230198   4.566   1.511   1.496 -0.5450 -0.1190 -0.1054
 2928TIP3    H130199   4.627   1.464   1.553 -0.6834 -0.5152 -0.2812
 2928TIP3    H230200   4.622   1.564   1.440 -0.3231 -0.8837 -0.6308
 2929TIP3   OH230201   4.864   2.307  14.532  0.1753  0.6415  0.5140
 2929TIP3    H130202   4.871   2.274  14.443 -1.4756  0.7943  0.3047
 2929TIP3    H230203   4.847   2.230  14.586  0.5027  0.6398  0.6225
 2930TIP3   OH230204   0.257   0.745  12.237 -0.3055  0.2596  0.1166
 2930TIP3    H130205   0.275   0.655  12.264 -1.4222 -0.0678 -0.1680
 2930TIP3    H230206   0.299   0.753  12.151  0.7868  0.3949  0.6415
 2931TIP3   OH230207   2.576   0.550  16.647  0.3737  1.2630 -0.9180
 2931TIP3    H130208   2.604   0.470  16.604  2.8640  1.4518  0.1715
 2931TIP3    H230209   2.543   0.605  16.576 -2.1308 -0.9134 -1.5927
 2932TIP3   OH230210   5.618   1.483  12.250  0.2895 -0.2056  0.2978
 2932TIP3    H130211   5.702   1.528  12.264  0.0291  0.9417 -1.5370
 2932TIP3    H230212   5.580   1.526  12.174 -1.9548 -0.7703  1.0318
 2933TIP3   OH230213   5.711   5.424  14.452 -0.2240 -0.3335  0.5304
 2933TIP3    H130214   5.664   5.483  14.395 -2.1982 -1.7549  0.5753
 2933TIP3    H230215   5.646   5.360  14.480  1.0187 -0.6096  3.1295
 2934TIP3   OH230216   5.096   6.727   1.437  0.7817 -0.1307  0.0340
 2934TIP3    H130217   5.124   6.784   1.508 -0.9501  0.1513  0.5292
 2934TIP3    H230218   5.132   6.767   1.358  0.1378  1.3107  0.4411
 2935TIP3   OH230219   0.497   2.213   1.915  0.5470  0.7465  0.1438
 2935TIP3    H130220   0.530   2.232   1.827  1.7074 -1.5037  0.0416
 2935TIP3    H230221   0.564   2.247   1.974  0.6753  0.5841  0.0925
 2936TIP3   OH230222   1.521   4.387   3.272  0.0044  0.2234  0.8294
 2936TIP3    H130223   1.509   4.451   3.343 -0.7081  1.3580 -0.2656
 2936TIP3    H230224   1.436   4.344   3.264 -0.3314  1.0300 -0.1750
 2937TIP3   OH230225   2.558   0.789   4.503  0.4290 -0.4516 -0.1862
 2937TIP3    H130226   2.542   0.731   4.577  0.7585 -2.8050 -1.8615
 2937TIP3    H230227   2.653   0.801   4.502  0.2314  2.0412  1.4360
 2938TIP3   OH230228   0.333   6.120  11.886  0.3112  0.3657  0.4972
 2938TIP3    H130229   0.337   6.116  11.790  0.9292 -0.8783  0.5464
 2938TIP3    H230230   0.401   6.182  11.910  1.0009 -0.2364  0.1556
 2939TIP3   OH230231   3.319   3.949  16.556 -0.3590  0.9158  1.1417
 2939TIP3    H130232   3.404   3.993  16.556 -1.0907  2.3854  0.9608
 2939TIP3    H230233   3.275   3.982  16.634 -1.8266  2.3515 -0.2231
 2940TIP3   OH230234   5.537   0.021   4.965 -0.0333  0.0377 -0.2334
 2940TIP3    H130235   5.608  -0.034   4.998  0.0526 -0.8395 -1.7546
 2940TIP3    H230236   5.532   0.000   4.872 -2.0173  0.3791 -0.2589
 2941TIP3   OH230237   6.161   2.777   4.637 -0.3090  0.5788  0.5314
 2941TIP3    H130238   6.238   2.802   4.688 -0.3764  1.4135  0.2287
 2941TIP3    H230239   6.125   2.859   4.604 -0.8888  0.1373  0.0260
 2942TIP3   OH230240   0.514   1.905   1.716 -0.3160 -0.1482  0.8190
 2942TIP3    H130241   0.450   1.969   1.684  0.0984 -0.2488 -0.2475
 2942TIP3    H230242   0.511   1.834   1.652  1.4745  0.2372  0.2451
 2943TIP3   OH230243   3.898   1.403  17.003 -0.2232 -0.3392  0.1904
 2943TIP3    H130244   3.987   1.437  16.997  0.5859 -2.3516 -0.2747
 2943TIP3    H230245   3.843   1.468  16.959  1.6313 -1.0081 -3.4874
 2944TIP3   OH230246   4.421   3.499   1.809 -0.4693 -0.3010  0.5283
 2944TIP3    H130247   4.465   3.569   1.762  1.7516 -0.2788  2.4211
 2944TIP3    H230248   4.329   3.504   1.782  0.1144  1.6360 -1.3162
 2945TIP3   OH230249   3.643   4.385  14.120 -0.6328 -0.1405  0.0162
 2945TIP3    H130250   3.629   4.403  14.212  1.4560  1.1148  0.1527
 2945TIP3    H230251   3.566   4.422  14.076 -0.1944  2.1474  1.0211
 2946TIP3   OH230252   6.714   3.724  11.815  0.0745 -0.5267  0.1625
 2946TIP3    H130253   6.735   3.754  11.904  0.5275 -0.8477  0.1664
 2946TIP3    H230254   6.708   3.805  11.764 -1.1619 -0.2644  0.6733
 2947TIP3   OH230255   0.944   5.913   5.200 -0.0627  0.1705 -0.1665
 2947TIP3    H130256   0.911   5.857   5.130  0.5681 -1.2686  0.6370
 2947TIP3    H230257   0.880   5.904   5.270 -0.2902  0.9967 -0.2540
 2948TIP3   OH230258   6.428   5.137  15.956 -0.1088 -0.5436  0.3304
 2948TIP3    H130259   6.467   5.217  15.991 -2.2322  0.0070  1.6302
 2948TIP3    H230260   6.499   5.095  15.907  1.9116  0.6680  2.0282
 2949TIP3   OH230261   0.782   1.352   4.487  0.5521 -0.0850  0.4156
 2949TIP3    H130262   0.742   1.344   4.574 -0.7965  0.9003 -0.0833
 2949TIP3    H230263   0.825   1.438   4.488  0.6194 -0.1140  0.1444
 2950TIP3   OH230264   0.877   3.273   5.765 -0.3545 -0.1487 -0.2053
 2950TIP3    H130265   0.968   3.289   5.791 -0.2986 -1.8705  0.8199
 2950TIP3    H230266   0.867   3.178   5.769 -2.0918 -0.0286 -0.7123
 2951TIP3   OH230267   5.120   2.307  12.694 -0.2224 -0.0583  0.1311
 2951TIP3    H130268   5.204   2.306  12.742  1.2262  0.9921 -2.2211
 2951TIP3    H230269   5.055   2.324  12.762  1.6271  0.6771  1.8496
 2952TIP3   OH230270   3.036   6.673  10.434  0.3387 -0.2288 -0.7665
 2952TIP3    H130271   2.948   6.664  10.398 -1.8567  1.0493  3.5544
 2952TIP3    H230272   3.056   6.766  10.428 -1.0157  0.4513  2.6043
 2953TIP3   OH230273   2.997   4.142  14.337 -0.5185 -0.6443 -0.3563
 2953TIP3    H130274   3.008   4.233  14.309 -0.1875 -0.6696 -0.3125
 2953TIP3    H230275   3.034   4.090  14.266  1.0732 -0.6869  0.4628
 2954TIP3   OH230276   5.812   5.864   3.630 -0.1160 -0.2342  0.2067
 2954TIP3    H130277   5.854   5.889   3.547  0.5176 -0.5222  0.4304
 2954TIP3    H230278   5.869   5.901   3.698 -0.1931 -0.6740  0.5145
 2955TIP3   OH230279   0.485   4.755   3.824 -0.9168  0.5450  0.8014
 2955TIP3    H130280   0.486   4.810   3.746  2.4076 -0.0248  0.2827
 2955TIP3    H230281   0.464   4.667   3.792 -1.0562  0.5814  0.7929
 2956TIP3   OH230282   0.114   3.310   4.088 -0.0121 -0.3732  0.0487
 2956TIP3    H130283   0.034   3.347   4.126 -1.7717 -2.9448 -0.9052
 2956TIP3    H230284   0.178   3.313   4.160 -1.5350  0.0042  1.4541
 2957TIP3   OH230285   6.160   2.570   4.344  0.0834 -0.1859 -0.2481
 2957TIP3    H130286   6.173   2.620   4.263 -2.1432 -1.5683 -1.5395
 2957TIP3    H230287   6.127   2.485   4.315  0.1270 -1.0569  2.0911
 2958TIP3   OH230288   6.202   5.811  16.366  0.5539  0.1397  0.1174
 2958TIP3    H130289   6.208   5.792  16.272  0.1697 -2.3386  0.5181
 2958TIP3    H230290   6.108   5.818  16.384  0.6458  1.1334  0.2401
 2959TIP3   OH230291   3.600   1.918  16.112  0.7157  0.3978 -0.4329
 2959TIP3    H130292   3.608   1.959  16.198  0.1645  2.1837 -1.1792
 2959TIP3    H230293   3.509   1.933  16.087  0.8817 -0.0604 -1.3489
 2960TIP3   OH230294   3.812   3.097  14.812 -0.5468  0.0377  0.5472
 2960TIP3    H130295   3.812   3.075  14.719  1.4206 -0.9805  0.7263
 2960TIP3    H230296   3.825   3.192  14.815 -2.0399  0.2919 -0.1943
 2961TIP3   OH230297   0.003   0.388  12.661 -0.1827  0.0484  0.1755
 2961TIP3    H130298  -0.068   0.342  12.615 -0.9155  0.5607  0.7812
 2961TIP3    H230299   0.061   0.417  12.591 -2.2911  2.5689 -0.7061
 2962TIP3   OH230300   4.382   2.052  11.392  0.1867 -0.1323 -0.2360
 2962TIP3    H130301   4.370   2.146  11.403  0.3800 -0.3270  2.0944
 2962TIP3    H230302   4.474   2.042  11.367  0.4116  0.2465  0.4264
 2963TIP3   OH230303   1.129   2.674  11.285  0.1325  0.1242  0.7078
 2963TIP3    H130304   1.120   2.732  11.209  0.2181 -1.5876 -0.6749
 2963TIP3    H230305   1.043   2.676  11.327 -0.3198  0.1469 -0.1821
 2964TIP3   OH230306   4.909   3.924   0.116 -0.3957 -0.0149 -0.2877
 2964TIP3    H130307   4.883   3.840   0.155 -0.9134 -0.1598 -0.9177
 2964TIP3    H230308   4.838   3.984   0.140 -0.1483  0.1834 -0.0476
 2965TIP3   OH230309   4.859   5.201   4.320  0.2975 -0.8045 -0.0612
 2965TIP3    H130310   4.937   5.157   4.286  0.3037 -0.8269 -0.0188
 2965TIP3    H230311   4.821   5.138   4.381  0.8034 -0.3981  0.6861
 2966TIP3   OH230312   5.372   0.742   0.645 -0.3846 -0.4779 -0.4487
 2966TIP3    H130313   5.448   0.793   0.671 -0.6294  0.1477 -0.9384
 2966TIP3    H230314   5.326   0.797   0.582 -1.7359 -0.4425  0.5032
 2967TIP3   OH230315   3.112   0.421  14.823  0.3717 -0.0343  0.5164
 2967TIP3    H130316   3.028   0.408  14.779  1.3162  0.9211 -1.7302
 2967TIP3    H230317   3.159   0.338  14.809  0.4176  0.0244  0.3228
 2968TIP3   OH230318   1.767   0.031  13.649  0.2772  0.1309  0.1429
 2968TIP3    H130319   1.703  -0.029  13.611  0.6347 -0.6048  0.6960
 2968TIP3    H230320   1.849  -0.018  13.651  0.1998  0.0047  2.1799
 2969TIP3   OH230321   3.810   6.737  16.065 -0.2322  0.0228 -0.1440
 2969TIP3    H130322   3.769   6.656  16.095 -0.4743 -0.2700 -1.2149
 2969TIP3    H230323   3.736   6.797  16.050 -0.0836  0.3081  0.2559
 2970TIP3   OH230324   5.877   5.044  10.556  0.3572 -0.0927 -0.2962
 2970TIP3    H130325   5.819   5.110  10.594 -1.5433 -2.0704  0.4517
 2970TIP3    H230326   5.818   4.983  10.511  1.9627 -1.5734 -0.4904
 2971TIP3   OH230327   1.080   1.299   0.722 -0.3624  0.2164  0.3775
 2971TIP3    H130328   1.067   1.234   0.792 -0.8030  1.0196  1.0622
 2971TIP3    H230329   1.027   1.266   0.649  0.8482 -1.1291  0.0676
 2972TIP3   OH230330   3.635   2.546  14.032  0.2532  0.4768  0.1518
 2972TIP3    H130331   3.663   2.612  13.968 -0.0619  1.2179  0.7609
 2972TIP3    H230332   3.716   2.500  14.055  0.2746 -0.2126 -1.2242
 2973TIP3   OH230333   1.607   4.467  11.402 -0.1052  0.8559 -0.4007
 2973TIP3    H130334   1.636   4.489  11.313  1.5227 -1.0696 -0.4342
 2973TIP3    H230335   1.682   4.491  11.458  0.8619 -2.2159 -0.2035
 2974TIP3   OH230336   6.607   5.184  15.183 -0.5082  0.0746 -0.4030
 2974TIP3    H130337   6.588   5.174  15.276 -1.1388  0.7758 -0.4527
 2974TIP3    H230338   6.527   5.154  15.139 -0.7647  1.1381 -0.6725
 2975TIP3   OH230339   3.338   0.890   3.354  0.1998 -0.1143  0.4899
 2975TIP3    H130340   3.399   0.827   3.393  1.5584  1.2921  0.7328
 2975TIP3    H230341   3.277   0.911   3.424  2.3590  2.0662  1.8993
 2976TIP3   OH230342   1.427   5.469  16.257 -0.1523 -0.3442  0.1181
 2976TIP3    H130343   1.339   5.507  16.251 -0.5685 -1.1725  0.8158
 2976TIP3    H230344   1.443   5.431  16.171 -0.6802 -0.6154  0.1379
 2977TIP3   OH230345   2.766   6.784  15.721 -0.4380  0.6299 -0.2806
 2977TIP3    H130346   2.861   6.795  15.729 -0.1033 -2.2968  1.1090
 2977TIP3    H230347   2.750   6.779  15.626  0.8530  0.8190 -0.5222
 2978TIP3   OH230348   1.101   4.850  13.092 -0.2008 -0.5932 -0.3833
 2978TIP3    H130349   1.120   4.834  13.000  1.3733  1.4787 -0.4818
 2978TIP3    H230350   1.070   4.941  13.095 -0.3794 -0.6725  1.1118
 2979TIP3   OH230351   4.896   4.219  14.722 -0.6761  0.2769 -0.1245
 2979TIP3    H130352   4.808   4.257  14.727 -0.6198  0.5346 -0.8703
 2979TIP3    H230353   4.926   4.242  14.634  0.5750  1.1158  0.5084
 2980TIP3   OH230354   2.432   6.635  11.347 -0.2706  0.4012 -0.3815
 2980TIP3    H130355   2.408   6.658  11.437  2.2479  0.4783  0.3336
 2980TIP3    H230356   2.459   6.544  11.352  2.5454  1.1337 -0.3916
 2981TIP3   OH230357   1.813   4.812   0.461 -0.1163  0.5291  0.2009
 2981TIP3    H130358   1.780   4.743   0.403 -0.7301  2.3754 -1.7267
 2981TIP3    H230359   1.871   4.865   0.407 -1.0656  2.5899  1.1017
 2982TIP3   OH230360   3.131   5.685   5.435  0.1395  0.2835  0.2089
 2982TIP3    H130361   3.077   5.616   5.395  2.2189 -0.4698 -1.4881
 2982TIP3    H230362   3.161   5.647   5.517 -1.0248  0.3228  0.6794
 2983TIP3   OH230363   0.088   0.545   2.829  0.0442  0.6889  0.3089
 2983TIP3    H130364   0.113   0.493   2.752 -0.8840  0.4586  0.1491
 2983TIP3    H230365   0.149   0.619   2.828  1.4081 -0.3730  0.5473
 2984TIP3   OH230366   0.266   6.549  13.003  0.0681 -0.2728  0.0306
 2984TIP3    H130367   0.336   6.541  12.939  0.6295 -1.8788  0.7827
 2984TIP3    H230368   0.307   6.531  13.087 -0.8728  0.6961  0.7305
 2985TIP3   OH230369   3.294   0.398  13.982  0.1262 -0.0822 -0.1365
 2985TIP3    H130370   3.336   0.464  14.037  1.1212 -1.0501  0.3051
 2985TIP3    H230371   3.351   0.390  13.906 -1.6529  1.8208 -1.7734
 2986TIP3   OH230372   5.745   1.091   3.831  0.3153 -0.8557 -0.0416
 2986TIP3    H130373   5.774   1.105   3.922 -1.3886 -1.8826  0.7146
 2986TIP3    H230374   5.707   1.003   3.831  0.4354 -0.9448 -1.8101
 2987TIP3   OH230375   5.414   5.936  14.794  0.3276  0.3075 -0.0493
 2987TIP3    H130376   5.376   5.859  14.752  1.2419  0.0677 -0.4585
 2987TIP3    H230377   5.429   5.909  14.885  1.1439 -0.1951 -0.3190
 2988TIP3   OH230378   4.889   5.256  16.039  0.0032 -0.3387  0.4921
 2988TIP3    H130379   4.926   5.344  16.037 -0.2566 -0.2361 -1.4250
 2988TIP3    H230380   4.917   5.216  15.956 -1.5923 -1.3156  0.3858
 2989TIP3   OH230381   5.148   1.962   0.534 -0.3399  0.6681 -0.0151
 2989TIP3    H130382   5.164   2.049   0.572  4.4240 -0.5516  1.5148
 2989TIP3    H230383   5.227   1.943   0.484 -0.8515 -3.0289  0.3182
 2990TIP3   OH230384   6.033   2.155  11.772  0.7622  0.4652 -0.1054
 2990TIP3    H130385   5.943   2.176  11.747  0.9643  3.0510  1.0304
 2990TIP3    H230386   6.028   2.067  11.808 -1.6948  1.1778  1.5681
 2991TIP3   OH230387   2.346   5.417   5.944  0.3030 -0.4010  0.0512
 2991TIP3    H130388   2.307   5.483   5.886  1.0770 -0.5910 -0.6965
 2991TIP3    H230389   2.292   5.421   6.024 -1.4847 -0.8828 -1.0560
 2992TIP3   OH230390   6.079   4.967  14.554  0.0611 -0.4019 -0.2304
 2992TIP3    H130391   6.082   4.925  14.468  2.3620  0.3234 -0.5852
 2992TIP3    H230392   6.170   4.966  14.584 -0.2113  1.9611  0.9044
 2993TIP3   OH230393   3.595   2.029   5.296  0.1776 -0.3413 -0.5874
 2993TIP3    H130394   3.574   2.116   5.332  1.2314 -0.0644 -0.6245
 2993TIP3    H230395   3.511   1.982   5.298 -0.1354  0.2192  0.6870
 2994TIP3   OH230396   5.303   6.557   5.187 -0.1561 -0.3605  0.0485
 2994TIP3    H130397   5.397   6.569   5.199 -0.1130  0.2567 -0.7950
 2994TIP3    H230398   5.274   6.639   5.147 -1.2332 -0.1578  1.2079
 2995TIP3   OH230399   4.677   6.559  16.775  0.2385 -0.7029  0.6644
 2995TIP3    H130400   4.668   6.533  16.683  2.0562  0.0229  0.2271
 2995TIP3    H230401   4.638   6.488  16.825  0.2378 -1.6562 -0.6544
 2996TIP3   OH230402   3.645   1.870   0.372 -0.5153 -0.2045 -0.4245
 2996TIP3    H130403   3.692   1.886   0.454  0.2286  0.0817 -0.9040
 2996TIP3    H230404   3.654   1.951   0.323 -0.5129 -0.5560 -1.0056
 2997TIP3   OH230405   5.500   4.202   3.930 -0.4248 -0.1730 -0.3675
 2997TIP3    H130406   5.592   4.195   3.905 -0.2511 -0.0665  0.2318
 2997TIP3    H230407   5.484   4.296   3.936 -0.9265 -0.1523 -1.7367
 2998TIP3   OH230408   5.190   1.008  14.794 -0.6984  0.3423 -0.3299
 2998TIP3    H130409   5.225   0.974  14.877 -1.4039  0.7542  0.1431
 2998TIP3    H230410   5.178   0.930  14.740 -0.9328 -0.0094  0.2237
 2999TIP3   OH230411   0.423   2.434   4.979  0.4911  0.6551 -0.6192
 2999TIP3    H130412   0.398   2.343   4.964 -1.0107  1.0414 -0.5883
 2999TIP3    H230413   0.507   2.428   5.024  1.2046 -0.6729 -2.0308
 3000TIP3   OH230414   1.013   5.629  13.553 -0.1674 -0.4475 -0.1396
 3000TIP3    H130415   1.054   5.713  13.534  0.7093 -0.7582  0.3238
 3000TIP3    H230416   1.029   5.576  13.474 -0.8018 -0.1541 -0.4687
 3001TIP3   OH230417   1.341   2.742  11.664  0.1791  0.3047  0.5394
 3001TIP3    H130418   1.365   2.799  11.738 -0.0127  0.5664  0.4008
 3001TIP3    H230419   1.302   2.665  11.705 -0.9646  0.9359  0.6757
 3002TIP3   OH230420   2.328   0.537   0.507 -0.4298 -0.3050 -0.4140
 3002TIP3    H130421   2.390   0.533   0.433  1.5731  0.5750  1.1068
 3002TIP3    H230422   2.268   0.607   0.483  0.5169  0.3326 -1.0207
 3003TIP3   OH230423   5.920   4.599  12.119 -0.1028 -0.5141 -0.0604
 3003TIP3    H130424   5.982   4.670  12.134  1.2675 -2.2243  3.4572
 3003TIP3    H230425   5.965   4.541  12.057  0.9344 -0.6635  0.8015
 3004TIP3   OH230426   5.721   3.572  14.598  0.7948  0.0598  0.3294
 3004TIP3    H130427   5.698   3.480  14.612  4.3308 -0.8866  0.7925
 3004TIP3    H230428   5.675   3.619  14.668 -3.0939 -0.8216 -1.3568
 3005TIP3   OH230429   2.698   6.687  15.097  0.1815  0.4607 -0.0474
 3005TIP3    H130430   2.756   6.752  15.058  0.1794 -1.1920 -3.1695
 3005TIP3    H230431   2.610   6.714  15.070 -0.2263  1.1414  1.8411
 3006TIP3   OH230432   2.653   4.174   1.596 -0.3460 -0.2106  0.5613
 3006TIP3    H130433   2.733   4.167   1.649 -1.1073  0.2305  1.8271
 3006TIP3    H230434   2.583   4.182   1.661 -1.4324 -0.6839 -0.5246
 3007TIP3   OH230435   5.395   4.909   2.619  0.0453  0.5083 -0.6902
 3007TIP3    H130436   5.364   4.967   2.549 -2.3372 -0.0771 -0.2168
 3007TIP3    H230437   5.414   4.827   2.574 -2.1369 -0.0865 -0.6579
 3008TIP3   OH230438   4.867   2.454   4.168 -0.0039 -0.1562  0.4899
 3008TIP3    H130439   4.807   2.445   4.094  0.2559  0.4894  0.1929
 3008TIP3    H230440   4.891   2.547   4.169  1.8592 -0.5774 -0.0968
 3009TIP3   OH230441   1.418   3.693  14.139  0.2067  0.1710 -0.0763
 3009TIP3    H130442   1.497   3.741  14.167 -0.3535  0.4151  1.1541
 3009TIP3    H230443   1.421   3.696  14.044  1.0304  1.2665 -0.0398
 3010TIP3   OH230444   1.528   0.783   5.043  0.5737  0.3824 -0.3599
 3010TIP3    H130445   1.455   0.782   5.105  1.8702  1.5671  1.2997
 3010TIP3    H230446   1.508   0.855   4.983  0.9708  1.6600  0.9624
 3011TIP3   OH230447   2.144   1.907   4.621 -0.2346  0.5152  0.0822
 3011TIP3    H130448   2.230   1.949   4.629 -0.3967  0.9092 -0.1913
 3011TIP3    H230449   2.101   1.954   4.549 -0.9635  0.8081  0.6952
 3012TIP3   OH230450   0.918   4.643   4.143 -0.9930 -0.7640  0.4773
 3012TIP3    H130451   0.976   4.607   4.211 -1.4023  0.7585  1.7126
 3012TIP3    H230452   0.831   4.639   4.182 -1.3245 -0.5060 -0.2368
 3013TIP3   OH230453   0.691   2.019  12.300  0.0184 -0.4696 -0.0231
 3013TIP3    H130454   0.723   1.929  12.292  1.7564  0.1595 -0.5367
 3013TIP3    H230455   0.686   2.034  12.394 -1.2571 -1.4013  0.0913
 3014TIP3   OH230456   4.897   3.493   5.597  0.5505 -0.0353  0.2038
 3014TIP3    H130457   4.964   3.509   5.664 -0.6423  0.8337  1.2425
 3014TIP3    H230458   4.832   3.562   5.611 -1.8318 -2.2379  0.8904
 3015TIP3   OH230459   4.760   4.974   4.457  0.2379  0.0150 -0.3985
 3015TIP3    H130460   4.784   4.990   4.548  0.4943  2.5037 -0.8268
 3015TIP3    H230461   4.674   4.933   4.462  0.1100  0.3886  0.9577
 3016TIP3   OH230462   3.765   1.735  15.068 -0.2531  0.2981  1.0916
 3016TIP3    H130463   3.815   1.751  14.988 -0.0023 -1.4629  0.8703
 3016TIP3    H230464   3.829   1.699  15.129 -0.8769 -0.3016  1.3988
 3017TIP3   OH230465   0.216   3.763   3.648  0.4171 -0.5661 -0.0538
 3017TIP3    H130466   0.247   3.853   3.633  0.6345 -0.4978  0.7936
 3017TIP3    H230467   0.149   3.771   3.715 -1.8811 -0.6473 -2.2038
 3018TIP3   OH230468   6.685   5.030   2.878 -0.1432 -0.0611  0.4025
 3018TIP3    H130469   6.733   5.112   2.883 -0.7413  0.2351  1.9962
 3018TIP3    H230470   6.654   5.015   2.968 -1.4186 -1.1909 -0.1911
 3019TIP3   OH230471   1.277   4.403   3.399  0.7162  0.3089  0.0015
 3019TIP3    H130472   1.311   4.425   3.485  0.1597  1.4642 -0.0532
 3019TIP3    H230473   1.232   4.320   3.411  1.4202  0.0059  0.6128
 3020TIP3   OH230474   2.968   4.445   3.924 -0.2564  0.3465  0.2822
 3020TIP3    H130475   3.031   4.385   3.965 -1.3917 -0.2239  1.2534
 3020TIP3    H230476   2.891   4.440   3.980 -1.9269 -0.5177 -1.9639
 3021TIP3   OH230477   5.991   5.310   1.089  0.2508 -0.1033 -0.8193
 3021TIP3    H130478   5.902   5.316   1.122  0.6141 -2.1238  0.6985
 3021TIP3    H230479   5.981   5.294   0.995 -0.9656 -0.0965 -0.7033
 3022TIP3   OH230480   3.765   0.889   3.927 -0.5755  0.1248  0.5409
 3022TIP3    H130481   3.745   0.871   3.836 -3.3903 -1.9660  1.4225
 3022TIP3    H230482   3.829   0.960   3.924 -0.1011 -0.2652 -3.0129
 3023TIP3   OH230483   0.129   6.119  16.664 -0.0079  0.4105  0.5824
 3023TIP3    H130484   0.078   6.121  16.745 -1.4800 -0.3801 -0.2769
 3023TIP3    H230485   0.220   6.110  16.693 -0.2132  2.6400  2.1907
 3024TIP3   OH230486   3.634   6.724  16.827 -0.0921  0.9131 -0.0609
 3024TIP3    H130487   3.658   6.657  16.763  1.9107 -0.2479  1.7848
 3024TIP3    H230488   3.627   6.804  16.775  0.9812 -0.0606 -1.8307
 3025TIP3   OH230489   1.904   0.431  11.418 -0.3493  0.0028  0.0270
 3025TIP3    H130490   1.871   0.348  11.383 -1.4755  0.5709 -0.3111
 3025TIP3    H230491   1.864   0.437  11.505  0.2958 -0.1331  0.3392
 3026TIP3   OH230492   3.006   6.094   2.200 -0.6089 -0.0536 -0.0305
 3026TIP3    H130493   3.004   6.015   2.146 -0.5897  1.2140 -1.9947
 3026TIP3    H230494   3.097   6.125   2.193 -0.4012 -0.2671  1.4032
 3027TIP3   OH230495   5.274   2.632   1.611 -0.6764  0.3730  0.0252
 3027TIP3    H130496   5.217   2.620   1.535 -1.5103  0.0105  0.6912
 3027TIP3    H230497   5.333   2.557   1.610 -1.7093 -0.4869  0.5900
 3028TIP3   OH230498   6.763   4.475  13.917  0.5804 -0.1297  0.0303
 3028TIP3    H130499   6.670   4.477  13.895  0.2443 -0.8015  1.2756
 3028TIP3    H230500   6.807   4.462  13.833 -0.4844 -0.4112 -0.5086
 3029TIP3   OH230501   5.006   4.207  13.940 -0.1711  0.5419 -0.1689
 3029TIP3    H130502   4.988   4.295  13.974 -1.4201  0.0114  0.5766
 3029TIP3    H230503   4.925   4.181  13.896 -0.4354 -0.9278  1.1217
 3030TIP3   OH230504   0.377   5.299   2.236 -0.2602  0.1237 -0.7582
 3030TIP3    H130505   0.409   5.306   2.147 -0.0179  0.2906 -0.6590
 3030TIP3    H230506   0.284   5.322   2.230  0.0043  1.2527 -0.8030
 3031TIP3   OH230507   3.623   3.141   6.829  1.1123  0.4126  0.0726
 3031TIP3    H130508   3.698   3.199   6.816 -0.1163  1.9052 -0.6112
 3031TIP3    H230509   3.548   3.199   6.840 -0.2518 -1.0182 -1.0336
 3032TIP3   OH230510   1.467   0.813   2.944  0.4487  0.0122 -0.5048
 3032TIP3    H130511   1.485   0.880   2.879 -0.5807  1.0489  0.2332
 3032TIP3    H230512   1.388   0.768   2.911  0.1137  0.3272 -0.1398
 3033TIP3   OH230513   4.789   1.315   3.148  0.4077 -0.3084  0.3822
 3033TIP3    H130514   4.749   1.279   3.070  2.5937 -2.0312 -0.0512
 3033TIP3    H230515   4.833   1.395   3.118  1.3033 -1.0050 -0.1950
 3034TIP3   OH230516   2.378   6.200  16.763 -0.2783  0.1391 -0.1985
 3034TIP3    H130517   2.393   6.107  16.777  2.1987  0.5210  0.2479
 3034TIP3    H230518   2.334   6.230  16.843  1.7231 -0.1607  1.1200
 3035TIP3   OH230519   2.634   5.952  15.763  0.2241 -0.2599  0.3428
 3035TIP3    H130520   2.721   5.916  15.782 -0.0645 -1.4793 -0.5048
 3035TIP3    H230521   2.635   5.969  15.669 -0.9893 -1.9054 -0.0107
 3036TIP3   OH230522   4.119   5.446  12.939 -0.3555  0.0455 -0.0123
 3036TIP3    H130523   4.045   5.504  12.958 -1.3607  0.1446 -3.4670
 3036TIP3    H230524   4.187   5.505  12.907  0.0620 -0.3488  0.1354
 3037TIP3   OH230525   3.072   2.034  13.545  0.4132  0.2713  0.0430
 3037TIP3    H130526   3.149   2.021  13.599 -0.3248 -0.8555  0.8634
 3037TIP3    H230527   3.056   1.949  13.504 -0.2486  0.5539 -0.3128
 3038TIP3   OH230528   6.781   2.606  12.760  0.0810  0.1068  0.3299
 3038TIP3    H130529   6.793   2.636  12.850 -0.0812  0.3105  0.2834
 3038TIP3    H230530   6.733   2.523  12.769  1.4650 -0.7032  0.5122
 3039TIP3   OH230531   4.814   5.217  11.907 -0.7225 -0.1651  0.7364
 3039TIP3    H130532   4.861   5.144  11.947 -1.9434 -1.0484  0.5842
 3039TIP3    H230533   4.760   5.177  11.839 -2.0770  0.7548  1.2352
 3040TIP3   OH230534   3.144   3.049   6.077  0.1586  0.1474  0.7637
 3040TIP3    H130535   3.105   3.008   6.154 -1.0737 -1.7671 -0.7767
 3040TIP3    H230536   3.073   3.055   6.014  1.1732  1.4735 -0.3143
 3041TIP3   OH230537   5.045   3.479  11.470  0.2237 -0.4299 -0.1145
 3041TIP3    H130538   5.135   3.447  11.482  0.6367  1.1575  1.5329
 3041TIP3    H230539   5.055   3.555  11.413  0.3247  1.2237  1.9972
 3042TIP3   OH230540   0.330   4.979   0.520  1.0997 -0.0528  0.0075
 3042TIP3    H130541   0.327   5.052   0.581  2.6781  2.0047 -2.1854
 3042TIP3    H230542   0.423   4.963   0.506  0.7906 -0.5738 -1.6589
 3043TIP3   OH230543   1.651   5.855  15.876 -0.3356 -0.3064 -0.3970
 3043TIP3    H130544   1.585   5.916  15.911  0.6770  1.2920 -1.1426
 3043TIP3    H230545   1.724   5.862  15.937  0.2104  0.0685 -1.0916
 3044TIP3   OH230546   3.747   1.774  15.895  0.1725  0.0021 -0.1915
 3044TIP3    H130547   3.821   1.832  15.877  0.2801  0.0809  0.4560
 3044TIP3    H230548   3.695   1.821  15.960 -0.7397  0.1812 -1.0301
 3045TIP3   OH230549   4.011   3.103  16.280 -0.0685 -0.1754  0.5146
 3045TIP3    H130550   3.998   3.198  16.288  1.3074  0.0749  0.0215
 3045TIP3    H230551   4.066   3.080  16.355  1.3407 -0.1924 -0.4771
 3046TIP3   OH230552   2.015   3.897  12.982 -0.1243  0.0679  0.2072
 3046TIP3    H130553   2.016   3.989  13.009  2.1563  0.2164 -0.2014
 3046TIP3    H230554   2.064   3.895  12.900  0.1306 -1.5458  0.3516
 3047TIP3   OH230555   0.067   5.806   4.559 -0.2627 -0.2765  0.2115
 3047TIP3    H130556   0.079   5.836   4.470 -0.2480 -0.1471  0.2574
 3047TIP3    H230557   0.056   5.711   4.551  1.6417 -0.5370  0.2509
 3048TIP3   OH230558   5.395   6.329  11.312 -0.0290  0.0342 -0.9906
 3048TIP3    H130559   5.419   6.421  11.300 -0.9988  0.2965 -0.9958
 3048TIP3    H230560   5.363   6.325  11.402  1.1433 -0.5649 -0.5776
 3049TIP3   OH230561   3.108   1.865  13.311 -0.4446 -0.5440  0.5191
 3049TIP3    H130562   3.092   1.904  13.226 -0.2668 -0.2768  0.6076
 3049TIP3    H230563   3.203   1.863  13.319 -0.4646 -0.2532  0.8546
 3050TIP3   OH230564   1.389   1.929   5.876  0.2286  0.2617  0.4206
 3050TIP3    H130565   1.371   1.988   5.950 -0.8067 -1.7677  1.9092
 3050TIP3    H230566   1.480   1.902   5.888 -0.2802 -1.0432  1.8189
 3051TIP3   OH230567   6.607   0.432  13.304 -0.0461  0.1411 -0.4895
 3051TIP3    H130568   6.594   0.348  13.260  1.0501 -0.1107 -0.3697
 3051TIP3    H230569   6.696   0.427  13.339  0.3319  1.6595 -1.1466
 3052TIP3   OH230570   4.169   1.871   5.132  0.2117 -0.5613 -0.3185
 3052TIP3    H130571   4.200   1.949   5.177 -0.1462 -0.7369  0.2437
 3052TIP3    H230572   4.116   1.904   5.060 -4.1125 -0.1260  2.6678
 3053TIP3   OH230573   4.467   4.640  13.622 -0.1538  0.0465 -0.0989
 3053TIP3    H130574   4.490   4.599  13.705 -0.5949 -1.3044 -0.6159
 3053TIP3    H230575   4.543   4.625  13.566  0.3716  1.4379  0.1935
 3054TIP3   OH230576   5.979   3.000  16.184  0.0160  0.3557 -0.4524
 3054TIP3    H130577   5.898   2.949  16.175 -0.4308  0.6428  1.3703
 3054TIP3    H230578   5.955   3.089  16.159  0.3636  0.0408 -2.0090
 3055TIP3   OH230579   0.537   4.952  12.820  0.2410 -0.0579  0.5583
 3055TIP3    H130580   0.512   4.911  12.902  0.5927  1.0836  1.2555
 3055TIP3    H230581   0.459   4.999  12.791  0.9584  2.1061  1.8716
 3056TIP3   OH230582   4.466   2.421  15.069  0.4168  0.7579 -0.3315
 3056TIP3    H130583   4.393   2.366  15.096 -1.1207  2.1772 -1.4070
 3056TIP3    H230584   4.465   2.495  15.130 -0.6512  2.0166 -1.7843
 3057TIP3   OH230585   2.897   1.582  16.360 -0.1626 -0.5005  0.1765
 3057TIP3    H130586   2.868   1.575  16.451 -0.2897 -0.9288  0.1034
 3057TIP3    H230587   2.839   1.647  16.321 -1.5242 -1.8740 -0.1630
 3058TIP3   OH230588   3.186   1.348  13.060 -0.4647 -0.3073 -0.0104
 3058TIP3    H130589   3.236   1.266  13.066 -2.0281 -1.2141  1.9636
 3058TIP3    H230590   3.237   1.403  13.002  2.1241 -1.6468  0.8397
 3059TIP3   OH230591   2.162   5.985   1.187 -0.0031 -0.0766 -0.2511
 3059TIP3    H130592   2.110   5.926   1.242  0.2386 -0.7754 -0.7584
 3059TIP3    H230593   2.253   5.964   1.209  0.0953 -0.3226 -0.8655
 3060TIP3   OH230594   4.552   5.635   3.714  1.0493  0.1550 -0.5354
 3060TIP3    H130595   4.567   5.568   3.780  3.5256  1.1872  0.0752
 3060TIP3    H230596   4.526   5.713   3.763 -2.2437 -0.3403 -1.2703
 3061TIP3   OH230597   5.937   5.408   4.408  0.2094  0.3944  0.0269
 3061TIP3    H130598   5.861   5.466   4.399  1.1833  2.1245  1.9757
 3061TIP3    H230599   5.916   5.351   4.482  0.7222  0.8168  0.5146
 3062TIP3   OH230600   2.945   4.883  15.147  0.4690 -0.4387  0.1026
 3062TIP3    H130601   3.039   4.900  15.140  0.3755  0.1076  0.1233
 3062TIP3    H230602   2.924   4.899  15.239 -0.1943  2.4907 -0.4464
 3063TIP3   OH230603   4.528   3.687  15.394  0.4083  1.0494  0.1916
 3063TIP3    H130604   4.495   3.652  15.311  0.5657 -0.1403  0.6016
 3063TIP3    H230605   4.620   3.660  15.396  0.2817  0.6298  0.9572
 3064TIP3   OH230606   3.528   2.216  13.800  0.0370 -0.2626 -0.1390
 3064TIP3    H130607   3.603   2.235  13.857 -0.0279 -0.9826  0.1918
 3064TIP3    H230608   3.459   2.273  13.832 -0.0190 -0.7081  0.5556
 3065TIP3   OH230609   1.387   2.696   2.952  0.0888 -0.1438 -0.9950
 3065TIP3    H130610   1.422   2.756   2.886  2.3250 -0.6622 -0.3429
 3065TIP3    H230611   1.397   2.742   3.035 -1.4572 -0.0420 -0.8371
 3066TIP3   OH230612   3.377   1.314   0.272 -0.0950 -0.3407  0.2477
 3066TIP3    H130613   3.417   1.276   0.194  0.0707  1.2600 -0.4706
 3066TIP3    H230614   3.307   1.253   0.294 -0.1840 -0.7922 -1.1750
 3067TIP3   OH230615   1.416   4.450  10.587  0.2087  0.1098 -0.2983
 3067TIP3    H130616   1.427   4.420  10.677  2.2703  1.2642 -0.1217
 3067TIP3    H230617   1.397   4.544  10.595 -0.8519 -0.0218 -1.0424
 3068TIP3   OH230618   3.460   6.777   3.034 -0.4178 -0.1196 -0.4800
 3068TIP3    H130619   3.380   6.781   3.086 -0.2780  0.0423 -0.2778
 3068TIP3    H230620   3.449   6.699   2.979 -0.6543 -0.1736 -0.3556
 3069TIP3   OH230621   2.432   3.087   0.926  0.4377  0.0506  0.1079
 3069TIP3    H130622   2.462   3.166   0.882 -1.1493  1.4760  1.4563
 3069TIP3    H230623   2.454   3.101   1.018  2.3429 -2.2092  0.1121
 3070TIP3   OH230624   1.204   0.443   2.275  0.2409  0.2069 -0.3540
 3070TIP3    H130625   1.229   0.391   2.199  3.4892  0.5222  0.3541
 3070TIP3    H230626   1.162   0.521   2.237 -0.3586 -0.6948 -1.6430
 3071TIP3   OH230627   3.733   0.913   1.267  0.0102 -0.4656  0.1517
 3071TIP3    H130628   3.693   0.829   1.285  0.0742 -0.3000  1.1232
 3071TIP3    H230629   3.827   0.898   1.279  0.4004 -1.0316 -2.7974
 3072TIP3   OH230630   0.892   6.057  16.066  0.5531 -0.0168 -0.3823
 3072TIP3    H130631   0.929   5.983  16.018 -2.0218 -1.6773 -0.0285
 3072TIP3    H230632   0.899   6.131  16.005  0.6603 -1.2050 -1.8770
 3073TIP3   OH230633   3.531   2.814   0.558 -0.4455  0.1659  0.0170
 3073TIP3    H130634   3.505   2.883   0.618 -0.6756  0.0153  0.0903
 3073TIP3    H230635   3.613   2.846   0.519  1.1625 -0.8856  2.3318
 3074TIP3   OH230636   1.666   1.528  15.728 -0.3296  0.0163 -0.1571
 3074TIP3    H130637   1.693   1.477  15.804  0.3588 -1.5380 -1.3721
 3074TIP3    H230638   1.735   1.512  15.663 -0.3441  2.1591 -0.7592
 3075TIP3   OH230639   2.086   3.136   3.479 -0.5924  0.1770 -0.8978
 3075TIP3    H130640   2.144   3.212   3.473 -0.5270  0.1198 -0.9902
 3075TIP3    H230641   2.099   3.089   3.397 -2.1416  1.1353 -1.7339
 3076TIP3   OH230642   0.839   1.594  16.423  0.4134 -0.1855 -0.1884
 3076TIP3    H130643   0.793   1.635  16.497  1.1141  0.2514  0.0183
 3076TIP3    H230644   0.905   1.658  16.398 -0.1876 -0.0751 -1.5937
 3077TIP3   OH230645   1.890   4.097  12.558  0.0217 -0.4397 -0.0731
 3077TIP3    H130646   1.946   4.026  12.526 -0.0682 -0.5211 -0.0467
 3077TIP3    H230647   1.943   4.176  12.546 -0.5929 -0.2637 -1.8725
 3078TIP3   OH230648   3.576   0.715   5.966 -0.4504  0.2893  1.1095
 3078TIP3    H130649   3.503   0.704   6.028 -1.0184 -2.1807  0.1350
 3078TIP3    H230650   3.650   0.672   6.008 -0.6235 -0.6633  0.4811
 3079TIP3   OH230651   1.697   5.650   0.168  0.0823 -0.1284 -0.5306
 3079TIP3    H130652   1.747   5.704   0.106 -0.3455 -0.1572 -0.8987
 3079TIP3    H230653   1.625   5.706   0.195 -0.1895 -0.4085 -0.6785
 3080TIP3   OH230654   5.932   0.119  12.611  0.4157  0.3045  0.0768
 3080TIP3    H130655   5.963   0.092  12.525  0.1042 -1.0899  0.3867
 3080TIP3    H230656   5.838   0.132  12.600  0.5040  0.9724  0.0216
 3081TIP3   OH230657   3.331   6.083  15.417  0.0400  0.8947  0.7111
 3081TIP3    H130658   3.263   6.039  15.468 -0.9485  1.6363  0.0834
 3081TIP3    H230659   3.404   6.022  15.416 -0.4777  0.2346  1.7289
 3082TIP3   OH230660   4.677   5.380  11.296  0.1378 -0.3366  0.4198
 3082TIP3    H130661   4.647   5.382  11.387 -0.9193 -1.3126  0.1223
 3082TIP3    H230662   4.654   5.292  11.266  1.6114 -0.4672 -0.4249
 3083TIP3   OH230663   3.316   0.940   3.079 -0.1448 -1.2334  0.1997
 3083TIP3    H130664   3.344   0.853   3.051 -1.0324 -2.6420  3.1933
 3083TIP3    H230665   3.319   0.936   3.175  2.0891  2.8711  0.5125
 3084TIP3   OH230666   1.813   3.237   5.464 -0.0445  0.0191 -0.4940
 3084TIP3    H130667   1.788   3.258   5.374  0.8584  2.2569 -0.2934
 3084TIP3    H230668   1.898   3.194   5.457 -0.4218 -0.6914 -0.7537
 3085TIP3   OH230669   6.190   5.883  15.599  0.3960 -1.0102  0.2575
 3085TIP3    H130670   6.281   5.865  15.576  0.2186 -1.7796  0.1431
 3085TIP3    H230671   6.192   5.972  15.635  1.0054 -0.5709 -0.8045
 3086TIP3   OH230672   0.931   2.684   5.085  0.4597  0.0483 -0.8110
 3086TIP3    H130673   0.908   2.642   5.003  0.8722 -0.5416 -0.6299
 3086TIP3    H230674   0.848   2.716   5.120  0.5008  2.0909 -2.4006
 3087TIP3   OH230675   0.025   0.086   4.634 -0.0180  0.2228 -0.1130
 3087TIP3    H130676   0.008   0.045   4.719 -0.2541 -0.0091 -0.2695
 3087TIP3    H230677   0.120   0.095   4.630 -0.0398  0.7656  0.4201
 3088TIP3   OH230678   0.715   5.164  13.658  0.0199 -0.7783 -0.6294
 3088TIP3    H130679   0.740   5.100  13.592 -0.6901  1.0194 -2.7867
 3088TIP3    H230680   0.753   5.247  13.627 -1.2247  0.3444  0.6675
 3089TIP3   OH230681   4.202   5.086   6.604  0.2198 -0.1372 -0.5157
 3089TIP3    H130682   4.129   5.085   6.665  1.0645 -2.0461  0.5263
 3089TIP3    H230683   4.235   5.176   6.607 -0.3714  0.0442  1.0994
 3090TIP3   OH230684   1.415   1.004   4.397 -0.1612 -0.1319 -0.3134
 3090TIP3    H130685   1.473   1.080   4.402  0.2091 -0.4977  1.2132
 3090TIP3    H230686   1.402   0.977   4.488  1.6904 -3.4023 -0.8571
 3091TIP3   OH230687   2.297   2.167   1.189 -0.4688  0.3901 -0.7209
 3091TIP3    H130688   2.310   2.098   1.254 -0.7833  0.9301 -0.0732
 3091TIP3    H230689   2.341   2.135   1.110 -0.0345 -0.2471 -0.2238
 3092TIP3   OH230690   3.781   4.604   2.301 -0.3057  0.0912  0.1234
 3092TIP3    H130691   3.820   4.691   2.294 -0.9231  0.3052 -0.7724
 3092TIP3    H230692   3.856   4.546   2.314  0.7979  0.1372 -4.2417
 3093TIP3   OH230693   5.560   2.483  13.877 -0.1229  0.4702 -0.4048
 3093TIP3    H130694   5.516   2.521  13.802  1.3562  0.6858 -1.1870
 3093TIP3    H230695   5.631   2.431  13.840  1.4607  1.6413  0.8756
 3094TIP3   OH230696   6.379   5.515  15.864 -0.0665 -0.6741 -0.2697
 3094TIP3    H130697   6.393   5.585  15.929  0.2967 -1.2804  0.3208
 3094TIP3    H230698   6.299   5.540  15.819 -2.8010 -2.2583  3.2065
 3095TIP3   OH230699   4.382   5.987  10.859 -0.0978  0.3264  0.1277
 3095TIP3    H130700   4.378   5.946  10.946  0.0502 -0.3589 -0.1744
 3095TIP3    H230701   4.473   6.017  10.851  0.3218 -0.9842 -0.3729
 3096TIP3   OH230702   0.961   5.544  14.477 -0.4037 -0.3453 -0.3751
 3096TIP3    H130703   1.028   5.559  14.543 -0.4871 -0.3513 -0.2884
 3096TIP3    H230704   0.879   5.564  14.522 -0.4146  0.2607 -0.6608
 3097TIP3   OH230705   0.907   4.253   3.315  0.1057  0.0475  0.0253
 3097TIP3    H130706   0.835   4.191   3.330  0.5240 -0.7330 -1.0879
 3097TIP3    H230707   0.907   4.268   3.221  0.4971  1.1729  0.1952
 3098TIP3   OH230708   6.757   3.897  14.814 -0.1747 -0.1284  0.0078
 3098TIP3    H130709   6.683   3.943  14.773  0.0074 -1.0167 -1.3751
 3098TIP3    H230710   6.834   3.946  14.784 -0.0084 -1.0529 -1.1517
 3099TIP3   OH230711   3.017   5.204   0.790 -0.9173 -0.2349 -0.1349
 3099TIP3    H130712   3.085   5.263   0.758 -3.7107  1.5324 -3.4670
 3099TIP3    H230713   3.026   5.125   0.735 -0.7025 -0.6028  0.4183
 3100TIP3   OH230714   5.615   4.913   5.533 -0.0755 -0.1299  0.2612
 3100TIP3    H130715   5.681   4.906   5.602  2.1490  2.7622 -1.3454
 3100TIP3    H230716   5.666   4.920   5.452 -2.3343  2.0322 -1.1054
 3101TIP3   OH230717   3.742   0.718  12.025  0.4070 -0.0985 -0.0655
 3101TIP3    H130718   3.781   0.805  12.029  1.4594 -0.5343 -0.4604
 3101TIP3    H230719   3.814   0.659  12.045  0.4425 -1.0449 -2.5827
 3102TIP3   OH230720   1.667   3.401   2.238  0.0848 -0.6227 -0.1391
 3102TIP3    H130721   1.600   3.449   2.288 -0.0240 -1.2164  0.2908
 3102TIP3    H230722   1.707   3.342   2.302  1.9090  0.6167 -0.0551
 3103TIP3   OH230723   4.858   5.182   6.098 -0.1130 -0.3798  0.4921
 3103TIP3    H130724   4.766   5.173   6.073  0.0391 -2.4684  0.5663
 3103TIP3    H230725   4.905   5.125   6.038  1.4451  2.2320 -0.9375
 3104TIP3   OH230726   6.147   3.423   4.381  0.1577  0.2133  0.5746
 3104TIP3    H130727   6.112   3.511   4.365  1.9030  0.7435 -0.6912
 3104TIP3    H230728   6.082   3.364   4.344 -0.5751  1.0144  0.5485
 3105TIP3   OH230729   1.989   0.709  11.859  0.0170 -0.1881 -0.1920
 3105TIP3    H130730   1.972   0.797  11.891 -2.6935 -0.1124 -1.5609
 3105TIP3    H230731   1.951   0.707  11.772  0.1605 -2.6715 -0.2763
 3106TIP3   OH230732   5.208   0.694   5.344 -0.2182  0.1420  0.5836
 3106TIP3    H130733   5.122   0.736   5.349 -0.2374  0.0770  0.8080
 3106TIP3    H230734   5.267   0.755   5.388 -0.2454 -0.0647  0.9081
 3107TIP3   OH230735   1.093   4.427   3.996  0.5923  0.1122  0.1825
 3107TIP3    H130736   1.025   4.468   4.048 -0.1657 -0.5356 -0.2789
 3107TIP3    H230737   1.159   4.399   4.060  1.0925  1.9251  0.5159
 3108TIP3   OH230738   1.194   5.450  14.292 -0.4699  0.0910 -0.1538
 3108TIP3    H130739   1.166   5.403  14.214 -0.0551  1.3415 -1.1014
 3108TIP3    H230740   1.116   5.496  14.322 -0.3695  0.5169 -0.5258
 3109TIP3   OH230741   4.754   5.655   0.869 -0.2865 -0.2627 -0.3631
 3109TIP3    H130742   4.808   5.589   0.826  2.0097 -0.0217  1.9051
 3109TIP3    H230743   4.707   5.698   0.798  1.0028 -1.8316 -2.2623
 3110TIP3   OH230744   1.191   3.179   5.368  0.3721 -0.7461 -0.3499
 3110TIP3    H130745   1.185   3.173   5.273  0.8460  1.3586 -0.5622
 3110TIP3    H230746   1.231   3.265   5.384 -1.2033 -0.3364  1.7846
 3111TIP3   OH230747   3.970   0.158   2.868  0.4188  0.2317  0.2828
 3111TIP3    H130748   4.057   0.165   2.828  0.5702 -2.1026  0.0786
 3111TIP3    H230749   3.910   0.164   2.794  0.3847  1.3460  0.3724
 3112TIP3   OH230750   2.873   6.411  15.357  0.0061  0.6605  0.1271
 3112TIP3    H130751   2.785   6.442  15.336 -0.3698 -0.8657 -0.7258
 3112TIP3    H230752   2.885   6.432  15.449 -1.8860 -0.4579  0.6833
 3113TIP3   OH230753   3.012   6.431   1.521  0.6845  0.5230  0.2967
 3113TIP3    H130754   2.975   6.390   1.442  0.3568  1.4002 -0.0211
 3113TIP3    H230755   3.105   6.438   1.502  0.8094 -0.4205  0.5185
 3114TIP3   OH230756   4.218   2.730  15.054 -0.4616 -0.5208 -0.2859
 3114TIP3    H130757   4.207   2.800  15.119 -1.5955  0.1795 -1.1982
 3114TIP3    H230758   4.146   2.670  15.070  0.6191 -1.6520  0.6222
 3115TIP3   OH230759   1.757   6.040  11.521  0.2355 -0.1807 -0.3792
 3115TIP3    H130760   1.763   6.002  11.433  0.0359  1.6092 -1.2126
 3115TIP3    H230761   1.665   6.062  11.532  0.0255 -1.5421  0.8222
 3116TIP3   OH230762   2.626   6.179  10.796 -0.0950  0.0365 -0.1251
 3116TIP3    H130763   2.648   6.147  10.709  0.0127  2.7777 -1.1972
 3116TIP3    H230764   2.537   6.214  10.787 -0.0219  0.5120  0.8227
 3117TIP3   OH230765   3.538   0.189  14.788  0.0947  0.0677  0.4055
 3117TIP3    H130766   3.571   0.175  14.877 -0.7820 -0.8448  0.6148
 3117TIP3    H230767   3.549   0.283  14.772 -0.1873  0.3405  1.6783
 3118TIP3   OH230768   0.047   6.229  16.447 -0.4619  0.2818  0.3170
 3118TIP3    H130769   0.079   6.193  16.529 -0.8312 -0.0655  0.3144
 3118TIP3    H230770  -0.033   6.277  16.471  0.0637  1.1773  0.3319
 3119TIP3   OH230771   0.222   6.095   4.307 -0.0206  0.1242 -0.0830
 3119TIP3    H130772   0.264   6.100   4.222  1.3702 -1.0897  0.4919
 3119TIP3    H230773   0.204   6.002   4.321  0.5080  0.1896  1.2625
 3120TIP3   OH230774   5.017   6.336   5.030 -0.2086 -0.1005  0.1001
 3120TIP3    H130775   4.985   6.410   4.978  1.1019  0.8166  0.5130
 3120TIP3    H230776   4.990   6.258   4.982  0.8137  0.7038 -1.8884
 3121TIP3   OH230777   0.118   5.884   2.719  0.4053  0.1617 -0.1535
 3121TIP3    H130778   0.070   5.880   2.636 -0.3969 -0.8430  0.3481
 3121TIP3    H230779   0.196   5.830   2.704  0.5402  0.4232 -0.4179
 3122TIP3   OH230780   1.701   0.270   4.646  0.4620 -0.7207 -0.1077
 3122TIP3    H130781   1.753   0.196   4.614  0.8941 -0.1578 -0.7188
 3122TIP3    H230782   1.654   0.235   4.722  1.9570 -1.1444  0.6452
 3123TIP3   OH230783   2.010   1.875   2.278 -0.3565  0.6778  0.5165
 3123TIP3    H130784   2.042   1.814   2.212  0.2544 -0.4367  1.7968
 3123TIP3    H230785   1.976   1.949   2.228  0.6580  0.1510 -1.0225
 3124TIP3   OH230786   3.095   0.560  11.846 -0.3396  0.4358 -0.3083
 3124TIP3    H130787   3.140   0.533  11.926 -1.5889  0.6818  0.5034
 3124TIP3    H230788   3.133   0.645  11.824  0.3383  0.1520 -0.2461
 3125TIP3   OH230789   4.251   6.356   2.522  0.5141  0.3241 -0.2706
 3125TIP3    H130790   4.280   6.424   2.461  2.2843 -1.0270 -1.0361
 3125TIP3    H230791   4.247   6.400   2.607  1.4697  1.4201 -0.7626
 3126TIP3   OH230792   3.560   3.380  17.086 -0.1353 -0.3570  0.2913
 3126TIP3    H130793   3.514   3.432  17.151 -1.9019 -2.1310  0.5347
 3126TIP3    H230794   3.508   3.300  17.076  2.3925 -2.0982 -0.1084
 3127TIP3   OH230795   2.180   5.632  12.064 -0.0474 -0.0085 -0.6687
 3127TIP3    H130796   2.249   5.629  12.130 -0.6322 -1.1101 -0.0599
 3127TIP3    H230797   2.208   5.569  11.997  0.8572  1.5706 -1.8433
 3128TIP3   OH230798   3.180   3.400   3.388  0.0185 -0.1430 -0.5396
 3128TIP3    H130799   3.092   3.366   3.408 -0.3786  0.8738 -0.5145
 3128TIP3    H230800   3.225   3.399   3.473  0.2577 -1.2632 -0.6635
 3129TIP3   OH230801   4.921   6.356   3.940 -0.5332 -0.2959 -0.3367
 3129TIP3    H130802   4.987   6.300   3.899  1.5155  1.0465  0.9642
 3129TIP3    H230803   4.927   6.335   4.033 -1.2167  0.6135 -0.0766
 3130TIP3   OH230804   6.104   3.493   3.376 -0.1698 -0.5379 -0.6410
 3130TIP3    H130805   6.124   3.556   3.307 -2.4415 -0.4527 -1.3041
 3130TIP3    H230806   6.029   3.531   3.422 -0.5191 -1.9496  0.0064
 3131TIP3   OH230807   3.412   2.529   3.056 -0.0618 -0.0361  0.3219
 3131TIP3    H130808   3.416   2.448   3.108 -0.6520 -0.0258  0.3877
 3131TIP3    H230809   3.320   2.555   3.059  0.6655  2.7920  3.6018
 3132TIP3   OH230810   4.833   2.921   3.913 -0.0048  0.1771 -0.4751
 3132TIP3    H130811   4.920   2.911   3.874  1.8196 -1.1905  3.4150
 3132TIP3    H230812   4.829   3.013   3.939  1.7096 -0.3408  1.9642
 3133TIP3   OH230813   4.598   4.812  15.839 -0.9601 -0.0436 -0.0098
 3133TIP3    H130814   4.566   4.902  15.834 -0.0914  0.2271 -1.1688
 3133TIP3    H230815   4.634   4.804  15.927 -0.7116  0.8546 -0.0239
 3134TIP3   OH230816   4.429   0.616  11.259  0.1712 -0.0260 -0.1058
 3134TIP3    H130817   4.515   0.654  11.279  0.7173 -1.4484  0.3536
 3134TIP3    H230818   4.448   0.526  11.231 -1.2588 -0.8610  1.4588
 3135TIP3   OH230819   3.685   6.229   0.830  0.0513  0.2842 -0.4827
 3135TIP3    H130820   3.770   6.271   0.846  0.4441 -0.9430  0.9453
 3135TIP3    H230821   3.640   6.233   0.914 -1.2618  0.7727 -1.1866
 3136TIP3   OH230822   5.913   3.026  11.170 -0.6020  0.0116  0.0003
 3136TIP3    H130823   5.824   3.059  11.179 -0.7642  0.0630 -1.5571
 3136TIP3    H230824   5.903   2.932  11.158 -0.4443  0.0161 -0.1675
 3137TIP3   OH230825   6.230   6.459  16.726 -0.4938 -0.0006  0.3551
 3137TIP3    H130826   6.253   6.507  16.805 -1.4873  0.7418  0.2020
 3137TIP3    H230827   6.135   6.470  16.716 -0.6629 -1.4522 -0.0398
 3138TIP3   OH230828   2.973   5.799   3.591 -0.1771 -0.2332  0.3964
 3138TIP3    H130829   3.033   5.730   3.619 -0.0840 -0.3796 -0.1625
 3138TIP3    H230830   3.025   5.854   3.534 -0.8370 -0.9284 -0.9106
 3139TIP3   OH230831   3.122   6.471   0.992  0.1472 -0.5197  0.0117
 3139TIP3    H130832   3.200   6.445   1.042 -0.7616 -0.2838  1.6171
 3139TIP3    H230833   3.054   6.411   1.022 -0.8556  0.7596  0.3762
 3140TIP3   OH230834   4.583   2.364  14.715 -0.1921 -0.9981 -0.0176
 3140TIP3    H130835   4.653   2.412  14.671 -1.2557 -1.9069 -2.9313
 3140TIP3    H230836   4.527   2.432  14.751  1.7441 -0.2514  1.7523
 3141TIP3   OH230837   0.306   0.453   3.926 -0.3113 -0.4435  0.0184
 3141TIP3    H130838   0.391   0.409   3.926 -1.0558 -2.0436  2.0216
 3141TIP3    H230839   0.250   0.399   3.982 -3.1781 -0.3607 -2.4746
 3142TIP3   OH230840   3.257   3.975  13.106  0.1486 -0.1754  0.4038
 3142TIP3    H130841   3.270   3.941  13.018 -0.5873  0.1000  0.1860
 3142TIP3    H230842   3.345   3.978  13.143  0.2941 -1.8914  0.2850
 3143TIP3   OH230843   4.843   0.764   1.229  0.5548 -0.0441  0.1595
 3143TIP3    H130844   4.874   0.679   1.260 -0.0400 -0.5100 -0.5133
 3143TIP3    H230845   4.748   0.757   1.232  0.4727  1.1178  1.4849
 3144TIP3   OH230846   1.854   1.838  16.019 -0.7417 -0.4596  0.5399
 3144TIP3    H130847   1.855   1.767  15.955  0.7107  0.1391 -0.1481
 3144TIP3    H230848   1.921   1.899  15.988 -2.6927  1.7877  0.4724
 3145TIP3   OH230849   3.342   5.735   0.430 -0.2540  0.4132  0.5078
 3145TIP3    H130850   3.425   5.689   0.419 -0.1227  0.8100 -0.1878
 3145TIP3    H230851   3.364   5.827   0.414 -0.8253  0.5181  0.3236
 3146TIP3   OH230852   1.953   4.051  11.640  0.5756 -0.0604  0.4057
 3146TIP3    H130853   2.030   4.042  11.584  0.2235 -0.3281 -0.0473
 3146TIP3    H230854   1.939   3.963  11.675  0.2388 -0.1037  0.1662
 3147TIP3   OH230855   0.229   6.295   3.389 -0.0104 -0.1571 -0.2998
 3147TIP3    H130856   0.155   6.329   3.439  0.1663  0.6594 -0.5935
 3147TIP3    H230857   0.229   6.345   3.308  1.1641  0.2184 -0.0887
 3148TIP3   OH230858   1.825   1.454   2.659  1.2593  0.1892 -0.4563
 3148TIP3    H130859   1.884   1.468   2.584  0.6967 -0.5887 -1.0576
 3148TIP3    H230860   1.839   1.363   2.683 -1.1825 -0.6547 -1.9379
 3149TIP3   OH230861   4.137   5.018  15.705 -0.4475  0.0336 -0.0096
 3149TIP3    H130862   4.096   4.951  15.760  1.2344 -0.9131  0.1958
 3149TIP3    H230863   4.084   5.020  15.625 -1.5733 -0.2515  0.7157
 3150TIP3   OH230864   1.736   2.438   0.417  0.1134 -0.4163 -0.1201
 3150TIP3    H130865   1.732   2.397   0.504  0.6567 -1.3891 -0.5377
 3150TIP3    H230866   1.684   2.381   0.361  1.2007 -0.7700 -0.7986
 3151TIP3   OH230867   4.286   4.409   2.214 -0.1242  0.1271  0.1144
 3151TIP3    H130868   4.248   4.330   2.252  0.2454 -0.4286 -0.6356
 3151TIP3    H230869   4.344   4.376   2.144 -1.4872  1.1234 -1.5730
 3152TIP3   OH230870   5.236   3.820   5.034  0.1039 -0.2098 -0.3662
 3152TIP3    H130871   5.199   3.743   5.077  1.3704 -0.5153  0.2265
 3152TIP3    H230872   5.160   3.871   5.006 -0.7661 -0.4006  1.5172
 3153TIP3   OH230873   5.603   5.321  12.355  0.2223  0.1980 -0.5139
 3153TIP3    H130874   5.635   5.290  12.440  1.5014  0.7641 -0.7603
 3153TIP3    H230875   5.559   5.246  12.317 -1.3798  0.2510  1.1108
 3154TIP3   OH230876   0.931   1.972   4.336 -0.0362 -0.0572  0.3603
 3154TIP3    H130877   0.837   1.963   4.348 -0.5249  1.0959 -1.9802
 3154TIP3    H230878   0.969   1.951   4.421 -2.3052 -1.7854  1.0238
 3155TIP3   OH230879   2.387   2.763  16.231  0.3337 -0.2741 -0.5584
 3155TIP3    H130880   2.422   2.706  16.162  1.1022  0.8267 -1.1152
 3155TIP3    H230881   2.389   2.850  16.192 -0.4155  0.2035  0.4336
 3156TIP3   OH230882   1.831   4.471   3.756  0.3238 -0.4365  0.0478
 3156TIP3    H130883   1.739   4.445   3.750  0.1442  0.0326  0.6121
 3156TIP3    H230884   1.842   4.537   3.689  0.8625 -2.1113 -1.6110
 3157TIP3   OH230885   5.760   1.298   0.873 -0.0371 -0.5169 -0.0625
 3157TIP3    H130886   5.845   1.271   0.907  0.1435 -0.0624 -0.1434
 3157TIP3    H230887   5.737   1.229   0.810  1.0559  0.1940 -1.2893
 3158TIP3   OH230888   6.380   2.980  15.948  0.1270 -0.1248 -0.3765
 3158TIP3    H130889   6.420   2.906  15.902  0.4193 -1.1944  1.5112
 3158TIP3    H230890   6.325   2.940  16.015 -0.0281  1.3617  0.4294
 3159TIP3   OH230891   6.418   4.972  13.964 -0.0948 -0.4558  0.2132
 3159TIP3    H130892   6.486   4.934  13.908  1.2113  1.4793  0.3946
 3159TIP3    H230893   6.465   5.000  14.043 -1.2252  0.3045  0.6381
 3160TIP3   OH230894   2.706   4.830  15.776 -0.4435  0.4288  0.5202
 3160TIP3    H130895   2.783   4.880  15.799  1.3369 -1.3202 -1.2283
 3160TIP3    H230896   2.650   4.892  15.728  1.1302  1.0959 -0.5305
 3161TIP3   OH230897   2.842   5.614   1.451  0.3351 -0.2466  0.6639
 3161TIP3    H130898   2.847   5.668   1.372 -3.1940 -0.6526 -0.0044
 3161TIP3    H230899   2.927   5.571   1.455  1.3724  1.3091 -1.7746
 3162TIP3   OH230900   4.016   3.053   4.246  0.4491 -0.1238  0.4177
 3162TIP3    H130901   3.964   2.999   4.187  2.5367  0.0784 -1.7550
 3162TIP3    H230902   4.037   2.996   4.319 -0.4895 -1.0373  0.0003
 3163TIP3   OH230903   6.594   2.382  12.215  0.6288  0.0932 -0.3887
 3163TIP3    H130904   6.503   2.407  12.226 -0.3368 -3.1839  0.3580
 3163TIP3    H230905   6.590   2.300  12.165  3.0977 -0.4932  0.2445
 3164TIP3   OH230906   1.795   4.834  10.974  0.4732 -0.1818  0.0001
 3164TIP3    H130907   1.844   4.809  10.896 -0.2794 -0.0801 -0.5209
 3164TIP3    H230908   1.715   4.781  10.970  1.1348 -1.3666  1.5654
 3165TIP3   OH230909   5.039   4.746  12.047  0.2884  0.3529  0.0927
 3165TIP3    H130910   5.123   4.767  12.089  0.9343 -0.5605 -0.7004
 3165TIP3    H230911   5.024   4.654  12.067  0.8173 -0.2227 -1.9427
 3166TIP3   OH230912   1.582   6.267  17.116  0.4123  0.1923  0.1645
 3166TIP3    H130913   1.603   6.288  17.026  0.2015 -0.5466 -0.0635
 3166TIP3    H230914   1.492   6.233  17.113 -0.2938  1.8309  0.9022
 3167TIP3   OH230915   4.057   2.573   4.200  0.4131  0.0754  0.0684
 3167TIP3    H130916   4.137   2.541   4.158  0.4851 -0.0434  0.2999
 3167TIP3    H230917   3.993   2.503   4.187 -0.0351  0.6845 -1.2398
 3168TIP3   OH230918   6.427   5.442  14.574  0.0741  0.1399  0.2704
 3168TIP3    H130919   6.341   5.414  14.542 -1.0506  1.2012  2.1770
 3168TIP3    H230920   6.481   5.448  14.495 -1.0444 -2.2994 -0.7729
 3169TIP3   OH230921   6.181   5.290   6.026 -0.4132 -0.5780 -0.1980
 3169TIP3    H130922   6.211   5.227   5.960  0.0871 -0.4562 -0.0885
 3169TIP3    H230923   6.261   5.321   6.068 -0.6547  0.2099 -0.3198
 3170TIP3   OH230924   2.999   0.186   5.933 -0.6811  0.2332  0.7180
 3170TIP3    H130925   3.015   0.096   5.906 -1.3863  0.7262 -1.6440
 3170TIP3    H230926   3.056   0.199   6.009  0.4532 -1.7708  0.2940
 3171TIP3   OH230927   2.211   6.577   3.828  0.5740  0.4430 -0.2176
 3171TIP3    H130928   2.150   6.642   3.794 -0.5365 -0.5857 -0.2359
 3171TIP3    H230929   2.182   6.494   3.791  3.4096  0.1716 -2.1501
 3172TIP3   OH230930   5.502   3.027  15.192  0.3958  0.4871 -0.5400
 3172TIP3    H130931   5.446   3.031  15.115  0.0082  0.7445 -0.2460
 3172TIP3    H230932   5.449   3.063  15.263  0.7023  0.1218 -0.1206
 3173TIP3   OH230933   6.460   1.012  13.384  0.5303 -0.3784 -0.2973
 3173TIP3    H130934   6.430   0.995  13.294 -2.0736 -0.8498  0.5677
 3173TIP3    H230935   6.421   1.097  13.406  1.3201 -0.1756  0.3304
 3174TIP3   OH230936   6.781   6.165  11.213 -0.7072  0.0830  0.2081
 3174TIP3    H130937   6.843   6.230  11.179  0.5400 -1.3265 -0.2882
 3174TIP3    H230938   6.735   6.133  11.136  1.2942 -2.2619 -0.0980
 3175TIP3   OH230939   5.911   1.289  13.551  0.5110  0.3089  0.3830
 3175TIP3    H130940   5.906   1.202  13.513  2.1515  0.7584 -0.9743
 3175TIP3    H230941   5.972   1.280  13.625 -0.3003  0.0665  1.0354
 3176TIP3   OH230942   5.951   0.079   1.271  0.1709 -0.3537  0.4587
 3176TIP3    H130943   5.859   0.059   1.290 -0.4446  0.9362 -1.0441
 3176TIP3    H230944   5.952   0.104   1.179  1.9541  0.1699  0.5925
 3177TIP3   OH230945   4.121   1.375  13.732 -0.6058 -0.5407 -0.0614
 3177TIP3    H130946   4.113   1.438  13.661 -0.3803 -1.8136 -1.2564
 3177TIP3    H230947   4.158   1.426  13.805  0.0437  0.5964 -1.1404
 3178TIP3   OH230948   0.196   0.188  15.323 -0.1673 -0.5809 -0.0077
 3178TIP3    H130949   0.248   0.119  15.282  1.3740 -0.4324  1.5737
 3178TIP3    H230950   0.156   0.235  15.250  1.0503 -1.3858 -1.2271
 3179TIP3   OH230951   5.725   2.896   3.007  0.5305 -0.3038  0.3238
 3179TIP3    H130952   5.648   2.892   2.950 -0.8283  1.1179  1.9193
 3179TIP3    H230953   5.777   2.820   2.983 -0.3032 -0.1465 -2.2824
 3180TIP3   OH230954   0.647   0.011  13.511 -0.3666  0.3705  0.3543
 3180TIP3    H130955   0.742   0.010  13.497 -0.4943 -1.1236 -0.6627
 3180TIP3    H230956   0.620   0.097  13.480  0.5692  0.5692  0.0355
 3181TIP3   OH230957   3.225   4.460   5.160  0.2602 -0.1951 -0.4719
 3181TIP3    H130958   3.222   4.384   5.218  2.2472  0.5396  0.6932
 3181TIP3    H230959   3.299   4.512   5.192 -0.4502  1.7746 -1.8010
 3182TIP3   OH230960   1.597   3.669  12.095 -0.4057  0.0473 -0.0339
 3182TIP3    H130961   1.683   3.667  12.053 -0.6817  1.2867 -0.7180
 3182TIP3    H230962   1.553   3.590  12.064  0.9304 -1.3215  1.3863
 3183TIP3   OH230963   5.929   6.135   6.187 -0.1727 -0.7005  0.1145
 3183TIP3    H130964   5.985   6.187   6.244 -1.8834  2.9445 -1.1908
 3183TIP3    H230965   5.846   6.128   6.234 -0.8645  0.3246 -0.9118
 3184TIP3   OH230966   4.860   3.424  14.220  0.1581  0.2289 -0.0572
 3184TIP3    H130967   4.832   3.469  14.301 -0.0825  1.7105 -0.9276
 3184TIP3    H230968   4.781   3.379  14.190 -1.1713  3.4560 -1.8791
 3185TIP3   OH230969   4.617   2.170   0.589 -0.6059  0.3657 -0.0088
 3185TIP3    H130970   4.621   2.082   0.627  2.2615 -0.5844 -2.1785
 3185TIP3    H230971   4.704   2.207   0.604 -1.2461  2.2011 -0.5600
 3186TIP3   OH230972   5.851   2.222   4.802 -0.5065  0.4582  0.3290
 3186TIP3    H130973   5.851   2.255   4.712  1.9148 -0.9787 -0.3050
 3186TIP3    H230974   5.760   2.226   4.829 -2.0162 -2.2448 -3.4455
 3187TIP3   OH230975   1.027   6.267  11.213 -0.6913 -0.8528  0.5246
 3187TIP3    H130976   0.948   6.239  11.166 -0.4921  0.3398 -0.5926
 3187TIP3    H230977   1.097   6.262  11.147 -0.1530 -0.3507  1.0414
 3188TIP3   OH230978   2.148   3.197   3.027  0.3587  0.2220  0.3303
 3188TIP3    H130979   2.090   3.265   3.062  0.2078 -0.3487  1.2079
 3188TIP3    H230980   2.107   3.172   2.944 -1.0005 -0.5734  1.2040
 3189TIP3   OH230981   3.421   0.317  11.463  0.0551  0.3785  0.0264
 3189TIP3    H130982   3.403   0.253  11.533  1.1542  1.8522  1.7285
 3189TIP3    H230983   3.339   0.367  11.455 -0.4065 -0.4345 -0.4760
 3190TIP3   OH230984   3.739   4.112  13.416  0.3940 -0.7497  0.0991
 3190TIP3    H130985   3.751   4.051  13.489  0.2019 -1.0148 -0.0951
 3190TIP3    H230986   3.736   4.057  13.338  0.3494 -0.4842 -0.0875
 3191TIP3   OH230987   5.156   5.257   2.376 -0.5472 -0.1704 -0.1155
 3191TIP3    H130988   5.071   5.287   2.410 -0.6258  1.3741 -1.5539
 3191TIP3    H230989   5.139   5.231   2.286  0.7754  1.9543 -1.0730
 3192TIP3   OH230990   6.375   5.667  14.741 -0.1341  0.0212  0.5144
 3192TIP3    H130991   6.464   5.693  14.766  0.0921 -0.8568  0.6611
 3192TIP3    H230992   6.387   5.590  14.686 -0.8225 -0.4076  0.9403
 3193TIP3   OH230993   1.031   0.048   5.344  0.3764 -0.0620 -0.0992
 3193TIP3    H130994   0.974   0.059   5.268 -0.3012  0.5451  0.4817
 3193TIP3    H230995   1.113   0.015   5.308 -0.2537 -0.7348 -0.9875
 3194TIP3   OH230996   5.333   1.729   4.747  0.4905  0.0294  0.1016
 3194TIP3    H130997   5.371   1.816   4.735  1.0462 -0.3393 -0.9006
 3194TIP3    H230998   5.380   1.674   4.685 -1.5347 -0.4954 -1.0533
 3195TIP3   OH230999   2.008   3.566   1.603 -0.1559  0.1646  0.0078
 3195TIP3    H131000   1.957   3.573   1.522 -2.1091 -0.7724  1.0884
 3195TIP3    H231001   2.022   3.472   1.615  2.1108  0.3977 -0.3690
 3196TIP3   OH231002   5.759   1.568  15.843  0.5971 -0.1870 -0.3850
 3196TIP3    H131003   5.845   1.592  15.807  0.0263 -0.5523 -2.1094
 3196TIP3    H231004   5.719   1.651  15.867  1.4905 -0.0269  0.6502
 3197TIP3   OH231005   5.114   2.399  15.619  0.2445 -0.2124  0.4033
 3197TIP3    H131006   5.047   2.453  15.577 -0.0505  0.1445  1.3001
 3197TIP3    H231007   5.123   2.436  15.707  1.7442 -0.1435  0.2559
 3198TIP3   OH231008   0.260   2.319   4.652 -0.4573 -0.1361 -0.4701
 3198TIP3    H131009   0.192   2.338   4.716  0.2184 -0.3555  0.3302
 3198TIP3    H231010   0.213   2.298   4.572 -1.3261 -0.3779  0.0962
 3199TIP3   OH231011   5.266   0.737   5.937 -0.0216  0.1762 -0.5472
 3199TIP3    H131012   5.326   0.671   5.903  0.0399 -0.3882  0.5933
 3199TIP3    H231013   5.179   0.703   5.916  0.0287  0.2345 -0.8531
 3200TIP3   OH231014   4.009   1.614  11.786  0.1882  0.0544 -0.2903
 3200TIP3    H131015   4.079   1.661  11.831  0.4250  0.1476 -0.7483
 3200TIP3    H231016   4.052   1.574  11.711  0.0668 -1.1662  0.2586
 3201TIP3   OH231017   1.346   2.269   4.052 -0.6844  0.1873 -0.1675
 3201TIP3    H131018   1.415   2.214   4.014 -0.0929 -1.3240  2.7801
 3201TIP3    H231019   1.359   2.355   4.012  1.2596 -0.6907 -1.5858
 3202TIP3   OH231020   3.932   6.779   1.111 -0.3499 -0.3280  0.4974
 3202TIP3    H131021   4.027   6.772   1.099 -0.0030 -1.6477  3.3251
 3202TIP3    H231022   3.920   6.865   1.151 -0.6305  0.6670 -1.5993
 3203TIP3   OH231023   5.960   6.005  11.759 -0.4195  0.5178 -0.5579
 3203TIP3    H131024   6.001   5.986  11.844 -0.8929 -1.5454 -0.7329
 3203TIP3    H231025   6.000   6.087  11.731  1.2946  0.1724  0.6983
 3204TIP3   OH231026   3.179   6.168   3.092  0.4104 -0.1525 -0.1192
 3204TIP3    H131027   3.207   6.233   3.028 -0.1665  0.7813  0.5510
 3204TIP3    H231028   3.148   6.219   3.167 -0.4903 -1.1884  0.2524
 3205TIP3   OH231029   4.786   3.581  14.467  0.3962  0.1738  0.0156
 3205TIP3    H131030   4.717   3.634  14.426 -0.2251 -1.1254 -0.6958
 3205TIP3    H231031   4.809   3.629  14.547 -0.4043  1.3004 -0.4022
 3206TIP3   OH231032   1.190   2.865  16.458  0.4212 -0.6227  0.5708
 3206TIP3    H131033   1.147   2.780  16.467 -2.2941  0.4788 -0.7536
 3206TIP3    H231034   1.153   2.919  16.528  1.0189 -0.1449  0.5275
 3207TIP3   OH231035   6.776   2.045   6.231  0.1568 -0.6382 -0.4039
 3207TIP3    H131036   6.838   2.118   6.242  1.7496 -1.2305 -4.0035
 3207TIP3    H231037   6.691   2.088   6.222  0.7015  0.6007  0.0291
 3208TIP3   OH231038   1.359   5.088   2.329 -0.7330  0.4653  0.0797
 3208TIP3    H131039   1.315   5.021   2.277  0.7199  0.6722 -1.4916
 3208TIP3    H231040   1.360   5.166   2.273 -1.4836  1.5491  1.4807
 3209TIP3   OH231041   4.683   0.767  16.661  0.4346 -0.0338  0.3272
 3209TIP3    H131042   4.701   0.843  16.605 -0.1864 -0.2418 -0.1687
 3209TIP3    H231043   4.587   0.763  16.665  0.4705 -0.0884  1.3255
 3210TIP3   OH231044   6.572   2.139   4.887  0.4078 -0.1292  0.3918
 3210TIP3    H131045   6.536   2.160   4.801 -4.2152  2.2278  2.5485
 3210TIP3    H231046   6.512   2.075   4.924  1.1056  0.3672  2.5439
 3211TIP3   OH231047   0.243   0.605  15.356 -0.0666  0.1720 -0.5703
 3211TIP3    H131048   0.313   0.669  15.343  0.0919  0.1893  0.2842
 3211TIP3    H231049   0.240   0.556  15.274  0.3314  0.7692 -0.9502
 3212TIP3   OH231050   0.410   5.388  14.173 -0.4550 -0.2475 -0.4683
 3212TIP3    H131051   0.373   5.463  14.219  0.9564 -0.1983  0.6847
 3212TIP3    H231052   0.437   5.329  14.244  0.8135 -0.6611 -1.2726
 3213TIP3   OH231053   1.153   4.840  16.731 -0.2548  0.0622  0.4599
 3213TIP3    H131054   1.064   4.874  16.723 -1.2123 -2.2486  0.4228
 3213TIP3    H231055   1.192   4.890  16.803 -1.3232  1.5532  0.0409
 3214TIP3   OH231056   5.962   2.730  17.051  0.2300 -0.1364 -0.0236
 3214TIP3    H131057   6.019   2.761  16.981 -2.7598 -0.2696 -2.7514
 3214TIP3    H231058   5.965   2.800  17.117  2.3480  0.4905 -0.7069
 3215TIP3   OH231059   6.587   0.761   2.167 -0.1356 -0.0694 -0.7347
 3215TIP3    H131060   6.576   0.722   2.254  1.2250  0.1446 -0.4554
 3215TIP3    H231061   6.498   0.766   2.132 -0.8908  1.1403  1.1987
 3216TIP3   OH231062   3.949   6.386  14.221  0.5173 -0.5183  0.1574
 3216TIP3    H131063   4.038   6.389  14.187  0.6587 -2.7623  0.1656
 3216TIP3    H231064   3.896   6.354  14.148 -0.3567  0.9519  0.0965
 3217TIP3   OH231065   2.605   1.934  13.508  0.0109  0.6815  0.3340
 3217TIP3    H131066   2.654   1.953  13.588 -1.0936 -1.3918  1.6238
 3217TIP3    H231067   2.671   1.907  13.444  0.8562  1.6786  0.7719
 3218TIP3   OH231068   2.488   4.935  13.266  0.1010 -0.1755  0.0250
 3218TIP3    H131069   2.462   4.863  13.209  2.4135 -0.9633 -0.1392
 3218TIP3    H231070   2.569   4.905  13.308 -0.1594  1.3987  1.7901
 3219TIP3   OH231071   0.801   2.536  15.556 -0.2031 -0.2545  0.0007
 3219TIP3    H131072   0.717   2.574  15.529  0.2411  1.4327  0.8589
 3219TIP3    H231073   0.838   2.600  15.617  1.8259 -0.8337 -0.5391
 3220TIP3   OH231074   0.860   6.270   5.120  0.6233 -0.2722  0.2254
 3220TIP3    H131075   0.842   6.177   5.134 -1.2841 -0.0204 -0.2494
 3220TIP3    H231076   0.781   6.303   5.078  0.2302  2.0785  2.5549
 3221TIP3   OH231077   4.110   1.285   2.363  0.2123  0.7837  0.4255
 3221TIP3    H131078   4.169   1.300   2.289 -0.0075  0.4467  0.1785
 3221TIP3    H231079   4.063   1.368   2.374  1.2623  1.3072  1.1075
 3222TIP3   OH231080   4.963   3.898  11.281 -0.2541 -0.1165 -0.1266
 3222TIP3    H131081   5.016   3.962  11.328 -0.7060 -0.0915  0.3540
 3222TIP3    H231082   4.904   3.950  11.227 -0.1016 -0.1399 -0.3175
 3223TIP3   OH231083   4.791   0.608   5.025  0.2397 -0.2716 -0.0308
 3223TIP3    H131084   4.703   0.644   5.019  0.9898  1.7459  0.1913
 3223TIP3    H231085   4.791   0.558   5.106 -1.1431 -1.7109 -0.8718
 3224TIP3   OH231086   4.605   5.065   3.758 -0.5606 -0.6376  0.4871
 3224TIP3    H131087   4.588   5.038   3.848 -1.0062 -0.2209  0.5269
 3224TIP3    H231088   4.670   5.135   3.766  0.4552 -1.5300  0.3941
 3225TIP3   OH231089   0.565   0.730   3.395 -0.0743  0.4555  1.0879
 3225TIP3    H131090   0.601   0.647   3.425  2.3975  1.0579  0.0407
 3225TIP3    H231091   0.555   0.718   3.300  0.0687  1.2631  0.9668
 3226TIP3   OH231092   1.148   4.466  15.415  0.7889 -0.6378  0.3786
 3226TIP3    H131093   1.185   4.435  15.498 -1.0438  0.1448  1.5479
 3226TIP3    H231094   1.122   4.557  15.433 -1.1756 -0.9722 -0.5310
 3227TIP3   OH231095   5.338   0.258  17.009  0.3635  0.1745 -0.0008
 3227TIP3    H131096   5.306   0.189  17.067  0.9874 -0.8296 -0.8158
 3227TIP3    H231097   5.400   0.307  17.062 -0.4557  0.4257  0.7424
 3228TIP3   OH231098   5.535   4.212  16.060 -0.2677 -0.0308 -0.5131
 3228TIP3    H131099   5.454   4.165  16.079 -0.1654  0.0105  0.0583
 3228TIP3    H231100   5.510   4.304  16.055  0.0289  0.2234  1.6608
 3229TIP3   OH231101   0.012   6.373   3.537 -0.5095  0.1007 -0.4331
 3229TIP3    H131102  -0.061   6.312   3.536  0.1661 -0.7434 -0.0423
 3229TIP3    H231103   0.021   6.398   3.629  0.5546 -0.9034 -0.2345
 3230TIP3   OH231104   5.230   2.883   2.958  0.0647 -0.2906 -0.3436
 3230TIP3    H131105   5.186   2.857   2.877  2.4250 -1.0078 -1.5001
 3230TIP3    H231106   5.249   2.801   3.002  0.8129 -0.0522 -0.2084
 3231TIP3   OH231107   0.172   5.042  14.818 -0.2597 -0.0143 -0.2831
 3231TIP3    H131108   0.265   5.048  14.797 -0.4606 -0.6392 -1.4521
 3231TIP3    H231109   0.128   5.047  14.733 -1.3148  0.6103  0.2823
 3232TIP3   OH231110   2.605   2.433   2.979  0.3289 -0.1816  0.2282
 3232TIP3    H131111   2.701   2.427   2.980  0.5684  2.3952 -0.1682
 3232TIP3    H231112   2.584   2.489   3.054 -0.6348  1.2492 -1.0559
 3233TIP3   OH231113   6.214   0.281   5.358  0.2571  0.0066 -0.2209
 3233TIP3    H131114   6.169   0.277   5.442 -2.1320 -0.3199 -1.4150
 3233TIP3    H231115   6.251   0.369   5.354 -2.3403  1.1881 -0.0743
 3234TIP3   OH231116   3.390   4.893   1.789 -0.3296 -0.4775  0.2108
 3234TIP3    H131117   3.309   4.913   1.741  0.3396  0.7431 -0.4546
 3234TIP3    H231118   3.364   4.826   1.852 -2.2365  0.9625  1.0647
 3235TIP3   OH231119   0.419   3.810  13.124 -0.4894  0.3348  0.1347
 3235TIP3    H131120   0.466   3.752  13.064 -0.2336  0.7947 -0.1125
 3235TIP3    H231121   0.353   3.754  13.164  0.1447 -0.2776  0.3478
 3236TIP3   OH231122   4.872   3.878  10.528  0.0809 -0.5476  0.1680
 3236TIP3    H131123   4.787   3.904  10.566  0.2775 -2.1359  1.8239
 3236TIP3    H231124   4.856   3.875  10.434 -1.8598 -1.2561  0.4636
 3237TIP3   OH231125   1.710   3.217  11.582 -0.0972  0.5134 -0.7452
 3237TIP3    H131126   1.748   3.207  11.495 -1.4109  1.3704 -1.4626
 3237TIP3    H231127   1.616   3.202  11.568 -0.4937  1.8575  0.2795
 3238TIP3   OH231128   3.263   3.572  14.853 -0.1725  0.0275 -0.2629
 3238TIP3    H131129   3.246   3.491  14.806 -0.6253  0.1640 -0.3377
 3238TIP3    H231130   3.188   3.583  14.910  1.0390 -0.8917  1.5955
 3239TIP3   OH231131   0.721   1.427   0.961  0.2275  0.0875 -0.5143
 3239TIP3    H131132   0.800   1.392   1.001  0.0429 -0.5403 -0.6836
 3239TIP3    H231133   0.750   1.506   0.916  0.4607  0.7371  0.7377
 3240TIP3   OH231134   2.807   4.478   0.061 -0.3919 -0.2251 -0.3211
 3240TIP3    H131135   2.851   4.405   0.016 -1.7548 -0.8859 -0.6225
 3240TIP3    H231136   2.827   4.555   0.007 -1.9628 -0.9860 -2.1136
 3241TIP3   OH231137   2.622   4.794  12.128 -0.3249  0.1074  0.1772
 3241TIP3    H131138   2.659   4.718  12.083  0.6417  0.8969 -0.4041
 3241TIP3    H231139   2.689   4.820  12.190 -0.5643  0.6034  0.2301
 3242TIP3   OH231140   1.969   6.662   2.905 -0.1021 -0.5281 -0.0652
 3242TIP3    H131141   1.986   6.604   2.979 -0.0516 -1.4983 -0.8155
 3242TIP3    H231142   1.878   6.687   2.915  0.5901  1.5858  1.8327
 3243TIP3   OH231143   1.730   3.739  15.907 -0.0233 -0.4984 -0.1443
 3243TIP3    H131144   1.664   3.700  15.965  0.2215 -1.2887 -0.3841
 3243TIP3    H231145   1.804   3.679  15.912  0.3920 -0.0114 -0.4654
 3244TIP3   OH231146   4.871   2.994   0.665  0.4748 -0.0112  0.3488
 3244TIP3    H131147   4.946   2.960   0.616  0.9856 -0.4289  1.3958
 3244TIP3    H231148   4.795   2.957   0.620  0.8853  0.2184 -0.5766
 3245TIP3   OH231149   2.627   1.383  16.676  0.1479  0.0874 -0.1062
 3245TIP3    H131150   2.637   1.453  16.740 -0.2959  0.8056 -0.8048
 3245TIP3    H231151   2.637   1.427  16.591 -0.8017 -0.5761 -0.5755
 3246TIP3   OH231152   2.449   0.444   3.638  0.0623  0.3120  0.5507
 3246TIP3    H131153   2.482   0.492   3.562 -0.5109 -0.2753 -0.0828
 3246TIP3    H231154   2.443   0.510   3.707 -2.1298  1.5422 -0.6986
 3247TIP3   OH231155   4.368   0.448  12.478 -0.6722  0.2921  0.3163
 3247TIP3    H131156   4.345   0.379  12.541 -2.0150 -0.0629 -0.5284
 3247TIP3    H231157   4.399   0.520  12.532  0.5971 -0.8864  1.2424
 3248TIP3   OH231158   4.924   1.867  13.891 -0.0694  0.3859  0.0465
 3248TIP3    H131159   4.893   1.899  13.806 -1.4249 -0.5802  0.1374
 3248TIP3    H231160   5.019   1.863  13.882 -0.1945  0.2220 -1.4561
 3249TIP3   OH231161   1.269   5.295  11.471 -0.6324  0.1887  0.4294
 3249TIP3    H131162   1.282   5.203  11.446  1.4104  0.4376  0.3469
 3249TIP3    H231163   1.317   5.345  11.405  2.8581  0.9928  3.2417
 3250TIP3   OH231164   1.265   6.351   6.199 -0.3022 -0.0590  0.0735
 3250TIP3    H131165   1.235   6.289   6.265 -0.9723 -0.4250 -0.5588
 3250TIP3    H231166   1.297   6.296   6.127 -1.5105  0.2958 -0.7702
 3251TIP3   OH231167   4.689   3.021   0.908 -0.3072  0.8104 -0.0406
 3251TIP3    H131168   4.746   3.001   0.834 -1.3145 -1.1428 -0.3305
 3251TIP3    H231169   4.696   2.945   0.965  1.4833  2.8016  2.6223
 3252TIP3   OH231170   2.655   1.185   0.261  0.0169  0.2975  0.3378
 3252TIP3    H131171   2.569   1.145   0.252  0.7427 -1.7383  1.5876
 3252TIP3    H231172   2.653   1.228   0.346  0.7386 -1.2896  1.2036
 3253TIP3   OH231173   2.540   5.466  15.763  0.1083 -0.1615 -0.0593
 3253TIP3    H131174   2.481   5.468  15.838  0.5365  0.3823  0.2723
 3253TIP3    H231175   2.592   5.387  15.774 -1.0876 -1.0842 -0.7818
 3254TIP3   OH231176   6.150   0.105   2.561 -0.2619 -0.2423 -0.1330
 3254TIP3    H131177   6.149   0.083   2.654 -3.2410 -1.7854 -0.3996
 3254TIP3    H231178   6.077   0.166   2.550  0.4926  0.4825 -1.3749
 3255TIP3   OH231179   4.359   6.454  14.323 -0.2100 -0.6630  0.2617
 3255TIP3    H131180   4.358   6.433  14.229  0.1017  1.3487 -0.2259
 3255TIP3    H231181   4.272   6.490  14.341 -0.2698 -1.0432  0.7564
 3256TIP3   OH231182   5.588   4.921   0.632 -0.2096  0.4198  0.0265
 3256TIP3    H131183   5.551   4.997   0.676  0.3562  1.2518 -0.8830
 3256TIP3    H231184   5.682   4.941   0.626 -0.0857 -0.2660 -0.3908
 3257TIP3   OH231185   2.955   4.633  16.600 -0.4054  0.2289  0.2004
 3257TIP3    H131186   2.987   4.570  16.664 -0.8985 -0.2997 -0.0635
 3257TIP3    H231187   2.935   4.580  16.523 -1.6594  0.5899  0.2705
 3258TIP3   OH231188   2.112   1.248   2.177  0.2623 -0.3794  0.1902
 3258TIP3    H131189   2.036   1.262   2.121 -1.2981  3.7896  2.8963
 3258TIP3    H231190   2.176   1.205   2.119 -2.7594 -0.7246 -3.2913
 3259TIP3   OH231191   2.096   0.047   4.041 -0.1051 -0.1194  0.6475
 3259TIP3    H131192   2.082   0.076   4.131  0.3355  1.2887  0.2807
 3259TIP3    H231193   2.059   0.117   3.987 -1.2831 -1.4117 -0.2845
 3260TIP3   OH231194   6.438   3.169   0.973  0.8010  0.0993  0.2404
 3260TIP3    H131195   6.474   3.203   0.891  0.6715 -0.1913  0.0642
 3260TIP3    H231196   6.403   3.247   1.018 -0.7910  0.0329 -0.8037
 3261TIP3   OH231197   6.591   1.796   3.816 -0.0930  0.2471  0.3592
 3261TIP3    H131198   6.518   1.763   3.764 -0.7501  1.8956  0.2054
 3261TIP3    H231199   6.589   1.891   3.805 -0.1814  0.6770  3.2871
 3262TIP3   OH231200   6.670   5.303   2.175  0.5743 -0.2524  0.9315
 3262TIP3    H131201   6.704   5.381   2.130  2.1614 -2.4461 -2.0506
 3262TIP3    H231202   6.743   5.273   2.229  0.1253  0.0058  1.7042
 3263TIP3   OH231203   1.615   4.789  14.196  0.5038  0.5255  0.1805
 3263TIP3    H131204   1.654   4.818  14.279  1.0361 -0.2924  0.2303
 3263TIP3    H231205   1.690   4.770  14.140  0.1568  2.5110 -1.0405
 3264TIP3   OH231206   2.025   2.835   2.065  0.2787  0.2231  0.1237
 3264TIP3    H131207   1.979   2.848   2.148 -2.5431 -1.5551 -1.0177
 3264TIP3    H231208   2.093   2.771   2.084 -1.1231 -1.0971  0.8786
 3265TIP3   OH231209   0.445   0.063   6.411  0.7798 -0.3958 -0.1972
 3265TIP3    H131210   0.371   0.124   6.410  0.9718 -0.1076  1.2836
 3265TIP3    H231211   0.436   0.014   6.330 -1.7982 -1.2725  0.5328
 3266TIP3   OH231212   4.950   4.204   2.849  0.6451  0.8405 -0.0568
 3266TIP3    H131213   4.997   4.163   2.776 -1.7697  0.4555 -1.5033
 3266TIP3    H231214   4.939   4.295   2.823 -0.7109  0.5748 -0.4694
 3267TIP3   OH231215   4.185   3.314  14.383  0.3004 -0.2237  0.0703
 3267TIP3    H131216   4.211   3.380  14.446  1.2978  0.2830 -0.8432
 3267TIP3    H231217   4.228   3.340  14.301 -0.5448 -1.1346 -0.6951
 3268TIP3   OH231218   4.660   3.614  15.751  0.6159  0.1117 -0.3849
 3268TIP3    H131219   4.645   3.703  15.783  0.0353  0.9680 -2.7962
 3268TIP3    H231220   4.602   3.559  15.803  0.7591  1.1730  0.9413
 3269TIP3   OH231221   2.675   4.236   5.460 -0.1500 -0.5428  0.5245
 3269TIP3    H131222   2.585   4.263   5.481  0.4639  0.0958  2.6424
 3269TIP3    H231223   2.679   4.144   5.488 -0.4071 -0.8957 -0.5498
 3270TIP3   OH231224   1.093   6.714  10.226  0.3972  0.0326 -0.2988
 3270TIP3    H131225   1.157   6.700  10.296  1.9208  1.0410 -1.4210
 3270TIP3    H231226   1.030   6.642  10.236  1.6891 -0.9887  0.8831
 3271TIP3   OH231227   3.662   2.168  14.435  0.1444 -0.1610 -0.2944
 3271TIP3    H131228   3.708   2.250  14.416  2.3073 -1.0964  0.5659
 3271TIP3    H231229   3.571   2.186  14.411  0.8547  1.9073 -1.8208
 3272TIP3   OH231230   5.424   2.786   1.002 -0.2504 -0.7274  0.4158
 3272TIP3    H131231   5.456   2.875   1.018 -0.3352 -1.0340  2.6219
 3272TIP3    H231232   5.386   2.790   0.915  0.8623  1.0733 -0.0506
 3273TIP3   OH231233   1.432   3.395  14.129 -0.4900 -0.1898 -0.8291
 3273TIP3    H131234   1.400   3.484  14.146  0.9997 -0.0514  1.7484
 3273TIP3    H231235   1.511   3.408  14.077  0.3043  0.1252  0.4084
 3274TIP3   OH231236   5.144   1.373  12.177  0.0118  0.0649  0.1336
 3274TIP3    H131237   5.174   1.451  12.131  0.6841 -0.1076  0.2595
 3274TIP3    H231238   5.105   1.406  12.258 -0.5130  0.3208 -0.2195
 3275TIP3   OH231239   0.044   6.592  13.886 -0.5031  0.8368 -0.2770
 3275TIP3    H131240   0.081   6.575  13.799  2.5367 -1.1668  1.2820
 3275TIP3    H231241   0.119   6.613  13.941 -2.1542  0.5603  2.2454
 3276TIP3   OH231242   4.324   1.391   1.585 -0.5118 -0.2377 -0.4085
 3276TIP3    H131243   4.287   1.420   1.502 -0.4020  0.1773 -0.3169
 3276TIP3    H231244   4.414   1.423   1.584 -0.3523 -0.6851 -0.3531
 3277TIP3   OH231245   1.628   0.330  15.247 -0.2666 -0.1018  0.4698
 3277TIP3    H131246   1.551   0.315  15.301 -1.0123  0.5595 -0.3782
 3277TIP3    H231247   1.691   0.264  15.277 -1.5112 -1.3323  0.5081
 3278TIP3   OH231248   0.060   5.426   4.203  0.1968  0.0354  0.9136
 3278TIP3    H131249   0.094   5.515   4.199  0.3078 -0.0441 -0.5031
 3278TIP3    H231250   0.110   5.384   4.273 -0.6308  1.3674  2.3752
 3279TIP3   OH231251   0.705   3.552  14.658 -0.1365  0.4444  0.4145
 3279TIP3    H131252   0.755   3.477  14.625  0.0997  1.4165 -1.5854
 3279TIP3    H231253   0.640   3.513  14.717 -0.2273 -1.3820 -0.8063
 3280TIP3   OH231254   2.059   0.426   3.487 -0.0159 -0.1224  0.5043
 3280TIP3    H131255   2.096   0.499   3.536  1.4502 -1.5741  1.6888
 3280TIP3    H231256   2.122   0.355   3.498 -0.6121 -1.1415 -1.8773
 3281TIP3   OH231257   1.649   3.067   2.137  0.2803 -0.0980 -0.0430
 3281TIP3    H131258   1.654   2.973   2.120  0.1053  0.1370 -1.5300
 3281TIP3    H231259   1.578   3.098   2.081  1.6067  1.2274 -1.0684
 3282TIP3   OH231260   1.028   3.895  13.826 -0.1605 -0.4700  0.0390
 3282TIP3    H131261   1.120   3.897  13.853 -0.3133 -2.2376  0.7807
 3282TIP3    H231262   0.980   3.867  13.904 -1.2009 -0.6779 -0.6568
 3283TIP3   OH231263   2.269   2.787  16.520  0.3520  0.0119 -0.1304
 3283TIP3    H131264   2.260   2.692  16.512 -1.5534  0.2177 -0.8873
 3283TIP3    H231265   2.275   2.803  16.614  1.1518 -0.8886 -0.0242
 3284TIP3   OH231266   0.039   5.235   4.796  0.1729 -0.7408 -0.2679
 3284TIP3    H131267   0.047   5.218   4.889  0.2402  1.1477  0.1119
 3284TIP3    H231268  -0.054   5.224   4.777 -0.5027  2.2178  0.8236
 3285TIP3   OH231269   6.695   5.486   1.966 -0.0881  0.5277  0.1800
 3285TIP3    H131270   6.657   5.445   1.888 -1.6105  0.9170  0.6791
 3285TIP3    H231271   6.670   5.578   1.959  3.4325  1.5359 -1.0099
 3286TIP3   OH231272   6.370   4.972  14.455  0.2979  0.0506 -0.2397
 3286TIP3    H131273   6.437   4.965  14.388 -0.8893  1.7378 -1.7048
 3286TIP3    H231274   6.298   4.917  14.424 -0.2244  0.7654 -0.3165
 3287TIP3   OH231275   4.851   4.209   4.911 -0.4146 -0.0790 -0.5614
 3287TIP3    H131276   4.846   4.224   5.005  1.9283  0.1987 -0.4132
 3287TIP3    H231277   4.900   4.127   4.903 -0.8216 -0.2359 -1.5326
 3288TIP3   OH231278   2.326   3.163  15.123  0.7385 -0.0488 -0.1964
 3288TIP3    H131279   2.328   3.072  15.153 -2.1222 -0.1223  0.0906
 3288TIP3    H231280   2.405   3.202  15.159  0.5648 -1.7159  2.2600
 3289TIP3   OH231281   2.482   5.932   3.140  0.3702  0.1645  0.0880
 3289TIP3    H131282   2.503   5.869   3.209  1.5496  0.1518 -0.2540
 3289TIP3    H231283   2.391   5.955   3.155 -0.2353 -1.9629 -0.0424
 3290TIP3   OH231284   0.383   0.698   4.017 -0.1736  0.1086 -0.1803
 3290TIP3    H131285   0.374   0.613   3.974 -0.2826  0.9346 -1.8530
 3290TIP3    H231286   0.445   0.681   4.089  0.2818 -1.2529 -0.8481
 3291TIP3   OH231287   4.372   3.251  11.540  0.1356 -0.1142  0.2034
 3291TIP3    H131288   4.358   3.184  11.472 -2.0597  0.5244 -0.0466
 3291TIP3    H231289   4.290   3.252  11.589  0.9556  0.8616  1.6096
 3292TIP3   OH231290   4.924   0.325  14.205  0.0240 -0.1312 -0.2855
 3292TIP3    H131291   4.843   0.300  14.160 -0.8533 -1.1895  1.7801
 3292TIP3    H231292   4.993   0.276  14.160 -0.7812 -0.9221 -0.6681
 3293TIP3   OH231293   5.138   1.474   1.551 -0.1194  0.3117  0.1964
 3293TIP3    H131294   5.124   1.442   1.462  1.8909  0.3098 -0.1802
 3293TIP3    H231295   5.055   1.514   1.576 -0.7634  0.2156 -1.6379
 3294TIP3   OH231296   1.577   1.938  16.894 -0.0866  0.5345  0.3717
 3294TIP3    H131297   1.614   2.001  16.831 -0.0056  1.2349  1.1084
 3294TIP3    H231298   1.534   1.992  16.960 -2.4546 -0.2379 -0.4252
 3295TIP3   OH231299   3.758   3.557   2.491 -0.1857  0.2854 -0.2081
 3295TIP3    H131300   3.681   3.572   2.546 -0.5120 -1.1168 -0.2465
 3295TIP3    H231301   3.800   3.480   2.529 -0.2724 -0.5558 -1.7328
 3296TIP3   OH231302   6.133   6.727  14.836 -0.2185 -0.7396 -0.0317
 3296TIP3    H131303   6.116   6.796  14.900 -0.3503 -0.3253 -0.5108
 3296TIP3    H231304   6.125   6.645  14.886  0.2725 -0.4002  0.6105
 3297TIP3   OH231305   3.586   0.589  13.641  0.3990  0.3480  0.2075
 3297TIP3    H131306   3.668   0.548  13.669 -0.7820 -1.8270  0.6621
 3297TIP3    H231307   3.605   0.622  13.553  1.1142 -2.3799 -0.7627
 3298TIP3   OH231308   1.415   3.960   1.040  0.4179  0.2538  0.5929
 3298TIP3    H131309   1.413   3.899   0.966  0.0647  0.7185  0.2153
 3298TIP3    H231310   1.411   3.904   1.117  0.8544 -0.2401  0.2631
 3299TIP3   OH231311   2.621   1.577  16.506 -0.5330  0.2625  0.4918
 3299TIP3    H131312   2.655   1.663  16.479  0.2269  0.5602  2.2673
 3299TIP3    H231313   2.535   1.596  16.543 -0.2092  0.3179  1.2238
 3300TIP3   OH231314   0.032   1.619  15.580  0.5733  0.0703 -0.2511
 3300TIP3    H131315   0.008   1.639  15.490 -1.1858  0.3434  0.2317
 3300TIP3    H231316  -0.024   1.546  15.605  1.1460 -0.1112  0.5776
 3301TIP3   OH231317   6.069   0.403   4.969  0.2190  0.1444  0.6290
 3301TIP3    H131318   6.004   0.462   5.006  0.6013  1.0922 -0.1531
 3301TIP3    H231319   6.071   0.425   4.876 -1.4450 -2.8409 -0.2467
 3302TIP3   OH231320   4.976   1.938  17.002  0.9444  0.2699  0.4335
 3302TIP3    H131321   5.070   1.924  16.989  0.8997 -0.3449  0.7340
 3302TIP3    H231322   4.944   1.855  17.037  0.0145 -0.0734 -1.1166
 3303TIP3   OH231323   5.581   3.710   1.858 -0.2333  0.0007  0.3710
 3303TIP3    H131324   5.593   3.668   1.943 -0.4795 -1.4522 -0.2723
 3303TIP3    H231325   5.538   3.793   1.878  1.9862  0.8763  1.8581
 3304TIP3   OH231326   0.353   5.157  12.042 -0.0440  0.3576 -0.1016
 3304TIP3    H131327   0.291   5.089  12.069 -1.6644  1.9350  0.3419
 3304TIP3    H231328   0.404   5.176  12.121 -1.4228  1.5032  0.5489
 3305TIP3   OH231329   3.446   2.353   5.824 -0.5568 -0.1865 -0.7431
 3305TIP3    H131330   3.540   2.370   5.822 -0.4524 -0.8089 -1.7680
 3305TIP3    H231331   3.436   2.277   5.882 -0.7062  1.2769  1.2854
 3306TIP3   OH231332   0.994   6.192   2.340  0.1963  0.0595 -0.2734
 3306TIP3    H131333   1.086   6.194   2.315  0.3101 -0.2558  0.1174
 3306TIP3    H231334   0.948   6.229   2.264  0.6783  0.6265 -0.2959
 3307TIP3   OH231335   1.948   4.660   2.044  0.1329 -0.5888  0.0353
 3307TIP3    H131336   1.915   4.744   2.013  0.1890 -1.2498 -1.9183
 3307TIP3    H231337   2.026   4.682   2.095 -0.7831  0.6401  0.9964
 3308TIP3   OH231338   3.354   1.655   1.171 -0.4425 -0.0234  0.3921
 3308TIP3    H131339   3.377   1.626   1.083  4.4219 -0.3623  1.4900
 3308TIP3    H231340   3.356   1.575   1.224  1.6682  0.6919  1.5159
 3309TIP3   OH231341   1.268   4.526  12.054 -0.2884  0.2666  0.8458
 3309TIP3    H131342   1.292   4.438  12.026 -1.4156  0.9037 -2.6432
 3309TIP3    H231343   1.340   4.554  12.111  0.9693 -2.2130  0.6031
 3310TIP3   OH231344   5.489   4.058   5.183 -0.4443 -0.2504 -0.5719
 3310TIP3    H131345   5.474   4.057   5.088 -0.1466  0.2290 -0.6297
 3310TIP3    H231346   5.401   4.070   5.221 -0.6605 -1.1900 -0.7490
 3311TIP3   OH231347   6.718   0.651  15.980 -0.3132  0.1893  0.8373
 3311TIP3    H131348   6.800   0.653  16.030 -0.6703  0.1560  1.4233
 3311TIP3    H231349   6.744   0.680  15.892  0.2479  0.6296  1.1352
 3312TIP3   OH231350   1.299   3.463   2.892 -0.1241  0.2932 -0.0615
 3312TIP3    H131351   1.259   3.546   2.919  0.3606 -0.1474  2.2365
 3312TIP3    H231352   1.267   3.399   2.956 -0.2789 -1.2829 -1.6311
 3313TIP3   OH231353   5.693   4.107  12.286 -0.2008  0.2574 -0.4482
 3313TIP3    H131354   5.770   4.158  12.263 -0.7193  0.8207 -0.9614
 3313TIP3    H231355   5.662   4.070  12.204  0.5398 -1.4590 -0.0044
 3314TIP3   OH231356   1.451   0.107  14.472  1.0526 -0.4846 -0.0377
 3314TIP3    H131357   1.487   0.040  14.531  0.8999  0.0050  0.6282
 3314TIP3    H231358   1.515   0.113  14.401  1.5059 -0.7185  0.3421
 3315TIP3   OH231359   6.189   1.110   2.205 -0.4504 -0.1805 -0.9357
 3315TIP3    H131360   6.175   1.016   2.195  0.9016 -0.3772 -1.0557
 3315TIP3    H231361   6.282   1.123   2.188 -0.8884  1.3887 -2.5397
 3316TIP3   OH231362   5.907   2.876   0.085 -0.0682 -0.4935 -0.7497
 3316TIP3    H131363   5.828   2.927   0.102 -0.3636 -0.8077 -1.1556
 3316TIP3    H231364   5.875   2.788   0.065  0.4377 -0.8820  0.0587
 3317TIP3   OH231365   1.932   5.754  13.669 -0.2259  0.2352 -0.3510
 3317TIP3    H131366   1.926   5.659  13.659 -0.4506  0.2864 -0.7079
 3317TIP3    H231367   2.012   5.779  13.622  0.3323  0.1152  0.5150
 3318TIP3   OH231368   1.063   6.399  15.969  0.2876  0.4508  0.0840
 3318TIP3    H131369   1.009   6.366  15.898  2.1148 -2.2098 -0.2043
 3318TIP3    H231370   1.081   6.490  15.944 -1.5326  0.5097 -1.2798
 3319TIP3   OH231371   0.574   0.034   4.243 -0.2586 -0.2218  0.0927
 3319TIP3    H131372   0.590   0.098   4.173 -0.6065  1.6392  1.6181
 3319TIP3    H231373   0.481   0.044   4.264  0.2398  0.8185  2.1577
 3320TIP3   OH231374   3.030   3.134  17.131 -0.5703  0.0935 -0.3736
 3320TIP3    H131375   2.954   3.077  17.140 -0.3184  0.1448  3.4891
 3320TIP3    H231376   2.996   3.222  17.141 -0.1455  0.2042  0.1057
 3321TIP3   OH231377   1.281   3.840  12.156  0.3936  0.0452 -0.7308
 3321TIP3    H131378   1.227   3.868  12.082 -0.5325 -0.3479 -0.2219
 3321TIP3    H231379   1.258   3.901  12.226  0.1973 -0.4753 -0.3449
 3322TIP3   OH231380   2.553   2.400   5.583  0.0365 -0.2430  0.6039
 3322TIP3    H131381   2.536   2.366   5.496 -0.2722 -1.0526  0.9677
 3322TIP3    H231382   2.472   2.444   5.608 -0.1408 -0.6583  0.7710
 3323TIP3   OH231383   2.011   1.052  12.632 -0.9187 -0.0235  0.6826
 3323TIP3    H131384   2.104   1.057  12.610 -0.9611  1.6557  0.7419
 3323TIP3    H231385   1.971   1.012  12.555  0.0151 -2.3324  1.3039
 3324TIP3   OH231386   0.339   0.841  16.996 -0.2270  0.3473 -0.2531
 3324TIP3    H131387   0.408   0.798  17.046 -0.6365 -2.5499 -1.9365
 3324TIP3    H231388   0.264   0.844  17.055 -0.2760 -1.6613 -0.1715
 3325TIP3   OH231389   2.431   6.753   2.706  0.0037  0.0190 -0.0225
 3325TIP3    H131390   2.349   6.768   2.753  0.9847 -0.0422  1.7885
 3325TIP3    H231391   2.421   6.666   2.667 -0.1222 -0.8282  1.7741
 3326TIP3   OH231392   2.464   1.273  14.952 -0.1713 -0.4407  0.3622
 3326TIP3    H131393   2.374   1.242  14.951  0.2800 -1.8194 -0.3844
 3326TIP3    H231394   2.502   1.241  14.870  1.0859 -0.1650  0.8038
 3327TIP3   OH231395   0.251   1.291   0.433 -0.5330 -0.6646  0.4354
 3327TIP3    H131396   0.297   1.210   0.410  2.3836  1.6577 -3.0696
 3327TIP3    H231397   0.193   1.306   0.359  0.0063  1.0812  0.3387
 3328TIP3   OH231398   5.799   0.252   3.552  0.3933 -0.6799  0.3358
 3328TIP3    H131399   5.740   0.258   3.627 -1.8595  4.0538 -1.4603
 3328TIP3    H231400   5.744   0.222   3.480  1.0269  0.4695 -0.6574
 3329TIP3   OH231401   1.330   6.060  11.814  0.2510  0.4624 -0.1260
 3329TIP3    H131402   1.389   5.985  11.821 -1.6587 -1.1421 -0.4042
 3329TIP3    H231403   1.311   6.084  11.904  0.7814  0.5446 -0.0343
 3330TIP3   OH231404   3.367   3.559   6.834 -0.2545  0.9642 -0.1520
 3330TIP3    H131405   3.307   3.494   6.797  0.4389  1.2804 -1.9263
 3330TIP3    H231406   3.316   3.639   6.838  0.2739  1.5344 -2.7655
 3331TIP3   OH231407   1.325   6.113  12.075 -0.2921 -0.4141 -0.3949
 3331TIP3    H131408   1.248   6.158  12.108 -0.8680 -1.2440 -0.5693
 3331TIP3    H231409   1.385   6.111  12.150 -0.9764 -0.9258  0.1579
 3332TIP3   OH231410   3.142   2.406   1.230  0.6530 -0.0683 -0.1213
 3332TIP3    H131411   3.129   2.338   1.164 -1.1474 -1.1861  1.2623
 3332TIP3    H231412   3.058   2.452   1.234  0.3728 -0.6162  1.9110
 3333TIP3   OH231413   0.531   0.781   4.543  0.3054 -0.2763  0.1863
 3333TIP3    H131414   0.545   0.761   4.450 -0.5350  0.9964 -0.2428
 3333TIP3    H231415   0.489   0.868   4.543  0.6722 -0.0656  1.7757
 3334TIP3   OH231416   3.336   5.414  13.533 -0.5434  0.0665  0.9009
 3334TIP3    H131417   3.367   5.437  13.446 -0.4707  0.3739  1.0065
 3334TIP3    H231418   3.414   5.382  13.579 -0.5371  0.1175  0.9255
 3335TIP3   OH231419   1.139   6.548  12.189  0.2155 -0.4612 -0.5460
 3335TIP3    H131420   1.095   6.618  12.238  1.2043 -0.3333  0.1710
 3335TIP3    H231421   1.091   6.543  12.106  0.7727  1.7879 -1.0577
 3336TIP3   OH231422   3.535   4.974   5.701 -0.0499  0.8539  0.1778
 3336TIP3    H131423   3.608   4.953   5.643 -0.6406  0.5394 -0.4648
 3336TIP3    H231424   3.532   5.069   5.703 -0.5444  0.8789 -0.9925
 3337TIP3   OH231425   3.269   5.915  13.524 -0.0552 -0.0483  0.3910
 3337TIP3    H131426   3.228   6.000  13.510  0.4314 -0.2134 -2.7122
 3337TIP3    H231427   3.287   5.882  13.436  2.0098 -2.2920  1.5351
 3338TIP3   OH231428   5.504   3.073  13.484  0.2410  0.0888  0.8586
 3338TIP3    H131429   5.570   3.126  13.528  0.6555 -1.7003  2.4874
 3338TIP3    H231430   5.465   3.020  13.553 -0.4230 -1.4642 -0.6341
 3339TIP3   OH231431   4.584   5.046  13.299 -0.8871  0.1091  0.0822
 3339TIP3    H131432   4.551   5.132  13.325 -3.1244 -0.3888 -0.9329
 3339TIP3    H231433   4.601   5.054  13.205 -0.0977 -0.2863  0.1797
 3340TIP3   OH231434   6.715   1.093   4.457 -0.4690  0.4528  0.2050
 3340TIP3    H131435   6.769   1.047   4.392  0.5711  0.9798  0.6652
 3340TIP3    H231436   6.767   1.170   4.480 -0.4245 -0.1428  2.2514
 3341TIP3   OH231437   3.829   1.748  16.540 -0.1309 -0.0164  0.3707
 3341TIP3    H131438   3.827   1.737  16.635 -1.2123  0.1440  0.3730
 3341TIP3    H231439   3.909   1.702  16.512  0.3810  0.2400  1.3823
 3342TIP3   OH231440   4.541   1.929   2.281  0.3185 -0.0889  0.4042
 3342TIP3    H131441   4.533   1.836   2.302 -1.9729  0.1710  1.0240
 3342TIP3    H231442   4.450   1.960   2.280  1.0320  2.1202  0.1408
 3343TIP3   OH231443   5.761   0.953  11.968  0.0793 -0.4533 -0.4276
 3343TIP3    H131444   5.719   1.033  12.000  2.4882  0.8464 -0.3480
 3343TIP3    H231445   5.713   0.932  11.888 -1.8958 -0.1212  0.6026
 3344TIP3   OH231446   1.624   4.271  15.291 -0.5604  0.3331 -0.3475
 3344TIP3    H131447   1.529   4.266  15.286 -0.5464 -1.4915  0.5996
 3344TIP3    H231448   1.651   4.298  15.203 -1.8976 -0.0619 -0.9066
 3345TIP3   OH231449   2.339   2.893   3.410 -0.2203  0.4504 -0.7021
 3345TIP3    H131450   2.354   2.984   3.384  0.1358  0.1373 -1.6316
 3345TIP3    H231451   2.248   2.875   3.387  0.5805 -0.3809 -3.5668
 3346TIP3   OH231452   0.741   3.177  14.567 -0.1967 -0.8022 -0.4093
 3346TIP3    H131453   0.650   3.159  14.589 -0.4778  0.1623 -0.7246
 3346TIP3    H231454   0.792   3.118  14.622 -0.9313  0.2783  1.4999
 3347TIP3   OH231455   5.274   6.518   2.346 -0.1064  0.9611  0.0761
 3347TIP3    H131456   5.354   6.466   2.352 -0.9303 -0.3388  0.2592
 3347TIP3    H231457   5.293   6.598   2.396  0.5928  0.0328  1.3310
 3348TIP3   OH231458   5.247   3.761   3.294 -0.4983  0.6073  0.6780
 3348TIP3    H131459   5.224   3.763   3.201 -2.1951  0.3519  1.0572
 3348TIP3    H231460   5.237   3.669   3.319  1.9537  0.2935  0.6778
 3349TIP3   OH231461   1.318   3.066   4.166 -0.0175 -0.3409  0.3203
 3349TIP3    H131462   1.361   3.117   4.098 -0.5151 -0.0409  0.2280
 3349TIP3    H231463   1.298   2.982   4.125 -2.0634  0.5055 -0.5280
 3350TIP3   OH231464   6.342   4.040  12.111  0.6507 -0.1390  0.0480
 3350TIP3    H131465   6.353   4.129  12.080 -0.4051  0.3427  0.9759
 3350TIP3    H231466   6.251   4.036  12.142  0.9279 -1.2745  0.7970
 3351TIP3   OH231467   4.712   6.730  14.158 -0.1840  0.0792 -0.3662
 3351TIP3    H131468   4.759   6.761  14.235  0.1873 -0.0138 -0.5531
 3351TIP3    H231469   4.758   6.770  14.084  0.6974 -1.3762 -0.6541
 3352TIP3   OH231470   4.967   4.111   3.917 -0.3458 -0.0022 -0.6257
 3352TIP3    H131471   5.062   4.099   3.918 -0.3673 -0.1768 -0.6231
 3352TIP3    H231472   4.946   4.137   4.007 -0.1921  0.9148 -0.8417
 3353TIP3   OH231473   1.955   5.240  11.268  0.1741 -0.0292 -1.2444
 3353TIP3    H131474   1.940   5.300  11.195 -1.7138 -0.2692 -1.1118
 3353TIP3    H231475   1.890   5.172  11.256 -0.2237 -0.0400  0.6892
 3354TIP3   OH231476   4.685   2.657  11.022 -0.5213 -0.7380  0.3205
 3354TIP3    H131477   4.746   2.585  11.005 -0.2324 -0.0883 -1.5368
 3354TIP3    H231478   4.685   2.709  10.942 -0.0105  1.8896  1.8836
 3355TIP3   OH231479   3.418   2.194  16.463 -0.2003 -0.4092  0.3223
 3355TIP3    H131480   3.440   2.120  16.518  1.3257 -0.6789 -0.5914
 3355TIP3    H231481   3.501   2.240  16.450 -1.0170  1.1779  0.4471
 3356TIP3   OH231482   4.805   0.809   2.307  0.2412  0.6156 -0.3074
 3356TIP3    H131483   4.823   0.902   2.294  1.3224  0.4090 -0.3240
 3356TIP3    H231484   4.889   0.770   2.330  0.0222 -0.5403 -1.3247
 3357TIP3   OH231485   5.480   6.531  13.640 -0.7000 -0.1621  0.4494
 3357TIP3    H131486   5.504   6.621  13.619 -1.3209 -0.4357 -1.5782
 3357TIP3    H231487   5.406   6.511  13.583 -0.7744 -1.8659  1.0715
 3358TIP3   OH231488   1.831   2.505  16.812 -0.3978 -0.4360 -0.3186
 3358TIP3    H131489   1.788   2.479  16.894  0.4086 -4.4126 -0.9282
 3358TIP3    H231490   1.760   2.542  16.759 -1.7865 -1.3479  0.8249
 3359TIP3   OH231491   0.276   5.619  17.065  0.1174 -0.5232 -0.1254
 3359TIP3    H131492   0.195   5.569  17.075 -1.1356  0.9123 -2.2584
 3359TIP3    H231493   0.259   5.677  16.991  2.0487  1.9207  1.2031
 3360TIP3   OH231494   4.318   3.661  11.165 -0.4338  0.5261  0.3263
 3360TIP3    H131495   4.323   3.566  11.151 -0.7028  0.0794  2.7135
 3360TIP3    H231496   4.226   3.678  11.184 -0.5045  1.3954 -0.7321
 3361TIP3   OH231497   0.750   5.929   2.955  0.3238  0.2933  0.0048
 3361TIP3    H131498   0.803   5.888   3.023  0.0438 -0.0000  0.0489
 3361TIP3    H231499   0.794   5.904   2.873 -1.2210 -2.2722 -0.1676
 3362TIP3   OH231500   6.203   3.105   1.552 -0.2430 -0.4510 -0.7105
 3362TIP3    H131501   6.170   3.066   1.633 -0.7207 -0.5707 -0.9593
 3362TIP3    H231502   6.125   3.131   1.503  0.0111 -1.1213 -1.4992
 3363TIP3   OH231503   4.638   5.292  16.129  0.6195 -0.0735 -0.3675
 3363TIP3    H131504   4.596   5.371  16.093  1.3579  0.8710  0.7520
 3363TIP3    H231505   4.711   5.275  16.071  2.4101  2.0312  1.0994
 3364TIP3   OH231506   5.391   1.080  13.030 -0.1716  0.0132 -0.2944
 3364TIP3    H131507   5.351   1.062  12.946  1.0052 -0.9158 -0.6823
 3364TIP3    H231508   5.322   1.061  13.094 -0.5898 -0.7900 -0.9705
 3365TIP3   OH231509   1.862   6.693   3.208 -0.2464 -0.0499  0.4276
 3365TIP3    H131510   1.794   6.668   3.271 -0.6885 -1.3492 -0.5248
 3365TIP3    H231511   1.824   6.767   3.160 -0.6176 -0.1867  0.5036
 3366TIP3   OH231512   5.527   6.109  12.167 -0.2155 -0.2402 -0.2103
 3366TIP3    H131513   5.508   6.172  12.098 -1.3230  0.1017  0.3996
 3366TIP3    H231514   5.623   6.099  12.164 -0.0165  1.4659 -0.3025
 3367TIP3   OH231515   1.254   1.667  15.499 -0.4260  0.0924 -0.1028
 3367TIP3    H131516   1.319   1.603  15.469 -0.9138  1.0288 -3.5736
 3367TIP3    H231517   1.172   1.619  15.499 -0.3475 -0.0433  0.2489
 3368TIP3   OH231518   6.521   5.728   4.658  0.3110  0.1690 -0.5389
 3368TIP3    H131519   6.571   5.688   4.728 -0.3758  0.3710  0.0787
 3368TIP3    H231520   6.529   5.666   4.585  2.0992  0.5808 -0.7299
 3369TIP3   OH231521   2.201   4.396  14.467 -0.2720  0.0791  0.4141
 3369TIP3    H131522   2.268   4.463  14.485 -1.6147  1.6268 -0.1565
 3369TIP3    H231523   2.124   4.445  14.441 -2.1826 -1.5364  2.5521
 3370TIP3   OH231524   4.629   3.329  14.388  0.1980 -0.0499 -0.1177
 3370TIP3    H131525   4.672   3.309  14.471 -0.7785 -0.6430  0.2620
 3370TIP3    H231526   4.578   3.408  14.405  0.8444  0.4541 -0.4702
 3371TIP3   OH231527   0.053   0.720  10.456 -0.4588  0.0659  0.1160
 3371TIP3    H131528   0.025   0.680  10.374  0.4506 -0.2792 -0.0328
 3371TIP3    H231529   0.137   0.678  10.477  0.3443  1.6072  0.1459
 3372TIP3   OH231530   6.650   0.809   3.978  0.1181 -0.1574 -0.3060
 3372TIP3    H131531   6.738   0.844   3.992 -0.6681  1.3512  1.2302
 3372TIP3    H231532   6.638   0.743   4.046  0.6191 -1.5957 -1.5502
 3373TIP3   OH231533   1.778   5.333  12.422  0.0749 -0.6212  0.1316
 3373TIP3    H131534   1.819   5.327  12.336 -1.1534  1.7798 -0.7039
 3373TIP3    H231535   1.850   5.322  12.484  1.3452 -0.2775 -1.2333
 3374TIP3   OH231536   1.810   1.520   5.481  0.0130 -0.2007 -0.2432
 3374TIP3    H131537   1.890   1.512   5.429  0.1438 -2.0276  0.1411
 3374TIP3    H231538   1.755   1.580   5.432  1.2151  0.2759 -1.0567
 3375TIP3   OH231539   4.118   2.470   2.063  0.2288  0.2501 -0.0101
 3375TIP3    H131540   4.039   2.433   2.024 -0.3836  0.1336  1.3012
 3375TIP3    H231541   4.190   2.420   2.023 -0.4600 -0.8160  0.0541
 3376TIP3   OH231542   5.456   3.229   3.330 -0.3113 -0.6100 -0.3446
 3376TIP3    H131543   5.457   3.305   3.272 -0.4691  0.3646  0.9001
 3376TIP3    H231544   5.371   3.232   3.374  0.7295  0.1451  1.7781
 3377TIP3   OH231545   0.208   4.698  13.588 -0.4693 -0.1501 -0.1752
 3377TIP3    H131546   0.281   4.640  13.570  1.2968  1.7130  0.6307
 3377TIP3    H231547   0.163   4.658  13.663  0.7418 -0.4833  0.3944
 3378TIP3   OH231548   1.883   0.669  13.632  0.7635  0.7805  0.0071
 3378TIP3    H131549   1.794   0.646  13.658  0.0823  1.0689 -1.8923
 3378TIP3    H231550   1.900   0.753  13.675  0.3756  0.4308  0.8725
 3379TIP3   OH231551   5.495   4.391   2.536  0.4057  0.2183 -0.2606
 3379TIP3    H131552   5.443   4.343   2.600 -0.7695 -0.7560 -1.8397
 3379TIP3    H231553   5.576   4.413   2.581 -0.0848 -1.0244  1.3118
 3380TIP3   OH231554   3.141   0.713  12.599  0.0643  0.5405  0.2067
 3380TIP3    H131555   3.054   0.719  12.638  0.1636  0.3787  0.4582
 3380TIP3    H231556   3.154   0.620  12.584  0.3436  0.5273  0.5187
 3381TIP3   OH231557   6.034   4.773  12.958 -0.3792  0.2623 -0.6229
 3381TIP3    H131558   6.053   4.821  13.039 -0.3713  1.1516 -1.1293
 3381TIP3    H231559   6.119   4.742  12.928 -0.6117 -1.9720  0.8118
 3382TIP3   OH231560   6.391   0.614   5.006 -0.3035 -0.1277 -0.1564
 3382TIP3    H131561   6.301   0.616   4.974  0.3687 -0.1598 -2.2232
 3382TIP3    H231562   6.420   0.705   5.001 -0.4312  0.0145  1.2618
 3383TIP3   OH231563   5.744   4.462   3.656  0.2770  0.3269  0.4682
 3383TIP3    H131564   5.707   4.550   3.665  0.7569  0.7545 -1.2367
 3383TIP3    H231565   5.679   4.414   3.604 -0.3391 -0.5843  2.0400
 3384TIP3   OH231566   6.773   3.989   3.244  0.1835 -0.7923 -0.0006
 3384TIP3    H131567   6.850   4.040   3.219  1.0999 -1.5922  1.0762
 3384TIP3    H231568   6.809   3.909   3.283 -1.1460 -0.5154  1.9369
 3385TIP3   OH231569   1.402   2.408  15.824  0.2475 -0.0042 -0.5240
 3385TIP3    H131570   1.403   2.329  15.770 -1.0498 -0.3643 -0.0759
 3385TIP3    H231571   1.494   2.429  15.838  0.6565 -2.0633  0.2234
 3386TIP3   OH231572   5.642   3.757  10.319 -0.6303 -0.3650  0.1969
 3386TIP3    H131573   5.619   3.721  10.404 -2.1987 -0.3343 -0.1924
 3386TIP3    H231574   5.559   3.779  10.278  0.1631  1.5220 -0.5385
 3387TIP3   OH231575   4.393   4.583  15.788  0.2408  0.0474 -0.5444
 3387TIP3    H131576   4.360   4.661  15.745 -1.7279  0.2931  1.2258
 3387TIP3    H231577   4.431   4.615  15.870 -1.5945 -0.8515  0.7420
 3388TIP3   OH231578   3.829   6.604  14.093  0.2866 -0.1124  1.1843
 3388TIP3    H131579   3.795   6.528  14.045 -1.4874  1.6711 -0.5828
 3388TIP3    H231580   3.853   6.569  14.179 -1.1440 -2.5229  0.6969
 3389TIP3   OH231581   0.583   3.899  10.894 -0.2083 -0.5718  0.1796
 3389TIP3    H131582   0.673   3.880  10.918 -0.3003  0.8399  1.8982
 3389TIP3    H231583   0.577   3.875  10.802  2.1316  0.0039 -0.1901
 3390TIP3   OH231584   2.341   5.854   3.672  0.2310  0.2546  0.0666
 3390TIP3    H131585   2.395   5.902   3.609 -0.0363  0.4434 -0.0181
 3390TIP3    H231586   2.401   5.790   3.711  0.6801  0.9067  0.4602
 3391TIP3   OH231587   3.381   2.138   3.698 -0.9145  0.6495 -0.0244
 3391TIP3    H131588   3.426   2.083   3.634 -2.2549 -0.9055  0.2993
 3391TIP3    H231589   3.290   2.109   3.695 -1.5319  2.3784  0.7025
 3392TIP3   OH231590   2.143   6.251  10.614  0.0658 -0.4409 -0.2195
 3392TIP3    H131591   2.125   6.186  10.683  0.1368 -1.3917 -1.0794
 3392TIP3    H231592   2.151   6.200  10.534  0.8384  0.5669 -0.8106
 3393TIP3   OH231593   1.606   0.549  16.361  0.1254  0.7616  0.7146
 3393TIP3    H131594   1.699   0.569  16.348  0.5012 -0.6630  1.0672
 3393TIP3    H231595   1.569   0.631  16.395  1.1757  1.4445  0.2932
 3394TIP3   OH231596   0.861   3.816   4.725  0.3384  0.2041 -0.2963
 3394TIP3    H131597   0.842   3.770   4.643 -2.3656  0.3911  0.1027
 3394TIP3    H231598   0.950   3.791   4.747  0.9220 -0.3420 -2.9560
 3395TIP3   OH231599   3.835   5.044  14.770 -0.4806  0.1287  0.1626
 3395TIP3    H131600   3.800   5.078  14.853 -0.3382 -0.4846  0.4829
 3395TIP3    H231601   3.920   5.087  14.760 -1.4207  1.8682 -0.7798
 3396TIP3   OH231602   4.890   5.290   4.602 -0.1564 -0.4138 -0.2009
 3396TIP3    H131603   4.886   5.385   4.615  1.5694 -0.2420 -0.6433
 3396TIP3    H231604   4.969   5.276   4.550 -0.2046 -2.1284  0.1137
 3397TIP3   OH231605   5.018   5.172  15.380 -0.0909 -0.7291  0.0183
 3397TIP3    H131606   4.957   5.115  15.427  0.3116 -0.7477  0.5272
 3397TIP3    H231607   5.058   5.115  15.315 -0.9843 -0.5928 -0.6607
 3398TIP3   OH231608   2.370   5.731  14.764  0.7137  0.1018 -0.3781
 3398TIP3    H131609   2.453   5.685  14.755  0.3539 -0.9530  1.3030
 3398TIP3    H231610   2.303   5.668  14.738  0.3466  0.3881 -0.1593
 3399TIP3   OH231611   3.287   5.281  11.524 -0.4957  0.2304  0.6466
 3399TIP3    H131612   3.262   5.307  11.613 -1.2845  0.8673  0.2571
 3399TIP3    H231613   3.317   5.362  11.483 -1.6879  0.2992 -0.1603
 3400TIP3   OH231614   4.580   4.542   1.903 -0.3562  0.0755  0.0569
 3400TIP3    H131615   4.594   4.610   1.837  2.3824 -0.4518 -0.0381
 3400TIP3    H231616   4.599   4.586   1.987  1.9152 -0.5759 -0.0418
 3401TIP3   OH231617   3.727   3.510  14.307  0.2423  0.6675 -0.1275
 3401TIP3    H131618   3.699   3.456  14.233  1.3054 -0.8491  0.5219
 3401TIP3    H231619   3.678   3.475  14.381  0.4368  1.0582  0.1839
 3402TIP3   OH231620   2.665   2.306   3.915 -0.4599  0.3663  0.1322
 3402TIP3    H131621   2.735   2.298   3.850 -0.1093 -1.5049  0.6624
 3402TIP3    H231622   2.612   2.227   3.903 -3.2978  2.3119 -1.1025
 3403TIP3   OH231623   0.903   4.431  11.764  0.1732  0.1910  0.2535
 3403TIP3    H131624   0.849   4.467  11.693 -1.1332 -3.9053 -1.1288
 3403TIP3    H231625   0.986   4.408  11.722 -0.6040 -2.2493 -0.1387
 3404TIP3   OH231626   3.259   4.570   1.613 -0.3763 -0.3752 -0.2262
 3404TIP3    H131627   3.346   4.593   1.644 -0.8906 -0.0306  1.0808
 3404TIP3    H231628   3.225   4.650   1.573 -1.7649  1.0698  3.3770
 3405TIP3   OH231629   1.262   1.788   6.394  0.5242  0.3542  0.4881
 3405TIP3    H131630   1.264   1.711   6.452  0.6849 -0.2501 -0.3070
 3405TIP3    H231631   1.293   1.859   6.449  2.5490 -0.5793  0.6433
 3406TIP3   OH231632   5.389   6.647   6.099 -0.1845  0.3654 -0.1359
 3406TIP3    H131633   5.321   6.659   6.165 -1.3355 -0.6534 -1.0919
 3406TIP3    H231634   5.342   6.642   6.016  1.1628  0.7328 -0.9494
 3407TIP3   OH231635   6.765   4.555   0.284  0.3194  0.1108  0.3844
 3407TIP3    H131636   6.780   4.512   0.200  1.8267 -2.6398  1.9452
 3407TIP3    H231637   6.843   4.608   0.298  0.4669 -0.1264  0.4541
 3408TIP3   OH231638   3.333   3.997   1.764 -0.1034  0.3047 -0.0062
 3408TIP3    H131639   3.324   4.071   1.704  1.9498 -0.5895 -1.5382
 3408TIP3    H231640   3.336   4.037   1.851 -1.2069  1.8161 -0.6298
 3409TIP3   OH231641   4.251   5.907  13.437 -0.5865 -0.0796 -0.0338
 3409TIP3    H131642   4.270   5.986  13.386 -0.8543 -0.0872 -0.1495
 3409TIP3    H231643   4.278   5.930  13.526 -0.4158  0.0483 -0.1173
 3410TIP3   OH231644   2.655   6.318   4.281 -0.1137 -0.0641 -0.6027
 3410TIP3    H131645   2.632   6.368   4.359  0.5818  0.5514 -0.7728
 3410TIP3    H231646   2.687   6.234   4.315  1.8348  0.8263 -0.0769
 3411TIP3   OH231647   1.936   6.302   3.126  0.0559 -0.2865 -0.6612
 3411TIP3    H131648   1.871   6.244   3.164 -1.2853  0.8826 -1.0813
 3411TIP3    H231649   1.885   6.366   3.076  1.5104  0.8477 -0.7662
 3412TIP3   OH231650   5.297   3.655   5.954  0.1869  0.3220 -0.3440
 3412TIP3    H131651   5.337   3.736   5.987 -1.2353  0.4720  1.1501
 3412TIP3    H231652   5.237   3.629   6.023  1.0574 -2.3855 -0.4921
 3413TIP3   OH231653   0.566   6.006   6.458  0.4097  0.0809 -0.1866
 3413TIP3    H131654   0.531   6.027   6.545 -1.2744 -1.6000 -0.3857
 3413TIP3    H231655   0.627   5.934   6.474  0.2777 -0.0700 -0.3524
 3414TIP3   OH231656   2.220   4.528   2.930 -0.8631 -0.0695  0.5860
 3414TIP3    H131657   2.138   4.575   2.941 -0.5535  0.7216 -0.3202
 3414TIP3    H231658   2.202   4.465   2.860 -0.6272  0.3154  0.1702
 3415TIP3   OH231659   2.546   1.085   1.151  0.4721 -0.3422 -0.1303
 3415TIP3    H131660   2.519   1.176   1.142  0.7609 -0.2312  0.0868
 3415TIP3    H231661   2.477   1.044   1.202  0.5073 -0.1612  0.0651
 3416TIP3   OH231662   6.101   4.241  17.215  0.5606 -0.4780  0.2646
 3416TIP3    H131663   6.114   4.265  17.307 -1.9364 -0.0563  0.5931
 3416TIP3    H231664   6.156   4.164  17.202  3.8541  1.5490  0.9942
 3417TIP3   OH231665   6.361   2.296  16.761  0.2534  0.6074  0.0616
 3417TIP3    H131666   6.384   2.262  16.848 -1.5014  1.5248  0.9220
 3417TIP3    H231667   6.319   2.222  16.717 -2.9505  1.3182  1.6882
 3418TIP3   OH231668   6.661   6.666   1.348  0.1066 -0.7933  0.2313
 3418TIP3    H131669   6.626   6.584   1.312 -3.8525 -0.2375  2.2331
 3418TIP3    H231670   6.641   6.661   1.442  1.2406  1.7922  0.6905
 3419TIP3   OH231671   5.960   3.987  14.529 -0.6228 -0.1005  0.4162
 3419TIP3    H131672   6.029   4.036  14.574  0.2038 -0.2228 -0.6987
 3419TIP3    H231673   5.903   4.055  14.492 -0.3947  0.0100  0.2676
 3420TIP3   OH231674   6.067   6.207  15.000 -0.5816  0.1461 -0.0922
 3420TIP3    H131675   6.098   6.146  15.066  2.5214  1.1116 -0.4842
 3420TIP3    H231676   6.064   6.156  14.919 -1.1639 -0.2234  0.1524
 3421TIP3   OH231677   2.552   6.422   1.902 -0.3228 -0.3934 -0.1067
 3421TIP3    H131678   2.530   6.509   1.868  2.4340  1.3761  2.1734
 3421TIP3    H231679   2.467   6.379   1.914 -1.7783  1.8958 -1.4824
 3422TIP3   OH231680   1.269   1.913  15.289  0.2151 -0.3940 -0.3009
 3422TIP3    H131681   1.180   1.949  15.285  0.1987 -0.1152  1.5410
 3422TIP3    H231682   1.264   1.832  15.240 -1.1959 -0.5978  0.1223
 3423TIP3   OH231683   1.820   2.851  12.594  0.1597 -0.2793 -0.5789
 3423TIP3    H131684   1.843   2.847  12.686  1.2803 -0.2988 -0.8551
 3423TIP3    H231685   1.802   2.761  12.569  1.3046 -0.4783 -0.7317
 3424TIP3   OH231686   4.083   5.393  11.737 -0.2518  0.3137 -0.6530
 3424TIP3    H131687   4.046   5.312  11.771  0.1305  0.4779  0.1723
 3424TIP3    H231688   4.127   5.433  11.812 -3.1086  2.8782 -0.1091
 3425TIP3   OH231689   2.393   2.944   1.843  0.2177 -0.1509  0.0877
 3425TIP3    H131690   2.374   2.949   1.936  1.1759  0.7219  0.2553
 3425TIP3    H231691   2.329   3.002   1.802 -0.1133 -0.4248  0.2162
 3426TIP3   OH231692   2.473   3.543   4.335 -0.2781  0.1139  0.0228
 3426TIP3    H131693   2.411   3.609   4.366 -0.0565 -0.6120  2.1061
 3426TIP3    H231694   2.420   3.464   4.322 -0.0681 -0.0513  0.1680
 3427TIP3   OH231695   6.756   4.987   5.771 -0.5968  0.0479  0.0919
 3427TIP3    H131696   6.725   5.014   5.857 -1.2587  2.0073 -0.7035
 3427TIP3    H231697   6.680   4.947   5.729 -0.9586  1.1870 -0.3849
 3428TIP3   OH231698   3.998   3.924  11.359  0.0704 -0.0174  0.5494
 3428TIP3    H131699   4.036   3.969  11.284 -1.3874  0.9178  0.3531
 3428TIP3    H231700   4.015   3.831  11.343 -1.0505  0.0777 -1.4247
 3429TIP3   OH231701   6.421   6.571   0.090 -0.0691 -0.5188  0.6535
 3429TIP3    H131702   6.417   6.489   0.043 -1.3627 -0.7539  1.1190
 3429TIP3    H231703   6.356   6.627   0.046  2.4813  1.1652 -1.2359
 3430TIP3   OH231704   0.244   0.767   0.059 -0.2216  0.0848  0.0313
 3430TIP3    H131705   0.194   0.732  -0.014  0.9926  1.0265 -1.3069
 3430TIP3    H231706   0.256   0.693   0.118 -2.9943 -0.2218  0.3582
 3431TIP3   OH231707   6.251   6.522   6.393 -0.0885  0.0275 -0.2603
 3431TIP3    H131708   6.191   6.489   6.326 -0.3837  0.6475 -0.3068
 3431TIP3    H231709   6.267   6.613   6.367  0.3986  0.0398  0.0875
 3432TIP3   OH231710   4.515   1.785  16.229  0.2048  0.2272  1.0755
 3432TIP3    H131711   4.523   1.859  16.289  0.4664  0.1994  1.0756
 3432TIP3    H231712   4.432   1.798  16.184  0.0939  0.3439  1.3180
 3433TIP3   OH231713   0.898   5.609  15.818  0.4391 -0.6462 -0.2602
 3433TIP3    H131714   0.929   5.570  15.736 -1.6274 -0.5413 -1.1561
 3433TIP3    H231715   0.816   5.562  15.837 -0.2451  0.8116  0.5429
 3434TIP3   OH231716   3.753   1.419   5.920 -0.3052  0.4157  0.3896
 3434TIP3    H131717   3.761   1.368   5.840  1.5026  0.9394  0.2111
 3434TIP3    H231718   3.843   1.435   5.948 -0.8700  1.8920  1.4782
 3435TIP3   OH231719   5.163   0.047   3.435 -0.1047 -0.0201  0.2262
 3435TIP3    H131720   5.104   0.123   3.432 -1.3186 -0.9672 -1.7963
 3435TIP3    H231721   5.105  -0.029   3.425  1.4095 -0.9904 -1.7035
 3436TIP3   OH231722   4.456   2.307   0.424 -0.7422  0.1502  0.3069
 3436TIP3    H131723   4.532   2.274   0.473 -0.5519  0.9906  0.6017
 3436TIP3    H231724   4.472   2.278   0.334  0.6979  1.5313  0.0640
 3437TIP3   OH231725   0.324   3.262   3.036 -0.3639  0.0315  0.2698
 3437TIP3    H131726   0.248   3.295   2.989  0.3774  2.3943  0.5744
 3437TIP3    H231727   0.373   3.212   2.971 -1.8836 -1.1448 -0.0400
 3438TIP3   OH231728   0.084   0.279   4.016 -0.2058 -0.6326  0.2775
 3438TIP3    H131729   0.077   0.191   4.053 -0.3210  0.3525  2.8356
 3438TIP3    H231730   0.042   0.273   3.930 -0.8013 -2.8967  0.6602
 3439TIP3   OH231731   5.981   1.909   3.920 -0.2934 -0.0104  0.0546
 3439TIP3    H131732   5.938   1.976   3.868 -1.7942 -0.4164  0.7010
 3439TIP3    H231733   6.007   1.842   3.857  0.8917  0.9712 -0.5439
 3440TIP3   OH231734   5.562   1.809   1.959  0.0131  0.3048  0.0944
 3440TIP3    H131735   5.612   1.891   1.957  1.2802 -0.4266  0.6763
 3440TIP3    H231736   5.528   1.804   2.049  0.8045 -0.2874  0.3740
 3441TIP3   OH231737   0.162   5.200   0.070 -0.0163  0.1992 -1.1821
 3441TIP3    H131738   0.184   5.128   0.130 -1.2534  0.7410 -0.0312
 3441TIP3    H231739   0.246   5.229   0.036  0.8321  0.3284  0.8498
 3442TIP3   OH231740   6.575   3.457  14.053 -0.3252 -0.5094  0.3648
 3442TIP3    H131741   6.493   3.506  14.046  0.1127  0.9320  3.4827
 3442TIP3    H231742   6.555   3.385  14.112  0.1835 -1.4186 -0.5435
 3443TIP3   OH231743   2.076   4.812  10.623  0.2001 -0.2654  0.0982
 3443TIP3    H131744   2.125   4.744  10.578  0.8935 -0.5505  1.2283
 3443TIP3    H231745   1.999   4.768  10.658 -0.3779 -0.0273 -0.8471
 3444TIP3   OH231746   3.034   1.189   0.480 -0.4672 -0.1801  0.4517
 3444TIP3    H131747   3.038   1.237   0.397 -0.8381 -2.0773 -0.7402
 3444TIP3    H231748   2.995   1.251   0.542  0.4179  1.5086 -0.5996
 3445TIP3   OH231749   4.183   1.719   5.717 -0.1744 -0.8175  0.1016
 3445TIP3    H131750   4.171   1.645   5.777 -1.6760 -0.1954  0.6072
 3445TIP3    H231751   4.179   1.797   5.773  1.6161 -0.3222 -0.3952
 3446TIP3   OH231752   1.977   6.645  13.551  0.0928 -0.1032  0.4697
 3446TIP3    H131753   1.976   6.655  13.455 -1.5865  0.0407  0.4736
 3446TIP3    H231754   2.070   6.649  13.574  0.6585 -1.7390 -1.2991
 3447TIP3   OH231755   5.022   0.074   1.716 -0.4395  0.2399 -0.1814
 3447TIP3    H131756   5.101   0.020   1.714 -0.7471 -0.2008 -0.5150
 3447TIP3    H231757   4.950   0.011   1.715 -0.8238  0.5473  2.3369
 3448TIP3   OH231758   3.350   1.058  10.803 -0.3016 -0.9524  0.0674
 3448TIP3    H131759   3.402   1.062  10.723 -1.0354 -0.9846 -0.4219
 3448TIP3    H231760   3.414   1.055  10.873  0.3550 -0.8691 -0.5166
 3449TIP3   OH231761   3.325   3.986  15.310  0.1677 -0.0168 -0.2571
 3449TIP3    H131762   3.334   3.893  15.293 -0.1335  0.0043 -0.5348
 3449TIP3    H231763   3.240   4.010  15.274  0.7485  0.6033 -1.2632
 3450TIP3   OH231764   4.822   0.643  11.841 -0.2826 -0.3615  0.2574
 3450TIP3    H131765   4.783   0.681  11.920 -1.8011 -0.2283 -0.5196
 3450TIP3    H231766   4.809   0.548  11.851  2.5508 -0.7040  1.6923
 3451TIP3   OH231767   2.045   6.117  13.092  0.3779  0.6901  0.3122
 3451TIP3    H131768   1.954   6.110  13.121  0.8525  2.6215  2.6413
 3451TIP3    H231769   2.039   6.131  12.998 -1.7903  1.5869  0.5184
 3452TIP3   OH231770   5.907   4.933   4.854  0.0374 -0.3721 -0.4570
 3452TIP3    H131771   5.935   4.866   4.791  0.1621 -1.0194  0.2641
 3452TIP3    H231772   5.873   4.882   4.928 -1.6357  0.3721 -0.6597
 3453TIP3   OH231773   0.666   1.594   3.993 -0.0213  0.2582 -0.3356
 3453TIP3    H131774   0.657   1.624   4.084 -1.6285  0.7675 -0.6231
 3453TIP3    H231775   0.712   1.511   3.999  0.4609  0.5945  0.8898
 3454TIP3   OH231776   4.619   1.817   1.127  0.3049 -0.4754 -0.1342
 3454TIP3    H131777   4.626   1.911   1.110 -2.5823 -0.3918 -1.4804
 3454TIP3    H231778   4.553   1.810   1.196  2.5596 -1.4702  2.0686
 3455TIP3   OH231779   4.237   6.088   2.172  0.3032  0.5087 -0.6339
 3455TIP3    H131780   4.164   6.034   2.201  1.0642  0.1774  0.7959
 3455TIP3    H231781   4.312   6.028   2.173  1.1871  1.5588  1.0705
 3456TIP3   OH231782   0.629   6.439   1.617 -0.2889 -0.3004  0.1815
 3456TIP3    H131783   0.537   6.436   1.642  0.0622  0.5913  1.7374
 3456TIP3    H231784   0.635   6.511   1.554 -0.9337 -1.5906 -1.4260
 3457TIP3   OH231785   2.650   0.448  10.406  0.1969 -0.1125  0.1554
 3457TIP3    H131786   2.664   0.532  10.451  0.9145 -0.4060  0.4963
 3457TIP3    H231787   2.662   0.469  10.313 -1.9705  0.6408 -0.0002
 3458TIP3   OH231788   5.158   4.715   1.675 -0.1499  0.3505 -0.8982
 3458TIP3    H131789   5.241   4.706   1.628 -0.3841 -0.1695 -1.2182
 3458TIP3    H231790   5.140   4.629   1.710 -0.1917  0.6404 -0.2026
 3459TIP3   OH231791   4.785   4.132  13.195  0.0199  0.4799 -0.3114
 3459TIP3    H131792   4.857   4.071  13.204  0.7004  1.1910 -0.8058
 3459TIP3    H231793   4.706   4.078  13.201  0.5983 -0.3727 -0.3177
 3460TIP3   OH231794   6.198   3.817  10.796  0.0407  0.5712 -0.6181
 3460TIP3    H131795   6.291   3.800  10.810 -0.4004  0.5234  3.1011
 3460TIP3    H231796   6.193   3.911  10.778  0.8414  0.3964 -1.8639
 3461TIP3   OH231797   3.366   1.878   5.396 -0.1240 -0.2992  0.0808
 3461TIP3    H131798   3.378   1.824   5.474  1.0827 -0.7705 -0.4003
 3461TIP3    H231799   3.333   1.816   5.330  2.9221 -0.9709 -0.9915
 3462TIP3   OH231800   2.410   1.709   5.928 -0.0041  0.3158  0.0438
 3462TIP3    H131801   2.346   1.762   5.975  0.2182  1.7787 -1.2199
 3462TIP3    H231802   2.495   1.749   5.948  0.3025 -0.3085  0.0195
 3463TIP3   OH231803   0.353   5.042   1.474  0.0417  0.0918 -0.1288
 3463TIP3    H131804   0.435   5.042   1.424  0.3647  0.3575  0.4037
 3463TIP3    H231805   0.306   4.965   1.442  1.2103 -1.0065  0.7391
 3464TIP3   OH231806   6.299   1.340  12.652 -0.3226  0.4700  0.0923
 3464TIP3    H131807   6.213   1.311  12.684 -1.1537  0.4853 -1.9690
 3464TIP3    H231808   6.337   1.261  12.613  0.7785  0.3888  1.2600
 3465TIP3   OH231809   5.056   4.053   4.231  0.1500  0.5248 -0.1596
 3465TIP3    H131810   5.129   4.008   4.275 -0.9579 -0.3241  0.8932
 3465TIP3    H231811   4.977   4.015   4.271 -0.8733  1.5004 -1.1809
 3466TIP3   OH231812   0.379   1.942  14.434  0.0044  0.5659  0.1038
 3466TIP3    H131813   0.299   1.994  14.435  0.3815  1.1849 -0.6981
 3466TIP3    H231814   0.422   1.965  14.351  0.4378 -0.6383 -0.0226
 3467TIP3   OH231815   3.753   1.404   3.000  0.3690 -0.0287  0.3033
 3467TIP3    H131816   3.808   1.335   2.962  0.9092  1.3389 -1.5241
 3467TIP3    H231817   3.724   1.368   3.084  2.1229 -1.7277  0.2439
 3468TIP3   OH231818   0.208   0.317   5.581  0.4953 -0.2711  0.0659
 3468TIP3    H131819   0.210   0.332   5.676  0.9848  0.2803 -0.0175
 3468TIP3    H231820   0.263   0.240   5.568  2.4930  1.0536  0.0366
 3469TIP3   OH231821   1.833   0.388   3.113  0.5351  0.5612  0.3204
 3469TIP3    H131822   1.802   0.413   3.026 -0.4120  0.9009  0.7350
 3469TIP3    H231823   1.831   0.470   3.164  3.4200  0.9045  0.0451
 3470TIP3   OH231824   6.117   0.578  13.952 -0.4379 -0.5242  0.0646
 3470TIP3    H131825   6.048   0.642  13.966 -0.5890 -0.4139 -1.0620
 3470TIP3    H231826   6.169   0.614  13.879  1.3206 -0.1834  1.4130
 3471TIP3   OH231827   0.616   1.804  14.807 -0.4387 -0.1236 -0.3213
 3471TIP3    H131828   0.709   1.821  14.793 -0.0691 -2.0884 -0.5894
 3471TIP3    H231829   0.579   1.797  14.718 -0.8776  0.7012 -0.2174
 3472TIP3   OH231830   5.698   5.551  15.661 -0.5540  0.2135 -0.2232
 3472TIP3    H131831   5.603   5.553  15.671 -0.7486 -2.5043 -0.6472
 3472TIP3    H231832   5.715   5.596  15.579 -1.2811  1.9587  0.5278
 3473TIP3   OH231833   4.646   6.658   5.817 -0.2606  0.8823  0.0767
 3473TIP3    H131834   4.674   6.570   5.844 -0.0304  0.2561 -2.0599
 3473TIP3    H231835   4.657   6.711   5.896  0.6946 -0.7428  1.1087
 3474TIP3   OH231836   4.046   4.242   2.048 -0.5108  0.7657  0.5798
 3474TIP3    H131837   4.011   4.300   1.980 -0.0449  1.0188  0.5522
 3474TIP3    H231838   4.140   4.243   2.034 -0.5632 -1.0195 -0.2635
 3475TIP3   OH231839   5.110   3.702   1.781 -0.6260 -0.2547 -0.0185
 3475TIP3    H131840   5.023   3.685   1.815 -1.1593  1.3610 -0.5029
 3475TIP3    H231841   5.106   3.790   1.745  0.5030 -1.0528 -2.3267
 3476TIP3   OH231842   5.761   3.748   3.186  0.0343 -0.6696  0.1878
 3476TIP3    H131843   5.765   3.827   3.132 -0.3133 -1.9845 -1.8838
 3476TIP3    H231844   5.837   3.696   3.158  1.2620 -0.4184  2.7268
 3477TIP3   OH231845   2.851   6.107  10.313 -0.1299 -0.1938 -0.1110
 3477TIP3    H131846   2.889   6.097  10.226 -0.2157 -1.0094 -0.0580
 3477TIP3    H231847   2.908   6.055  10.370  0.0208  0.4607  0.3563
 3478TIP3   OH231848   1.207   6.447   1.183  0.0726 -0.1662 -0.0915
 3478TIP3    H131849   1.290   6.453   1.230  0.8975  2.7959 -1.6352
 3478TIP3    H231850   1.233   6.422   1.094 -0.3323  2.6463 -1.0974
 3479TIP3   OH231851   1.021   1.166   0.497  0.2672  0.1537  0.0459
 3479TIP3    H131852   1.001   1.084   0.452 -1.0279  0.1292  0.6224
 3479TIP3    H231853   1.117   1.173   0.493  0.2622 -0.3102 -1.8551
 3480TIP3   OH231854   0.503   5.002  12.483  0.2895  0.1126 -0.4020
 3480TIP3    H131855   0.470   4.916  12.509 -0.6417  1.2674  2.7364
 3480TIP3    H231856   0.598   4.994  12.486  0.2750 -0.2248  2.6296
 3481TIP3   OH231857   6.752   3.638   3.164  0.2683 -0.0447 -0.3743
 3481TIP3    H131858   6.813   3.651   3.091  0.1901  0.4611 -0.3569
 3481TIP3    H231859   6.806   3.653   3.242  0.2816 -0.2808 -0.3396
 3482TIP3   OH231860   1.697   1.372   4.131 -0.7082  0.0856  0.0496
 3482TIP3    H131861   1.764   1.346   4.194 -2.0402  0.0801  1.5019
 3482TIP3    H231862   1.652   1.290   4.108  0.7138 -0.1825 -2.1433
 3483TIP3   OH231863   2.962   2.669  13.334 -0.7369  0.7344  0.5328
 3483TIP3    H131864   2.875   2.629  13.339 -1.0745  1.0276 -1.8482
 3483TIP3    H231865   2.945   2.759  13.307  0.3286  0.1365 -2.4948
 3484TIP3   OH231866   4.261   4.491   4.538  0.5376 -0.1869  0.1777
 3484TIP3    H131867   4.241   4.524   4.625 -1.8528  0.6211 -0.5826
 3484TIP3    H231868   4.252   4.568   4.481  2.2320 -0.6513 -0.7945
 3485TIP3   OH231869   0.538   0.758  14.519 -0.5305  0.4618  0.0741
 3485TIP3    H131870   0.612   0.743  14.578  1.4118  2.9033 -1.5522
 3485TIP3    H231871   0.517   0.851  14.530 -3.0682 -0.0240  0.0751
 3486TIP3   OH231872   2.067   5.614  15.876 -0.2591  0.3962  0.7428
 3486TIP3    H131873   2.097   5.696  15.837  0.0936  0.4271  1.0698
 3486TIP3    H231874   2.022   5.568  15.805 -0.7284  1.0067  0.6344
 3487TIP3   OH231875   4.505   3.516   6.180  0.5966 -0.3429  0.2765
 3487TIP3    H131876   4.586   3.559   6.206  1.4382 -2.1676  0.8919
 3487TIP3    H231877   4.446   3.529   6.255  1.7411 -2.3658  1.6510
 3488TIP3   OH231878   0.577   0.110  12.935  0.0982  0.4790 -0.0500
 3488TIP3    H131879   0.585   0.029  12.884  0.4071 -0.2103  1.0563
 3488TIP3    H231880   0.667   0.130  12.963  0.1556  1.7096 -1.0524
 3489TIP3   OH231881   1.679   0.491   2.243 -0.1568  0.9237 -0.2990
 3489TIP3    H131882   1.591   0.526   2.260  0.3082  2.7419 -1.4378
 3489TIP3    H231883   1.669   0.441   2.162 -0.2560  0.5728 -0.0759
 3490TIP3   OH231884   1.818   2.278   3.931  0.0613  0.6643 -0.1430
 3490TIP3    H131885   1.723   2.282   3.933  0.0845  1.2034  1.3635
 3490TIP3    H231886   1.839   2.185   3.936 -0.3990  0.5797  0.3079
 3491TIP3   OH231887   4.780   1.755   3.821  0.0126 -0.1065  0.0798
 3491TIP3    H131888   4.820   1.839   3.800 -3.5224  1.2770 -2.1386
 3491TIP3    H231889   4.825   1.692   3.765  0.6493  0.9314 -0.6170
 3492TIP3   OH231890   0.463   3.412   3.235 -0.4774  0.6778  0.4846
 3492TIP3    H131891   0.463   3.365   3.152  0.4516  1.1576  0.2016
 3492TIP3    H231892   0.464   3.344   3.302 -1.6276  0.2776  0.1284
 3493TIP3   OH231893   1.644   3.466   1.365 -0.0450  0.3550 -0.1315
 3493TIP3    H131894   1.581   3.487   1.434  0.3023 -2.6488  1.2848
 3493TIP3    H231895   1.720   3.520   1.385 -0.7784  1.2185  0.4227
 3494TIP3   OH231896   4.699   6.177   2.988 -0.2700 -0.1758  0.2017
 3494TIP3    H131897   4.707   6.149   3.079  2.0078 -1.4048 -0.2860
 3494TIP3    H231898   4.618   6.135   2.957 -0.3217 -0.8997  1.2692
 3495TIP3   OH231899   2.855   1.018  11.863  0.2171 -0.3292  0.7681
 3495TIP3    H131900   2.876   1.110  11.850  1.0463 -0.5035  0.7784
 3495TIP3    H231901   2.814   0.991  11.781 -0.1621  0.0808  0.8192
 3496TIP3   OH231902   2.781   4.382  16.843  0.2781  0.7180 -0.1152
 3496TIP3    H131903   2.720   4.400  16.915 -1.0579  0.5192 -1.1617
 3496TIP3    H231904   2.748   4.433  16.770  1.0243  0.1263 -0.8838
 3497TIP3   OH231905   3.564   1.139  13.481  0.2484  0.6173  1.0550
 3497TIP3    H131906   3.484   1.127  13.430  0.8847 -1.4236  0.4223
 3497TIP3    H231907   3.620   1.193  13.426 -0.0485  0.6248  0.7596
 3498TIP3   OH231908   2.726   1.586  17.137  0.1933  0.3774 -0.0010
 3498TIP3    H131909   2.706   1.511  17.193  2.1469  0.0199  0.2725
 3498TIP3    H231910   2.755   1.654  17.199 -1.7936  1.4892 -0.2161
 3499TIP3   OH231911   1.643   4.954  15.936  0.0938  0.1200 -0.1202
 3499TIP3    H131912   1.710   5.019  15.958 -0.0231 -0.2390  1.4419
 3499TIP3    H231913   1.599   4.936  16.019 -1.9874  0.3699 -1.0996
 3500TIP3   OH231914   0.316   2.960   6.016 -0.1844 -0.7588 -0.7192
 3500TIP3    H131915   0.336   2.907   6.093  1.3038 -1.0224 -1.2665
 3500TIP3    H231916   0.311   3.050   6.049  0.5117 -0.8635 -0.3248
 3501TIP3   OH231917   4.950   5.435   0.071  0.7511  0.2998 -0.5969
 3501TIP3    H131918   4.972   5.523   0.040  1.9831 -0.2404 -1.2909
 3501TIP3    H231919   4.972   5.377  -0.002 -1.3067 -0.4845 -0.6660
 3502TIP3   OH231920   1.609   2.457  17.007 -0.0534 -0.2398 -0.6293
 3502TIP3    H131921   1.529   2.405  17.014  0.2728 -0.8119 -1.0905
 3502TIP3    H231922   1.673   2.409  17.060 -0.3805  0.9822  0.9595
 3503TIP3   OH231923   4.129   1.536   1.947 -0.0312  0.8326  0.1949
 3503TIP3    H131924   4.105   1.593   2.019 -0.2336 -0.2782  1.0356
 3503TIP3    H231925   4.094   1.579   1.869 -2.9886  0.3509  1.1251
 3504TIP3   OH231926   4.356   5.558  12.828  0.2898 -0.1781 -0.1677
 3504TIP3    H131927   4.451   5.547  12.841  0.2024 -0.0902  0.6113
 3504TIP3    H231928   4.344   5.653  12.823  0.0488 -0.0918  1.4819
 3505TIP3   OH231929   4.344   0.813   1.738 -0.1570 -0.1034 -0.1134
 3505TIP3    H131930   4.312   0.723   1.745  0.2522 -0.1327  1.7701
 3505TIP3    H231931   4.264   0.866   1.732 -0.4516 -0.4862  0.3406
 3506TIP3   OH231932   3.368   2.147  11.561 -0.0159 -0.4788 -0.5673
 3506TIP3    H131933   3.415   2.203  11.623  0.4493 -1.5702  0.0856
 3506TIP3    H231934   3.435   2.114  11.502 -0.4004  0.2359 -1.4359
 3507TIP3   OH231935   3.119   6.179   5.087  0.2147  0.0030 -0.3387
 3507TIP3    H131936   3.025   6.164   5.095  0.5359 -2.2404  0.0388
 3507TIP3    H231937   3.140   6.153   4.997  0.7530 -1.6370  0.2186
 3508TIP3   OH231938   0.582   3.476  12.665  0.6172 -0.3757 -0.6283
 3508TIP3    H131939   0.676   3.483  12.649  0.4829  0.7920 -0.9486
 3508TIP3    H231940   0.571   3.389  12.704  2.0856  0.2406  1.2961
 3509TIP3   OH231941   2.833   0.692   3.733 -0.0625  0.3752 -0.7275
 3509TIP3    H131942   2.822   0.598   3.720  0.0537  0.4421 -1.3755
 3509TIP3    H231943   2.908   0.700   3.791 -0.9449  0.0331  0.4904
 3510TIP3   OH231944   1.508   5.835  11.844 -0.7289 -0.2029 -0.4286
 3510TIP3    H131945   1.576   5.826  11.778 -0.2335 -0.5093  0.1098
 3510TIP3    H231946   1.474   5.747  11.855  0.2588 -0.4631  0.8175
 3511TIP3   OH231947   5.297   0.777   3.594 -0.3896  0.0386 -0.3176
 3511TIP3    H131948   5.202   0.769   3.588 -0.5832  2.0092 -0.4934
 3511TIP3    H231949   5.330   0.733   3.516 -1.2531  0.5337 -0.9735
 3512TIP3   OH231950   4.108   2.177  14.767 -0.4495  0.5168  0.6380
 3512TIP3    H131951   4.194   2.218  14.754 -0.5341  0.2832 -0.9140
 3512TIP3    H231952   4.050   2.249  14.790 -0.4194  1.2080 -1.2403
 3513TIP3   OH231953   5.197   3.509  14.956  0.4379  0.9501  0.1322
 3513TIP3    H131954   5.219   3.441  14.893  1.2662  0.2705  1.1170
 3513TIP3    H231955   5.109   3.538  14.930 -0.5860 -1.5286  0.5254
 3514TIP3   OH231956   4.919   4.195  12.031 -0.0353 -0.6040  0.0539
 3514TIP3    H131957   4.927   4.251  11.954 -1.1255 -1.6196 -0.8341
 3514TIP3    H231958   5.007   4.193  12.069  0.4441  0.1502 -0.9953
 3515TIP3   OH231959   3.576   1.122   4.114 -0.2522  0.2938  0.3711
 3515TIP3    H131960   3.523   1.103   4.037 -1.1672  0.1485  1.0251
 3515TIP3    H231961   3.513   1.137   4.184  0.5617 -0.3924  1.2861
 3516TIP3   OH231962   6.331   6.600  14.311  0.0371  0.0809  0.5716
 3516TIP3    H131963   6.403   6.653  14.274 -0.2172 -0.5708 -0.9351
 3516TIP3    H231964   6.261   6.663  14.326 -0.7265  0.1070 -2.4147
 3517TIP3   OH231965   3.361   0.186  16.651  0.2555 -0.2629 -0.0779
 3517TIP3    H131966   3.311   0.108  16.676  0.7021 -0.7342 -0.6316
 3517TIP3    H231967   3.411   0.159  16.574 -0.2916  0.8477 -0.8467
 3518TIP3   OH231968   2.539   6.308  14.992  0.8322  0.3521 -0.8147
 3518TIP3    H131969   2.550   6.255  15.071  0.6088  1.1230 -0.2608
 3518TIP3    H231970   2.450   6.342  14.998  1.5638  2.3110 -0.1999
 3519TIP3   OH231971   6.168   1.496  15.994 -0.1877  0.2321  0.0616
 3519TIP3    H131972   6.120   1.458  16.067  0.6055 -1.9576 -0.4608
 3519TIP3    H231973   6.183   1.422  15.935  2.0622  1.2181 -0.7161
 3520TIP3   OH231974   0.102   6.703   4.136 -0.1418  0.3595 -0.0302
 3520TIP3    H131975   0.058   6.742   4.061 -0.6883  1.0570  0.6309
 3520TIP3    H231976   0.033   6.650   4.178  0.2259 -0.2274 -0.1555
 3521TIP3   OH231977   3.131   1.684   1.794 -0.2483  0.0487  0.0262
 3521TIP3    H131978   3.047   1.716   1.827 -0.6144 -1.7382  0.9585
 3521TIP3    H231979   3.116   1.592   1.773  1.2716 -0.1065 -0.5344
 3522TIP3   OH231980   0.670   2.213   1.048 -0.0724 -0.2361  0.1442
 3522TIP3    H131981   0.617   2.156   1.103 -1.3235 -1.0412 -1.8022
 3522TIP3    H231982   0.638   2.301   1.066 -0.1137 -0.4291  1.0539
 3523TIP3   OH231983   4.888   1.374   4.680 -0.0504  0.1231  0.3648
 3523TIP3    H131984   4.926   1.412   4.760  0.6576 -1.2583  0.7216
 3523TIP3    H231985   4.796   1.362   4.701  0.0468  0.1612  0.8312
 3524TIP3   OH231986   5.655   3.409  13.896  0.5386 -0.6840 -0.2609
 3524TIP3    H131987   5.570   3.449  13.915  1.1762  0.5391  0.1699
 3524TIP3    H231988   5.640   3.355  13.819  0.0298  2.0375 -2.2448
 3525TIP3   OH231989   6.222   1.445   6.406  0.7330  0.2509 -0.6253
 3525TIP3    H131990   6.136   1.433   6.365 -0.2748 -0.1090  1.4723
 3525TIP3    H231991   6.274   1.371   6.375  0.1811  0.2773 -1.6486
 3526TIP3   OH231992   5.306   1.028   1.954  0.3480 -0.8755  0.3543
 3526TIP3    H131993   5.248   0.969   1.906 -2.3958 -0.0953  2.4394
 3526TIP3    H231994   5.370   0.970   1.996 -0.8019 -2.1435  0.4322
 3527TIP3   OH231995   2.900   4.824   1.853  0.0033  0.4154  0.3934
 3527TIP3    H131996   2.881   4.738   1.888 -1.3517  0.5837  0.1291
 3527TIP3    H231997   2.849   4.829   1.771 -0.7999  1.8346  0.9344
 3528TIP3   OH231998   6.045   2.940   1.274 -0.1411  0.1295 -0.1741
 3528TIP3    H131999   6.088   3.019   1.240  1.1475 -0.7167 -0.5922
 3528TIP3    H232000   6.003   2.968   1.355  0.1344  1.2870 -0.4163
 3529TIP3   OH232001   5.690   4.106  15.860  0.3048  1.2845 -0.3616
 3529TIP3    H132002   5.614   4.162  15.842  0.2362  0.9116 -1.2798
 3529TIP3    H232003   5.681   4.084  15.953 -0.5929  1.4284 -0.4038
 3530TIP3   OH232004   1.410   6.445   4.276  0.4244 -0.0422  0.2840
 3530TIP3    H132005   1.491   6.416   4.233  0.4195  0.0579  0.2066
 3530TIP3    H232006   1.350   6.462   4.203  0.5166  0.4360  0.3167
 3531TIP3   OH232007   3.030   5.057   0.515 -0.0501  0.3299  0.5483
 3531TIP3    H132008   3.085   5.030   0.442 -2.0650  0.8095 -1.2665
 3531TIP3    H232009   2.994   4.975   0.550 -0.0537  0.1574  0.1505
 3532TIP3   OH232010   1.146   2.110   4.913 -0.8179 -0.3538  0.2257
 3532TIP3    H132011   1.125   2.198   4.883 -2.0756 -1.0170 -0.9494
 3532TIP3    H232012   1.234   2.116   4.948 -0.9863  1.4220  0.3952
 3533TIP3   OH232013   5.437   1.177  14.568 -0.3028  0.2879  0.3004
 3533TIP3    H132014   5.462   1.121  14.642 -0.0929  1.6150  1.2667
 3533TIP3    H232015   5.513   1.175  14.510  0.2747  0.6981  1.0261
 3534TIP3   OH232016   5.474   1.412   2.159  0.0588  0.5334 -0.2565
 3534TIP3    H132017   5.492   1.424   2.066  0.2513 -0.8894 -0.4130
 3534TIP3    H232018   5.380   1.399   2.164  0.2058 -0.6575 -0.4063
 3535TIP3   OH232019   4.031   3.250   6.095 -0.1428 -0.6150  0.9406
 3535TIP3    H132020   4.082   3.183   6.049  1.8175  1.4579 -0.1239
 3535TIP3    H232021   4.083   3.271   6.172 -0.0558  0.5890  0.5638
 3536TIP3   OH232022   1.415   6.202   3.619 -0.3426 -0.1504 -0.2994
 3536TIP3    H132023   1.410   6.117   3.574 -0.9434 -0.9739  1.2786
 3536TIP3    H232024   1.356   6.258   3.569 -2.6890 -1.6383  0.6617
 3537TIP3   OH232025   2.988   3.205  15.160 -0.2226 -0.3467 -0.2155
 3537TIP3    H132026   3.001   3.297  15.183 -0.4442 -0.7944  1.9141
 3537TIP3    H232027   3.026   3.197  15.073  1.6946  1.3207  0.3731
 3538TIP3   OH232028   4.130   1.947  11.704  0.9934 -0.0650 -0.5270
 3538TIP3    H132029   4.109   1.913  11.617 -0.3987  0.7085 -0.5116
 3538TIP3    H232030   4.225   1.937  11.710  1.2216  0.5482 -2.4305
 3539TIP3   OH232031   1.303   5.006  16.515  0.5966 -0.0359  0.2727
 3539TIP3    H132032   1.295   5.102  16.517 -0.0717 -0.0807 -0.0240
 3539TIP3    H232033   1.223   4.975  16.558 -0.7327 -0.5062 -2.3844
 3540TIP3   OH232034   0.323   2.277  15.128 -0.1581  0.1790 -0.1765
 3540TIP3    H132035   0.235   2.300  15.157 -0.3393 -1.2514  0.4989
 3540TIP3    H232036   0.379   2.347  15.162 -0.7283 -0.1023  1.4166
 3541TIP3   OH232037   2.641   3.607   2.848  0.0612 -0.1856 -0.2341
 3541TIP3    H132038   2.687   3.674   2.798  0.2471  0.1419  0.3631
 3541TIP3    H232039   2.695   3.595   2.926  0.3812 -1.5013 -0.6318
 3542TIP3   OH232040   4.393   5.301   0.553  0.2421  0.4921  0.1535
 3542TIP3    H132041   4.346   5.314   0.470  3.4846  1.8440 -1.6935
 3542TIP3    H232042   4.465   5.241   0.530  0.6693  0.1332  2.2600
 3543TIP3   OH232043   0.925   4.729   0.270 -0.6572  0.3078 -0.0281
 3543TIP3    H132044   1.009   4.684   0.262 -0.7088  0.1274  0.4052
 3543TIP3    H232045   0.933   4.806   0.214  0.0139  0.6144  0.4852
 3544TIP3   OH232046   0.138   6.657   2.969  0.3519  0.2584 -0.0713
 3544TIP3    H132047   0.071   6.723   2.950 -0.8559 -0.4287  1.5351
 3544TIP3    H232048   0.143   6.605   2.888 -1.1046  0.3216 -0.2302
 3545TIP3   OH232049   2.554   1.404  16.087 -0.4733  0.6605 -0.1374
 3545TIP3    H132050   2.647   1.427  16.082 -0.7596  1.6634 -0.9103
 3545TIP3    H232051   2.513   1.478  16.133 -0.8391  0.0429  0.5572
 3546TIP3   OH232052   6.028   1.316  16.972  0.2273 -0.6789  0.0452
 3546TIP3    H132053   6.083   1.244  17.001 -1.3501 -1.3284  1.5213
 3546TIP3    H232054   6.090   1.386  16.951  1.6781 -1.8469  0.2998
 3547TIP3   OH232055   0.600   6.762   5.721  0.0529  0.0946 -1.0348
 3547TIP3    H132056   0.592   6.764   5.817  0.2349 -2.4633 -0.8986
 3547TIP3    H232057   0.512   6.785   5.690  0.1672  1.6523 -0.3222
 3548TIP3   OH232058   6.399   2.800   4.340 -0.0863 -0.5747 -0.1992
 3548TIP3    H132059   6.495   2.801   4.337 -0.1026  0.6099 -0.6882
 3548TIP3    H232060   6.377   2.856   4.415 -0.4245  1.2100 -1.5792
 3549TIP3   OH232061   4.518   3.305   6.579  0.0796 -1.2079  0.3959
 3549TIP3    H132062   4.545   3.271   6.494  0.1822  0.7702 -0.4059
 3549TIP3    H232063   4.598   3.309   6.630  0.5315  0.1630 -0.3719
 3550TIP3   OH232064   4.948   6.582  15.397  0.0986 -0.1821  0.5726
 3550TIP3    H132065   4.918   6.516  15.335  1.7307 -0.7787  0.3828
 3550TIP3    H232066   4.982   6.653  15.342 -1.4567  0.7811  0.7769
 3551TIP3   OH232067   1.963   3.665  16.402  0.4135 -0.5138  0.0508
 3551TIP3    H132068   1.951   3.715  16.321  1.1597  0.8883  0.7649
 3551TIP3    H232069   1.874   3.647  16.432  0.1209 -0.0708 -0.5135
 3552TIP3   OH232070   2.953   5.838   2.117 -0.2083  0.3043  0.7650
 3552TIP3    H132071   2.865   5.803   2.102 -0.2747  0.5320  0.6195
 3552TIP3    H232072   2.971   5.819   2.209  0.0518 -0.7752  0.5123
 3553TIP3   OH232073   2.880   1.926  14.842  0.5536 -0.0847  0.0867
 3553TIP3    H132074   2.937   1.969  14.778  2.7747 -0.3005  1.8167
 3553TIP3    H232075   2.927   1.846  14.866 -1.9070 -1.8538 -0.5761
 3554TIP3   OH232076   2.450   3.605   4.037 -0.7752  0.4945 -0.2193
 3554TIP3    H132077   2.480   3.627   4.126  1.3271  0.0064 -0.7487
 3554TIP3    H232078   2.385   3.536   4.050 -0.9668  0.8817  0.9831
 3555TIP3   OH232079   0.218   1.700  15.178  0.3378  0.3300 -0.2307
 3555TIP3    H132080   0.252   1.773  15.128 -0.3540 -0.0324 -1.2547
 3555TIP3    H232081   0.272   1.625  15.152  0.1750  0.1998 -0.1961
 3556TIP3   OH232082   5.771   5.266  16.807  0.4287 -0.3046 -0.4866
 3556TIP3    H132083   5.862   5.280  16.779  0.8325  1.2970  1.3787
 3556TIP3    H232084   5.774   5.185  16.859  1.1413  0.4924  0.7725
 3557TIP3   OH232085   0.405   4.667   3.480 -0.2084  0.1041  0.2719
 3557TIP3    H132086   0.428   4.757   3.460 -0.3014 -0.0530 -0.5588
 3557TIP3    H232087   0.327   4.650   3.428  0.4558 -0.8047 -0.4559
 3558TIP3   OH232088   2.753   0.930  12.512 -0.3839  0.2328  0.2638
 3558TIP3    H132089   2.742   0.845  12.555 -1.4343  0.5281  0.6111
 3558TIP3    H232090   2.672   0.942  12.462 -0.3419  1.1282  0.4000
 3559TIP3   OH232091   1.562   0.920   2.513 -0.4067  0.7322 -0.5279
 3559TIP3    H132092   1.601   0.836   2.488  0.7768  0.6330  1.4342
 3559TIP3    H232093   1.629   0.985   2.491  0.4524  0.6881  1.7121
 3560TIP3   OH232094   3.934   4.206  12.788 -0.3697  0.0434 -0.1172
 3560TIP3    H132095   3.907   4.124  12.828  0.4007 -0.0399  0.2540
 3560TIP3    H232096   4.024   4.219  12.818 -0.2193  0.6374 -0.7830
 3561TIP3   OH232097   5.955   2.036  16.646 -0.0320  0.1205  0.4397
 3561TIP3    H132098   5.961   1.975  16.719 -1.4519  0.2617  0.6949
 3561TIP3    H232099   6.046   2.058  16.626  0.3939 -0.1799  1.9348
 3562TIP3   OH232100   1.236   0.796  12.265 -1.0105  0.2761  0.2618
 3562TIP3    H132101   1.144   0.784  12.240 -0.9846  0.8668 -0.1445
 3562TIP3    H232102   1.264   0.710  12.295 -2.0619  0.3833  1.6392
 3563TIP3   OH232103   2.681   6.455  12.881 -0.9277 -0.3794  0.2695
 3563TIP3    H132104   2.683   6.383  12.819 -1.8502 -0.9662  0.8898
 3563TIP3    H232105   2.754   6.438  12.940 -0.3485 -0.0871 -0.3556
 3564TIP3   OH232106   2.823   1.424  15.320 -0.6446  0.3188 -0.1584
 3564TIP3    H132107   2.749   1.457  15.371  0.9486  2.2687  1.0426
 3564TIP3    H232108   2.802   1.447  15.230 -1.8768  0.0601  0.0469
 3565TIP3   OH232109   2.165   3.109   2.235  0.1927 -0.8555  0.0369
 3565TIP3    H132110   2.070   3.118   2.242  0.3085  1.1437 -0.5165
 3565TIP3    H232111   2.186   3.144   2.148  1.7274  1.8894  1.3838
 3566TIP3   OH232112   0.737   0.195  15.324  0.6900 -0.2528 -0.3855
 3566TIP3    H132113   0.711   0.246  15.401  1.6377 -1.7068  0.9459
 3566TIP3    H232114   0.809   0.246  15.286  0.7474  0.0708  0.1437
 3567TIP3   OH232115   0.025   1.984   2.751  0.4180  0.7339 -0.1054
 3567TIP3    H132116   0.093   1.971   2.817  1.4138  1.4604 -0.9456
 3567TIP3    H232117  -0.041   2.038   2.795 -0.9311 -2.0637  1.5305
 3568TIP3   OH232118   2.833   3.274  15.736  0.1020 -0.4685  0.2007
 3568TIP3    H132119   2.871   3.313  15.656 -0.9727 -1.5154 -0.8584
 3568TIP3    H232120   2.828   3.347  15.798 -0.1132  0.6523 -1.0865
 3569TIP3   OH232121   0.996   3.193  13.266 -0.3749 -0.2297 -0.0355
 3569TIP3    H132122   0.931   3.254  13.232 -0.1611  0.6684  1.0975
 3569TIP3    H232123   1.059   3.248  13.312 -0.4646 -1.3183  1.4856
 3570TIP3   OH232124   6.204   0.409   0.871  0.3644  0.1728  0.2083
 3570TIP3    H132125   6.136   0.383   0.933  1.6533  0.3653  1.7734
 3570TIP3    H232126   6.255   0.329   0.854  0.4452  0.2747 -0.0439
 3571TIP3   OH232127   6.336   1.509   2.369 -0.3163  0.5940  0.0859
 3571TIP3    H132128   6.414   1.519   2.424 -1.8219  2.6357  2.0328
 3571TIP3    H232129   6.263   1.513   2.431 -2.2261  4.6276 -2.0319
 3572TIP3   OH232130   2.888   4.465   0.790  0.0424  0.2271  0.2468
 3572TIP3    H132131   2.795   4.484   0.802 -0.0572 -0.2386  0.2365
 3572TIP3    H232132   2.924   4.463   0.879 -0.2066 -0.7992  0.3391
 3573TIP3   OH232133   4.209   0.687   2.445 -0.1615  0.2907 -0.3031
 3573TIP3    H132134   4.246   0.726   2.524  0.2563  1.0265 -0.8569
 3573TIP3    H232135   4.169   0.606   2.476 -0.5539  0.8679  0.7736
 3574TIP3   OH232136   2.321   5.728   4.861  0.2323 -0.1035 -0.2211
 3574TIP3    H132137   2.242   5.779   4.877  0.3853  0.1994 -0.4332
 3574TIP3    H232138   2.289   5.639   4.842 -0.1797  0.4470 -2.3352
 3575TIP3   OH232139   2.857   5.969   3.027 -0.0750  0.4938 -0.3656
 3575TIP3    H132140   2.849   5.897   2.965 -0.6308  0.3189 -0.0982
 3575TIP3    H232141   2.934   5.948   3.079  0.0350  0.3292 -0.5939
 3576TIP3   OH232142   6.048   2.023   4.667  0.3507 -0.5481 -0.2564
 3576TIP3    H132143   6.090   2.108   4.653 -2.1641  0.5975 -1.4820
 3576TIP3    H232144   6.002   2.032   4.750  2.6250 -1.9229  1.2669
 3577TIP3   OH232145   1.108   0.712   3.179  0.1081  0.1025  0.2328
 3577TIP3    H132146   1.031   0.696   3.126  1.9186 -0.7863 -2.3115
 3577TIP3    H232147   1.133   0.802   3.161  0.7821 -0.2301 -0.5608
 3578TIP3   OH232148   1.999   6.246   1.139 -0.3068 -0.3987 -0.2048
 3578TIP3    H132149   2.039   6.217   1.057 -0.2029 -1.1803  0.1122
 3578TIP3    H232150   2.011   6.172   1.199  1.6677  1.0149  1.2419
 3579TIP3   OH232151   5.505   1.569  15.692  0.0884 -0.1096  0.2875
 3579TIP3    H132152   5.570   1.545  15.758  1.1519  2.4554  0.2785
 3579TIP3    H232153   5.556   1.587  15.613 -0.7476  0.7255 -0.0774
 3580TIP3   OH232154   6.329   3.558  11.756  0.0298  0.3638 -0.8642
 3580TIP3    H132155   6.318   3.464  11.744  1.3519 -0.0093  0.5309
 3580TIP3    H232156   6.257   3.598  11.707 -0.1686 -1.3375 -2.0154
 3581TIP3   OH232157   6.246   5.166   4.693  0.6469  0.4651 -0.0579
 3581TIP3    H132158   6.170   5.172   4.636  0.4902  0.9058  0.1884
 3581TIP3    H232159   6.224   5.098   4.757  0.2355  0.9603  0.3360
 3582TIP3   OH232160   0.026   0.267  15.055 -0.2716  0.2184  0.0379
 3582TIP3    H132161   0.043   0.361  15.061 -1.8338  0.4716  1.1996
 3582TIP3    H232162  -0.068   0.261  15.035 -0.0622 -1.1002 -0.6788
 3583TIP3   OH232163   4.647   6.354   3.475  0.5077 -0.5602 -0.0803
 3583TIP3    H132164   4.621   6.295   3.545  0.7915 -0.0719  0.4471
 3583TIP3    H232165   4.725   6.398   3.508 -1.5882  2.6686  1.0748
 3584TIP3   OH232166   0.168   2.486  13.241 -0.0141 -0.4509  0.4066
 3584TIP3    H132167   0.177   2.569  13.196 -0.8457  0.0025  1.0407
 3584TIP3    H232168   0.217   2.424  13.188 -0.9671  0.0565 -1.1339
 3585TIP3   OH232169   3.098   4.863   5.992 -0.2478 -0.3004 -0.3540
 3585TIP3    H132170   3.137   4.778   6.011 -0.8113 -0.2794  1.0129
 3585TIP3    H232171   3.171   4.925   5.999 -0.0818 -0.5231 -0.1196
 3586TIP3   OH232172   5.559   5.693  11.850 -0.5752  0.2074 -0.0937
 3586TIP3    H132173   5.608   5.629  11.798 -1.8363 -1.5133  0.7065
 3586TIP3    H232174   5.485   5.718  11.794 -1.3295 -0.8140  0.4045
 3587TIP3   OH232175   6.341   3.769   0.346 -0.4047 -0.1575  0.3352
 3587TIP3    H132176   6.295   3.824   0.283  0.7589  0.8092  0.2927
 3587TIP3    H232177   6.289   3.774   0.426 -1.2799 -0.4721 -0.2044
 3588TIP3   OH232178   2.498   6.098  16.293 -0.1893 -0.0319  0.0728
 3588TIP3    H132179   2.591   6.109  16.312  0.1119 -0.2236 -1.1435
 3588TIP3    H232180   2.495   6.088  16.197 -1.3662 -0.9310  0.1789
 3589TIP3   OH232181   1.047   5.482  12.244 -0.4770  0.5074  0.4669
 3589TIP3    H132182   1.061   5.556  12.185 -0.2491 -1.4764 -2.1768
 3589TIP3    H232183   1.134   5.464  12.280 -0.2638  0.7109  0.0651
 3590TIP3   OH232184   4.551   0.479  15.088 -0.3469  0.4270 -0.1143
 3590TIP3    H132185   4.573   0.386  15.093  1.5772  0.7321 -1.7331
 3590TIP3    H232186   4.536   0.495  14.995 -1.3993  1.6261  0.2277
 3591TIP3   OH232187   0.523   0.516   4.927  0.1551 -0.7636 -0.2753
 3591TIP3    H132188   0.500   0.570   5.002  0.5900 -0.4417 -0.3698
 3591TIP3    H232189   0.588   0.567   4.879 -0.5793 -0.6755 -1.2164
 3592TIP3   OH232190   6.454   6.580   4.639  0.0471  0.3918  0.2429
 3592TIP3    H132191   6.479   6.654   4.584 -1.5144 -0.3054 -1.5002
 3592TIP3    H232192   6.456   6.504   4.581  1.3233 -0.9324  1.9141
 3593TIP3   OH232193   0.982   2.340  16.863 -0.5184 -0.1557 -0.8793
 3593TIP3    H132194   1.057   2.396  16.885  0.4131 -1.2442 -1.2298
 3593TIP3    H232195   0.909   2.380  16.911  0.2572  0.9608 -0.5725
 3594TIP3   OH232196   2.120   1.672  13.106 -0.6580 -0.1676  0.0973
 3594TIP3    H132197   2.201   1.632  13.136  0.6691  1.1686 -1.5495
 3594TIP3    H232198   2.085   1.609  13.042 -0.2127 -0.1234 -0.1898
 3595TIP3   OH232199   2.929   4.018  15.927 -0.8928  0.0708 -0.4440
 3595TIP3    H132200   2.980   4.077  15.872  1.1783  0.3377  1.6002
 3595TIP3    H232201   2.964   3.931  15.907 -0.2986  0.1430  0.2665
 3596TIP3   OH232202   2.884   3.617  10.721 -0.4326 -0.5870  0.1147
 3596TIP3    H132203   2.828   3.562  10.666  1.8052  0.4712 -3.5297
 3596TIP3    H232204   2.846   3.705  10.715  1.1636  0.0576 -2.0660
 3597TIP3   OH232205   4.530   0.516  14.339  0.3690  0.1993 -0.0776
 3597TIP3    H132206   4.497   0.426  14.336 -0.5434  0.5151  0.1518
 3597TIP3    H232207   4.496   0.557  14.260  1.6085  0.0805 -0.6920
 3598TIP3   OH232208   4.004   6.613  12.526  0.0248 -0.0483 -0.8473
 3598TIP3    H132209   4.037   6.703  12.526 -0.8965  0.3269 -2.5489
 3598TIP3    H232210   4.005   6.586  12.434  1.6233 -2.3290 -0.2511
 3599TIP3   OH232211   5.689   5.218  10.612 -0.2413 -1.0834 -0.0824
 3599TIP3    H132212   5.606   5.178  10.585 -0.8779 -1.4738  2.2660
 3599TIP3    H232213   5.664   5.305  10.645  0.1040 -1.5951  1.5968
 3600TIP3   OH232214   1.958   4.961   0.313 -0.1438  0.7053  0.6582
 3600TIP3    H132215   1.971   5.053   0.336  1.3639  0.1610  2.1169
 3600TIP3    H232216   1.912   4.964   0.229 -1.8622  2.7739  1.5720
 3601TIP3   OH232217   5.124   0.417   2.338 -0.4662  0.0559  0.3158
 3601TIP3    H132218   5.212   0.453   2.347 -0.3998 -0.0939  0.2677
 3601TIP3    H232219   5.130   0.329   2.376 -0.4086 -0.2372 -0.3563
 3602TIP3   OH232220   2.204   0.828  16.282  0.0699 -0.0975  0.1314
 3602TIP3    H132221   2.112   0.831  16.258 -0.2900 -2.3018  1.0113
 3602TIP3    H232222   2.251   0.829  16.199 -0.7899 -0.1519 -0.3643
 3603TIP3   OH232223   6.098   3.660  11.635 -0.1025  0.0665  0.1592
 3603TIP3    H132224   6.004   3.647  11.641 -0.2792  1.5842  1.4494
 3603TIP3    H232225   6.111   3.706  11.552 -0.8418  2.1475  1.1407
 3604TIP3   OH232226   1.641   6.783  16.253  0.0486  0.4540 -0.1111
 3604TIP3    H132227   1.698   6.734  16.193 -0.4754 -0.2274 -0.0688
 3604TIP3    H232228   1.606   6.716  16.312  1.4291  1.2323  1.6992
 3605TIP3   OH232229   2.919   3.214  13.262 -0.1001  0.0975  0.8728
 3605TIP3    H132230   2.837   3.220  13.310 -0.5366 -0.7553  0.2579
 3605TIP3    H232231   2.912   3.134  13.210  0.9604  0.2101  0.5114
 3606TIP3   OH232232   1.496   5.162  11.756  0.6863  0.0130  0.0195
 3606TIP3    H132233   1.573   5.108  11.739 -0.3884 -1.3559 -0.6990
 3606TIP3    H232234   1.441   5.152  11.678 -1.0785 -0.5860  1.2714
 3607TIP3   OH232235   4.046   5.670   3.374  0.4664  0.0397  0.1359
 3607TIP3    H132236   3.990   5.596   3.351  0.7743  0.6422 -2.9144
 3607TIP3    H232237   4.042   5.674   3.470 -2.0815 -1.9203  0.2129
 3608TIP3   OH232238   1.419   4.062  13.659 -0.4585  0.2948  0.3966
 3608TIP3    H132239   1.410   3.968  13.646  0.1180  0.3099 -0.1021
 3608TIP3    H232240   1.495   4.071  13.716 -0.5493  0.4572  0.4920
 3609TIP3   OH232241   2.862   1.923  11.476 -0.9158 -0.2584 -0.7758
 3609TIP3    H132242   2.929   1.969  11.426 -1.1330 -0.2148 -1.0280
 3609TIP3    H232243   2.790   1.985  11.484 -2.0402 -1.1614 -2.8281
 3610TIP3   OH232244   1.222   5.720  17.110  0.1987 -0.3760  0.5468
 3610TIP3    H132245   1.150   5.661  17.133  0.2742 -0.6710  0.0364
 3610TIP3    H232246   1.210   5.796  17.167 -0.6690 -0.3122  0.2870
 3611TIP3   OH232247   6.028   6.511   4.211  0.1818 -0.0724 -1.1450
 3611TIP3    H132248   5.964   6.581   4.221 -0.7777 -1.0635 -0.1427
 3611TIP3    H232249   6.094   6.530   4.278  0.8282  0.7991 -2.0016
 3612TIP3   OH232250   2.069   1.709   5.389  0.0116  0.2253 -0.4076
 3612TIP3    H132251   2.147   1.689   5.337  0.2998 -1.8817  0.7334
 3612TIP3    H232252   2.063   1.637   5.451 -3.3276 -0.1307 -0.9798
 3613TIP3   OH232253   0.155   3.466   0.932 -0.9140 -0.0718 -0.4474
 3613TIP3    H132254   0.147   3.448   1.025 -0.9657  1.1117 -0.2019
 3613TIP3    H232255   0.119   3.554   0.922 -1.4087 -0.3922 -1.6728
 3614TIP3   OH232256   4.683   5.155  15.580 -0.0120  0.0392  0.5046
 3614TIP3    H132257   4.589   5.163  15.596 -0.2329 -1.0680 -0.1087
 3614TIP3    H232258   4.714   5.245  15.572 -0.7488  0.4701  2.1176
 3615TIP3   OH232259   3.153   6.240   0.135  0.3896 -0.3515 -0.3261
 3615TIP3    H132260   3.117   6.193   0.059  1.7082 -1.6217 -0.2051
 3615TIP3    H232261   3.078   6.252   0.193 -0.5157  0.0734 -1.5374
 3616TIP3   OH232262   1.358   0.332  12.497  0.3410 -0.1852  0.3102
 3616TIP3    H132263   1.283   0.379  12.535 -0.3771 -0.0083 -1.2561
 3616TIP3    H232264   1.375   0.377  12.415  1.7786 -0.6293  0.3478
 3617TIP3   OH232265   2.072   4.875  12.718 -0.0353  0.3134  0.0564
 3617TIP3    H132266   2.001   4.833  12.669  0.2821  1.1840 -1.2190
 3617TIP3    H232267   2.030   4.950  12.759 -0.4187 -0.7220  1.6200
 3618TIP3   OH232268   5.645   2.252  14.087 -0.5169 -0.4740  0.0015
 3618TIP3    H132269   5.616   2.330  14.134  2.9700  0.5659  0.7270
 3618TIP3    H232270   5.612   2.179  14.138 -0.9235  0.5978  1.3191
 3619TIP3   OH232271   3.102   1.317  12.155 -0.5333  0.3077 -0.5903
 3619TIP3    H132272   3.150   1.362  12.085  1.9782 -0.7494  0.3119
 3619TIP3    H232273   3.149   1.340  12.235 -0.2351 -2.3769  0.1197
 3620TIP3   OH232274   0.736   4.781   1.395 -0.1971 -0.8981 -0.9831
 3620TIP3    H132275   0.700   4.699   1.429  1.1693 -0.3714  2.0006
 3620TIP3    H232276   0.703   4.849   1.453  0.0518  0.4923 -2.3848
 3621TIP3   OH232277   6.721   5.514  15.655  0.1998 -0.3445  0.1472
 3621TIP3    H132278   6.642   5.543  15.608  0.0090  1.0206  1.2425
 3621TIP3    H232279   6.789   5.512  15.588 -0.7335 -1.5214 -0.8207
 3622TIP3   OH232280   5.609   4.974  12.750  0.6238 -0.5750  0.9961
 3622TIP3    H132281   5.573   4.915  12.684  1.0886  0.8363 -0.5796
 3622TIP3    H232282   5.646   4.916  12.816  0.2969 -2.0422 -0.0688
 3623TIP3   OH232283   2.957   3.735   4.695  0.6733  0.6481 -0.3013
 3623TIP3    H132284   3.009   3.768   4.768  2.4380 -0.0640 -1.1617
 3623TIP3    H232285   2.902   3.809   4.669  1.4365  1.5333  0.5129
 3624TIP3   OH232286   4.707   6.161  13.819 -0.2108 -0.1961 -1.4653
 3624TIP3    H132287   4.795   6.122  13.820 -0.9201 -1.8986 -0.0251
 3624TIP3    H232288   4.694   6.194  13.908 -0.0957  2.4568 -2.3391
 3625TIP3   OH232289   3.469   6.548  12.791  0.2696 -0.2240 -0.3662
 3625TIP3    H132290   3.487   6.641  12.775 -1.8048  0.5469  1.3303
 3625TIP3    H232291   3.555   6.509  12.807  1.2033  1.3248 -1.3437
 3626TIP3   OH232292   4.981   2.657   3.954  0.2160 -0.6040 -0.0819
 3626TIP3    H132293   4.917   2.724   3.977 -0.3492 -1.4775  0.9724
 3626TIP3    H232294   5.051   2.667   4.018 -0.3263 -1.6257  0.6947
 3627TIP3   OH232295   0.008   0.915  14.292 -0.5408  0.3701 -0.0916
 3627TIP3    H132296   0.069   0.872  14.352  0.9224  0.0572 -1.7178
 3627TIP3    H232297  -0.006   0.851  14.222 -1.2363  1.1617 -0.6959
 3628TIP3   OH232298   0.789   1.879   0.578 -0.5510  0.4198  0.2761
 3628TIP3    H132299   0.813   1.860   0.487 -1.8074 -0.6956  0.1471
 3628TIP3    H232300   0.700   1.914   0.572 -0.4510  0.8121  1.0402
 3629TIP3   OH232301   0.631   2.220   0.699 -0.2008 -0.7095 -0.3727
 3629TIP3    H132302   0.691   2.294   0.693 -2.4362  1.4513  1.5883
 3629TIP3    H232303   0.637   2.191   0.790  0.5725 -2.9978 -1.0795
 3630TIP3   OH232304   4.380   5.792  17.131  0.8098 -0.0241  0.7041
 3630TIP3    H132305   4.313   5.821  17.193  1.9113  2.0940  1.0231
 3630TIP3    H232306   4.370   5.697  17.127  0.6069 -0.2622  4.0555
 3631TIP3   OH232307   4.047   3.103   0.716 -0.2455  0.3268  0.1716
 3631TIP3    H132308   4.095   3.062   0.788 -1.2344  0.2466  0.8137
 3631TIP3    H232309   4.057   3.042   0.642  2.6719  1.4875 -0.5021
 3632TIP3   OH232310   3.973   3.864  12.690 -0.0685 -0.0035  0.3397
 3632TIP3    H132311   3.957   3.770  12.676  1.4048 -0.0536 -1.2689
 3632TIP3    H232312   4.049   3.884  12.637  0.3176  1.9093  1.5136
 3633TIP3   OH232313   5.210   1.914   1.141 -0.3903 -0.3439  0.5903
 3633TIP3    H132314   5.190   2.007   1.153  0.5517  0.2347 -1.7846
 3633TIP3    H232315   5.286   1.899   1.197  0.0114  0.5639  0.3132
 3634TIP3   OH232316   5.195   1.099  13.264 -0.7417  0.1378 -0.0062
 3634TIP3    H132317   5.172   1.012  13.231  2.7006 -1.0277  0.2715
 3634TIP3    H232318   5.193   1.089  13.359 -1.4900  0.7503  0.0516
 3635TIP3   OH232319   2.057   4.534  16.410  0.4888 -0.3313  0.8046
 3635TIP3    H132320   2.144   4.532  16.450  1.6169  3.1136 -1.0306
 3635TIP3    H232321   2.074   4.523  16.316 -1.0153  0.7508  0.3714
 3636TIP3   OH232322   2.413   6.245   3.367  0.4887 -0.3622 -0.3009
 3636TIP3    H132323   2.394   6.245   3.273  1.3787 -0.2723 -0.4962
 3636TIP3    H232324   2.382   6.330   3.397  0.7142 -0.1560 -0.6352
 3637TIP3   OH232325   5.990   2.966   2.762  0.7221 -0.1360  0.0120
 3637TIP3    H132326   5.932   2.894   2.734  0.3219  0.2084 -0.0557
 3637TIP3    H232327   6.078   2.937   2.734  0.2838  0.4338 -2.1799
 3638TIP3   OH232328   5.220   1.935  12.243 -0.2513 -0.4786  0.1360
 3638TIP3    H132329   5.258   2.018  12.214 -2.1610  0.0724 -0.9732
 3638TIP3    H232330   5.171   1.903  12.167  0.7355 -2.8548  0.3859
 3639TIP3   OH232331   3.421   4.824   5.339  0.0628 -0.7586  0.6833
 3639TIP3    H132332   3.465   4.752   5.294 -0.0696 -1.4411  1.6212
 3639TIP3    H232333   3.370   4.782   5.408 -1.6406  0.0467 -0.0176
 3640TIP3   OH232334   2.650   4.710  12.654 -0.3198 -0.6675  0.3300
 3640TIP3    H132335   2.645   4.635  12.594 -0.8577 -2.1313  2.1320
 3640TIP3    H232336   2.605   4.780  12.607  3.0638 -0.2879 -2.8968
 3641TIP3   OH232337   0.878   5.957  11.452 -0.6459 -0.1208  0.2814
 3641TIP3    H132338   0.849   6.007  11.376 -0.1971  1.5754  1.1766
 3641TIP3    H232339   0.915   5.877  11.415 -1.5720  0.0897 -1.1918
 3642TIP3   OH232340   0.237   4.219   0.968 -0.0600  0.4152  1.1029
 3642TIP3    H132341   0.284   4.271   1.032  0.1004 -0.0941  1.4092
 3642TIP3    H232342   0.184   4.282   0.918  2.2090  1.2552 -0.4112
 3643TIP3   OH232343   1.875   2.294  14.339 -0.6228  0.4911 -0.0358
 3643TIP3    H132344   1.910   2.212  14.373 -0.4675  0.4755 -0.2312
 3643TIP3    H232345   1.918   2.362  14.391  0.5166  0.5214 -0.9808
 3644TIP3   OH232346   0.501   5.315  13.756  0.1558  0.2358 -0.4294
 3644TIP3    H132347   0.562   5.288  13.824 -2.3699 -1.8779  1.2255
 3644TIP3    H232348   0.522   5.258  13.682  0.2515 -0.4166  0.0884
 3645TIP3   OH232349   3.915   2.379  16.151  0.0775  0.4311  0.4039
 3645TIP3    H132350   3.840   2.400  16.096 -1.1660  1.1572  2.2720
 3645TIP3    H232351   3.988   2.427  16.112 -0.2193 -0.7879 -1.8108
 3646TIP3   OH232352   2.668   3.837  16.782 -0.1513 -0.7770  0.2974
 3646TIP3    H132353   2.578   3.819  16.755  0.0017 -0.5930 -0.3707
 3646TIP3    H232354   2.681   3.931  16.763 -0.1814 -0.5248  1.4689
 3647TIP3   OH232355   0.357   2.936   3.244  0.3405 -0.0406  0.3536
 3647TIP3    H132356   0.308   2.893   3.314 -2.0688 -0.7171 -1.6389
 3647TIP3    H232357   0.330   3.028   3.248  0.7039  0.0573  0.6782
 3648TIP3   OH232358   4.539   4.910   2.696 -0.0148 -0.7881  0.5976
 3648TIP3    H132359   4.576   4.985   2.648 -1.1200  0.1784  1.2066
 3648TIP3    H232360   4.552   4.932   2.788 -1.9952 -0.4378  0.8402
 3649TIP3   OH232361   2.063   2.757  14.419  0.4459 -0.2574  0.1034
 3649TIP3    H132362   2.029   2.802  14.496  1.1424 -1.0157  0.8666
 3649TIP3    H232363   2.076   2.667  14.448  0.3653 -0.6387 -1.0138
 3650TIP3   OH232364   2.775   3.359   5.907 -0.3851  0.1170 -0.8491
 3650TIP3    H132365   2.754   3.337   5.997 -0.0424 -1.6282 -1.1722
 3650TIP3    H232366   2.808   3.449   5.911 -0.7095  0.1862  0.6892
 3651TIP3   OH232367   1.692   4.401   2.101  0.2279 -0.5932  0.1825
 3651TIP3    H132368   1.672   4.463   2.171  0.3303  0.1885 -0.4669
 3651TIP3    H232369   1.754   4.340   2.140 -0.5495 -0.8312  1.1008
 3652TIP3   OH232370   0.366   2.765   5.611  0.1823  0.0867  0.4273
 3652TIP3    H132371   0.344   2.749   5.702 -0.8274 -0.4464  0.1030
 3652TIP3    H232372   0.305   2.711   5.561 -0.5914  1.8350 -0.6179
 3653TIP3   OH232373   3.692   2.572  15.588 -0.1985 -0.3097  0.4710
 3653TIP3    H132374   3.640   2.556  15.508 -0.0118  1.0848  0.0362
 3653TIP3    H232375   3.643   2.528  15.657 -0.4707 -1.3928 -0.3709
 3654TIP3   OH232376   3.036   3.523   2.470 -0.8800 -0.2601 -0.7179
 3654TIP3    H132377   3.063   3.513   2.561 -2.8763 -1.5975 -0.2056
 3654TIP3    H232378   3.110   3.489   2.420 -0.7830 -2.0329  0.5305
 3655TIP3   OH232379   3.212   1.840   3.694 -0.5544  0.3092 -0.0640
 3655TIP3    H132380   3.145   1.813   3.632  0.9346  1.0839 -2.1094
 3655TIP3    H232381   3.182   1.925   3.726 -3.3113 -1.7282  3.4684
 3656TIP3   OH232382   5.784   2.719   2.763  0.0526  0.1756  0.2303
 3656TIP3    H132383   5.689   2.720   2.774 -0.1076  0.3439 -1.0022
 3656TIP3    H232384   5.817   2.680   2.844 -1.1343 -0.8241  0.2748
 3657TIP3   OH232385   0.854   4.107  13.794  0.3337  0.5670  0.3674
 3657TIP3    H132386   0.799   4.093  13.871  0.0394  0.1225  0.0821
 3657TIP3    H232387   0.921   4.039  13.799  1.7005  1.9449  1.4449
 3658TIP3   OH232388   1.325   6.012   3.425 -0.2074 -0.6447 -0.1314
 3658TIP3    H132389   1.316   5.917   3.414 -2.0581 -0.4938 -0.1257
 3658TIP3    H232390   1.246   6.049   3.387 -0.3811  0.7834  1.4749
 3659TIP3   OH232391   0.340   0.935  13.925 -0.1759 -0.0208 -0.2849
 3659TIP3    H132392   0.424   0.952  13.968 -0.6837  0.0548  0.7099
 3659TIP3    H232393   0.301   1.021  13.912 -0.1427 -0.0615 -0.6688
 3660TIP3   OH232394   6.314   1.316  10.857  0.4934 -0.1346  0.6213
 3660TIP3    H132395   6.366   1.351  10.785  0.2800  1.0839  1.0402
 3660TIP3    H232396   6.326   1.378  10.929 -0.9484 -0.1981  0.9643
 3661TIP3   OH232397   1.166   1.426  10.939 -0.0253 -0.3443 -0.4660
 3661TIP3    H132398   1.076   1.458  10.931  0.2633  0.8473  0.7739
 3661TIP3    H232399   1.180   1.376  10.859 -0.4835  2.6889 -2.6062
 3662TIP3   OH232400   1.649   5.870  12.788 -0.1183  0.5030 -0.2779
 3662TIP3    H132401   1.587   5.940  12.807 -2.0910 -1.0254 -0.6638
 3662TIP3    H232402   1.631   5.804  12.855  3.4731  1.3120  1.6924
 3663TIP3   OH232403   1.968   1.730   4.500  0.0035  0.0196 -0.2940
 3663TIP3    H132404   1.978   1.769   4.413  1.7685 -0.5879 -0.3831
 3663TIP3    H232405   2.002   1.796   4.560  2.5501 -1.1087 -0.4084
 3664TIP3   OH232406   2.438   0.594   3.313  1.1324 -0.7603 -0.1991
 3664TIP3    H132407   2.488   0.646   3.251  1.5288 -0.0663  0.6819
 3664TIP3    H232408   2.351   0.585   3.273  1.7492 -1.4289 -1.4378
 3665TIP3   OH232409   0.713   6.519  14.775 -0.1016 -0.1483 -0.5491
 3665TIP3    H132410   0.721   6.611  14.802 -0.5310 -0.2546 -0.0456
 3665TIP3    H232411   0.804   6.487  14.774  0.0479  0.2804 -0.7183
 3666TIP3   OH232412   5.726   5.883   0.147 -0.1215 -0.0012 -0.0380
 3666TIP3    H132413   5.798   5.828   0.179 -1.3855 -1.4166  0.4931
 3666TIP3    H232414   5.711   5.946   0.217 -0.0840 -0.3830  0.3229
 3667TIP3   OH232415   3.603   5.712  13.803  0.5925  0.2181  0.0458
 3667TIP3    H132416   3.632   5.775  13.869  0.0738 -1.1031  1.6015
 3667TIP3    H232417   3.515   5.742  13.778 -0.3613 -0.7173  2.0165
 3668TIP3   OH232418   0.245   1.227  11.248  0.5681 -0.5402 -0.2033
 3668TIP3    H132419   0.267   1.168  11.319  0.8484 -2.7533 -2.0246
 3668TIP3    H232420   0.150   1.239  11.254  0.3911 -1.8354 -0.2604
 3669TIP3   OH232421   1.628   4.724  13.083 -0.5535  0.9312  0.3430
 3669TIP3    H132422   1.644   4.747  12.992 -1.8761  0.2783 -0.0711
 3669TIP3    H232423   1.708   4.680  13.111 -0.2874  0.7778 -0.6203
 3670TIP3   OH232424   3.840   0.536   0.491  0.5469 -0.2605 -0.1014
 3670TIP3    H132425   3.923   0.575   0.463  0.8753  0.0169  1.1681
 3670TIP3    H232426   3.776   0.607   0.483  1.0560  0.4675  1.7808
 3671TIP3   OH232427   1.792   5.886   0.418 -0.4501  0.1755  0.3329
 3671TIP3    H132428   1.852   5.843   0.357 -0.9138 -2.3961  1.5227
 3671TIP3    H232429   1.711   5.836   0.410 -0.5228 -0.2808  2.9892
 3672TIP3   OH232430   0.492   2.874  13.018 -0.2993  0.0239 -0.5028
 3672TIP3    H132431   0.416   2.885  13.074 -0.3684 -0.9289 -0.3987
 3672TIP3    H232432   0.564   2.915  13.067 -0.5200 -0.0913 -0.0781
 3673TIP3   OH232433   6.330   1.074  14.742  0.0680  0.1842  0.1657
 3673TIP3    H132434   6.269   1.140  14.712 -0.3784 -0.6239 -0.7703
 3673TIP3    H232435   6.275   1.007  14.784  0.2138 -0.8447 -1.2304
 3674TIP3   OH232436   6.350   4.133   0.767 -0.9774 -0.2363 -0.5119
 3674TIP3    H132437   6.266   4.153   0.809 -1.1979  1.5594 -1.6862
 3674TIP3    H232438   6.401   4.213   0.775 -0.8488  0.0405 -3.0992
 3675TIP3   OH232439   3.636   5.645   0.709 -0.2850  0.4928 -0.0063
 3675TIP3    H132440   3.653   5.573   0.648  1.2834  0.5437  0.3071
 3675TIP3    H232441   3.703   5.711   0.687 -1.2468  1.5630  0.1748
 3676TIP3   OH232442   2.888   6.444  11.350  0.4162  0.1174 -0.0007
 3676TIP3    H132443   2.909   6.352  11.337  2.2475  0.2761  1.4837
 3676TIP3    H232444   2.916   6.486  11.268  1.4108 -0.3908  0.0640
 3677TIP3   OH232445   2.774   1.070   0.020 -0.2168  0.7259  0.2705
 3677TIP3    H132446   2.732   1.085   0.104 -2.1865 -0.5917 -0.4061
 3677TIP3    H232447   2.821   0.987   0.030 -1.2468  0.0720 -0.1784
 3678TIP3   OH232448   3.144   0.373  15.824  0.5288 -0.4389 -0.2041
 3678TIP3    H132449   3.165   0.326  15.904  1.1334 -1.2867 -0.8348
 3678TIP3    H232450   3.164   0.465  15.843  0.8346 -0.6579  0.5542
 3679TIP3   OH232451   5.211   1.273  16.518 -0.1435 -0.2212 -0.1896
 3679TIP3    H132452   5.157   1.253  16.442  1.8734  2.0713 -2.3982
 3679TIP3    H232453   5.153   1.321  16.577 -1.5044 -1.2372 -0.6544
 3680TIP3   OH232454   0.933   5.379   0.902 -0.5716  0.1467 -0.2408
 3680TIP3    H132455   0.918   5.438   0.976  0.9550 -0.2577  0.4499
 3680TIP3    H232456   0.895   5.424   0.827 -0.6520  1.3726  0.5057
 3681TIP3   OH232457   0.648   4.216  14.943 -0.3378  0.3594 -0.6178
 3681TIP3    H132458   0.697   4.220  14.860  0.4730  1.9456 -0.1064
 3681TIP3    H232459   0.677   4.134  14.983 -1.2572 -0.7917 -2.1698
 3682TIP3   OH232460   0.067   0.188  16.672 -0.1305 -0.3075  0.2654
 3682TIP3    H132461   0.146   0.149  16.710  0.0528 -1.0293 -0.8350
 3682TIP3    H232462   0.019   0.114  16.636 -1.1807  0.1662  0.6541
 3683TIP3   OH232463   2.108   5.209   2.248 -0.3283  0.1972 -0.3205
 3683TIP3    H132464   2.179   5.263   2.282 -1.6696  1.5460  0.4493
 3683TIP3    H232465   2.086   5.149   2.319 -0.3068  0.1491 -0.3546
 3684TIP3   OH232466   1.204   2.567   4.705  0.4138 -0.4215 -0.5445
 3684TIP3    H132467   1.214   2.622   4.782 -0.4583 -1.1467  0.1113
 3684TIP3    H232468   1.177   2.627   4.636 -0.4960 -0.0187  0.1471
 3685TIP3   OH232469   2.333   3.301   4.318  0.1161 -0.4053 -0.6486
 3685TIP3    H132470   2.342   3.217   4.363  0.3797  0.5654  1.2240
 3685TIP3    H232471   2.244   3.330   4.341  0.0580 -0.1352 -1.2123
 3686TIP3   OH232472   6.022   5.797  13.172 -0.2232  0.8988  0.3217
 3686TIP3    H132473   5.982   5.859  13.233  0.8356 -0.1548  2.1543
 3686TIP3    H232474   5.952   5.778  13.109 -1.7393  1.1838  1.8315
 3687TIP3   OH232475   0.568   3.992  12.806 -0.0446  0.4308  0.1104
 3687TIP3    H132476   0.498   3.977  12.869  2.2671  0.7261  2.9831
 3687TIP3    H232477   0.524   4.022  12.727 -3.3054 -1.9544  0.8034
 3688TIP3   OH232478   6.748   1.546   0.805 -0.3362  0.2590 -0.4033
 3688TIP3    H132479   6.828   1.598   0.800 -0.2552  0.0603 -1.3418
 3688TIP3    H232480   6.769   1.475   0.865 -0.2697  0.9889  0.4565
 3689TIP3   OH232481   5.966   4.281   1.381 -0.8801  0.2466 -0.2023
 3689TIP3    H132482   5.998   4.212   1.322 -3.3010  0.4377 -1.8535
 3689TIP3    H232483   5.939   4.234   1.460 -0.1468 -0.3475 -0.2922
 3690TIP3   OH232484   4.341   1.090  16.008  0.3534 -0.2604 -0.0111
 3690TIP3    H132485   4.338   1.186  16.007  0.3388 -0.2657 -0.6023
 3690TIP3    H232486   4.252   1.063  16.030  0.7510 -0.1242  2.0229
 3691TIP3   OH232487   0.388   1.010  11.401 -0.7251 -0.1362 -0.0879
 3691TIP3    H132488   0.449   1.083  11.391 -1.3891  0.5090  0.4448
 3691TIP3    H232489   0.338   1.032  11.480  0.8919 -2.4904  1.7089
 3692TIP3   OH232490   0.132   4.631   4.073 -0.3437 -0.0408  0.3827
 3692TIP3    H132491   0.116   4.596   4.161 -2.1357  4.0831  1.9713
 3692TIP3    H232492   0.126   4.726   4.084 -0.5237  0.7081 -4.2164
 3693TIP3   OH232493   3.907   1.349   1.270  0.0075  0.1122 -0.4359
 3693TIP3    H132494   3.959   1.269   1.263  0.9542  0.7275 -0.6496
 3693TIP3    H232495   3.936   1.389   1.352  0.4418  0.8369 -0.9264
 3694TIP3   OH232496   4.562   2.197   3.439  0.9364 -0.3659 -0.5048
 3694TIP3    H132497   4.522   2.121   3.397  1.2729 -0.6764 -0.2655
 3694TIP3    H232498   4.501   2.269   3.420  0.9116 -0.5677 -1.2383
 3695TIP3   OH232499   3.681   4.973  15.472 -0.4276 -0.1059 -0.1398
 3695TIP3    H132500   3.707   4.881  15.483 -0.8689 -0.3082 -0.7314
 3695TIP3    H232501   3.750   5.023  15.515 -0.3391 -0.7288  0.4600
 3696TIP3   OH232502   3.618   0.594   3.302 -0.1128  0.7093  0.0422
 3696TIP3    H132503   3.610   0.673   3.357  0.8359  1.8549 -1.3771
 3696TIP3    H232504   3.712   0.586   3.287  0.0152 -1.8576  1.7035
 3697TIP3   OH232505   3.508   4.213   0.235  0.9342 -0.6418  0.0035
 3697TIP3    H132506   3.561   4.141   0.201  2.7916 -0.6056  2.5070
 3697TIP3    H232507   3.456   4.173   0.305 -0.2421 -0.1031 -0.5479
 3698TIP3   OH232508   4.873   1.551  15.305 -0.1563  0.2777  0.6593
 3698TIP3    H132509   4.824   1.579  15.382  1.0212  1.1927  1.1067
 3698TIP3    H232510   4.817   1.485  15.263 -1.4903  0.8657  1.4541
 3699TIP3   OH232511   0.499   4.814  13.060  0.0891  0.2297 -0.1863
 3699TIP3    H132512   0.456   4.780  13.139 -0.7097  1.2582 -0.1571
 3699TIP3    H232513   0.575   4.862  13.092 -0.0780  0.4089 -0.0567
 3700TIP3   OH232514   0.511   5.689   1.285  0.4165  0.2402  0.4762
 3700TIP3    H132515   0.585   5.628   1.279  0.4634  0.3888 -0.5570
 3700TIP3    H232516   0.525   5.751   1.214 -1.3507 -0.4459 -0.5267
 3701TIP3   OH232517   3.190   3.545  15.876 -0.2372  0.6921  0.7157
 3701TIP3    H132518   3.230   3.617  15.925  0.8903  0.7647 -0.2651
 3701TIP3    H232519   3.262   3.506  15.827 -0.7436 -1.4033  1.5388
 3702TIP3   OH232520   6.386   0.185  16.910  0.2890 -0.1024  0.0510
 3702TIP3    H132521   6.443   0.248  16.955 -0.9760 -0.5391  2.4250
 3702TIP3    H232522   6.431   0.101  16.918  0.1754 -0.1412  0.2705
 3703TIP3   OH232523   1.256   0.078  12.799 -0.4334  0.8710 -0.4493
 3703TIP3    H132524   1.203   0.035  12.733  0.1229  0.2159 -0.4753
 3703TIP3    H232525   1.345   0.076  12.764 -0.3439  1.7680 -0.3118
 3704TIP3   OH232526   1.414   5.335  15.595 -0.0744 -0.1329 -0.0205
 3704TIP3    H132527   1.414   5.386  15.676 -2.0235  0.6949 -0.4679
 3704TIP3    H232528   1.435   5.245  15.623 -0.7743  0.1195  1.4208
 3705TIP3   OH232529   0.909   6.466  15.220 -0.2534  0.3603 -0.4172
 3705TIP3    H132530   0.882   6.550  15.181  0.3107  1.5361  1.5627
 3705TIP3    H232531   0.830   6.434  15.264 -0.3299  0.1024 -0.7376
 3706TIP3   OH232532   1.975   4.958   4.753  0.2278 -0.6397 -0.0130
 3706TIP3    H132533   1.913   4.914   4.811  1.5814 -0.2269  1.8357
 3706TIP3    H232534   2.020   5.021   4.809  1.8293 -0.4445 -1.4466
 3707TIP3   OH232535   0.277   4.567  11.295 -0.2322 -0.6251 -0.7289
 3707TIP3    H132536   0.282   4.662  11.288 -0.9690 -0.5056  0.1859
 3707TIP3    H232537   0.313   4.547  11.381 -0.0312 -1.1763 -0.9383
 3708TIP3   OH232538   1.226   3.271  10.655  0.0284 -0.0459 -0.0438
 3708TIP3    H132539   1.181   3.197  10.615  0.8250  0.0935 -1.2333
 3708TIP3    H232540   1.155   3.330  10.683 -0.6324 -1.3757  1.2580
 3709TIP3   OH232541   0.835   1.555   0.541 -0.7087 -1.1586 -0.1812
 3709TIP3    H132542   0.882   1.567   0.459  0.5856 -1.3205  0.5222
 3709TIP3    H232543   0.758   1.502   0.517  0.5822 -2.7338 -1.0138
 3710TIP3   OH232544   1.312   4.827   2.699  0.3033 -0.0890 -0.3558
 3710TIP3    H132545   1.300   4.922   2.695 -1.8807 -0.2864  0.3547
 3710TIP3    H232546   1.388   4.811   2.643 -0.1233  1.9394 -1.6384
 3711TIP3   OH232547   4.656   2.286  12.394  0.5985  0.3481 -0.2969
 3711TIP3    H132548   4.634   2.201  12.430 -0.9952  0.1497 -1.6162
 3711TIP3    H232549   4.572   2.331  12.385  1.2010  1.3185 -1.3597
 3712TIP3   OH232550   3.946   3.860   1.131  0.4283  0.5066  0.6027
 3712TIP3    H132551   3.962   3.875   1.038 -0.5343  0.3389  0.4008
 3712TIP3    H232552   3.851   3.849   1.138  0.5086  0.3214  1.5762
 3713TIP3   OH232553   5.153   4.030  11.084 -0.4627 -0.2093  0.0047
 3713TIP3    H132554   5.128   4.073  11.165 -2.7472 -0.5505 -0.4485
 3713TIP3    H232555   5.166   4.101  11.022 -0.4547 -0.0210  0.2204
 3714TIP3   OH232556   2.228   3.268  11.215  0.4122 -0.3931  0.1410
 3714TIP3    H132557   2.271   3.239  11.135  1.5382 -0.4014  0.7335
 3714TIP3    H232558   2.265   3.213  11.284  0.7579  0.7778  0.9178
 3715TIP3   OH232559   0.975   1.188  12.537 -0.0154 -0.3402 -0.1549
 3715TIP3    H132560   0.978   1.142  12.621 -4.3786  0.5769  0.7305
 3715TIP3    H232561   0.907   1.144  12.487 -0.7745  1.9566 -1.2967
 3716TIP3   OH232562   1.205   4.899   1.885 -0.0441  0.5884 -0.2486
 3716TIP3    H132563   1.234   4.931   1.970  0.7707  0.2959 -0.4088
 3716TIP3    H232564   1.217   4.804   1.888 -1.2182  0.4236 -0.2441
 3717TIP3   OH232565   0.507   3.934  13.599  0.1421  0.2477 -0.1749
 3717TIP3    H132566   0.462   3.870  13.544 -2.2142 -0.1786  2.0628
 3717TIP3    H232567   0.600   3.916  13.585 -0.4038 -1.5618 -1.9579
 3718TIP3   OH232568   2.387   4.216   2.037 -0.5273 -0.5071 -0.0506
 3718TIP3    H132569   2.298   4.229   2.069 -0.1404  1.3466  0.3733
 3718TIP3    H232570   2.422   4.146   2.092 -1.1710 -0.1003  0.9110
 3719TIP3   OH232571   4.660   4.290  14.828 -0.1807 -0.0498  0.1510
 3719TIP3    H132572   4.641   4.371  14.780  0.1883 -0.7072 -1.1488
 3719TIP3    H232573   4.727   4.315  14.892  0.2030  0.6111 -0.4922
 3720TIP3   OH232574   6.541   0.007  13.663 -0.1110  0.2565  1.2647
 3720TIP3    H132575   6.545   0.030  13.756 -1.9590  1.0797  1.1784
 3720TIP3    H232576   6.627   0.032  13.630  0.3550  0.5765  2.6162
 3721TIP3   OH232577   2.527   0.149  11.935  0.3046  0.1883 -0.1773
 3721TIP3    H132578   2.484   0.137  11.850  0.5666  0.4792 -0.3507
 3721TIP3    H232579   2.620   0.135  11.917  0.2936 -0.4237  0.1943
 3722TIP3   OH232580   6.705   5.790  12.451 -0.0537 -0.3025  0.0298
 3722TIP3    H132581   6.771   5.854  12.478 -0.9092  1.0839 -0.9789
 3722TIP3    H232582   6.673   5.823  12.367 -1.6601 -1.1914  0.2514
 3723TIP3   OH232583   0.518   4.787   2.801  0.0151  0.5863 -0.0458
 3723TIP3    H132584   0.501   4.760   2.711  0.7984 -1.9385  0.4696
 3723TIP3    H232585   0.611   4.809   2.803  0.2132 -0.2389  0.3065
 3724TIP3   OH232586   5.573   5.199   1.568 -0.2918 -0.1887 -0.5769
 3724TIP3    H132587   5.600   5.112   1.540 -1.4967 -1.0004  0.6513
 3724TIP3    H232588   5.487   5.186   1.608  0.0027  1.3676  0.6725
 3725TIP3   OH232589   2.695   3.587   0.403  0.3852  0.2764  0.0715
 3725TIP3    H132590   2.743   3.670   0.398  0.6322  0.0968 -0.9276
 3725TIP3    H232591   2.607   3.609   0.373  0.0514  0.4510  1.1587
 3726TIP3   OH232592   3.906   0.417  13.300  0.4365 -0.0149  0.2922
 3726TIP3    H132593   3.996   0.432  13.269  0.2241  1.2450  0.2070
 3726TIP3    H232594   3.864   0.370  13.228  0.4019  1.4694 -0.7188
 3727TIP3   OH232595   3.303   3.408   2.478  0.1557  0.3831 -0.1003
 3727TIP3    H132596   3.350   3.490   2.497  1.2903 -0.6345  1.7671
 3727TIP3    H232597   3.366   3.339   2.499 -0.3451 -1.0201 -2.8274
 3728TIP3   OH232598   0.092   2.684   0.085 -0.1263  0.4449 -0.4242
 3728TIP3    H132599   0.165   2.635   0.047  0.0435  1.0953 -0.9511
 3728TIP3    H232600   0.133   2.744   0.147 -0.1988  0.8618 -0.7737
 3729TIP3   OH232601   3.306   2.956   0.950  0.4584  0.1701 -0.4859
 3729TIP3    H132602   3.321   2.868   0.915 -0.6148 -0.1163 -0.2610
 3729TIP3    H232603   3.291   3.009   0.872 -1.0127 -0.2903 -0.5649
 3730TIP3   OH232604   5.030   2.624  12.829  0.2076 -0.2283  0.5170
 3730TIP3    H132605   5.086   2.656  12.757  0.9678 -0.0174  1.1901
 3730TIP3    H232606   5.053   2.532  12.838 -0.5529 -0.4930 -0.1024
 3731TIP3   OH232607   3.370   0.624  12.370 -0.1075  1.0015  0.5280
 3731TIP3    H132608   3.458   0.653  12.344 -1.1448  2.4475 -1.5777
 3731TIP3    H232609   3.353   0.670  12.452  1.2456  0.3184  1.2329
 3732TIP3   OH232610   1.829   5.880  15.345  0.8944  0.0139  0.0538
 3732TIP3    H132611   1.790   5.794  15.330  0.8016  0.0783 -0.0873
 3732TIP3    H232612   1.754   5.940  15.346  0.9355  0.0567  0.4274
 3733TIP3   OH232613   0.644   1.380  15.298 -0.2289  0.0641  0.2001
 3733TIP3    H132614   0.729   1.360  15.337 -0.5562 -1.5345  0.1341
 3733TIP3    H232615   0.662   1.390  15.205 -0.0941 -0.1130  0.2073
 3734TIP3   OH232616   2.412   3.354  14.540  0.2321  0.3245  0.1452
 3734TIP3    H132617   2.452   3.291  14.480  0.4998 -0.5371  1.2166
 3734TIP3    H232618   2.329   3.313  14.566  0.0276  0.7805  0.2249
 3735TIP3   OH232619   5.038   3.398   5.923 -0.1704 -0.1311 -0.0964
 3735TIP3    H132620   4.954   3.440   5.905 -0.1282 -0.4280 -1.0206
 3735TIP3    H232621   5.074   3.447   5.997 -1.2665 -0.1672  0.4836
 3736TIP3   OH232622   0.419   5.250  10.736 -0.0273  0.0739 -0.0834
 3736TIP3    H132623   0.504   5.235  10.695 -0.4819 -0.9706 -0.6799
 3736TIP3    H232624   0.411   5.345  10.740  0.8544  0.1900 -0.6711
 3737TIP3   OH232625   4.443   1.395  15.722 -0.1575 -0.0018 -0.3473
 3737TIP3    H132626   4.470   1.337  15.793  0.0073 -0.2358 -0.5949
 3737TIP3    H232627   4.515   1.389  15.659  0.7065  1.8482  0.4065
 3738TIP3   OH232628   4.629   6.777  12.672  0.0738  0.9108 -0.0141
 3738TIP3    H132629   4.717   6.746  12.693 -0.2636  0.9234  1.5196
 3738TIP3    H232630   4.644   6.856  12.621  0.9400  0.2029 -0.9016
 3739TIP3   OH232631   5.903   3.682  16.392 -0.0357  0.2961 -0.5084
 3739TIP3    H132632   5.942   3.636  16.466 -1.3763 -0.4091 -0.2000
 3739TIP3    H232633   5.849   3.750  16.432 -0.7446 -0.0714 -0.8158
 3740TIP3   OH232634   5.998   0.539   4.109 -0.9773 -0.1218  0.4514
 3740TIP3    H132635   5.954   0.609   4.060  2.0913 -0.0414 -2.4830
 3740TIP3    H232636   5.964   0.458   4.070  0.0339 -0.0896 -0.5420
 3741TIP3   OH232637   0.056   1.566   1.824 -0.3225  0.4223  0.4031
 3741TIP3    H132638  -0.033   1.569   1.858  0.3647  0.8664  2.2480
 3741TIP3    H232639   0.093   1.485   1.860 -0.1549 -0.1249 -0.9130
 3742TIP3   OH232640   5.623   2.423   2.755 -0.5051  0.3226 -0.1653
 3742TIP3    H132641   5.566   2.409   2.679  0.0371 -1.9336 -0.2344
 3742TIP3    H232642   5.586   2.499   2.799 -2.5800 -0.0581 -1.1068
 3743TIP3   OH232643   1.929   5.213  13.843 -0.8122  0.0547  0.2209
 3743TIP3    H132644   1.889   5.286  13.891  0.1958  0.0451  1.1136
 3743TIP3    H232645   1.919   5.138  13.902  0.5149  0.0568  0.4798
 3744TIP3   OH232646   1.561   5.269   3.472  0.4361 -0.8158 -0.3440
 3744TIP3    H132647   1.573   5.190   3.420 -0.5816  0.2030 -2.2828
 3744TIP3    H232648   1.596   5.339   3.416  1.0361  0.1583  1.1869
 3745TIP3   OH232649   1.588   5.884  13.546 -0.0366 -0.3964  0.1601
 3745TIP3    H132650   1.640   5.807  13.571  1.9409  1.2599  1.5028
 3745TIP3    H232651   1.535   5.903  13.623  1.2354  0.8952  0.7695
 3746TIP3   OH232652   1.752   1.251  12.380  0.0137  0.6538  0.6166
 3746TIP3    H132653   1.720   1.327  12.428  0.0783  1.2819 -0.3123
 3746TIP3    H232654   1.786   1.286  12.298  0.2618 -0.3504  0.2676
 3747TIP3   OH232655   3.578   0.253  13.618  0.2163  1.0665  0.0036
 3747TIP3    H132656   3.527   0.269  13.539 -0.0037  1.1450  0.1610
 3747TIP3    H232657   3.627   0.173  13.600 -0.4045  0.6670  0.0713
 3748TIP3   OH232658   2.777   4.471   1.425 -0.2378 -0.1801  0.0773
 3748TIP3    H132659   2.851   4.434   1.377  0.9741  0.7066  1.1664
 3748TIP3    H232660   2.806   4.470   1.517 -1.8631 -0.4322  0.6200
 3749TIP3   OH232661   5.533   2.945  11.761 -0.0478  0.2266 -0.6757
 3749TIP3    H132662   5.569   3.021  11.807  0.7908  0.3419 -1.4859
 3749TIP3    H232663   5.527   2.877  11.828  0.3042  0.6541 -0.1986
 3750TIP3   OH232664   1.215   1.875   1.276  0.1382  0.0953  0.6300
 3750TIP3    H132665   1.171   1.943   1.225 -2.4381  0.2485  2.8273
 3750TIP3    H232666   1.223   1.801   1.216  0.4167  1.3650 -0.9796
 3751TIP3   OH232667   2.484   5.885   4.736 -0.3428 -0.8371  0.1584
 3751TIP3    H132668   2.417   5.845   4.792 -2.0556  0.1261 -1.1171
 3751TIP3    H232669   2.474   5.843   4.651  1.4762 -1.4850  0.2157
 3752TIP3   OH232670   3.830   5.568  12.857 -0.0405 -0.5095 -0.2504
 3752TIP3    H132671   3.781   5.561  12.774 -0.2808 -0.6596 -0.0982
 3752TIP3    H232672   3.783   5.511  12.917 -1.2786  1.3514  0.6577
 3753TIP3   OH232673   5.861   0.623  15.361  0.0011 -0.5318 -0.4403
 3753TIP3    H132674   5.878   0.529  15.363 -1.5145 -0.8702 -1.4615
 3753TIP3    H232675   5.944   0.662  15.337  0.5959 -1.6226 -0.2350
 3754TIP3   OH232676   5.178   6.363  14.159  0.5614 -0.1150  0.2883
 3754TIP3    H132677   5.227   6.428  14.208 -1.1123  0.2083  1.6094
 3754TIP3    H232678   5.168   6.289  14.220 -0.7716 -0.0768  0.1448
 3755TIP3   OH232679   3.585   6.343  15.812  0.3051  0.1599  0.0198
 3755TIP3    H132680   3.627   6.347  15.726  2.3730 -2.2230  0.8116
 3755TIP3    H232681   3.523   6.271  15.805  0.8659 -0.3956  0.6614
 3756TIP3   OH232682   5.334   0.365  12.840 -0.0953 -0.4336 -0.2103
 3756TIP3    H132683   5.306   0.455  12.855 -1.1599 -0.2121 -2.9307
 3756TIP3    H232684   5.425   0.373  12.810  0.2430 -0.4130  0.7864
 3757TIP3   OH232685   2.109   3.837   6.159  0.4461  0.1690  0.1227
 3757TIP3    H132686   2.067   3.796   6.234 -0.2090  0.2935 -0.1630
 3757TIP3    H232687   2.036   3.857   6.100  0.8476  0.9936 -0.0982
 3758TIP3   OH232688   1.805   2.723  16.431  0.2313 -0.4759 -0.2020
 3758TIP3    H132689   1.744   2.731  16.358  0.1585  1.1724  0.0016
 3758TIP3    H232690   1.750   2.704  16.507 -0.0088  0.5924 -0.0944
 3759TIP3   OH232691   5.032   3.898  15.809 -0.1895 -0.1917 -0.5450
 3759TIP3    H132692   5.003   3.831  15.871  0.9811 -0.9041 -0.7387
 3759TIP3    H232693   5.058   3.971  15.865 -0.1913 -0.4101 -0.2538
 3760TIP3   OH232694   2.079   1.191  11.778 -0.4985  0.7411 -0.7991
 3760TIP3    H132695   2.015   1.238  11.831  1.0241  2.1858 -0.1738
 3760TIP3    H232696   2.064   1.222  11.689 -1.4024  0.1891 -0.8576
 3761TIP3   OH232697   1.859   2.272   0.975  1.1863  0.1817  0.2411
 3761TIP3    H132698   1.891   2.185   1.001  0.5862 -0.3797 -0.8290
 3761TIP3    H232699   1.770   2.256   0.944  0.6130  1.3848  1.1761
 3762TIP3   OH232700   0.753   4.011   6.156  0.4104  0.1479 -0.1774
 3762TIP3    H132701   0.756   4.001   6.061 -1.4029 -0.8263 -0.1766
 3762TIP3    H232702   0.698   4.088   6.170 -1.7599 -1.3662  0.0661
 3763TIP3   OH232703   0.953   2.398  16.603 -0.1598  0.2139 -0.0267
 3763TIP3    H132704   0.927   2.334  16.537  1.8431  0.0283 -0.7197
 3763TIP3    H232705   0.926   2.360  16.686 -0.9090 -0.5053 -0.5871
 3764TIP3   OH232706   6.453   6.472  14.665  0.3350 -0.0432  0.4240
 3764TIP3    H132707   6.386   6.528  14.705 -1.5018 -1.1349 -1.0027
 3764TIP3    H232708   6.533   6.526  14.667 -0.8984  1.8646  0.8611
 3765TIP3   OH232709   2.204   5.120  10.990  0.4124 -0.3617  0.0369
 3765TIP3    H132710   2.176   5.202  10.949  1.0052  0.2361  0.7864
 3765TIP3    H232711   2.163   5.051  10.937 -0.6983  0.4295 -0.1834
 3766TIP3   OH232712   2.720   3.031   0.501 -0.2563 -0.5864 -0.0514
 3766TIP3    H132713   2.679   3.090   0.437 -0.0207  1.6453  1.7554
 3766TIP3    H232714   2.681   2.946   0.482 -2.4475  0.5844 -1.2502
 3767TIP3   OH232715   0.103   5.810   6.462  0.2534 -0.3241  0.7683
 3767TIP3    H132716   0.107   5.901   6.492  2.3427  0.0828 -0.5276
 3767TIP3    H232717   0.012   5.796   6.439 -0.8030  0.3509  4.0451
 3768TIP3   OH232718   2.725   0.861  14.579 -0.2616  0.0273 -0.3753
 3768TIP3    H132719   2.813   0.827  14.596 -0.8285 -1.2640  0.1859
 3768TIP3    H232720   2.669   0.811  14.638 -1.4860  0.1631 -1.3823
 3769TIP3   OH232721   6.415   6.009   3.767  0.8731  0.1241 -0.1636
 3769TIP3    H132722   6.333   5.988   3.811  0.0186  0.8406 -1.3800
 3769TIP3    H232723   6.426   5.940   3.701  0.2049  1.1141 -1.3417
 3770TIP3   OH232724   5.994   0.504  13.590  0.2584  0.1009  0.8665
 3770TIP3    H132725   6.035   0.459  13.517 -0.3133 -0.0752  0.6458
 3770TIP3    H232726   6.056   0.495  13.662  0.4339 -0.4816  0.6476
 3771TIP3   OH232727   1.555   1.947   3.608  0.3739 -0.5622 -0.0300
 3771TIP3    H132728   1.579   2.009   3.539  0.8371 -2.0621 -1.2699
 3771TIP3    H232729   1.639   1.917   3.644  0.1432  0.0109  1.0635
 3772TIP3   OH232730   0.432   4.929   0.969 -0.3969 -0.0863  0.1819
 3772TIP3    H132731   0.359   4.937   0.907 -0.7852 -0.5533  0.5735
 3772TIP3    H232732   0.509   4.917   0.913 -0.1477  3.1735 -0.3814
 3773TIP3   OH232733   1.853   3.119  12.480  0.1190  0.6074  0.5900
 3773TIP3    H132734   1.834   3.027  12.499  2.1292 -0.1381 -0.7540
 3773TIP3    H232735   1.918   3.144  12.546  0.0299  0.8959  0.5701
 3774TIP3   OH232736   1.716   6.375   5.417  0.0307 -0.7868  0.6627
 3774TIP3    H132737   1.733   6.451   5.472 -0.2231  0.5076 -0.9576
 3774TIP3    H232738   1.743   6.403   5.329 -0.3250 -2.4847 -0.0286
 3775TIP3   OH232739   0.138   1.612  13.075 -0.7128  0.2633 -0.8733
 3775TIP3    H132740   0.084   1.549  13.027 -0.4954 -0.8650  0.3072
 3775TIP3    H232741   0.217   1.563  13.098 -0.8971  0.6960  0.7943
 3776TIP3   OH232742   1.119   5.718  15.351  0.0627  0.1090  0.1773
 3776TIP3    H132743   1.181   5.670  15.295  2.4922  0.8852  2.0158
 3776TIP3    H232744   1.131   5.681  15.438  0.3366  2.4001  1.1994
 3777TIP3   OH232745   4.757   0.813  16.044  0.3776 -0.0174  0.0170
 3777TIP3    H132746   4.792   0.856  15.966 -1.0463 -0.2510 -0.7853
 3777TIP3    H232747   4.673   0.856  16.061 -0.9264 -2.1442 -0.6004
 3778TIP3   OH232748   1.315   3.639  17.164 -0.6047  0.0093  0.1885
 3778TIP3    H132749   1.330   3.655  17.257 -0.0539  0.7691 -0.0227
 3778TIP3    H232750   1.255   3.709  17.137  0.3023  0.6170 -0.3137
 3779TIP3   OH232751   2.639   0.245   1.226 -0.1340  0.0093 -0.6046
 3779TIP3    H132752   2.656   0.168   1.173  0.0514  0.0345 -0.5813
 3779TIP3    H232753   2.580   0.298   1.173 -1.6439 -0.9257  0.0674
 3780TIP3   OH232754   4.869   1.061   2.299  0.7356  0.1460  0.2003
 3780TIP3    H132755   4.862   1.143   2.250  0.0505 -0.9868 -1.6890
 3780TIP3    H232756   4.957   1.064   2.339 -0.5646  3.4134  3.3612
 3781TIP3   OH232757   2.890   4.336  13.297  0.1653 -0.2801 -0.9030
 3781TIP3    H132758   2.873   4.271  13.228  0.3603  0.3214 -1.5234
 3781TIP3    H232759   2.983   4.357  13.288  0.6029 -1.3776  0.5857
 3782TIP3   OH232760   3.220   5.136  13.272 -0.0842 -0.4585 -0.2980
 3782TIP3    H132761   3.310   5.138  13.240  0.3643 -1.7031  0.7856
 3782TIP3    H232762   3.178   5.211  13.231  2.1865  1.9067  1.3699
 3783TIP3   OH232763   0.025   2.099   1.601  0.1129  0.5061  0.2802
 3783TIP3    H132764   0.014   2.193   1.613  0.3567  0.6420 -0.5034
 3783TIP3    H232765  -0.013   2.081   1.516  0.5049 -0.0225  0.2126
 3784TIP3   OH232766   1.846   0.641   1.851 -0.0140 -0.0974  0.2252
 3784TIP3    H132767   1.919   0.704   1.858  0.8473 -0.9519 -0.6989
 3784TIP3    H232768   1.796   0.672   1.775  0.9545 -1.0258 -0.8293
 3785TIP3   OH232769   1.148   2.969   3.154  0.0655  0.0791  0.2014
 3785TIP3    H132770   1.053   2.969   3.164  0.0555 -0.8721  0.1584
 3785TIP3    H232771   1.163   3.002   3.066 -0.2424 -0.0661  0.0920
 3786TIP3   OH232772   4.379   6.130   3.219 -0.1382  0.6815  0.3255
 3786TIP3    H132773   4.311   6.064   3.204  0.6031  0.0677 -0.5105
 3786TIP3    H232774   4.425   6.098   3.296 -0.0377  0.4230  0.1637
 3787TIP3   OH232775   3.022   4.166  11.648 -0.4884  0.5567  0.0614
 3787TIP3    H132776   2.941   4.133  11.688  0.2919 -0.5220  0.8065
 3787TIP3    H232777   3.059   4.225  11.714  2.2798 -3.3913  2.4205
 3788TIP3   OH232778   5.623   2.487  11.918  0.7258 -0.0889 -0.6610
 3788TIP3    H132779   5.691   2.536  11.964 -0.9594  1.8959 -0.1165
 3788TIP3    H232780   5.652   2.486  11.827  2.8153 -1.7653 -0.0400
 3789TIP3   OH232781   0.795   3.345   1.680  0.1187  0.1709  1.0054
 3789TIP3    H132782   0.825   3.254   1.689 -1.0015 -0.2752  0.5300
 3789TIP3    H232783   0.762   3.368   1.767  0.7790  0.2710  1.2326
 3790TIP3   OH232784   3.616   0.735  15.401  0.1833  0.1360  0.0531
 3790TIP3    H132785   3.646   0.826  15.408 -0.4003  0.2714  0.9737
 3790TIP3    H232786   3.679   0.685  15.452  1.2427 -0.1710 -1.5069
 3791TIP3   OH232787   3.225   5.604   4.560  0.1092  0.4701  0.4320
 3791TIP3    H132788   3.143   5.555   4.549  0.3875 -0.1180  0.9796
 3791TIP3    H232789   3.230   5.658   4.481 -0.9203  0.6809  0.4860
 3792TIP3   OH232790   3.500   1.955  16.596  0.4873  0.2974  0.2803
 3792TIP3    H132791   3.562   1.961  16.670 -0.1483 -0.2619  0.8747
 3792TIP3    H232792   3.425   1.907  16.632 -1.2208  2.6914  0.2070
 3793TIP3   OH232793   0.081   6.200  10.561  0.5894  0.1966 -0.4057
 3793TIP3    H132794   0.120   6.279  10.597  0.1806  0.6568 -0.9578
 3793TIP3    H232795   0.120   6.128  10.611  1.0857  0.7361 -0.0189
 3794TIP3   OH232796   4.525   4.787  14.904  0.1450  0.5820  1.0906
 3794TIP3    H132797   4.499   4.707  14.949  1.2315 -0.4574 -0.0427
 3794TIP3    H232798   4.513   4.856  14.969  0.7231 -0.7100  2.6413
 3795TIP3   OH232799   6.285   6.734  15.449  0.3174 -0.5087 -0.3018
 3795TIP3    H132800   6.332   6.758  15.369  2.7991  1.2337  1.5292
 3795TIP3    H232801   6.238   6.814  15.473 -2.7365 -1.8409 -1.3910
 3796TIP3   OH232802   2.589   4.613   3.916  0.5256 -0.2444  0.2248
 3796TIP3    H132803   2.642   4.535   3.901 -0.5111 -1.0318  0.5777
 3796TIP3    H232804   2.630   4.681   3.862  1.0115 -1.2114 -0.6463
 3797TIP3   OH232805   4.745   3.021   0.135 -0.2781 -0.2850 -0.1797
 3797TIP3    H132806   4.788   3.103   0.108 -1.3028  0.6630  0.9353
 3797TIP3    H232807   4.727   3.034   0.228 -1.1067 -1.5015 -0.1607
 3798TIP3   OH232808   4.112   0.421   3.420 -0.3281 -0.5738 -0.2960
 3798TIP3    H132809   4.199   0.456   3.438 -0.2044  0.1132 -2.0177
 3798TIP3    H232810   4.127   0.347   3.361 -0.9111 -0.5010 -0.5454
 3799TIP3   OH232811   5.044   4.836   2.915  0.1984 -0.5010  0.0557
 3799TIP3    H132812   5.099   4.765   2.884  0.4787  0.5264 -1.9441
 3799TIP3    H232813   5.036   4.821   3.009  1.3136 -2.4142 -0.1127
 3800TIP3   OH232814   4.405   5.377   1.372 -0.6561 -0.0722  0.4283
 3800TIP3    H132815   4.388   5.463   1.410 -0.8760 -0.1408  0.4859
 3800TIP3    H232816   4.328   5.324   1.396 -0.7748 -0.1297 -0.0625
 3801TIP3   OH232817   4.652   5.151  11.707  0.3642 -0.1051 -0.1052
 3801TIP3    H132818   4.636   5.240  11.676 -1.1951  0.0957  1.1658
 3801TIP3    H232819   4.692   5.107  11.632 -1.7455  0.7718 -1.8776
 3802TIP3   OH232820   5.894   0.754  14.665 -0.1007  0.4915 -0.2612
 3802TIP3    H132821   5.820   0.694  14.673 -0.2124  0.8096  1.8151
 3802TIP3    H232822   5.891   0.806  14.746  1.3933  1.6686 -0.9085
 3803TIP3   OH232823   3.074   0.386   1.753 -0.5793 -0.4120  0.2238
 3803TIP3    H132824   3.091   0.345   1.668  0.1946  0.1382  0.0984
 3803TIP3    H232825   3.052   0.313   1.811  0.2485 -0.9501 -0.1250
 3804TIP3   OH232826   1.173   1.863   5.175  0.3127 -0.4260 -0.3998
 3804TIP3    H132827   1.093   1.857   5.228  0.5410  0.0117  0.0053
 3804TIP3    H232828   1.176   1.955   5.147 -0.6222 -0.9648 -2.4829
 3805TIP3   OH232829   4.513   4.355  17.096 -1.1273  0.2276  0.1790
 3805TIP3    H132830   4.500   4.331  17.188 -0.7347 -1.3848 -0.1437
 3805TIP3    H232831   4.563   4.281  17.060 -1.2974  0.8263 -1.3331
 3806TIP3   OH232832   5.278   5.312  15.832 -0.3742 -0.0792 -0.0816
 3806TIP3    H132833   5.229   5.251  15.778 -0.2094 -1.2139  0.9950
 3806TIP3    H232834   5.334   5.256  15.886  1.0182  1.1012 -0.2195
 3807TIP3   OH232835   6.527   4.794  16.149 -0.0198  0.4528 -0.1826
 3807TIP3    H132836   6.442   4.819  16.112  0.8622  0.9065 -2.0409
 3807TIP3    H232837   6.576   4.875  16.154  0.9012 -0.0449 -0.8098
 3808TIP3   OH232838   3.035   2.806  13.619  0.1136  0.0643  0.1053
 3808TIP3    H132839   2.959   2.807  13.561 -0.0018 -0.4203  0.2390
 3808TIP3    H232840   2.997   2.796  13.706  0.2345  1.7029  0.3739
 3809TIP3   OH232841   6.585   5.560  13.011 -0.3955  0.1221  0.1101
 3809TIP3    H132842   6.522   5.633  13.017 -0.4186  0.0476  0.8031
 3809TIP3    H232843   6.541   5.496  12.955 -0.4816  0.5272 -0.3014
 3810TIP3   OH232844   0.022   3.754  12.105 -0.2069 -0.2112 -0.0215
 3810TIP3    H132845   0.117   3.761  12.093 -0.0174  2.2209  2.0086
 3810TIP3    H232846   0.010   3.673  12.154  0.8314 -0.4878 -0.1926
 3811TIP3   OH232847   1.007   5.934   5.510 -0.4630 -0.3983 -0.1339
 3811TIP3    H132848   1.019   5.922   5.604 -0.8534  0.8770  0.0972
 3811TIP3    H232849   0.923   5.893   5.491  0.5279 -2.4457 -0.3223
 3812TIP3   OH232850   3.159   2.012  16.359  0.0920  0.2719  0.3337
 3812TIP3    H132851   3.164   1.919  16.338 -0.3864  0.5117 -0.9266
 3812TIP3    H232852   3.118   2.016  16.445  4.0114 -0.8762  2.5325
 3813TIP3   OH232853   0.243   4.060  15.455  1.1526  0.1799 -0.1087
 3813TIP3    H132854   0.334   4.089  15.461  1.2179 -0.1423  0.5845
 3813TIP3    H232855   0.247   3.966  15.477  0.3904  0.6138  2.1728
 3814TIP3   OH232856   3.325   6.733   5.114  0.4618  0.3070  0.0602
 3814TIP3    H132857   3.414   6.767   5.116  1.0505 -1.1451 -0.2638
 3814TIP3    H232858   3.334   6.644   5.080 -0.9980 -0.1901  0.8769
 3815TIP3   OH232859   6.466   4.678  11.895  0.2612 -0.0277 -0.5810
 3815TIP3    H132860   6.397   4.728  11.852 -1.1766 -0.4434  1.1331
 3815TIP3    H232861   6.479   4.722  11.979  0.5444 -1.2320  0.0282
 3816TIP3   OH232862   6.459   1.289   0.478 -0.2067 -0.2220 -0.0434
 3816TIP3    H132863   6.547   1.253   0.471  0.5023  1.3351  0.3621
 3816TIP3    H232864   6.470   1.381   0.454 -1.4574  0.3348  1.3991
 3817TIP3   OH232865   1.579   3.111  14.110 -0.3826  0.3228  0.1066
 3817TIP3    H132866   1.654   3.061  14.080 -0.2848  1.0110 -0.8360
 3817TIP3    H232867   1.585   3.195  14.064 -1.4962  0.5448  0.3290
 3818TIP3   OH232868   0.981   4.565  14.918  0.0251  0.3958 -0.0100
 3818TIP3    H132869   0.894   4.603  14.932 -0.8628 -1.5922  0.0986
 3818TIP3    H232870   1.004   4.592  14.829 -0.6254  1.0528  0.0059
 3819TIP3   OH232871   2.614   5.369   2.564 -0.7664  0.0688 -0.0355
 3819TIP3    H132872   2.635   5.446   2.512  0.6551 -0.4082 -0.2041
 3819TIP3    H232873   2.638   5.394   2.654  0.2862 -0.3605 -0.1794
 3820TIP3   OH232874   1.728   1.207   0.824  0.0050 -0.0485  0.0140
 3820TIP3    H132875   1.645   1.161   0.808  0.4475 -1.0462  0.5435
 3820TIP3    H232876   1.752   1.243   0.738 -1.6376  1.4236  0.1072
 3821TIP3   OH232877   6.620   0.740   1.553  0.0343  0.3826  0.0738
 3821TIP3    H132878   6.702   0.690   1.551  0.0252  0.3850 -0.5337
 3821TIP3    H232879   6.605   0.765   1.462 -1.3446 -0.7589 -0.0465
 3822TIP3   OH232880   4.119   1.880  16.926 -0.2907 -0.0280 -0.0314
 3822TIP3    H132881   4.194   1.937  16.942  0.6472 -1.4558  0.9027
 3822TIP3    H232882   4.102   1.838  17.011 -1.8367 -0.1013 -0.3438
 3823TIP3   OH232883   3.294   0.212  14.472 -0.0695 -0.5067 -0.0688
 3823TIP3    H132884   3.289   0.298  14.429 -0.1440  0.7094  2.2324
 3823TIP3    H232885   3.384   0.184  14.456  0.7579  1.2013  1.1891
 3824TIP3   OH232886   6.161   2.456   1.076 -0.3963 -0.3432 -0.0133
 3824TIP3    H132887   6.099   2.465   1.148 -2.7901 -0.0139 -1.9504
 3824TIP3    H232888   6.187   2.546   1.055 -0.1191 -0.3936  0.1173
 3825TIP3   OH232889   1.442   4.862   3.666 -0.1941 -0.1113 -0.1497
 3825TIP3    H132890   1.492   4.794   3.710  1.0533  0.3608 -0.8063
 3825TIP3    H232891   1.357   4.861   3.710  0.1446 -1.3920  0.5257
 3826TIP3   OH232892   3.561   0.897  11.258  0.1103  0.0769 -0.0304
 3826TIP3    H132893   3.635   0.915  11.315  0.1064  2.6476 -0.6839
 3826TIP3    H232894   3.485   0.895  11.316  0.4035  0.0579  0.3495
 3827TIP3   OH232895   2.596   4.376  11.937 -0.3620  0.2097  0.1887
 3827TIP3    H132896   2.667   4.312  11.932 -0.5588  0.0782 -1.0621
 3827TIP3    H232897   2.544   4.347  12.012  1.5269  0.9934  1.8926
 3828TIP3   OH232898   1.617   0.893  16.124 -0.4244  0.4072  0.0377
 3828TIP3    H132899   1.623   0.858  16.212  1.0281 -1.1487 -0.6216
 3828TIP3    H232900   1.523   0.900  16.106 -0.8075 -2.3295  0.5692
 3829TIP3   OH232901   3.774   1.483   3.689  0.3716  0.0263  0.2653
 3829TIP3    H132902   3.683   1.453   3.693 -0.1365  1.3763 -0.3580
 3829TIP3    H232903   3.808   1.470   3.777 -0.2558 -0.9923  0.3692
 3830TIP3   OH232904   4.479   6.104  11.347 -0.2780  0.1342 -0.2729
 3830TIP3    H132905   4.476   6.199  11.356  1.8719  0.3842 -1.7347
 3830TIP3    H232906   4.531   6.075  11.422 -0.1771  0.1777 -0.3271
 3831TIP3   OH232907   1.870   5.772   5.979  0.2593 -0.5677 -0.7248
 3831TIP3    H132908   1.964   5.787   5.982  0.0567  0.7048 -0.0268
 3831TIP3    H232909   1.841   5.819   5.901  0.0169  0.3549 -0.1042
 3832TIP3   OH232910   6.365   0.018   1.373 -0.0015 -0.2498 -0.0254
 3832TIP3    H132911   6.390   0.037   1.463  0.7649 -1.7581  0.1137
 3832TIP3    H232912   6.421  -0.055   1.347 -0.1724  0.1761 -1.7488
 3833TIP3   OH232913   1.095   6.111  14.717  0.1629 -0.1682 -0.0046
 3833TIP3    H132914   1.009   6.113  14.676 -0.2913  0.4535  0.9591
 3833TIP3    H232915   1.102   6.194  14.763  1.7985  0.3459 -1.0772
 3834TIP3   OH232916   0.746   4.680  15.083 -0.3916 -0.7526  0.0088
 3834TIP3    H132917   0.683   4.609  15.069 -1.5182  0.6140 -2.4405
 3834TIP3    H232918   0.693   4.760  15.081  1.0847  0.2829  0.7548
 3835TIP3   OH232919   3.466   2.577  15.436 -0.5109 -0.3352  0.6182
 3835TIP3    H132920   3.402   2.508  15.454 -1.0922  0.3571  1.3059
 3835TIP3    H232921   3.424   2.658  15.466 -0.1298  0.4357 -0.8006
 3836TIP3   OH232922   5.442   2.308   5.386 -0.3670 -0.1163 -0.5694
 3836TIP3    H132923   5.378   2.237   5.380  1.0346 -1.5382  0.3786
 3836TIP3    H232924   5.491   2.303   5.304  0.9152 -1.4862  0.2440
 3837TIP3   OH232925   6.437   2.409  11.766 -0.1793  0.0394  0.0535
 3837TIP3    H132926   6.381   2.484  11.750 -4.9493 -3.3701 -1.3543
 3837TIP3    H232927   6.438   2.399  11.861 -2.4842 -0.0157  0.1134
 3838TIP3   OH232928   3.641   6.069  12.818 -0.0878 -0.3641  0.1283
 3838TIP3    H132929   3.553   6.064  12.855  0.2580 -1.2102  0.8628
 3838TIP3    H232930   3.683   5.987  12.843  0.2779 -0.8544 -1.8714
 3839TIP3   OH232931   2.796   1.807   2.569  0.2305  0.1455 -0.1369
 3839TIP3    H132932   2.872   1.792   2.627  0.3898  0.2713 -0.3112
 3839TIP3    H232933   2.751   1.882   2.609  0.1930  0.0644 -0.0268
 3840TIP3   OH232934   3.616   6.774   4.927 -0.9596  0.0831 -0.1977
 3840TIP3    H132935   3.614   6.869   4.913  2.4118 -0.0232 -2.4450
 3840TIP3    H232936   3.639   6.764   5.019 -0.6151  1.4581 -0.1095
 3841TIP3   OH232937   0.145   6.410  16.245 -0.1424  0.1763 -0.5605
 3841TIP3    H132938   0.093   6.474  16.294 -0.3850 -1.5467  1.5727
 3841TIP3    H232939   0.120   6.326  16.282  3.5510 -0.8225  0.0188
 3842TIP3   OH232940   6.063   3.327  14.505  0.7743  0.7818  0.4654
 3842TIP3    H132941   6.091   3.383  14.578  0.1899 -0.0356  1.3436
 3842TIP3    H232942   6.038   3.245  14.546  1.1618  0.0336 -0.7614
 3843TIP3   OH232943   1.340   1.349   4.889 -0.1541 -0.3027  0.1468
 3843TIP3    H132944   1.279   1.417   4.862  0.5948 -0.2367 -1.4901
 3843TIP3    H232945   1.304   1.316   4.972  0.1093  2.8644  1.6404
 3844TIP3   OH232946   4.602   1.163   5.719 -0.0774  0.1880  0.3068
 3844TIP3    H132947   4.509   1.168   5.743 -0.9944 -1.6726 -2.4128
 3844TIP3    H232948   4.609   1.216   5.640  0.6921 -1.3557 -0.6938
 3845TIP3   OH232949   0.706   1.691   4.240 -0.6242  0.1883 -0.3279
 3845TIP3    H132950   0.685   1.782   4.263  0.9516  0.2935  0.8092
 3845TIP3    H232951   0.653   1.639   4.300 -1.2368  0.3405 -0.7217
 3846TIP3   OH232952   1.819   3.443  11.659 -0.7397  0.1970 -0.4733
 3846TIP3    H132953   1.868   3.414  11.735 -2.0934  2.7760  1.5444
 3846TIP3    H232954   1.769   3.366  11.632  0.9544 -1.2018  0.2009
 3847TIP3   OH232955   3.958   2.198   4.570 -0.0346 -0.5552  0.1847
 3847TIP3    H132956   3.928   2.108   4.584  2.7060 -2.0291 -2.2955
 3847TIP3    H232957   3.915   2.225   4.489  0.2307 -0.1623  0.1747
 3848TIP3   OH232958   0.827   6.464  15.565  0.3399 -0.4408  0.4683
 3848TIP3    H132959   0.910   6.510  15.553  0.7002 -1.6382 -2.3825
 3848TIP3    H232960   0.781   6.475  15.482 -1.4841 -1.5104  1.2689
 3849TIP3   OH232961   1.807   4.319  16.942 -0.3345 -0.1444 -0.1637
 3849TIP3    H132962   1.753   4.292  16.867 -1.4053 -1.4391  1.0141
 3849TIP3    H232963   1.832   4.236  16.984 -1.7495  0.5619  2.2586
 3850TIP3   OH232964   5.137   6.121  11.294 -0.4319  0.9839  0.2049
 3850TIP3    H132965   5.111   6.066  11.368 -2.1541 -0.4608 -1.3752
 3850TIP3    H232966   5.205   6.178  11.329  0.5035 -1.2626  2.2761
 3851TIP3   OH232967   1.825   2.920   0.109 -0.6827 -0.0107  0.1905
 3851TIP3    H132968   1.838   2.950   0.019 -1.1396  1.0968  0.4709
 3851TIP3    H232969   1.754   2.856   0.103  0.7677 -1.5922 -0.5186
 3852TIP3   OH232970   0.257   6.378  16.569 -0.8574  0.0260 -0.0256
 3852TIP3    H132971   0.239   6.320  16.495  1.9517 -0.2935 -0.5935
 3852TIP3    H232972   0.321   6.330  16.622 -0.4984  1.5093  0.9516
 3853TIP3   OH232973   6.599   1.596   5.724 -0.4643  0.2309 -0.3874
 3853TIP3    H132974   6.606   1.643   5.641 -0.2024 -0.3091 -0.6794
 3853TIP3    H232975   6.689   1.590   5.756 -0.5490  0.3225 -0.1300
 3854TIP3   OH232976   4.796   0.964  12.101 -0.0083 -0.7591  0.2052
 3854TIP3    H132977   4.761   0.879  12.077 -0.9107 -0.5086  0.5614
 3854TIP3    H232978   4.854   0.947  12.175  0.6198 -1.1789 -0.3722
 3855TIP3   OH232979   4.005   5.541   6.002 -0.0889  0.5572 -0.1594
 3855TIP3    H132980   3.967   5.594   6.072  1.7607 -0.3558  1.6556
 3855TIP3    H232981   4.073   5.490   6.045  1.3342  0.1364 -2.7036
 3856TIP3   OH232982   2.397   5.929  16.569  0.1625 -0.3744  0.5799
 3856TIP3    H132983   2.341   6.006  16.563  0.6615  0.0453  1.2113
 3856TIP3    H232984   2.485   5.962  16.554  0.1923 -1.1459 -1.1232
 3857TIP3   OH232985   0.690   2.073  12.979 -0.6150 -0.2078  0.0957
 3857TIP3    H132986   0.697   2.092  13.072  1.4542 -1.0480  0.1485
 3857TIP3    H232987   0.646   1.988  12.974  2.1090 -1.7532  0.5357
 3858TIP3   OH232988   6.360   3.413   0.582  0.0464 -0.1977 -0.1708
 3858TIP3    H132989   6.412   3.463   0.520  0.0577 -2.0814 -1.7925
 3858TIP3    H232990   6.421   3.392   0.653  0.5208  0.5390 -0.3514
 3859TIP3   OH232991   2.192   5.260  13.842 -0.0717  0.3534 -0.1466
 3859TIP3    H132992   2.208   5.234  13.751 -0.2846  0.1025 -0.1114
 3859TIP3    H232993   2.108   5.221  13.864  0.3377 -0.2304  0.4139
 3860TIP3   OH232994   5.425   1.357  12.379 -0.0911 -0.3026 -0.1158
 3860TIP3    H132995   5.487   1.395  12.316  1.6304  0.8896  2.1694
 3860TIP3    H232996   5.378   1.432  12.415 -0.0450 -0.8095  1.0390
 3861TIP3   OH232997   3.601   5.366   0.832 -0.2040  0.2131  0.1104
 3861TIP3    H132998   3.577   5.456   0.812 -0.4058  0.1162 -0.0940
 3861TIP3    H232999   3.639   5.370   0.920  0.0734  0.5445 -0.0196
 3862TIP3   OH233000   4.197   6.619   4.423 -0.1053 -0.3132  0.1535
 3862TIP3    H133001   4.251   6.595   4.498 -1.3228  1.9689  1.9123
 3862TIP3    H233002   4.113   6.644   4.461 -0.8521  0.7248 -1.9896
 3863TIP3   OH233003   6.375   3.168   5.355  0.0745 -0.6724 -0.5837
 3863TIP3    H133004   6.303   3.134   5.408  2.7428 -0.8854  3.3492
 3863TIP3    H233005   6.441   3.099   5.356  1.9309  0.9869 -0.4274
 3864TIP3   OH233006   0.723   6.233   4.020  0.2478 -0.2362  0.1009
 3864TIP3    H133007   0.808   6.206   3.983  0.7553  0.4085  0.7747
 3864TIP3    H233008   0.746   6.295   4.089 -0.8569  1.3148 -0.8751
 3865TIP3   OH233009   1.291   4.151   1.198  0.5453  0.2029 -1.1037
 3865TIP3    H133010   1.328   4.130   1.283  0.3221 -1.0853 -1.3125
 3865TIP3    H233011   1.344   4.102   1.135 -1.1140 -1.2624 -1.4480
 3866TIP3   OH233012   0.926   1.264  14.355  0.1178  0.3438 -0.3021
 3866TIP3    H133013   0.878   1.308  14.425 -0.2486 -0.6179  0.0761
 3866TIP3    H233014   1.004   1.318  14.342 -0.2388  1.0149  0.2409
 3867TIP3   OH233015   4.731   2.672   2.156  0.1660  0.5168  0.2284
 3867TIP3    H133016   4.730   2.577   2.161 -0.0471  0.5208  0.2705
 3867TIP3    H233017   4.788   2.692   2.082  1.9292  0.4082  1.4826
 3868TIP3   OH233018   6.501   0.519   1.054 -0.3356 -0.7206  0.0257
 3868TIP3    H133019   6.491   0.611   1.078  1.3331 -0.1024 -1.3779
 3868TIP3    H233020   6.445   0.472   1.115 -1.9805  1.2813  0.1966
 3869TIP3   OH233021   6.458   6.747   5.640 -0.3701  0.3739 -0.1694
 3869TIP3    H133022   6.397   6.806   5.597 -2.6654 -0.8122  1.2613
 3869TIP3    H233023   6.412   6.663   5.644  1.6971 -0.8139  0.2391
 3870TIP3   OH233024   4.960   1.107  14.367 -0.1036  0.0570 -0.3145
 3870TIP3    H133025   4.912   1.147  14.440  0.1096  0.0156 -0.1522
 3870TIP3    H233026   5.045   1.085  14.403  1.1127  2.7051 -1.2929
 3871TIP3   OH233027   2.905   6.482  14.548 -0.3574  0.0274  0.0004
 3871TIP3    H133028   2.854   6.433  14.612  1.1403 -1.9642 -0.2142
 3871TIP3    H233029   2.843   6.543  14.509 -1.8432 -0.2996  1.7183
 3872TIP3   OH233030   2.570   4.409  15.184 -0.4112 -0.5406 -0.0469
 3872TIP3    H133031   2.596   4.417  15.092  2.4843  0.2363  0.7514
 3872TIP3    H233032   2.581   4.316  15.204 -0.3989 -0.5940 -0.2967
 3873TIP3   OH233033   4.743   3.859   4.936  0.5811 -0.1658  0.0879
 3873TIP3    H133034   4.665   3.912   4.952  0.0186 -1.0366  0.3093
 3873TIP3    H233035   4.810   3.922   4.910  0.1556  0.7414  1.1150
 3874TIP3   OH233036   5.826   2.250   0.167  0.0771 -0.1188 -0.4589
 3874TIP3    H133037   5.869   2.214   0.245  0.1633  0.0247 -0.4408
 3874TIP3    H233038   5.767   2.180   0.138 -0.6158  0.1653  0.2474
 3875TIP3   OH233039   2.783   5.594   2.431  0.0415 -1.4765  0.2074
 3875TIP3    H133040   2.692   5.606   2.405 -0.3915 -1.1744  1.7659
 3875TIP3    H233041   2.826   5.676   2.407 -0.0804 -1.6411 -0.5816
 3876TIP3   OH233042   0.904   5.006  12.606  0.2870  0.0371 -0.4950
 3876TIP3    H133043   0.847   5.074  12.570 -0.1421 -0.8148 -1.4568
 3876TIP3    H233044   0.934   4.956  12.530  1.4690 -0.1988  0.0911
 3877TIP3   OH233045   5.191   4.086  13.528  0.4775  0.2843  0.1740
 3877TIP3    H133046   5.123   4.021  13.546 -0.9280  1.8059  0.5835
 3877TIP3    H233047   5.239   4.093  13.610 -0.6186  1.1517  0.7689
 3878TIP3   OH233048   5.443   5.998   4.184 -0.4555 -0.0805 -0.6238
 3878TIP3    H133049   5.353   6.024   4.204 -0.1063  1.0051 -0.3929
 3878TIP3    H233050   5.479   5.968   4.267 -0.7044 -0.8548 -0.7887
 3879TIP3   OH233051   4.778   3.416  12.732 -0.1792  0.3338 -0.1241
 3879TIP3    H133052   4.809   3.367  12.808 -0.9680 -0.6892 -0.4350
 3879TIP3    H233053   4.682   3.412  12.739 -0.2572  0.4414 -1.0351
 3880TIP3   OH233054   4.287   2.209  13.914 -0.1884 -0.0258  0.9477
 3880TIP3    H133055   4.280   2.275  13.845 -0.3994  0.7110  1.6511
 3880TIP3    H233056   4.355   2.149  13.884  0.6476  1.0164  0.6933
 3881TIP3   OH233057   2.822   3.592   3.972 -0.5654  0.3134  0.1437
 3881TIP3    H133058   2.897   3.551   4.014 -0.6812  0.2505  0.2918
 3881TIP3    H233059   2.856   3.626   3.889 -0.1121  1.2667  0.6941
 3882TIP3   OH233060   1.817   2.996  14.071 -0.3981 -0.2247 -0.3732
 3882TIP3    H133061   1.842   3.012  14.162 -0.9884  1.9766 -0.5614
 3882TIP3    H233062   1.894   3.022  14.020 -1.2059  1.8096 -0.6526
 3883TIP3   OH233063   1.828   2.401   0.102 -0.0046  1.0026  0.0962
 3883TIP3    H133064   1.823   2.310   0.128  0.5291  0.7952 -0.5082
 3883TIP3    H233065   1.737   2.432   0.106  0.1500  1.4036  3.5208
 3884TIP3   OH233066   0.410   4.507   0.342  0.2841 -0.1251  0.1442
 3884TIP3    H133067   0.489   4.558   0.359  0.5181 -0.5529  0.3612
 3884TIP3    H233068   0.385   4.530   0.252  0.4308  0.3042  0.2106
 3885TIP3   OH233069   5.510   0.784   1.685  0.3985  0.0968  0.4721
 3885TIP3    H133070   5.457   0.752   1.612 -1.1968  0.4413  1.4362
 3885TIP3    H233071   5.541   0.869   1.656 -1.4246  0.8890  0.7046
 3886TIP3   OH233072   5.288   2.170   1.458 -0.8887 -0.3731  0.0960
 3886TIP3    H133073   5.240   2.088   1.451 -0.7567 -0.4845  0.4507
 3886TIP3    H233074   5.346   2.157   1.533  1.1667 -0.9997 -1.4888
 3887TIP3   OH233075   6.550   1.817  13.858  0.0664 -0.5292  0.5910
 3887TIP3    H133076   6.516   1.755  13.793 -1.1632  2.8924 -2.3515
 3887TIP3    H233077   6.636   1.843  13.823  0.0652  0.2755  1.1554
 3888TIP3   OH233078   2.611   5.679   3.655  0.2947  0.1754 -0.0298
 3888TIP3    H133079   2.591   5.608   3.715  2.0111 -1.6297 -1.4346
 3888TIP3    H233080   2.684   5.727   3.696  0.0121  0.3098  0.3152
 3889TIP3   OH233081   4.721   2.055  13.525 -0.0140 -0.6387  0.2572
 3889TIP3    H133082   4.655   2.084  13.462  1.1087  0.5749 -0.4174
 3889TIP3    H233083   4.697   2.099  13.606 -1.7986 -2.6461  0.9214
 3890TIP3   OH233084   2.901   0.899  15.207 -0.0207 -0.1069  0.1896
 3890TIP3    H133085   2.851   0.965  15.253 -1.1712  0.5393 -1.8551
 3890TIP3    H233086   2.839   0.827  15.192  0.7855 -1.0061  1.0423
 3891TIP3   OH233087   1.778   2.191  13.581  0.1731  0.0635  0.2153
 3891TIP3    H133088   1.832   2.244  13.640  0.2896 -0.8236  0.9358
 3891TIP3    H233089   1.693   2.235  13.579  0.3149  0.3609  0.6762
 3892TIP3   OH233090   1.391   2.494   4.921  0.1485  0.7678 -0.4153
 3892TIP3    H133091   1.310   2.543   4.932 -0.1919  0.2294 -0.4953
 3892TIP3    H233092   1.426   2.525   4.838  0.1440  1.1657 -0.2721
 3893TIP3   OH233093   2.664   4.410   0.547 -0.5133  0.3972 -0.5344
 3893TIP3    H133094   2.752   4.420   0.582 -0.5027  2.9513 -1.1357
 3893TIP3    H233095   2.650   4.315   0.544  2.2905 -0.0729 -0.6892
 3894TIP3   OH233096   2.852   2.301   3.720 -0.5058 -0.1699  0.1784
 3894TIP3    H133097   2.887   2.225   3.674  0.6972 -0.5980  1.6839
 3894TIP3    H233098   2.921   2.367   3.713 -2.1736  1.4894 -2.5169
 3895TIP3   OH233099   3.823   4.747  12.959 -0.5498 -0.1274 -0.1723
 3895TIP3    H133100   3.840   4.768  13.051 -0.8128  0.9029 -0.3514
 3895TIP3    H233101   3.798   4.655  12.960 -0.9101 -0.0306  0.8394
 3896TIP3   OH233102   5.452   3.692  11.652  0.6298  0.9602 -0.3292
 3896TIP3    H133103   5.406   3.756  11.599  1.1241  1.2291 -0.4420
 3896TIP3    H233104   5.385   3.629  11.678  0.5072  0.3655 -1.9543
 3897TIP3   OH233105   1.329   4.483  16.996  0.3003 -0.6075  0.0762
 3897TIP3    H133106   1.261   4.505  17.059 -0.2322 -1.6375 -0.1142
 3897TIP3    H233107   1.291   4.504  16.911  1.3963  1.7635  0.0962
 3898TIP3   OH233108   2.991   4.604   5.316 -0.6625  0.2300  0.6006
 3898TIP3    H133109   2.979   4.679   5.374  2.1896  1.2602  0.0287
 3898TIP3    H233110   3.047   4.544   5.366 -0.1189  0.0608 -0.1931
 3899TIP3   OH233111   4.466   0.496   0.032 -0.6960 -0.2300 -0.2983
 3899TIP3    H133112   4.391   0.543   0.070 -0.4766 -0.6010  0.6240
 3899TIP3    H233113   4.523   0.565  -0.002 -1.3498  0.0630 -0.8145
 3900TIP3   OH233114   0.973   1.571   0.261  0.8633 -0.2213  0.1558
 3900TIP3    H133115   0.986   1.599   0.170  0.2766 -2.0387 -0.5232
 3900TIP3    H233116   0.964   1.476   0.257 -0.5736 -0.2291  1.9496
 3901TIP3   OH233117   2.978   5.236   4.158 -0.0301 -0.4393  0.1225
 3901TIP3    H133118   3.048   5.294   4.128 -1.9866  2.8297  1.3869
 3901TIP3    H233119   3.017   5.149   4.155  3.3489  0.9349 -1.2811
 3902TIP3   OH233120   0.879   4.475  12.618 -0.6041  0.6681 -0.8973
 3902TIP3    H133121   0.850   4.502  12.531 -1.3876  0.3767 -0.7325
 3902TIP3    H233122   0.933   4.397  12.603  0.3956  1.3967 -1.2318
 3903TIP3   OH233123   2.211   3.602   6.025  0.0662 -1.0209  0.3660
 3903TIP3    H133124   2.250   3.687   6.049  1.1607 -1.1161 -0.9277
 3903TIP3    H233125   2.205   3.554   6.107 -1.4638  0.6366  1.2840
 3904TIP3   OH233126   3.485   6.395  14.226 -0.2232  0.1359 -0.3893
 3904TIP3    H133127   3.504   6.479  14.186  2.1752  0.0987  0.5146
 3904TIP3    H233128   3.390   6.394  14.237 -0.3241  2.6200 -0.6085
 3905TIP3   OH233129   3.870   6.027  10.872  0.0194  0.7450  0.3769
 3905TIP3    H133130   3.964   6.025  10.891  0.2262  0.1520 -0.6326
 3905TIP3    H233131   3.859   5.965  10.800 -0.7967  2.3604 -0.9666
 3906TIP3   OH233132   1.221   1.618  17.007 -0.4239 -0.0401  0.0916
 3906TIP3    H133133   1.136   1.575  17.018 -0.0087 -1.6590 -2.2036
 3906TIP3    H233134   1.200   1.701  16.964 -0.8818 -0.2466 -0.0914
 3907TIP3   OH233135   6.764   0.063  11.077 -0.5410 -0.5099  0.5440
 3907TIP3    H133136   6.738   0.119  11.003 -0.3067 -0.9699  0.1123
 3907TIP3    H233137   6.843   0.105  11.112 -1.5117  0.5850  1.5186
 3908TIP3   OH233138   0.743   1.656  13.998  0.2275  0.1754 -0.3577
 3908TIP3    H133139   0.686   1.726  14.030 -0.0058  1.6835 -3.5697
 3908TIP3    H233140   0.741   1.589  14.066 -1.2308  2.3851  1.9582
 3909TIP3   OH233141   4.352   5.631  13.853  0.5767  0.1505 -0.2223
 3909TIP3    H133142   4.329   5.604  13.764 -2.8335 -0.1300  0.6222
 3909TIP3    H233143   4.295   5.705  13.872  0.5681 -0.3577  2.0325
 3910TIP3   OH233144   0.765   4.766  16.680  0.0508  0.6729 -0.3286
 3910TIP3    H133145   0.808   4.851  16.672  0.5474  0.5489  0.8431
 3910TIP3    H233146   0.689   4.783  16.735  0.9790  0.1049  1.1882
 3911TIP3   OH233147   3.624   3.809  16.434  0.0288 -0.5370 -0.0634
 3911TIP3    H133148   3.596   3.873  16.499 -0.2686 -1.5986  0.8815
 3911TIP3    H233149   3.719   3.805  16.443 -0.0274 -0.8144  0.4535
 3912TIP3   OH233150   2.081   0.743  11.190  0.1297  0.2792  0.2229
 3912TIP3    H133151   2.071   0.733  11.096 -2.2423 -1.7630  0.5872
 3912TIP3    H233152   2.109   0.656  11.221  2.0949  1.2284  1.3293
 3913TIP3   OH233153   3.996   2.873   3.707 -0.3661 -0.3989  0.5435
 3913TIP3    H133154   4.019   2.834   3.623 -0.8632 -1.3325  0.8398
 3913TIP3    H233155   3.906   2.904   3.696 -0.3063 -0.1907  0.6235
 3914TIP3   OH233156   4.396   2.509  15.323 -0.2860  0.0654 -0.2400
 3914TIP3    H133157   4.393   2.581  15.386  2.3291  0.5542 -0.5457
 3914TIP3    H233158   4.332   2.446  15.355  0.5497  0.5110  2.6244
 3915TIP3   OH233159   0.084   2.302   6.213  0.0726  0.0779  0.0235
 3915TIP3    H133160   0.060   2.388   6.249 -0.9163 -0.5147  0.8637
 3915TIP3    H233161   0.178   2.296   6.226  0.2648  1.2840 -0.6267
 3916TIP3   OH233162   0.139   5.357  12.734  0.4189 -0.2889 -0.2986
 3916TIP3    H133163   0.218   5.410  12.739  0.4353 -0.3644  0.2536
 3916TIP3    H233164   0.130   5.318  12.821  0.3607 -1.1289 -0.6724
 3917TIP3   OH233165   3.037   4.085   1.987 -0.0492  0.4409 -0.1737
 3917TIP3    H133166   3.124   4.101   2.022  0.3213 -1.9215  0.1375
 3917TIP3    H233167   3.012   4.000   2.022 -2.2000  0.7464 -0.8278
 3918TIP3   OH233168   0.773   0.755   3.202  0.1300  0.2411 -0.8235
 3918TIP3    H133169   0.732   0.819   3.260  0.8228  1.0222 -1.1710
 3918TIP3    H233170   0.706   0.736   3.137 -0.8360 -1.0111  0.4672
 3919TIP3   OH233171   0.032   0.866  16.758  0.1141  0.0681 -0.8156
 3919TIP3    H133172  -0.055   0.850  16.795  0.3046  0.7921 -0.0201
 3919TIP3    H233173   0.085   0.793  16.790  0.4047  0.9383  0.8529
 3920TIP3   OH233174   5.723   2.951   0.915  0.1986 -0.1496 -0.4091
 3920TIP3    H133175   5.736   2.856   0.920  2.8497  0.1801  0.6358
 3920TIP3    H233176   5.659   2.970   0.983  1.8175 -0.9408  1.4277
 3921TIP3   OH233177   4.805   6.416  13.498 -0.3167 -0.1507 -0.1597
 3921TIP3    H133178   4.862   6.394  13.572  0.1067  2.5219  0.4342
 3921TIP3    H233179   4.725   6.366  13.513 -1.0388  1.7127  3.2939
 3922TIP3   OH233180   4.864   0.348  11.572 -0.0356  0.0770  0.4035
 3922TIP3    H133181   4.790   0.374  11.518 -1.3649 -0.9292  1.6661
 3922TIP3    H233182   4.941   0.385  11.528 -1.1933  0.4460 -1.3839
 3923TIP3   OH233183   6.337   1.586   4.156  0.0203 -0.2250 -0.4067
 3923TIP3    H133184   6.429   1.581   4.132 -0.4354  0.7733 -2.6617
 3923TIP3    H233185   6.303   1.658   4.104 -1.7134  0.4885  1.5840
 3924TIP3   OH233186   3.484   3.908  11.382 -0.1957  0.5421 -0.1865
 3924TIP3    H133187   3.552   3.870  11.437 -0.9239 -1.3012 -0.4762
 3924TIP3    H233188   3.467   3.994  11.420  1.0895  0.3500  0.9006
 3925TIP3   OH233189   5.473   3.499   0.806 -0.3548  0.8640  0.2770
 3925TIP3    H133190   5.535   3.449   0.753  0.4034 -1.5919  3.1873
 3925TIP3    H233191   5.390   3.452   0.796 -0.2011  0.3699  1.1886
 3926TIP3   OH233192   4.754   2.318  12.124 -0.3779 -0.5178 -0.3167
 3926TIP3    H133193   4.769   2.227  12.101  2.5752 -0.3247  0.4377
 3926TIP3    H233194   4.730   2.316  12.217 -0.7879 -0.5532 -0.4228
 3927TIP3   OH233195   0.708   2.961  13.174  0.7981  0.1577 -0.3609
 3927TIP3    H133196   0.795   2.949  13.137  0.6077 -0.6691 -0.5679
 3927TIP3    H233197   0.722   2.967  13.268  0.9287 -2.0524 -0.1819
 3928TIP3   OH233198   1.393   0.392  11.841  0.7231 -0.3864 -0.1780
 3928TIP3    H133199   1.374   0.424  11.930  3.0165 -0.3623  0.3835
 3928TIP3    H233200   1.382   0.468  11.785 -1.8935 -0.6630 -0.1735
 3929TIP3   OH233201   6.695   0.385  14.734 -0.6999 -0.0622  0.1453
 3929TIP3    H133202   6.742   0.466  14.755 -1.7923  1.4320 -2.7480
 3929TIP3    H233203   6.764   0.324  14.709 -0.0492  1.1437 -1.1297
 3930TIP3   OH233204   2.193   2.198  11.741 -0.2312 -0.2558 -0.3667
 3930TIP3    H133205   2.132   2.142  11.693  0.1292 -3.6818  2.6629
 3930TIP3    H233206   2.138   2.247  11.802 -0.2456 -0.2795 -0.3606
 3931TIP3   OH233207   5.367   1.069   6.172 -0.3886  0.5674 -0.1138
 3931TIP3    H133208   5.340   1.102   6.258  0.5619  0.3306  0.2971
 3931TIP3    H233209   5.365   1.145   6.115  0.7059  1.1293  0.5577
 3932TIP3   OH233210   2.302   3.359   1.417  0.1492 -0.4749  0.1404
 3932TIP3    H133211   2.397   3.351   1.413  0.3792  1.7008 -0.2871
 3932TIP3    H233212   2.275   3.371   1.325 -0.3467  0.3296  0.3753
 3933TIP3   OH233213   4.780   1.757  13.436  0.3575 -0.4235 -0.4493
 3933TIP3    H133214   4.873   1.771  13.419  0.8392 -1.9042  0.7969
 3933TIP3    H233215   4.754   1.832  13.490  0.9774 -0.3611 -0.2387
 3934TIP3   OH233216   0.205   0.614   5.577 -0.4394  0.0014 -0.2231
 3934TIP3    H133217   0.282   0.559   5.591 -0.9161 -0.1379  2.0965
 3934TIP3    H233218   0.145   0.558   5.528  0.1180 -0.6034 -0.2344
 3935TIP3   OH233219   2.160   0.952   3.035 -0.1252 -0.0176 -0.0150
 3935TIP3    H133220   2.114   0.923   2.956  0.0599  0.4131 -0.2827
 3935TIP3    H233221   2.232   1.006   3.003 -0.2059  0.3768  0.4566
 3936TIP3   OH233222   0.212   6.277  12.452 -0.3677  0.4334  0.1049
 3936TIP3    H133223   0.258   6.203  12.491 -1.2706 -0.4237 -0.3994
 3936TIP3    H233224   0.251   6.287  12.365  0.6240  1.3848  0.6426
 3937TIP3   OH233225   6.216   4.272   3.002  0.4754  0.0341  0.1465
 3937TIP3    H133226   6.169   4.308   3.078  2.9430  1.4344  1.1657
 3937TIP3    H233227   6.153   4.277   2.930 -1.1859  0.9996  1.5679
 3938TIP3   OH233228   2.269   3.882  12.315 -0.4287  0.9052 -0.3620
 3938TIP3    H133229   2.227   3.906  12.232 -0.4903  1.0534 -0.2881
 3938TIP3    H233230   2.313   3.799  12.296 -0.8582  0.6837 -0.4023
 3939TIP3   OH233231   1.334   6.641   2.232 -0.6373 -0.4215  0.6085
 3939TIP3    H133232   1.319   6.710   2.297 -1.6128 -0.6911  0.6829
 3939TIP3    H233233   1.403   6.586   2.270  1.1451  1.2395 -0.0382
 3940TIP3   OH233234   0.606   5.360   5.920  0.5945 -0.1502 -0.3526
 3940TIP3    H133235   0.691   5.403   5.920 -0.0664  1.2186 -1.2249
 3940TIP3    H233236   0.615   5.290   5.855  1.3125 -0.6082  0.2188
 3941TIP3   OH233237   5.868   3.888  15.055  0.0839  0.1689  0.3163
 3941TIP3    H133238   5.831   3.801  15.066 -0.2404  0.1779 -0.5885
 3941TIP3    H233239   5.863   3.928  15.142  0.2854 -0.7266  0.7469
 3942TIP3   OH233240   0.541   3.558  15.191 -0.5784  0.1871  0.2686
 3942TIP3    H133241   0.542   3.485  15.130 -0.2623  1.3213 -1.1234
 3942TIP3    H233242   0.556   3.636  15.137 -0.2857  1.2371  1.7820
 3943TIP3   OH233243   2.658   2.039   6.262  0.4165  0.7004  0.2031
 3943TIP3    H133244   2.583   1.980   6.267  1.4026 -0.6707 -0.4973
 3943TIP3    H233245   2.621   2.127   6.275 -1.5031  0.1937 -1.3388
 3944TIP3   OH233246   1.887   5.921   2.632  0.3550  0.2622 -0.1809
 3944TIP3    H133247   1.818   5.965   2.680 -0.9853 -0.3879 -1.4325
 3944TIP3    H233248   1.924   5.858   2.694  0.1638  0.9324  0.6338
 3945TIP3   OH233249   2.684   6.322  11.086  0.7014 -0.1457 -0.6194
 3945TIP3    H133250   2.675   6.269  11.007 -0.1427 -0.3971 -0.3691
 3945TIP3    H233251   2.685   6.412  11.055 -1.6149 -0.1281 -0.8225
 3946TIP3   OH233252   0.250   1.785   0.506  0.3671  0.4471  0.1500
 3946TIP3    H133253   0.260   1.880   0.503  0.7565  0.3807 -0.8698
 3946TIP3    H233254   0.294   1.753   0.428  2.1421 -0.7477  1.5612
 3947TIP3   OH233255   3.096   4.842   5.722 -0.6685  0.2227  0.3185
 3947TIP3    H133256   3.124   4.855   5.812  0.0972 -1.5332  0.3951
 3947TIP3    H233257   3.169   4.874   5.669  0.7970 -2.4907  0.4810
 3948TIP3   OH233258   1.031   3.094  13.658  0.1601  0.2201 -0.5391
 3948TIP3    H133259   1.108   3.151  13.657 -1.0799  2.0148  0.6813
 3948TIP3    H233260   1.060   3.016  13.706  0.9893  1.2626  0.7529
 3949TIP3   OH233261   0.390   3.088  10.925 -0.2411 -0.8089 -0.1137
 3949TIP3    H133262   0.480   3.064  10.903  0.2354  0.7712 -0.0434
 3949TIP3    H233263   0.398   3.142  11.003 -1.3114 -1.0783  0.1938
 3950TIP3   OH233264   3.999   1.230   2.087 -0.3367 -0.6821  0.2252
 3950TIP3    H133265   3.970   1.261   2.173  0.1488  0.9396 -0.1481
 3950TIP3    H233266   3.936   1.269   2.025 -0.0749 -0.9670 -0.2272
 3951TIP3   OH233267   5.101   1.171   5.068 -0.3913 -0.5329  0.0766
 3951TIP3    H133268   5.182   1.215   5.092 -1.2631  1.3075 -0.1598
 3951TIP3    H233269   5.107   1.085   5.109  2.5160 -1.2283 -1.5084
 3952TIP3   OH233270   4.923   1.312   1.031  0.1553  0.2257 -0.6722
 3952TIP3    H133271   4.837   1.277   1.056  0.6370 -1.2491 -1.0044
 3952TIP3    H233272   4.941   1.272   0.946  1.0235  0.8000 -0.7668
 3953TIP3   OH233273   1.072   2.736   3.352  0.4888  1.1249 -0.0769
 3953TIP3    H133274   1.056   2.781   3.269  2.2970 -0.7408 -1.5559
 3953TIP3    H233275   1.137   2.790   3.397  1.6595  0.7013 -1.2233
 3954TIP3   OH233276   1.928   2.774  15.627 -0.4870 -0.8342  0.3436
 3954TIP3    H133277   1.954   2.824  15.705 -0.6165 -0.7894  0.3577
 3954TIP3    H233278   1.876   2.836  15.576 -0.2268 -0.7976  0.1203
 3955TIP3   OH233279   2.422   3.921  13.217  0.3871 -0.3688  0.5431
 3955TIP3    H133280   2.455   3.978  13.286  1.7917  0.9233 -1.0867
 3955TIP3    H233281   2.456   3.960  13.136 -0.4702 -2.2867 -0.8139
 3956TIP3   OH233282   1.384   3.911  14.698  0.4288  0.5480 -0.2563
 3956TIP3    H133283   1.341   3.871  14.622  1.2128  0.4912 -0.6789
 3956TIP3    H233284   1.321   3.900  14.769 -0.2767  0.5095 -0.8705
 3957TIP3   OH233285   2.464   4.282   2.980  0.0410 -0.0537 -0.3296
 3957TIP3    H133286   2.490   4.301   2.890  0.5498  0.3434 -0.1044
 3957TIP3    H233287   2.407   4.206   2.973  1.6099 -1.2514 -0.8142
 3958TIP3   OH233288   0.658   6.190   2.911 -0.7575 -0.0324  1.0679
 3958TIP3    H133289   0.593   6.174   2.842 -0.4556  0.8765  0.5598
 3958TIP3    H233290   0.703   6.106   2.921  1.1694  0.5028 -1.9376
 3959TIP3   OH233291   3.833   2.395  16.956  0.5531  0.1117 -0.1510
 3959TIP3    H133292   3.821   2.301  16.949  0.5279 -0.0104  1.2810
 3959TIP3    H233293   3.768   2.432  16.896 -0.0444 -0.7596 -0.0611
 3960TIP3   OH233294   1.978   3.699  12.276  0.4218  0.5754  0.1951
 3960TIP3    H133295   2.007   3.771  12.219  0.2182  0.0428 -0.6027
 3960TIP3    H233296   1.911   3.654  12.225  0.3111  0.0173  0.8217
 3961TIP3   OH233297   3.771   2.982   6.063  0.1062  0.2310 -0.3723
 3961TIP3    H133298   3.839   2.937   6.013 -1.1696 -2.3547  0.0971
 3961TIP3    H233299   3.695   2.925   6.059 -0.8285  1.0982  2.4544
 3962TIP3   OH233300   2.719   2.891   4.736 -0.1283  0.7588  0.1720
 3962TIP3    H133301   2.707   2.949   4.661  1.3221  0.2607 -0.4885
 3962TIP3    H233302   2.760   2.946   4.803  1.1465  0.5710 -0.4145
 3963TIP3   OH233303   4.396   5.794  16.524 -0.6251  0.4432  0.2320
 3963TIP3    H133304   4.331   5.725  16.530 -0.3247  0.1560  0.1923
 3963TIP3    H233305   4.469   5.755  16.477 -1.3137  1.4506 -1.7915
 3964TIP3   OH233306   4.487   5.313   3.247  0.1657  0.0399 -0.2098
 3964TIP3    H133307   4.433   5.245   3.208 -0.9419 -0.8044  2.5022
 3964TIP3    H233308   4.534   5.269   3.318  0.9779  1.6920  0.3341
 3965TIP3   OH233309   4.456   6.767   1.094  0.1583 -0.4835 -0.0275
 3965TIP3    H133310   4.478   6.687   1.142 -0.5510 -0.6354  0.0687
 3965TIP3    H233311   4.449   6.834   1.162  1.0166 -0.2708 -0.1371
 3966TIP3   OH233312   4.954   3.764  16.051  0.9125 -0.0953 -0.1274
 3966TIP3    H133313   4.896   3.725  16.116  1.3774 -0.3045  0.1637
 3966TIP3    H233314   5.031   3.792  16.100  0.6883  0.9901 -0.3700
 3967TIP3   OH233315   1.182   2.995  15.542  1.0132 -1.6042 -0.4804
 3967TIP3    H133316   1.223   3.068  15.588 -1.5218  0.2790 -0.9419
 3967TIP3    H233317   1.239   2.979  15.467  1.6620 -0.0993 -0.3509
 3968TIP3   OH233318   0.563   2.761  15.197 -0.0229  0.5950  0.3792
 3968TIP3    H133319   0.534   2.839  15.151 -1.1646  0.6643  1.1783
 3968TIP3    H233320   0.641   2.788  15.244 -0.2836  1.1970  0.4735
 3969TIP3   OH233321   0.419   0.138   5.146  0.2155  0.4463 -0.2775
 3969TIP3    H133322   0.375   0.054   5.158 -0.2614  0.8213  0.7021
 3969TIP3    H233323   0.478   0.124   5.072 -1.5829 -0.0604 -1.6871
 3970TIP3   OH233324   4.576   5.523  17.082  0.4707  0.7561  0.6123
 3970TIP3    H133325   4.528   5.447  17.116 -2.1406  2.6328  1.4334
 3970TIP3    H233326   4.587   5.504  16.989  0.2620 -0.7912  0.8614
 3971TIP3   OH233327   5.620   2.614  13.572 -0.2464 -0.1793 -0.2448
 3971TIP3    H133328   5.615   2.635  13.479  2.5187 -0.0136 -0.4256
 3971TIP3    H233329   5.635   2.520  13.575 -1.9411 -0.4692  0.1474
 3972TIP3   OH233330   2.940   1.548   3.406  0.1010 -0.3135 -0.1591
 3972TIP3    H133331   3.021   1.496   3.409  0.1002 -0.3253 -0.3182
 3972TIP3    H233332   2.870   1.484   3.395 -0.0827 -0.4359  1.4363
 3973TIP3   OH233333   0.833   3.591  13.015  0.4827 -0.1742 -0.1372
 3973TIP3    H133334   0.839   3.636  13.099  0.6666 -0.0038 -0.2393
 3973TIP3    H233335   0.756   3.629  12.973  1.6369  1.3560 -0.9722
 3974TIP3   OH233336   3.543   5.958  12.501 -0.2361 -0.4337 -1.0703
 3974TIP3    H133337   3.522   5.866  12.512  1.6029 -0.8200 -0.4479
 3974TIP3    H233338   3.626   5.959  12.453  1.4504  0.7116  1.6026
 3975TIP3   OH233339   6.483   4.803  11.095  0.2802 -0.0767  0.1382
 3975TIP3    H133340   6.452   4.864  11.028 -0.4512 -0.9180 -0.3024
 3975TIP3    H233341   6.408   4.748  11.115  0.6462 -0.1905  1.2686
 3976TIP3   OH233342   4.229   4.083  15.213 -0.0503 -0.5203 -0.5087
 3976TIP3    H133343   4.239   4.083  15.118  1.8715  2.6441 -0.4317
 3976TIP3    H233344   4.318   4.071  15.246 -0.4149  0.3605  0.8487
 3977TIP3   OH233345   1.295   6.000  10.693 -0.2918 -0.2592  0.1637
 3977TIP3    H133346   1.245   6.081  10.694 -1.1181 -0.7593  1.4954
 3977TIP3    H233347   1.372   6.019  10.747 -0.7782 -0.5274  0.9613
 3978TIP3   OH233348   1.845   2.389  12.094 -0.2676 -0.0161  0.0140
 3978TIP3    H133349   1.787   2.364  12.022 -0.7262 -1.7386  0.9301
 3978TIP3    H233350   1.813   2.476  12.121 -1.2784 -0.1614 -0.6476
 3979TIP3   OH233351   4.251   3.231   4.671  0.0703 -0.3090  0.7270
 3979TIP3    H133352   4.160   3.222   4.643 -0.0830 -0.8476  1.3642
 3979TIP3    H233353   4.301   3.232   4.590 -0.3117 -2.3660  0.4184
 3980TIP3   OH233354   5.961   4.682   6.091 -0.4653  0.0990  0.0373
 3980TIP3    H133355   5.876   4.657   6.128 -1.2639 -0.1205 -1.8264
 3980TIP3    H233356   6.021   4.614   6.121 -1.1440 -0.2450  0.6502
 3981TIP3   OH233357   2.392   6.289  12.859  0.6775 -0.1467  0.0204
 3981TIP3    H133358   2.309   6.271  12.816  0.2732  0.7174  0.4079
 3981TIP3    H233359   2.431   6.203  12.875  0.8491 -0.5001 -2.0372
 3982TIP3   OH233360   0.290   5.201  12.505 -0.0600 -0.4287 -0.5240
 3982TIP3    H133361   0.360   5.137  12.490  1.5268  1.3704 -1.1830
 3982TIP3    H233362   0.276   5.199  12.600 -1.1872 -2.8200 -0.6534
 3983TIP3   OH233363   3.417   1.815   1.384  0.1064 -0.3096  0.1111
 3983TIP3    H133364   3.388   1.763   1.309  0.2378  0.5505 -0.5530
 3983TIP3    H233365   3.407   1.756   1.460 -1.0247 -0.8382 -0.4293
 3984TIP3   OH233366   4.171   1.522  16.971 -0.1688 -0.0465 -0.4364
 3984TIP3    H133367   4.147   1.590  17.033  0.3018 -0.4246  0.1760
 3984TIP3    H233368   4.266   1.530  16.963 -0.2169 -0.0514 -1.0560
 3985TIP3   OH233369   2.816   0.944   1.819 -0.1625 -0.2625  0.3110
 3985TIP3    H133370   2.878   1.004   1.861  1.3613 -2.7701  1.9301
 3985TIP3    H233371   2.730   0.976   1.845  0.6342  0.6312  1.9807
 3986TIP3   OH233372   2.275   3.126  17.041  0.3971 -0.1069 -0.4614
 3986TIP3    H133373   2.234   3.200  16.995  0.3543  0.0125 -0.2347
 3986TIP3    H233374   2.207   3.059  17.043 -0.3945  0.6913  1.3842
 3987TIP3   OH233375   1.372   6.690   0.953  0.5995  0.0590  0.2276
 3987TIP3    H133376   1.451   6.681   1.006 -0.1870 -2.2485  1.1444
 3987TIP3    H233377   1.319   6.754   1.001  1.3221  0.5484  0.3809
 3988TIP3   OH233378   2.898   6.383  16.048  0.2405 -0.0904  0.4053
 3988TIP3    H133379   2.824   6.423  16.093 -1.0255  1.0927 -2.4523
 3988TIP3    H233380   2.970   6.389  16.110 -0.2247  5.3224  0.9519
 3989TIP3   OH233381   4.769   1.691  14.801  0.1836 -0.1317  0.1032
 3989TIP3    H133382   4.860   1.662  14.804  0.3598  0.4385  0.3887
 3989TIP3    H233383   4.752   1.726  14.888 -0.7521 -1.5315  0.5180
 3990TIP3   OH233384   5.072   6.743  11.769 -0.0852  0.1410  0.8302
 3990TIP3    H133385   4.983   6.725  11.739  0.4537  1.1257 -1.5654
 3990TIP3    H233386   5.097   6.824  11.725  2.5010 -0.8806  0.2121
 3991TIP3   OH233387   2.352   5.404   1.365 -0.6433  0.1077  0.2566
 3991TIP3    H133388   2.294   5.464   1.318  1.3844  1.0106 -1.2195
 3991TIP3    H233389   2.368   5.333   1.302  0.5656  0.3433  0.2859
 3992TIP3   OH233390   4.625   6.667  13.516  0.5284 -0.6226 -0.1828
 3992TIP3    H133391   4.684   6.599  13.484 -0.3928 -2.0905  1.0844
 3992TIP3    H233392   4.585   6.629  13.594 -2.1153  0.2746 -1.0059
 3993TIP3   OH233393   4.844   4.477   4.578  0.1238  0.1112  0.1283
 3993TIP3    H133394   4.763   4.489   4.628  0.4464  0.7262  0.5115
 3993TIP3    H233395   4.844   4.550   4.515  0.5711  0.3383  0.3893
 3994TIP3   OH233396   3.226   0.030   4.300 -0.5024 -0.3100 -1.1410
 3994TIP3    H133397   3.235   0.008   4.393 -2.9958 -0.9283 -0.9791
 3994TIP3    H233398   3.193   0.120   4.300  0.1833 -0.0483 -1.4866
 3995TIP3   OH233399   2.853   6.296   2.306  0.2658 -0.1659 -0.6245
 3995TIP3    H133400   2.827   6.265   2.393 -0.5943  1.3139 -0.3125
 3995TIP3    H233401   2.917   6.232   2.275  0.8990 -0.4996  1.2736
 3996TIP3   OH233402   4.003   2.874  13.991 -0.5198 -0.2808  0.2607
 3996TIP3    H133403   4.072   2.932  13.959  0.4302 -0.6054  1.6324
 3996TIP3    H233404   3.992   2.898  14.083 -3.6301  1.0823 -0.3387
 3997TIP3   OH233405   2.676   5.191   1.700  0.4540 -0.3373  0.2711
 3997TIP3    H133406   2.622   5.177   1.622 -1.1654  1.2984  1.0132
 3997TIP3    H233407   2.712   5.279   1.690  3.0264 -1.3519 -0.1488
 3998TIP3   OH233408   5.115   6.600  15.781 -0.0251  0.0003 -0.3320
 3998TIP3    H133409   5.055   6.632  15.714 -0.9523  0.5199  0.6995
 3998TIP3    H233410   5.084   6.512  15.801 -0.3154  0.1817  0.0362
 3999TIP3   OH233411   5.685   6.340   1.468  0.4280  0.0742  0.7051
 3999TIP3    H133412   5.771   6.302   1.483  0.6267  0.8623  1.7274
 3999TIP3    H233413   5.631   6.306   1.539  0.2850  0.7049  0.9055
 4000TIP3   OH233414   2.656   2.659  11.803  0.4077  0.4253 -0.4058
 4000TIP3    H133415   2.614   2.576  11.827 -0.9619  1.3450  0.6129
 4000TIP3    H233416   2.719   2.637  11.735 -0.6246 -1.2938 -0.8432
 4001TIP3   OH233417   1.108   0.569  16.808  0.5993  0.7230 -0.2088
 4001TIP3    H133418   1.079   0.478  16.802 -0.5551  1.0057  0.7555
 4001TIP3    H233419   1.092   0.605  16.720  0.2777  0.2088 -0.3655
 4002TIP3   OH233420   3.650   2.192   4.626  0.4334 -0.2332 -0.3635
 4002TIP3    H133421   3.648   2.105   4.586  0.3721  0.2843 -1.5387
 4002TIP3    H233422   3.707   2.183   4.703 -2.0699 -2.0715  1.4342
 4003TIP3   OH233423   2.762   6.084   3.618  0.3747 -0.0310  0.0986
 4003TIP3    H133424   2.768   6.050   3.529  0.1776  1.5771 -0.5731
 4003TIP3    H233425   2.844   6.133   3.630  1.2546 -1.7367  1.5178
 4004TIP3   OH233426   3.315   0.386  13.129  0.9460 -0.2801  0.4122
 4004TIP3    H133427   3.276   0.380  13.042  2.5289 -0.4298 -0.3205
 4004TIP3    H233428   3.255   0.441  13.179 -1.3211 -2.2307  0.0229
 4005TIP3   OH233429   5.907   6.359   4.452 -0.1254 -0.4028  0.0989
 4005TIP3    H133430   5.859   6.433   4.490  0.0268 -0.5166  0.5211
 4005TIP3    H233431   5.968   6.399   4.390 -0.7640 -0.2582 -0.4462
 4006TIP3   OH233432   4.388   4.072  15.866  0.2223  0.1036  0.4719
 4006TIP3    H133433   4.374   4.030  15.781 -0.0870  1.6252 -0.2529
 4006TIP3    H233434   4.415   4.161  15.845  1.3563  0.1521  1.9735
 4007TIP3   OH233435   4.800   0.027  13.868 -0.3033  0.4597 -0.1205
 4007TIP3    H133436   4.709   0.057  13.868 -0.7755 -0.8194 -1.9853
 4007TIP3    H233437   4.796  -0.062  13.833  1.5014 -0.2779  1.3967
 4008TIP3   OH233438   6.602   5.916  12.223 -0.3253 -0.2070  0.1876
 4008TIP3    H133439   6.539   5.918  12.151 -2.3679  3.0023  1.8526
 4008TIP3    H233440   6.643   6.002  12.221 -1.3271  0.4879  3.4591
 4009TIP3   OH233441   6.422   4.614   5.560  0.3366 -0.2270  0.1926
 4009TIP3    H133442   6.382   4.528   5.552  0.4064 -0.3503  1.0321
 4009TIP3    H233443   6.516   4.597   5.563  0.5132  0.0780 -1.9775
 4010TIP3   OH233444   6.729   6.092   0.321  0.1113 -0.3126 -0.5512
 4010TIP3    H133445   6.813   6.123   0.286 -0.3920  0.7925 -0.8148
 4010TIP3    H233446   6.753   6.036   0.395  1.0644  0.6452 -0.1130
 4011TIP3   OH233447   2.183   2.367  13.452  0.7573  0.1475  0.5294
 4011TIP3    H133448   2.187   2.297  13.518 -1.5497 -1.0157 -0.4463
 4011TIP3    H233449   2.225   2.329  13.375 -1.2612 -0.6183 -0.2803
 4012TIP3   OH233450   4.635   0.221  13.530 -0.1880  0.3096 -0.3445
 4012TIP3    H133451   4.551   0.244  13.490 -1.0299  2.0487  2.1346
 4012TIP3    H233452   4.671   0.306  13.557  1.0893 -0.6300  1.0036
 4013TIP3   OH233453   3.090   3.705   2.232  0.2932 -0.0458  0.4113
 4013TIP3    H133454   3.085   3.655   2.313 -0.1022 -0.1272  0.3373
 4013TIP3    H233455   3.012   3.680   2.183  0.4568  0.1090  0.0662
 4014TIP3   OH233456   5.977   3.915  16.106 -0.4589 -0.0296  0.1287
 4014TIP3    H133457   6.025   3.884  16.029 -1.3950  1.0775 -0.9667
 4014TIP3    H233458   5.950   3.836  16.152 -0.5310 -0.7547 -1.1143
 4015TIP3   OH233459   6.496   5.573  15.507 -0.6409 -0.0198  0.5141
 4015TIP3    H133460   6.423   5.535  15.458  0.0736 -1.1184  0.2697
 4015TIP3    H233461   6.495   5.666  15.482 -2.1624  0.0676  0.7923
 4016TIP3   OH233462   5.629   3.338   1.312 -0.1015  0.2740 -0.1557
 4016TIP3    H133463   5.694   3.371   1.250  0.6380 -1.5635 -0.4103
 4016TIP3    H233464   5.667   3.358   1.398 -0.1550  0.9770 -0.2878
 4017TIP3   OH233465   4.353   1.058   1.016  0.9144  0.2476  0.2128
 4017TIP3    H133466   4.449   1.052   1.020  1.0140  0.2803 -1.3611
 4017TIP3    H233467   4.335   1.086   0.926 -0.6808 -1.9176 -0.2215
 4018TIP3   OH233468   3.033   3.023   0.768 -0.4300  0.5049 -0.4193
 4018TIP3    H133469   3.080   3.103   0.794 -0.4912  0.1581  0.8197
 4018TIP3    H233470   3.079   2.993   0.690  1.3377  0.2863  0.6410
 4019TIP3   OH233471   6.280   2.661   5.695  0.5158 -0.6556  0.2927
 4019TIP3    H133472   6.363   2.703   5.719  0.9555 -1.3940  0.1334
 4019TIP3    H233473   6.287   2.573   5.732 -0.3876 -0.5884  0.6377
 4020TIP3   OH233474   6.741   0.512   0.459  0.2262  0.0950 -0.1145
 4020TIP3    H133475   6.782   0.476   0.538  1.9440  1.1732 -0.4564
 4020TIP3    H233476   6.784   0.467   0.387  0.2502  0.6929 -0.4774
 4021TIP3   OH233477   2.323   1.297   3.285  0.0440 -0.5711 -0.2190
 4021TIP3    H133478   2.254   1.243   3.325  0.5336 -0.5432  0.6881
 4021TIP3    H233479   2.397   1.237   3.275  0.8212  0.0460  1.4095
 4022TIP3   OH233480   3.320   0.079   4.852  0.1309  0.7138 -0.3579
 4022TIP3    H133481   3.409   0.052   4.828  0.0575  1.8817 -2.1162
 4022TIP3    H233482   3.312   0.056   4.944  1.1734 -2.2732 -0.8879
 4023TIP3   OH233483   5.888   6.125   1.485  0.7111 -0.0941 -0.6789
 4023TIP3    H133484   5.858   6.086   1.403  0.1357 -2.9182  0.7596
 4023TIP3    H233485   5.967   6.076   1.508 -0.8884 -1.6552  1.9802
 4024TIP3   OH233486   0.416   1.189   4.278 -0.3954  0.1750 -0.3043
 4024TIP3    H133487   0.355   1.206   4.206 -0.2481 -0.5772 -0.6126
 4024TIP3    H233488   0.443   1.276   4.307 -0.5763  0.4902 -1.0541
 4025TIP3   OH233489   0.673   0.644  12.608 -0.6807  0.1861  0.9550
 4025TIP3    H133490   0.639   0.731  12.588  0.7001  0.4809 -0.2360
 4025TIP3    H233491   0.692   0.605  12.523 -0.2759 -0.8666  1.5120
 4026TIP3   OH233492   0.500   1.149  15.828 -0.2127  0.4015  0.0091
 4026TIP3    H133493   0.452   1.098  15.762 -1.1065  0.0062  0.9479
 4026TIP3    H233494   0.466   1.239  15.818 -0.2259  0.3767 -0.1756
 4027TIP3   OH233495   6.572   1.091  13.054  0.4218 -0.4715 -0.0709
 4027TIP3    H133496   6.547   1.003  13.083  0.7017 -0.4541  0.2266
 4027TIP3    H233497   6.511   1.150  13.098  1.2555 -0.3907  1.0228
 4028TIP3   OH233498   4.791   0.932   5.243  0.1229 -0.2169  0.0583
 4028TIP3    H133499   4.714   0.920   5.299  0.3520  0.9553  0.6532
 4028TIP3    H233500   4.758   0.917   5.154 -0.2703 -1.9759  0.4582
 4029TIP3   OH233501   4.958   4.995   3.809 -0.4573  0.1062 -0.1015
 4029TIP3    H133502   5.021   5.064   3.832  0.0633 -0.6893  0.9817
 4029TIP3    H233503   4.909   5.030   3.735 -1.6073  2.4860  1.6693
 4030TIP3   OH233504   6.095   3.766   5.616  0.5385  0.3512  0.0502
 4030TIP3    H133505   6.113   3.728   5.701  2.7253 -1.0099 -0.9348
 4030TIP3    H233506   6.172   3.819   5.597 -0.6404  1.9740 -0.4144
 4031TIP3   OH233507   0.182   5.024   6.774  0.0840  0.1742 -0.1137
 4031TIP3    H133508   0.228   4.962   6.831 -0.6160  1.3299  1.7949
 4031TIP3    H233509   0.090   5.000   6.782 -0.0321  0.4389 -0.6567
 4032TIP3   OH233510   3.613   1.534   5.385 -0.0018  0.4237 -0.0948
 4032TIP3    H133511   3.661   1.468   5.435  1.1088  0.5641 -0.9439
 4032TIP3    H233512   3.608   1.499   5.297  0.1522  1.2426 -0.4390
 4033TIP3   OH233513   0.495   4.278   2.227  0.0296 -0.1717  0.3724
 4033TIP3    H133514   0.422   4.222   2.253  1.7887 -2.5191  0.6167
 4033TIP3    H233515   0.478   4.297   2.134 -1.7393  0.8263  0.8585
 4034TIP3   OH233516   1.368   1.543  13.587  0.1412 -0.0007 -0.2364
 4034TIP3    H133517   1.455   1.559  13.623  0.1347 -0.4071 -0.0291
 4034TIP3    H233518   1.310   1.540  13.663  0.3361 -2.2680 -0.0956
 4035TIP3   OH233519   3.582   4.153  14.946  0.2226  0.2889 -0.4288
 4035TIP3    H133520   3.657   4.211  14.955  0.6503 -0.1148 -1.2748
 4035TIP3    H233521   3.514   4.207  14.905  0.7852  0.0742 -1.6807
 4036TIP3   OH233522   3.748   1.815   5.177 -0.2360  0.3002  0.0204
 4036TIP3    H133523   3.658   1.841   5.160 -0.4919  0.1763  1.1100
 4036TIP3    H233524   3.766   1.845   5.267  0.2206 -1.1882  0.4711
 4037TIP3   OH233525   3.990   5.117   2.161 -0.4785 -0.4414  0.3142
 4037TIP3    H133526   3.966   5.181   2.094  0.2496 -1.3049 -0.8318
 4037TIP3    H233527   4.080   5.093   2.139 -0.9382 -2.3199  0.2739
 4038TIP3   OH233528   5.207   3.841   4.350 -0.1824  0.0918 -0.3038
 4038TIP3    H133529   5.167   3.756   4.369 -0.3648  0.0130 -1.0029
 4038TIP3    H233530   5.299   3.821   4.332 -0.1088  0.1122  0.0372
 4039TIP3   OH233531   6.717   1.954  10.849  0.2303 -0.8386  0.5991
 4039TIP3    H133532   6.698   1.989  10.762 -0.2652 -2.2284  0.1268
 4039TIP3    H233533   6.808   1.981  10.866  0.5146 -1.0173 -0.5767
 4040TIP3   OH233534   1.709   0.806   0.885 -0.0547 -0.8284  0.4290
 4040TIP3    H133535   1.665   0.743   0.942 -1.1462  0.4029  1.0403
 4040TIP3    H233536   1.760   0.861   0.945 -0.3411 -0.2015  0.1157
 4041TIP3   OH233537   0.679   5.420  15.274  0.2618  0.1472  0.3837
 4041TIP3    H133538   0.724   5.344  15.236  0.9401 -0.5825  2.5068
 4041TIP3    H233539   0.735   5.447  15.347 -2.0376  0.0483  2.2859
 4042TIP3   OH233540   4.325   2.383   1.584  0.7176 -0.1006  0.5132
 4042TIP3    H133541   4.315   2.287   1.583 -1.6542  0.0874  1.4308
 4042TIP3    H233542   4.355   2.403   1.673  0.3960  0.0750  0.5821
 4043TIP3   OH233543   5.996   6.549   0.113  0.3763  0.3208 -0.0791
 4043TIP3    H133544   6.064   6.585   0.170 -1.3537  3.7485  0.0624
 4043TIP3    H233545   6.024   6.571   0.024 -0.2910  1.3908 -0.0432
 4044TIP3   OH233546   4.410   5.525  14.319  0.6134  0.3320 -0.2087
 4044TIP3    H133547   4.449   5.556  14.237  0.0340 -0.5783 -0.8434
 4044TIP3    H233548   4.468   5.454  14.348  2.6881  2.6809  1.9276
 4045TIP3   OH233549   6.385   3.945  13.044 -0.1972 -0.1325 -0.5366
 4045TIP3    H133550   6.359   3.859  13.012 -1.3332  0.5543 -1.5572
 4045TIP3    H233551   6.322   3.966  13.113  0.2104 -0.1984 -0.1389
 4046TIP3   OH233552   1.798   3.936  16.636 -0.1033  0.2194  0.5213
 4046TIP3    H133553   1.732   3.995  16.598  2.1381  2.1897 -0.5813
 4046TIP3    H233554   1.798   3.860  16.577  0.7305  1.6027 -1.3766
 4047TIP3   OH233555   4.796   2.627  14.187  0.0778  0.5692  0.8991
 4047TIP3    H133556   4.889   2.611  14.200 -0.3067 -2.1628  0.8496
 4047TIP3    H233557   4.753   2.550  14.225 -1.9722  0.2714 -1.7809
 4048TIP3   OH233558   5.394   1.575  12.906  0.1682  0.1806  0.6250
 4048TIP3    H133559   5.465   1.568  12.842  0.6941 -1.0728  1.2977
 4048TIP3    H233560   5.341   1.648  12.876  1.7901  1.2109  0.1337
 4049TIP3   OH233561   4.629   5.668   2.177 -0.0431 -0.4623  0.4468
 4049TIP3    H133562   4.705   5.658   2.120 -0.4246 -0.6744 -0.0328
 4049TIP3    H233563   4.579   5.587   2.165 -0.2976 -0.3640  0.8289
 4050TIP3   OH233564   5.627   2.165   5.565 -0.5738 -0.4604  0.1571
 4050TIP3    H133565   5.571   2.226   5.517 -0.8294 -0.4646  0.4501
 4050TIP3    H233566   5.676   2.221   5.625  0.0461 -0.4041 -0.3898
 4051TIP3   OH233567   4.442   0.453  15.831 -0.4024  0.2434  1.0658
 4051TIP3    H133568   4.493   0.377  15.804  0.6120  1.2637  0.0189
 4051TIP3    H233569   4.353   0.420  15.841 -0.3332 -0.7191 -1.0828
 4052TIP3   OH233570   2.092   1.786  13.510  0.1508  0.3601  0.3801
 4052TIP3    H133571   2.173   1.764  13.557  1.9065  2.0908 -1.5996
 4052TIP3    H233572   2.091   1.881  13.507 -1.1076  0.3390 -1.0591
 4053TIP3   OH233573   3.505   4.754   5.872 -0.3032 -1.0855 -0.0655
 4053TIP3    H133574   3.596   4.778   5.889 -0.7989  0.0210  1.2171
 4053TIP3    H233575   3.465   4.834   5.837 -1.0945 -1.1369  0.6859
 4054TIP3   OH233576   6.202   0.964  10.719 -0.0411 -0.2225 -0.5103
 4054TIP3    H133577   6.146   0.935  10.790  1.3717 -0.9515  0.3493
 4054TIP3    H233578   6.291   0.957  10.754  0.5782  1.4343 -1.6237
 4055TIP3   OH233579   2.837   0.112  10.701  0.0140  0.4119  0.2716
 4055TIP3    H133580   2.905   0.117  10.634  0.2944  0.2184  0.5416
 4055TIP3    H233581   2.826   0.203  10.731 -0.5743  0.6015 -0.4909
 4056TIP3   OH233582   3.999   3.822   6.276 -0.1713  0.2142 -0.0235
 4056TIP3    H133583   4.063   3.855   6.340  0.3241  0.2887 -0.5540
 4056TIP3    H233584   3.928   3.886   6.279 -0.7045 -0.3856  1.2905
 4057TIP3   OH233585   4.448   6.049   0.690  0.0463 -0.2529 -0.6239
 4057TIP3    H133586   4.456   6.145   0.697 -1.4746  0.0107 -1.8751
 4057TIP3    H233587   4.538   6.018   0.677  0.7752  0.8143  1.4203
 4058TIP3   OH233588   1.031   0.816   3.821 -0.9001  0.0490 -0.6658
 4058TIP3    H133589   1.025   0.900   3.776  0.2244 -0.1525 -1.2377
 4058TIP3    H233590   1.088   0.833   3.896 -0.8650 -0.1404 -0.6486
 4059TIP3   OH233591   5.250   3.246   3.501 -0.1192  0.2824 -0.4524
 4059TIP3    H133592   5.250   3.289   3.586 -0.5018  0.7088 -0.6595
 4059TIP3    H233593   5.181   3.179   3.507 -1.1535  1.2638 -0.8737
 4060TIP3   OH233594   1.162   3.454   0.616  0.1876 -0.7998  0.4479
 4060TIP3    H133595   1.230   3.477   0.679 -0.9343 -1.0874  1.7978
 4060TIP3    H233596   1.119   3.377   0.653  0.0232 -1.4932 -1.0770
 4061TIP3   OH233597   6.011   0.266   2.270  0.1961  0.4537  0.0486
 4061TIP3    H133598   6.024   0.252   2.364 -2.3896  4.9854  1.4052
 4061TIP3    H233599   5.928   0.223   2.251  1.2755 -1.4649 -0.5838
 4062TIP3   OH233600   1.141   6.680  11.645  0.4839 -0.2082  0.3434
 4062TIP3    H133601   1.152   6.642  11.732 -0.6342 -1.5610 -0.0610
 4062TIP3    H233602   1.182   6.766  11.650  2.0167 -0.9721  1.6774
 4063TIP3   OH233603   3.116   2.800  17.127 -0.1216  0.3316  0.0210
 4063TIP3    H133604   3.082   2.850  17.053  0.7635 -0.0560 -0.6534
 4063TIP3    H233605   3.128   2.865  17.197  2.0264  1.3038 -1.1684
 4064TIP3   OH233606   2.676   2.452   4.264 -0.0265 -0.0654 -0.4983
 4064TIP3    H133607   2.678   2.357   4.271 -3.5189 -0.2956 -0.7813
 4064TIP3    H233608   2.627   2.469   4.183  0.9244  2.0000 -0.7029
 4065TIP3   OH233609   3.790   3.244   4.334 -0.4640 -0.1525 -1.2729
 4065TIP3    H133610   3.796   3.258   4.239  1.2715  3.8998 -0.7807
 4065TIP3    H233611   3.763   3.330   4.368 -0.3200 -1.2922  1.9770
 4066TIP3   OH233612   3.238   5.832  14.571  0.4532 -0.0520  0.0029
 4066TIP3    H133613   3.228   5.764  14.505 -1.6381  1.1523 -1.0382
 4066TIP3    H233614   3.273   5.787  14.648  1.0910 -1.8680 -1.2966
 4067TIP3   OH233615   3.612   1.638  16.228 -0.3709 -0.2045 -0.0576
 4067TIP3    H133616   3.518   1.623  16.223 -0.1949 -0.9195 -2.1312
 4067TIP3    H233617   3.623   1.732  16.216 -0.7989 -0.2283 -0.6879
 4068TIP3   OH233618   5.489   6.030  13.414 -0.1179 -0.2719  0.1239
 4068TIP3    H133619   5.538   5.948  13.421 -1.2929 -0.9560  0.6078
 4068TIP3    H233620   5.400   6.003  13.394  0.0784  1.0280 -3.0909
 4069TIP3   OH233621   5.173   6.054  13.541  0.6132 -0.7034 -0.0397
 4069TIP3    H133622   5.103   6.031  13.600 -0.7004  1.1056 -0.7770
 4069TIP3    H233623   5.164   5.994  13.467  2.1172 -2.8111  1.3873
 4070TIP3   OH233624   0.444   6.346  15.493  0.5783  0.0209 -0.8933
 4070TIP3    H133625   0.471   6.254  15.493 -0.8967 -0.4484 -0.7976
 4070TIP3    H233626   0.348   6.342  15.493  0.4606  1.5429  1.2026
 4071TIP3   OH233627   1.213   0.957  14.478 -0.2952 -0.4280  0.4145
 4071TIP3    H133628   1.208   0.993  14.389  0.9268  1.2133  0.9663
 4071TIP3    H233629   1.221   0.862  14.464  0.3161 -0.1728 -1.2547
 4072TIP3   OH233630   4.873   2.199   1.954 -0.4538 -0.1294 -0.1455
 4072TIP3    H133631   4.931   2.149   1.896 -1.2340 -1.0804 -0.1332
 4072TIP3    H233632   4.786   2.188   1.915 -1.3015 -2.2615  2.1011
 4073TIP3   OH233633   6.020   4.331  11.940  0.4481 -0.0757  0.3368
 4073TIP3    H133634   6.091   4.395  11.929 -0.6400  0.8851 -1.6474
 4073TIP3    H233635   6.028   4.274  11.863  0.5694 -1.5093  1.3915
 4074TIP3   OH233636   6.465   3.416  14.937 -0.2661  0.2340  0.4518
 4074TIP3    H133637   6.389   3.461  14.972 -1.3500 -0.8624 -0.3990
 4074TIP3    H233638   6.485   3.463  14.856 -1.9672 -1.2828 -0.9209
 4075TIP3   OH233639   3.067   6.014  16.644 -0.5762 -0.5523 -0.1930
 4075TIP3    H133640   3.028   5.935  16.680  0.8133 -1.7324 -1.1376
 4075TIP3    H233641   3.065   6.001  16.549 -0.2940  0.5295 -0.3672
 4076TIP3   OH233642   3.122   1.420   1.775 -0.5641  0.3863  0.0369
 4076TIP3    H133643   3.152   1.389   1.689 -1.9780  1.2856 -0.8080
 4076TIP3    H233644   3.186   1.383   1.836  0.6148 -0.0900 -1.4041
 4077TIP3   OH233645   0.448   5.700   6.025 -0.4277 -0.3460  0.0116
 4077TIP3    H133646   0.369   5.706   6.078 -0.0062  1.8715  0.4754
 4077TIP3    H233647   0.518   5.728   6.083  0.3524  0.0190 -1.0692
 4078TIP3   OH233648   4.725   0.974  16.928  0.3039 -0.4273 -0.6303
 4078TIP3    H133649   4.639   1.010  16.952  0.9256 -0.0960  1.3169
 4078TIP3    H233650   4.727   0.977  16.833 -1.2209  1.0228 -0.6599
 4079TIP3   OH233651   1.963   0.225   0.467 -0.2621  0.3687  0.3058
 4079TIP3    H133652   2.033   0.240   0.530 -1.5326  3.7172  1.1756
 4079TIP3    H233653   1.902   0.167   0.511  0.7119 -0.4626  0.5722
 4080TIP3   OH233654   3.631   1.801   2.277  0.0003  0.0618  0.1469
 4080TIP3    H133655   3.597   1.804   2.366 -1.7135  0.7160 -0.4738
 4080TIP3    H233656   3.630   1.893   2.248 -1.3719 -0.3184 -1.1738
 4081TIP3   OH233657   5.999   4.499   2.426 -0.6713  0.4057  0.2663
 4081TIP3    H133658   6.041   4.418   2.457 -0.5714  0.8595  1.3548
 4081TIP3    H233659   5.998   4.556   2.502 -1.4184  1.1688 -0.2975
 4082TIP3   OH233660   6.002   4.352  14.026 -0.3182  0.3378 -0.0244
 4082TIP3    H133661   5.947   4.274  14.018  1.8293 -1.1998 -0.7109
 4082TIP3    H233662   5.964   4.414  13.964 -0.6693 -1.0501 -1.2578
 4083TIP3   OH233663   2.979   0.093   2.645  0.4322  0.5581  0.0522
 4083TIP3    H133664   2.950   0.147   2.572 -0.4899 -0.2706 -0.2181
 4083TIP3    H233665   2.923   0.119   2.718 -0.0474 -0.0502 -0.0915
 4084TIP3   OH233666   5.666   0.038   0.421 -0.1851  0.2683 -0.0687
 4084TIP3    H133667   5.611   0.108   0.387 -1.1867 -0.1495  0.6033
 4084TIP3    H233668   5.635  -0.041   0.375 -0.6151 -0.0727  0.7645
 4085TIP3   OH233669   5.940   6.277   1.228  0.2790  0.2295  0.3465
 4085TIP3    H133670   5.961   6.261   1.136  0.6816  0.5857  0.3738
 4085TIP3    H233671   5.997   6.217   1.277 -0.4748 -0.5157  0.3518
 4086TIP3   OH233672   2.749   3.752  13.823  0.1923  0.1352  0.0665
 4086TIP3    H133673   2.710   3.798  13.898 -0.1386 -0.7346  0.4449
 4086TIP3    H233674   2.718   3.662  13.832  0.4382 -0.0575 -0.9307
 4087TIP3   OH233675   0.171   6.202  12.867  0.0559 -0.5774 -0.0619
 4087TIP3    H133676   0.246   6.260  12.850  0.0504 -0.5247  0.0855
 4087TIP3    H233677   0.095   6.252  12.837  0.0600 -0.5435 -0.0167
 4088TIP3   OH233678   5.119   3.004   4.416  0.0810  0.3023  0.0302
 4088TIP3    H133679   5.049   2.960   4.464  0.2387  0.9857  0.9146
 4088TIP3    H233680   5.191   3.008   4.479  0.0006  1.9798  0.0509
 4089TIP3   OH233681   2.532   1.673   5.452 -0.2947  0.1662 -0.0075
 4089TIP3    H133682   2.485   1.646   5.531  1.7143 -1.2281  0.7900
 4089TIP3    H233683   2.567   1.760   5.473 -3.3052  1.7864 -1.0470
 4090TIP3   OH233684   1.621   1.384   3.105 -0.1573 -0.2615 -0.3856
 4090TIP3    H133685   1.683   1.451   3.135  2.7901 -2.0872 -1.9126
 4090TIP3    H233686   1.600   1.411   3.015 -1.1683  0.0142 -0.0803
 4091TIP3   OH233687   0.650   1.324   3.655  0.6904  1.1236 -0.2342
 4091TIP3    H133688   0.699   1.328   3.573  4.1902  0.1414  1.6084
 4091TIP3    H233689   0.655   1.232   3.681 -2.5042  0.9211 -0.0026
 4092TIP3   OH233690   3.319   6.401  15.398  0.2530 -1.2878  0.0976
 4092TIP3    H133691   3.341   6.333  15.462  1.0006 -1.2494 -0.1116
 4092TIP3    H233692   3.299   6.352  15.318 -1.2131 -1.3693  0.4844
 4093TIP3   OH233693   2.120   2.504  14.870 -0.0351  0.3867  0.1834
 4093TIP3    H133694   2.202   2.547  14.846  0.3460  0.7049  1.9284
 4093TIP3    H233695   2.147   2.422  14.912 -0.7402 -1.3713 -2.5254
 4094TIP3   OH233696   6.312   1.187  13.903 -0.2697 -1.2720  0.4552
 4094TIP3    H133697   6.357   1.255  13.954  0.7484 -1.8508  0.3688
 4094TIP3    H233698   6.304   1.114  13.965 -0.3021 -1.4766  0.2091
 4095TIP3   OH233699   3.345   0.117  11.054 -0.4135  0.9178 -0.0780
 4095TIP3    H133700   3.361   0.023  11.062  0.1431  0.9912 -0.2844
 4095TIP3    H233701   3.348   0.133  10.960 -0.8360  1.0865 -0.0613
 4096TIP3   OH233702   1.052   3.035  14.166 -0.4664 -0.5581 -0.1169
 4096TIP3    H133703   0.996   2.971  14.123  0.0194  1.1530 -3.5913
 4096TIP3    H233704   1.031   3.119  14.124  0.7278  1.1619  2.4376
 4097TIP3   OH233705   3.125   6.022   3.627 -0.1385 -0.0154  0.4012
 4097TIP3    H133706   3.075   6.100   3.649 -1.3913 -1.0538  1.4328
 4097TIP3    H233707   3.162   5.993   3.710  1.1190 -0.0030 -0.1326
 4098TIP3   OH233708   5.968   0.033  16.942  0.7045 -0.1324 -0.4417
 4098TIP3    H133709   6.002   0.109  16.988  2.0279 -0.0526 -1.4941
 4098TIP3    H233710   6.014   0.033  16.858  0.3297 -1.7808 -0.6825
 4099TIP3   OH233711   6.717   1.406  14.921  0.4731  0.2783  0.2435
 4099TIP3    H133712   6.774   1.347  14.871 -0.8459 -1.8801  1.1561
 4099TIP3    H233713   6.734   1.383  15.013 -0.6966  0.7031  0.5844
 4100TIP3   OH233714   0.283   0.495  15.107 -0.3310  0.3250  0.3262
 4100TIP3    H133715   0.252   0.458  15.024  1.0143 -0.0570 -0.0161
 4100TIP3    H233716   0.328   0.576  15.082 -1.6742  1.3079  0.9032
 4101TIP3   OH233717   1.311   4.732  13.419 -0.1031  0.0602  0.2439
 4101TIP3    H133718   1.295   4.714  13.327  0.3885  0.8810 -0.0180
 4101TIP3    H233719   1.341   4.649  13.456 -0.4983 -0.3230 -0.2848
 4102TIP3   OH233720   4.570   1.058  14.908  0.0010  0.0691  0.1731
 4102TIP3    H133721   4.612   0.972  14.902  2.3269  0.8608  2.9766
 4102TIP3    H233722   4.477   1.038  14.919  0.0538 -1.9147 -2.1206
 4103TIP3   OH233723   3.963   1.905  15.333  0.5827 -0.0686 -0.3307
 4103TIP3    H133724   4.010   1.831  15.295  1.9206 -0.0357  1.1795
 4103TIP3    H233725   3.940   1.877  15.422 -1.1605  0.4054 -0.5787
 4104TIP3   OH233726   1.683   5.378  11.678 -0.0836  0.4222 -0.5573
 4104TIP3    H133727   1.690   5.283  11.684 -0.1198  0.4532  0.0534
 4104TIP3    H233728   1.678   5.408  11.769 -0.3968  0.9852 -0.7528
 4105TIP3   OH233729   6.086   4.981   5.201 -0.5622  0.4031  0.8779
 4105TIP3    H133730   6.138   4.926   5.260 -0.2888  0.1382  0.3902
 4105TIP3    H233731   6.149   5.037   5.157 -0.6846  0.0712  0.2734
 4106TIP3   OH233732   2.497   0.656  14.344  0.2289  0.1429  0.1417
 4106TIP3    H133733   2.410   0.692  14.324  0.0396 -0.2840  0.1840
 4106TIP3    H233734   2.491   0.628  14.435  0.4080  0.1016  0.1407
 4107TIP3   OH233735   2.154   4.577  12.224 -0.2454 -0.0638 -0.3785
 4107TIP3    H133736   2.104   4.496  12.220 -0.3171  0.0215 -3.4120
 4107TIP3    H233737   2.240   4.551  12.256 -0.6464 -1.0839 -0.0803
 4108TIP3   OH233738   6.570   6.789   1.849 -0.1542  0.1328 -0.7836
 4108TIP3    H133739   6.657   6.750   1.854 -0.2646  0.0016  0.2734
 4108TIP3    H233740   6.563   6.844   1.927 -1.7889 -1.4983  0.3158
 4109TIP3   OH233741   6.469   2.328  14.388 -0.2552 -0.1600  0.0862
 4109TIP3    H133742   6.516   2.365  14.463  1.0023  0.5128 -0.9979
 4109TIP3    H233743   6.498   2.236  14.384  0.8225  0.1850 -0.4245
 4110TIP3   OH233744   6.428   2.282   1.096  0.0789  0.2978 -0.2134
 4110TIP3    H133745   6.357   2.335   1.059 -0.7450 -0.2425  0.5475
 4110TIP3    H233746   6.466   2.237   1.021  0.9311  2.0946 -0.9041
 4111TIP3   OH233747   6.305   0.064  12.806  0.1324 -0.1903 -0.4504
 4111TIP3    H133748   6.289   0.121  12.730  0.1100 -0.0262 -0.3231
 4111TIP3    H233749   6.219   0.032  12.831  0.2369 -0.9773 -1.0573
 4112TIP3   OH233750   6.425   3.638   4.536  0.1764  0.4273  0.2618
 4112TIP3    H133751   6.485   3.648   4.610  0.0963 -0.0047  0.3898
 4112TIP3    H233752   6.382   3.723   4.528 -0.2598  0.2971  1.1081
 4113TIP3   OH233753   4.511   0.207   0.752  0.4147  0.0551 -0.0527
 4113TIP3    H133754   4.471   0.294   0.749  0.7947  0.2046 -2.2221
 4113TIP3    H233755   4.605   0.223   0.743  0.4854 -0.5659 -0.5246
 4114TIP3   OH233756   6.663   0.453   5.701 -0.0365 -0.6938 -0.3842
 4114TIP3    H133757   6.633   0.516   5.636  0.2584 -0.5531 -0.3872
 4114TIP3    H233758   6.717   0.505   5.761  1.2834 -1.1706 -1.1177
 4115TIP3   OH233759   1.218   3.230  15.350 -0.1970 -0.0500  0.4568
 4115TIP3    H133760   1.303   3.231  15.304 -0.3008 -1.5294  0.1962
 4115TIP3    H233761   1.240   3.247  15.441  0.2093  1.0526  0.1763
 4116TIP3   OH233762   0.274   4.833  11.184 -0.3022 -0.2289 -0.4298
 4116TIP3    H133763   0.259   4.927  11.196 -1.5332 -0.6293  1.8014
 4116TIP3    H233764   0.364   4.827  11.153  0.1888  1.6383  0.4675
 4117TIP3   OH233765   1.072   4.021  13.575  0.0620  0.0567 -0.5350
 4117TIP3    H133766   0.981   4.046  13.562 -0.2940 -0.8081  0.2281
 4117TIP3    H233767   1.069   3.952  13.641  1.4500  1.6287  1.2880
 4118TIP3   OH233768   4.178   4.312  14.208  0.1255 -0.0781  0.8776
 4118TIP3    H133769   4.247   4.378  14.208 -0.5498  0.7203 -1.4676
 4118TIP3    H233770   4.098   4.362  14.189 -0.5252 -1.4414 -0.0956
 4119TIP3   OH233771   4.154   0.112   1.808  0.2845 -0.5539  0.7512
 4119TIP3    H133772   4.116   0.160   1.734 -0.7943 -2.8449 -0.3033
 4119TIP3    H233773   4.081   0.100   1.869  0.2214 -1.7253  0.4793
 4120TIP3   OH233774   0.041   2.717  16.244 -0.5629 -0.3235  0.0810
 4120TIP3    H133775   0.004   2.779  16.307 -0.4700  1.3666 -1.4452
 4120TIP3    H233776   0.098   2.660  16.296 -1.8796 -0.1612  1.7704
 4121TIP3   OH233777   5.716   4.878   3.558 -0.3264  0.3073  0.6788
 4121TIP3    H133778   5.784   4.899   3.494  0.0776  1.1280  1.3634
 4121TIP3    H233779   5.685   4.963   3.589  0.4628 -0.0555  2.5840
 4122TIP3   OH233780   5.744   6.683   5.089  0.1171  0.4712  0.2104
 4122TIP3    H133781   5.737   6.722   5.176  1.2206 -1.3595  1.1817
 4122TIP3    H233782   5.835   6.700   5.063  0.3183 -0.5592  0.2206
 4123TIP3   OH233783   0.788   5.135  14.854  0.3410 -0.1925  0.1789
 4123TIP3    H133784   0.770   5.223  14.886 -1.6073 -0.4078 -0.1945
 4123TIP3    H233785   0.862   5.146  14.795 -0.7977  1.4702 -1.0268
 4124TIP3   OH233786   0.260   0.738  10.931 -0.1254  0.0924  0.3550
 4124TIP3    H133787   0.216   0.810  10.887  0.3562 -0.0405 -0.3568
 4124TIP3    H233788   0.243   0.662  10.875 -0.5588 -0.3455  1.0513
 4125TIP3   OH233789   5.584   0.468   4.548  0.4585 -0.0715 -0.1163
 4125TIP3    H133790   5.525   0.416   4.493 -0.5763 -0.3631  1.1872
 4125TIP3    H233791   5.528   0.538   4.583  1.3541  0.7441 -0.2885
 4126TIP3   OH233792   2.264   5.978  11.832  0.5147 -0.2431 -0.0806
 4126TIP3    H133793   2.353   5.954  11.806  1.1297 -0.2341  1.8836
 4126TIP3    H233794   2.247   6.060  11.786  1.7451  0.0586 -0.0197
 4127TIP3   OH233795   6.143   3.429   0.918  0.1223 -0.0589 -0.3289
 4127TIP3    H133796   6.113   3.441   0.828 -4.2676  1.4572  1.0723
 4127TIP3    H233797   6.080   3.368   0.956  1.2056  0.1956  2.0244
 4128TIP3   OH233798   5.620   1.534   5.656  0.2383 -0.1421  0.4627
 4128TIP3    H133799   5.566   1.610   5.636 -0.5008 -0.4784  1.1489
 4128TIP3    H233800   5.710   1.569   5.660  0.3323  0.1607 -2.1823
 4129TIP3   OH233801   0.856   0.980  10.827 -0.2902  0.4601  0.7632
 4129TIP3    H133802   0.864   0.891  10.859  2.0387  0.7185  1.0459
 4129TIP3    H233803   0.775   1.013  10.866 -0.7118 -1.2244  1.3639
 4130TIP3   OH233804   0.399   4.729  12.379 -0.1405 -0.1590 -0.3753
 4130TIP3    H133805   0.350   4.745  12.298 -1.1455 -1.9780 -0.1810
 4130TIP3    H233806   0.358   4.651  12.416 -1.0849  1.7236  2.9756
 4131TIP3   OH233807   2.747   4.081   1.350 -0.2472 -0.3544  0.4529
 4131TIP3    H133808   2.807   4.011   1.376 -0.8758 -0.5630  1.3816
 4131TIP3    H233809   2.706   4.109   1.431 -1.1040  0.0653 -0.1137
 4132TIP3   OH233810   2.825   1.178   5.432 -0.7659 -0.0272 -0.4285
 4132TIP3    H133811   2.886   1.129   5.377  1.0403  0.7023  0.8003
 4132TIP3    H233812   2.760   1.113   5.460 -0.7755 -0.7639 -2.0285
 4133TIP3   OH233813   6.183   4.938   4.872  0.0622  0.4582  0.0739
 4133TIP3    H133814   6.220   4.850   4.878 -0.0357  0.4940  1.6340
 4133TIP3    H233815   6.095   4.929   4.908 -0.1076  1.1056 -0.1701
 4134TIP3   OH233816   1.071   3.889  11.986 -0.4422 -0.5766  0.8095
 4134TIP3    H133817   1.087   3.964  11.928 -1.4561  0.1138  1.3910
 4134TIP3    H233818   1.024   3.826  11.932 -1.3636  0.0551  0.8629
 4135TIP3   OH233819   2.116   3.177   5.074  0.5923  0.3539 -0.4418
 4135TIP3    H133820   2.073   3.187   5.159 -1.4640 -0.1990 -1.3494
 4135TIP3    H233821   2.204   3.146   5.095  0.4701  1.1778  1.5036
 4136TIP3   OH233822   0.835   4.775   4.568 -0.2461  0.1266  0.2563
 4136TIP3    H133823   0.794   4.728   4.495 -0.4587  0.5552  0.0974
 4136TIP3    H233824   0.762   4.804   4.622 -0.0488 -1.4353  1.4448
 4137TIP3   OH233825   5.535   1.335   3.295 -0.2198  0.0115  0.2474
 4137TIP3    H133826   5.605   1.269   3.293 -0.4344 -0.3747  2.7343
 4137TIP3    H233827   5.460   1.290   3.255 -0.2889 -1.2256  1.6690
 4138TIP3   OH233828   4.759   1.315  15.299  0.0635  0.2298 -0.4430
 4138TIP3    H133829   4.690   1.381  15.305 -0.0058  0.1375 -0.1941
 4138TIP3    H233830   4.757   1.284  15.209  1.2909  1.8725 -1.0873
 4139TIP3   OH233831   1.592   4.015   5.874 -0.0338 -0.2054  0.4218
 4139TIP3    H133832   1.652   3.974   5.937  0.2635 -0.3982  0.0205
 4139TIP3    H233833   1.623   3.984   5.789  0.2627  0.9428  0.0977
 4140TIP3   OH233834   4.734   1.614   1.240 -0.0688  0.7822 -0.2356
 4140TIP3    H133835   4.701   1.696   1.204  1.6573  1.1971 -0.9638
 4140TIP3    H233836   4.817   1.599   1.195 -0.3829 -1.4353 -0.1983
 4141TIP3   OH233837   2.163   6.177   0.923 -0.2652 -0.6455  0.0691
 4141TIP3    H133838   2.222   6.102   0.930 -0.6471 -0.9184  0.3949
 4141TIP3    H233839   2.212   6.241   0.872  0.8273 -0.3522  1.4406
 4142TIP3   OH233840   0.785   3.203   2.330  0.1109  0.0838 -0.2395
 4142TIP3    H133841   0.873   3.240   2.334 -0.2471  1.0290 -0.8660
 4142TIP3    H233842   0.738   3.245   2.402 -0.5979  1.7236 -1.5937
 4143TIP3   OH233843   4.918   0.753  16.806 -0.1406  0.5436 -0.0369
 4143TIP3    H133844   4.832   0.774  16.769 -0.5939  0.0612  0.7260
 4143TIP3    H233845   4.978   0.813  16.762 -1.1765  2.4076  1.0126
 4144TIP3   OH233846   2.559   6.037  14.529  0.5172 -0.4164 -0.0595
 4144TIP3    H133847   2.477   5.992  14.510  0.1992 -0.1682  0.6691
 4144TIP3    H233848   2.609   5.975  14.582  0.0572  0.0799  0.9892
 4145TIP3   OH233849   5.050   1.151   2.713 -0.8844 -0.8405 -0.3284
 4145TIP3    H133850   4.961   1.118   2.701 -1.4803 -0.0845  1.6102
 4145TIP3    H233851   5.060   1.158   2.808  1.2833 -0.9633 -0.5048
 4146TIP3   OH233852   5.303   4.472  16.700  0.5523 -0.3246 -0.1203
 4146TIP3    H133853   5.308   4.420  16.781 -4.8332 -1.3087 -0.0334
 4146TIP3    H233854   5.268   4.557  16.728  1.5787  0.4667 -1.1547
 4147TIP3   OH233855   0.553   3.686  15.846  0.3513 -0.1217 -0.0489
 4147TIP3    H133856   0.598   3.768  15.864  1.1468 -0.8655  1.5946
 4147TIP3    H233857   0.499   3.704  15.770 -1.4330  2.6561  1.7343
 4148TIP3   OH233858   0.635   2.724  16.043 -0.3226 -0.1737 -0.2428
 4148TIP3    H133859   0.645   2.629  16.049 -1.6240 -0.3778 -0.8304
 4148TIP3    H233860   0.567   2.736  15.977  1.9161  1.2932 -2.4497
 4149TIP3   OH233861   1.852   4.622  15.144  0.0930  0.0367  0.3467
 4149TIP3    H133862   1.915   4.692  15.128 -0.4947  0.6894  0.8052
 4149TIP3    H233863   1.776   4.667  15.181 -0.3613 -0.8277  0.4819
 4150TIP3   OH233864   2.683   2.250   0.524 -0.2066 -0.1590  0.1232
 4150TIP3    H133865   2.644   2.337   0.518  2.0102  0.8011 -2.0456
 4150TIP3    H233866   2.648   2.203   0.448 -0.5783 -0.8622  0.7075
 4151TIP3   OH233867   6.232   2.229   5.462  0.0179 -0.3411 -0.4035
 4151TIP3    H133868   6.278   2.259   5.384 -2.3595  1.0865 -1.3576
 4151TIP3    H233869   6.168   2.165   5.430 -1.5206  0.8211  0.1718
 4152TIP3   OH233870   3.181   0.006   0.665 -0.1039  0.1446 -0.5243
 4152TIP3    H133871   3.207   0.086   0.710  0.2062 -0.1923 -0.0922
 4152TIP3    H233872   3.258  -0.051   0.670 -0.4942 -0.3837 -0.3454
 4153TIP3   OH233873   5.707   5.266  15.938  0.4595 -0.0930  0.1962
 4153TIP3    H133874   5.699   5.236  15.847 -2.2431  0.6667  0.0875
 4153TIP3    H233875   5.617   5.271  15.969  1.1290  2.3689  2.0253
 4154TIP3   OH233876   3.990   6.224  15.618 -0.2808  0.4086  0.3786
 4154TIP3    H133877   4.002   6.228  15.713  2.2165  0.9711  0.1166
 4154TIP3    H233878   4.077   6.244  15.582 -1.0640 -0.1726 -2.0290
 4155TIP3   OH233879   0.359   3.820   0.025 -0.1148  0.4280  0.0315
 4155TIP3    H133880   0.441   3.790   0.063  0.2834  0.2713 -0.9068
 4155TIP3    H233881   0.362   3.915   0.033 -0.1519  0.3807  0.6097
 4156TIP3   OH233882   0.926   1.255  12.178  0.4535  0.1098  0.5811
 4156TIP3    H133883   0.874   1.181  12.149  1.2327  0.0370 -0.7501
 4156TIP3    H233884   1.011   1.243  12.135  0.1471  2.5244 -0.9149
 4157TIP3   OH233885   3.157   1.416  14.485 -0.3021 -0.6228 -0.9664
 4157TIP3    H133886   3.075   1.381  14.451 -0.5191 -0.3523 -0.7230
 4157TIP3    H233887   3.179   1.357  14.558 -1.3298  0.4597  0.2737
 4158TIP3   OH233888   3.095   5.370  13.198  0.4011  0.0075 -0.4357
 4158TIP3    H133889   3.041   5.425  13.142 -0.8608  0.3113  1.0172
 4158TIP3    H233890   3.121   5.427  13.270  2.7053 -0.1371 -1.0420
 4159TIP3   OH233891   5.430   1.895  16.421  0.3295 -0.7355  0.5177
 4159TIP3    H133892   5.499   1.950  16.384  0.4550 -0.9880  0.3734
 4159TIP3    H233893   5.388   1.855  16.345 -1.6193  1.3149  0.3870
 4160TIP3   OH233894   6.061   3.468  11.891  0.2053 -0.0648  0.1932
 4160TIP3    H133895   6.052   3.563  11.903  0.5972 -0.0991  0.7835
 4160TIP3    H233896   6.136   3.444  11.945  1.2453 -0.4302 -1.3697
 4161TIP3   OH233897   4.188   0.527  16.993 -0.1605  0.1554  0.2687
 4161TIP3    H133898   4.112   0.535  17.050 -1.3290 -1.0893 -1.0353
 4161TIP3    H233899   4.238   0.607  17.007 -2.0495  1.3114  0.6674
 4162TIP3   OH233900   4.301   4.770  12.608  0.3764 -0.0091 -0.8453
 4162TIP3    H133901   4.265   4.816  12.531  1.0657  0.3708 -0.9489
 4162TIP3    H233902   4.244   4.798  12.680  2.0892  2.9252 -0.4409
 4163TIP3   OH233903   4.175   4.044  16.613  0.2898 -0.1287 -0.2664
 4163TIP3    H133904   4.262   4.073  16.639  0.0623  0.7068 -0.3893
 4163TIP3    H233905   4.115   4.092  16.671 -0.1128 -0.1375 -0.6667
 4164TIP3   OH233906   3.790   5.022   2.024  0.1641 -0.1021  0.2498
 4164TIP3    H133907   3.835   5.015   1.940 -1.3519 -2.5861 -0.4893
 4164TIP3    H233908   3.860   5.029   2.089  1.3861  1.3284 -1.1414
 4165TIP3   OH233909   1.913   1.828  12.404 -0.0275  0.7277 -0.2613
 4165TIP3    H133910   1.879   1.744  12.373 -1.0495  1.0368 -0.0064
 4165TIP3    H233911   1.862   1.848  12.482  1.1138  0.9633  0.4510
 4166TIP3   OH233912   6.648   4.481   3.252  0.3797 -0.2826 -0.6780
 4166TIP3    H133913   6.691   4.556   3.210 -0.7409 -1.1097 -3.5980
 4166TIP3    H233914   6.574   4.519   3.298 -0.3505  0.4702 -2.3593
 4167TIP3   OH233915   2.325   0.594   5.160 -0.3094 -0.0052 -0.7685
 4167TIP3    H133916   2.377   0.518   5.186  0.5862  0.3739 -1.4157
 4167TIP3    H233917   2.294   0.631   5.242  2.2294  1.0094 -0.1780
 4168TIP3   OH233918   0.013   5.423  11.428 -1.1192  0.4078 -0.1042
 4168TIP3    H133919   0.084   5.418  11.492 -1.3933  0.4244  0.2003
 4168TIP3    H233920   0.033   5.353  11.365 -0.8176  0.4329 -0.0380
 4169TIP3   OH233921   5.437   3.928  13.824  0.2336  0.2576 -0.3004
 4169TIP3    H133922   5.494   3.932  13.901  0.2598 -1.3865 -0.2189
 4169TIP3    H233923   5.362   3.876  13.851 -0.4020  0.7678 -1.0055
 4170TIP3   OH233924   0.897   4.213  10.766 -0.2667 -0.4917 -0.5185
 4170TIP3    H133925   0.822   4.260  10.729  0.1081  1.4696  1.0238
 4170TIP3    H233926   0.934   4.275  10.829  2.2363 -1.6803 -0.7379
 4171TIP3   OH233927   3.982   1.813  10.737 -0.1337 -0.2673  0.9588
 4171TIP3    H133928   3.960   1.735  10.788  1.7037 -1.9642 -0.6603
 4171TIP3    H233929   3.954   1.792  10.648  0.1838  1.0191  0.5348
 4172TIP3   OH233930   6.173   0.754   1.807 -0.4458 -0.1488 -0.2286
 4172TIP3    H133931   6.200   0.846   1.818  4.1246 -1.3913  1.1703
 4172TIP3    H233932   6.162   0.722   1.897 -2.1799 -0.9920 -0.7061
 4173TIP3   OH233933   6.719   2.091  11.219 -0.4294  0.0761 -0.3198
 4173TIP3    H133934   6.745   2.121  11.132 -0.8869 -0.4052 -0.6335
 4173TIP3    H233935   6.694   1.999  11.206  1.1948 -0.5529  0.6540
 4174TIP3   OH233936   5.277   6.487  15.318  0.8169 -0.0898  0.0511
 4174TIP3    H133937   5.295   6.424  15.389 -0.5471 -1.5656 -0.8459
 4174TIP3    H233938   5.256   6.432  15.243 -1.3085  1.4411 -0.5433
 4175TIP3   OH233939   3.448   1.989   6.243 -0.1663  0.4479  0.2185
 4175TIP3    H133940   3.372   1.997   6.300 -0.1367 -1.1842  0.5563
 4175TIP3    H233941   3.523   2.009   6.300 -0.1148 -1.4713  0.8979
 4176TIP3   OH233942   0.461   2.475  13.460  0.1438 -0.5071  0.5623
 4176TIP3    H133943   0.449   2.560  13.503  1.4560  0.2232 -0.4378
 4176TIP3    H233944   0.477   2.497  13.368  1.6573 -1.7361  0.4857
 4177TIP3   OH233945   4.315   1.755   3.820  0.2344  0.2146 -0.1625
 4177TIP3    H133946   4.351   1.791   3.901 -2.5546 -0.7506  1.6712
 4177TIP3    H233947   4.239   1.704   3.849  0.2935 -1.8618 -3.2174
 4178TIP3   OH233948   1.866   0.153   2.553 -0.5536 -0.1463  0.3022
 4178TIP3    H133949   1.841   0.160   2.645  0.6884 -1.2327  0.7509
 4178TIP3    H233950   1.844   0.063   2.529 -0.5930  0.0410 -0.3848
 4179TIP3   OH233951   3.952   0.791   4.374 -0.3008  0.0232 -0.2676
 4179TIP3    H133952   3.939   0.749   4.289 -0.8767 -0.7553  0.1938
 4179TIP3    H233953   4.045   0.778   4.393 -0.1504  0.2804 -0.8210
 4180TIP3   OH233954   4.609   4.063   4.069 -0.2021 -0.1314  0.5097
 4180TIP3    H133955   4.654   4.057   3.985 -1.1951  0.1669 -0.0508
 4180TIP3    H233956   4.600   4.157   4.085  0.4675 -0.1749  1.2293
 4181TIP3   OH233957   1.725   1.575  15.337 -0.7061 -0.3879 -0.0241
 4181TIP3    H133958   1.746   1.522  15.414 -2.1146 -1.5586 -0.4084
 4181TIP3    H233959   1.793   1.642  15.335  0.8698 -1.8869  0.7458
 4182TIP3   OH233960   4.716   5.940   0.666 -0.1124  0.0584  0.1528
 4182TIP3    H133961   4.804   5.915   0.638 -0.0044 -1.0940  1.3706
 4182TIP3    H233962   4.726   5.961   0.759 -0.6046  2.8190 -0.3398
 4183TIP3   OH233963   5.139   5.726   1.596  0.0761 -0.6732  0.1227
 4183TIP3    H133964   5.100   5.728   1.683 -0.1331  0.8209  0.0254
 4183TIP3    H233965   5.224   5.682   1.609  0.0305 -0.5141  1.0629
 4184TIP3   OH233966   2.134   6.454  12.102  0.3645  0.7353  0.0923
 4184TIP3    H133967   2.097   6.513  12.168 -2.1512 -0.5083 -0.0779
 4184TIP3    H233968   2.166   6.379  12.151 -0.3330  0.3852  0.0288
 4185TIP3   OH233969   2.445   1.013   0.269  0.4033 -0.1095  0.1519
 4185TIP3    H133970   2.370   1.055   0.311 -0.9788  0.8614 -2.9708
 4185TIP3    H233971   2.406   0.960   0.199  2.5724  0.2841 -1.4577
 4186TIP3   OH233972   3.621   3.403  14.526  0.2336 -0.4528 -0.3513
 4186TIP3    H133973   3.598   3.484  14.571 -1.9913 -0.9362 -0.4771
 4186TIP3    H233974   3.591   3.333  14.584  1.6121 -1.2093 -0.4983
 4187TIP3   OH233975   3.645   0.170   5.951  0.3926 -0.1651  0.2558
 4187TIP3    H133976   3.562   0.122   5.959 -0.2112  0.5732 -1.1550
 4187TIP3    H233977   3.623   0.259   5.977  1.1882 -0.3233  1.5513
 4188TIP3   OH233978   0.399   2.019  15.216 -0.2080  0.0408  0.1119
 4188TIP3    H133979   0.350   2.086  15.168 -0.5546 -1.0446 -1.1071
 4188TIP3    H233980   0.467   2.068  15.263 -0.3435  1.2205 -0.8650
 4189TIP3   OH233981   1.976   6.393  14.332  0.4883  0.1315  0.5056
 4189TIP3    H133982   1.997   6.481  14.301 -0.1832  0.2289  0.3107
 4189TIP3    H233983   1.992   6.336  14.257  1.4789  0.0016  0.8010
 4190TIP3   OH233984   0.558   0.342   3.973 -0.2333 -0.0761  0.6370
 4190TIP3    H133985   0.623   0.339   4.043  1.0525 -0.4599 -0.5271
 4190TIP3    H233986   0.543   0.250   3.950  1.5983  0.1032 -1.5457
 4191TIP3   OH233987   2.518   3.248   6.398  0.5929 -0.1478 -0.0103
 4191TIP3    H133988   2.478   3.166   6.371 -0.1489  0.1416  0.1827
 4191TIP3    H233989   2.479   3.267   6.483  0.8061  0.3721 -0.0221
 4192TIP3   OH233990   4.637   1.730  15.488  0.8315 -0.1435 -0.7147
 4192TIP3    H133991   4.678   1.753  15.571 -0.9197  0.6983 -0.0334
 4192TIP3    H233992   4.668   1.796  15.426  1.8908 -0.5869 -0.6745
 4193TIP3   OH233993   5.945   4.554  12.505 -0.2292 -0.3178  0.4801
 4193TIP3    H133994   5.856   4.544  12.471 -0.9275 -0.1266  2.1677
 4193TIP3    H233995   5.944   4.637  12.552  1.2279  0.3245 -0.5286
 4194TIP3   OH233996   3.767   5.487  13.343 -0.1568  0.4430 -0.2866
 4194TIP3    H133997   3.707   5.445  13.405  0.6173  0.1801  0.3118
 4194TIP3    H233998   3.767   5.579  13.368  0.2129  0.3242  0.1607
 4195TIP3   OH233999   2.539   1.234  10.674 -0.8295  0.3479  0.0889
 4195TIP3    H134000   2.468   1.269  10.621 -0.4489 -0.5355 -1.0344
 4195TIP3    H234001   2.619   1.260  10.628 -0.5154 -1.0134 -0.1858
 4196TIP3   OH234002   6.272   4.140   3.682 -0.1902  0.5075  0.2118
 4196TIP3    H134003   6.355   4.175   3.713 -0.5867  2.1373 -0.4484
 4196TIP3    H234004   6.265   4.173   3.592 -0.7889 -0.9876 -0.3144
 4197TIP3   OH234005   5.027   1.782  12.373  0.4600 -0.3157  0.3069
 4197TIP3    H134006   5.106   1.831  12.349  0.3913 -0.4101 -0.1114
 4197TIP3    H234007   4.958   1.818  12.317 -0.3167  1.3338  2.1814
 4198TIP3   OH234008   6.704   1.104   5.665 -0.1959 -0.1881 -0.5079
 4198TIP3    H134009   6.621   1.147   5.684 -0.0610 -0.3253  0.4845
 4198TIP3    H234010   6.771   1.165   5.696  0.1053  0.2211 -1.9309
 4199TIP3   OH234011   4.970   3.166  12.134 -0.4294  0.7591 -0.3158
 4199TIP3    H134012   5.017   3.134  12.057  1.9317  0.7165  1.0526
 4199TIP3    H234013   4.878   3.158  12.111  0.1605 -1.6489 -2.1671
 4200TIP3   OH234014   6.370   5.969   2.045 -0.1623  0.2968 -0.4991
 4200TIP3    H134015   6.345   5.882   2.017  0.1718  0.2227 -0.5756
 4200TIP3    H234016   6.316   5.987   2.122  1.6524 -1.0831  1.1981
 4201TIP3   OH234017   5.249   1.849   2.140  0.3143  0.0099  0.8291
 4201TIP3    H134018   5.236   1.754   2.138  2.2824 -0.3321 -2.4578
 4201TIP3    H234019   5.328   1.861   2.194 -0.6099 -0.0268  2.2513
 4202TIP3   OH234020   3.213   5.463  11.709 -0.0414  0.2055  0.3482
 4202TIP3    H134021   3.231   5.548  11.671  1.9044 -0.2004  0.2720
 4202TIP3    H234022   3.263   5.461  11.791  2.2702 -1.8344 -0.9753
 4203TIP3   OH234023   4.352   5.699   1.700  0.3896 -0.8064 -0.0880
 4203TIP3    H134024   4.327   5.700   1.607 -0.9731 -0.8695  0.2547
 4203TIP3    H234025   4.418   5.630   1.706 -0.0564 -1.3252 -0.8896
 4204TIP3   OH234026   0.900   3.471   4.435 -0.5027  0.6352 -0.0573
 4204TIP3    H134027   0.842   3.521   4.492  0.4989  0.7198  0.9370
 4204TIP3    H234028   0.967   3.533   4.408 -0.2268  0.2648 -0.2413
 4205TIP3   OH234029   2.671   5.411  12.537  0.4436  0.0939  0.0169
 4205TIP3    H134030   2.687   5.397  12.444 -1.9864  1.1881 -0.6633
 4205TIP3    H234031   2.640   5.326  12.569  0.9059 -0.1812 -0.2546
 4206TIP3   OH234032   3.981   5.805   4.455  0.1294  0.6599  0.6360
 4206TIP3    H134033   4.014   5.878   4.403  0.5332  0.2928  0.3739
 4206TIP3    H234034   3.990   5.728   4.398 -0.5851  0.4509  0.7912
 4207TIP3   OH234035   4.201   1.723   4.338 -0.0215  0.0398  0.4917
 4207TIP3    H134036   4.113   1.687   4.350 -0.5301  1.0911  0.0083
 4207TIP3    H234037   4.257   1.667   4.393 -0.8776 -1.0425  0.3004
 4208TIP3   OH234038   1.908   3.498  14.650 -0.5287  0.1540 -0.1995
 4208TIP3    H134039   1.985   3.455  14.686 -1.1552  0.4499  1.5505
 4208TIP3    H234040   1.917   3.488  14.555  1.2859 -0.4337  0.0122
 4209TIP3   OH234041   6.667   3.033   4.912 -0.5119 -0.5522 -0.8121
 4209TIP3    H134042   6.669   2.958   4.972 -0.5919  1.3201  1.6842
 4209TIP3    H234043   6.574   3.050   4.898 -0.5533  0.4285  0.4946
 4210TIP3   OH234044   6.521   2.417   4.983 -0.5556 -0.2600 -0.0968
 4210TIP3    H134045   6.575   2.477   4.932 -0.3732  0.3268  0.7771
 4210TIP3    H234046   6.470   2.369   4.917  0.8205 -0.6339 -0.9111
 4211TIP3   OH234047   5.778   3.156   5.521 -0.5361  0.0891 -0.2891
 4211TIP3    H134048   5.684   3.172   5.522 -1.0024 -2.1024  2.0345
 4211TIP3    H234049   5.795   3.105   5.601  1.9724 -2.8713 -2.4629
 4212TIP3   OH234050   5.352   3.254   4.611 -0.7771  0.2325  0.1724
 4212TIP3    H134051   5.332   3.218   4.698 -1.4636 -1.4944 -0.6609
 4212TIP3    H234052   5.433   3.209   4.585 -0.3739  1.0088  0.0341
 4213TIP3   OH234053   3.730   0.308  14.363  0.3618 -0.4189 -0.2280
 4213TIP3    H134054   3.762   0.275  14.447  1.3099  1.4748  0.1907
 4213TIP3    H234055   3.645   0.347  14.384  0.4534 -0.2282 -0.2143
 4214TIP3   OH234056   5.213   1.873   5.421  1.0013 -0.1522 -0.1952
 4214TIP3    H134057   5.164   1.895   5.341 -0.4772  1.2438  1.0251
 4214TIP3    H234058   5.292   1.928   5.416  1.4840 -0.8917 -1.1873
 4215TIP3   OH234059   3.871   4.622   2.667  0.1963  0.0733 -0.3284
 4215TIP3    H134060   3.814   4.645   2.741  0.3799 -0.5431  0.0132
 4215TIP3    H234061   3.869   4.526   2.665 -1.4958  0.0703 -2.4441
 4216TIP3   OH234062   2.143   1.337  17.018  0.0224  0.4926 -0.4965
 4216TIP3    H134063   2.161   1.383  16.936 -0.5763 -0.1974 -1.0349
 4216TIP3    H234064   2.111   1.251  16.990  1.4674 -0.4003  0.4676
 4217TIP3   OH234065   5.744   6.685  15.355  0.4682 -0.0057 -0.5875
 4217TIP3    H134066   5.659   6.716  15.324 -0.7408 -2.9622 -0.5254
 4217TIP3    H234067   5.724   6.635  15.434  2.1289 -1.4510 -1.0169
 4218TIP3   OH234068   2.048   2.940  14.987 -0.2030 -0.9030 -0.0447
 4218TIP3    H134069   2.042   2.845  14.988 -0.1421 -0.9310 -1.1074
 4218TIP3    H234070   2.123   2.960  15.043  1.7217 -1.6808 -2.1860
 4219TIP3   OH234071   2.019   6.296   1.937  0.4085 -0.5858  0.4398
 4219TIP3    H134072   1.941   6.349   1.920  0.5160 -0.8998 -1.1536
 4219TIP3    H234073   2.009   6.220   1.880  1.3160 -1.2202  1.1028
 4220TIP3   OH234074   5.263   6.740   4.611  0.3559  0.3301  0.0614
 4220TIP3    H134075   5.186   6.684   4.596  0.8961 -0.4408  0.1131
 4220TIP3    H234076   5.241   6.790   4.690 -0.3716  0.6276 -0.3160
 4221TIP3   OH234077   0.482   6.371   0.601  0.4119 -0.0161 -0.0266
 4221TIP3    H134078   0.464   6.465   0.605  0.8307  0.0468  0.4666
 4221TIP3    H234079   0.400   6.332   0.568  1.0267  0.7385 -2.6662
 4222TIP3   OH234080   6.756   1.109   2.356  0.2178 -0.0928  0.0758
 4222TIP3    H134081   6.672   1.073   2.383 -0.8077  0.4320 -2.1900
 4222TIP3    H234082   6.796   1.041   2.303  1.2755 -0.3461  1.1449
 4223TIP3   OH234083   0.855   2.613   4.168  0.0811 -0.1780 -0.1690
 4223TIP3    H134084   0.768   2.636   4.138 -0.6137 -0.9299  1.1555
 4223TIP3    H234085   0.914   2.646   4.100 -1.1291  1.4387 -0.4984
 4224TIP3   OH234086   3.992   2.215  12.064 -0.5656  0.1116  0.1976
 4224TIP3    H134087   4.009   2.124  12.086 -0.3877  0.3705  1.1682
 4224TIP3    H234088   4.006   2.263  12.146 -2.6817  0.7526  0.2455
 4225TIP3   OH234089   2.131   4.227  16.550  0.0660  0.0054 -0.3727
 4225TIP3    H134090   2.092   4.258  16.632 -0.8735 -1.1104 -0.3836
 4225TIP3    H234091   2.059   4.228  16.487  1.2119  2.9595 -1.8439
 4226TIP3   OH234092   0.929   0.013  13.542  0.1719  0.2774  0.0496
 4226TIP3    H134093   0.998   0.080  13.539 -0.6241  1.0833 -0.8858
 4226TIP3    H234094   0.918  -0.004  13.636  0.9669  0.8471  0.2669
 4227TIP3   OH234095   5.765   2.874  13.546 -0.0778 -0.4800 -0.0219
 4227TIP3    H134096   5.680   2.830  13.539 -0.6609  0.5456  0.4515
 4227TIP3    H234097   5.828   2.802  13.554 -1.0303 -1.2417  1.0712
 4228TIP3   OH234098   4.965   4.607   0.234  0.4088  0.1652  0.6243
 4228TIP3    H134099   5.052   4.570   0.219 -0.2371 -1.7273  1.2336
 4228TIP3    H234100   4.905   4.534   0.218 -1.0314  1.2733  0.7897
 4229TIP3   OH234101   1.817   6.261   3.957  0.2715  0.6216 -0.1133
 4229TIP3    H134102   1.828   6.220   4.042 -3.3763  2.9343  1.7187
 4229TIP3    H234103   1.901   6.303   3.939  2.3847 -2.9708  0.3552
 4230TIP3   OH234104   3.728   4.692   2.904 -0.4911  0.1391 -0.1038
 4230TIP3    H134105   3.757   4.760   2.965  0.1174 -0.5646  0.4236
 4230TIP3    H234106   3.698   4.621   2.961 -2.9460  0.6782 -0.6342
 4231TIP3   OH234107   3.879   3.288  15.294 -0.2949 -0.9696  1.1886
 4231TIP3    H134108   3.818   3.276  15.366 -1.5998 -0.8513  0.1395
 4231TIP3    H234109   3.846   3.231  15.225 -1.4583  1.8213 -0.7326
 4232TIP3   OH234110   3.934   0.589  14.721 -0.7453 -0.3839  0.3658
 4232TIP3    H134111   3.978   0.629  14.795 -1.4517 -0.7246  0.9846
 4232TIP3    H234112   3.876   0.658  14.688 -2.1743 -0.9216  1.6079
 4233TIP3   OH234113   0.316   2.402   3.489 -0.4448 -0.3971 -0.6463
 4233TIP3    H134114   0.273   2.342   3.427 -1.4660 -0.9923  0.6005
 4233TIP3    H234115   0.391   2.436   3.440  0.4277 -2.9991 -1.2729
 4234TIP3   OH234116   3.884   2.260   5.508  0.2302  0.3702  0.3857
 4234TIP3    H134117   3.823   2.190   5.531  0.7454 -0.4198 -0.5774
 4234TIP3    H234118   3.911   2.240   5.418 -0.2188  2.2594 -0.2091
 4235TIP3   OH234119   0.181   4.851  16.306 -0.8050 -0.0210 -0.1549
 4235TIP3    H134120   0.275   4.849  16.290 -0.7050  0.5890  0.3077
 4235TIP3    H234121   0.148   4.770  16.268  0.1226 -1.0097  1.0746
 4236TIP3   OH234122   2.630   0.111  16.162  0.1816 -0.3785  0.1949
 4236TIP3    H134123   2.703   0.172  16.150  0.7131 -0.9706  0.3379
 4236TIP3    H234124   2.606   0.119  16.254  0.0658 -0.1776  0.1464
 4237TIP3   OH234125   4.856   1.421  14.441  0.3162 -0.0767 -0.0078
 4237TIP3    H134126   4.836   1.340  14.488 -0.5493  0.0004 -0.2283
 4237TIP3    H234127   4.803   1.488  14.485 -0.2904  0.0473 -0.9135
 4238TIP3   OH234128   1.966   3.757   3.849  0.0417  0.0129 -0.0629
 4238TIP3    H134129   1.939   3.775   3.759 -1.3993  4.9902  1.0499
 4238TIP3    H234130   2.061   3.769   3.849 -0.0244  0.5771 -0.8113
 4239TIP3   OH234131   4.069   3.214   7.027 -0.4794 -0.1493 -0.4661
 4239TIP3    H134132   4.159   3.193   7.003 -0.3987 -1.1549  0.6068
 4239TIP3    H234133   4.047   3.291   6.975  0.7825 -0.2645 -1.2060
 4240TIP3   OH234134   0.611   6.651  16.245  0.5740 -0.5733  0.1198
 4240TIP3    H134135   0.599   6.745  16.232 -0.3004 -0.6647  0.1704
 4240TIP3    H234136   0.528   6.622  16.284  0.4391 -1.5360 -0.8361
 4241TIP3   OH234137   1.389   1.397   0.636  0.5907  0.1913  0.2633
 4241TIP3    H134138   1.479   1.365   0.642  0.2132 -0.6591  2.7485
 4241TIP3    H234139   1.370   1.432   0.724 -0.9629  1.9287 -0.6789
 4242TIP3   OH234140   1.810   1.679   0.806 -0.6464 -0.2361  0.2162
 4242TIP3    H134141   1.869   1.742   0.847  1.3381 -2.1890  0.5912
 4242TIP3    H234142   1.790   1.615   0.875 -0.4636 -1.4248 -0.7831
 4243TIP3   OH234143   4.596   0.625  14.594  0.0939  0.2041 -0.2929
 4243TIP3    H134144   4.668   0.563  14.590  1.7170  1.9248  0.6722
 4243TIP3    H234145   4.575   0.644  14.503 -0.2881 -1.5225 -0.6027
 4244TIP3   OH234146   2.876   2.965   1.426 -0.2234 -0.6051 -0.0651
 4244TIP3    H134147   2.815   2.978   1.353  0.1247 -1.4829 -0.5175
 4244TIP3    H234148   2.910   2.877   1.414  1.5284  0.0462 -0.1066
 4245TIP3   OH234149   1.622   6.747   2.012  0.3651  0.7881  0.2466
 4245TIP3    H134150   1.717   6.759   2.003  0.2481  1.3939 -0.2868
 4245TIP3    H234151   1.610   6.652   2.018  0.9698  0.6817 -0.1210
 4246TIP3   OH234152   0.758   2.010   3.997  0.1443 -0.2618  0.4247
 4246TIP3    H134153   0.795   2.099   3.997  1.1712 -0.4657 -3.9257
 4246TIP3    H234154   0.663   2.023   3.988  0.2110  0.3911  0.6317
 4247TIP3   OH234155   4.631   0.545   4.508 -0.1069 -0.0907 -0.1901
 4247TIP3    H134156   4.600   0.625   4.466  0.4100  1.1718  1.6928
 4247TIP3    H234157   4.572   0.532   4.582  0.4518 -0.8621  0.1319
 4248TIP3   OH234158   6.785   1.675   2.980  0.0088  0.1455  0.0921
 4248TIP3    H134159   6.806   1.618   3.054  0.3695  1.7545  1.2916
 4248TIP3    H234160   6.835   1.755   2.996  0.1353  0.5357 -1.9439
 4249TIP3   OH234161   0.974   3.867  16.862  0.3445 -0.4532 -0.3079
 4249TIP3    H134162   0.879   3.864  16.875  0.0542 -0.1272 -2.1772
 4249TIP3    H234163   0.986   3.893  16.771  2.2378 -0.9550 -0.2497
 4250TIP3   OH234164   0.613   5.173   5.693 -0.4508 -0.1354  0.1410
 4250TIP3    H134165   0.529   5.129   5.679 -0.9544  0.6346  0.6449
 4250TIP3    H234166   0.677   5.118   5.648 -1.4819  0.3511 -2.0752
 4251TIP3   OH234167   2.941   3.137   1.659  0.4457  0.3845  0.2168
 4251TIP3    H134168   2.910   3.077   1.727  0.9246 -0.1726 -0.0458
 4251TIP3    H234169   2.900   3.105   1.579 -0.7303  1.4992  0.3461
 4252TIP3   OH234170   3.732   6.506   5.063 -0.3921  0.2725 -0.0196
 4252TIP3    H134171   3.756   6.491   5.154  0.8228  2.5379  0.1172
 4252TIP3    H234172   3.637   6.494   5.061 -0.3496 -0.4533  1.3956
 4253TIP3   OH234173   2.314   4.423  16.480  0.3109  0.0470  0.6747
 4253TIP3    H134174   2.257   4.348  16.496 -0.0125  0.1760  0.1529
 4253TIP3    H234175   2.401   4.384  16.467 -0.1221 -0.4142 -1.2399
 4254TIP3   OH234176   5.148   0.909   1.483 -0.6989  0.0442 -0.1180
 4254TIP3    H134177   5.216   0.971   1.510 -0.8618  0.2449 -0.1637
 4254TIP3    H234178   5.066   0.957   1.495 -0.6655  1.4418 -4.2026
 4255TIP3   OH234179   3.321   0.477   4.320  0.2090 -0.5224  0.2875
 4255TIP3    H134180   3.255   0.445   4.381  0.9519  0.0055  1.4062
 4255TIP3    H234181   3.376   0.535   4.373 -0.4926  1.8509 -1.4117
 4256TIP3   OH234182   6.134   2.280  15.408  0.2149 -0.0503  0.8192
 4256TIP3    H134183   6.203   2.344  15.426 -0.8981  2.3474 -2.3626
 4256TIP3    H234184   6.083   2.276  15.489  2.5015  0.1174  2.3717
 4257TIP3   OH234185   1.229   5.068  11.310 -0.1841 -0.0946  0.3616
 4257TIP3    H134186   1.141   5.072  11.272 -0.0416 -0.4817 -0.0192
 4257TIP3    H234187   1.286   5.103  11.242 -0.3109  2.7091  1.5881
 4258TIP3   OH234188   3.260   1.323  14.219  0.7010  0.0609 -0.5143
 4258TIP3    H134189   3.199   1.364  14.279  0.4813  0.8708 -1.2669
 4258TIP3    H234190   3.256   1.229  14.239 -2.1060 -0.1592 -1.6865
 4259TIP3   OH234191   1.713   3.687  16.520  0.0835  0.3531 -0.2161
 4259TIP3    H134192   1.703   3.659  16.612  0.8053  1.1771  0.1186
 4259TIP3    H234193   1.668   3.618  16.470 -2.7288  1.2305  0.8920
 4260TIP3   OH234194   4.523   1.079   0.747 -0.0313  0.6245 -0.3340
 4260TIP3    H134195   4.571   1.151   0.704 -0.2022  1.4637  0.8314
 4260TIP3    H234196   4.559   1.076   0.835 -1.7459  0.9145  0.4114
 4261TIP3   OH234197   2.880   5.875  17.103 -0.0492 -0.1669  0.0815
 4261TIP3    H134198   2.864   5.781  17.093  1.5250 -0.3454 -1.1044
 4261TIP3    H234199   2.794   5.915  17.093 -0.7572 -1.4683  0.6580
 4262TIP3   OH234200   4.343   2.150  15.595 -0.3659  0.3843 -0.0227
 4262TIP3    H134201   4.324   2.177  15.506 -1.0622 -1.0140 -0.3340
 4262TIP3    H234202   4.269   2.181  15.647 -0.7498 -0.1637 -0.2301
 4263TIP3   OH234203   3.599   0.595  10.471 -0.7931  0.1068 -0.7397
 4263TIP3    H134204   3.529   0.594  10.406 -2.2699 -1.5625  0.7490
 4263TIP3    H234205   3.601   0.505  10.505  2.5192 -0.0815 -1.1285
 4264TIP3   OH234206   3.950   5.016   2.975  0.3591  0.1998 -0.2945
 4264TIP3    H134207   3.984   4.955   2.909  0.4074 -0.2610  0.1489
 4264TIP3    H234208   3.871   4.974   3.009  0.9234 -0.0945  0.7070
 4265TIP3   OH234209   1.912   1.191  12.874  0.4516  0.1235 -0.1447
 4265TIP3    H134210   1.862   1.263  12.836  0.3410 -0.1987 -0.6222
 4265TIP3    H234211   1.924   1.129  12.802  1.0958 -0.0461  0.0938
 4266TIP3   OH234212   3.188   4.075  16.763 -0.1414 -0.3191 -0.1097
 4266TIP3    H134213   3.094   4.091  16.754 -0.3710 -1.2141  0.5549
 4266TIP3    H234214   3.216   4.134  16.833 -0.3722 -0.6518  0.2601
 4267TIP3   OH234215   2.640   0.477   4.522  0.1903  0.4124  0.0467
 4267TIP3    H134216   2.561   0.444   4.479 -0.3735 -2.2569  2.8051
 4267TIP3    H234217   2.607   0.527   4.597  0.9786 -1.4089  1.7031
 4268TIP3   OH234218   1.480   5.151   3.833 -0.5091 -0.2245  0.2602
 4268TIP3    H134219   1.547   5.089   3.804  1.7829  1.8927  0.6578
 4268TIP3    H234220   1.431   5.103   3.901  0.5268 -1.8948 -0.0973
 4269TIP3   OH234221   1.007   1.286   5.332  0.3002  0.0730 -0.0416
 4269TIP3    H134222   1.033   1.252   5.417  0.0798  0.3510  0.1372
 4269TIP3    H234223   1.083   1.335   5.301  0.5871 -0.4995 -0.2612
 4270TIP3   OH234224   3.046   4.670  13.790 -0.0157  0.2679 -0.1453
 4270TIP3    H134225   3.061   4.749  13.841 -1.5279 -0.4843  1.5743
 4270TIP3    H234226   2.980   4.695  13.725 -1.7199  0.0803  1.4457
 4271TIP3   OH234227   0.895   1.853  14.765  0.3553  0.0939  0.2167
 4271TIP3    H134228   0.939   1.835  14.848 -0.2837  0.0681  0.5580
 4271TIP3    H234229   0.932   1.789  14.704 -1.0325 -1.6815  1.1252
 4272TIP3   OH234230   4.885   6.001  14.595 -0.0554  0.4391  0.0409
 4272TIP3    H134231   4.817   5.962  14.540 -0.9521  0.0339  1.3780
 4272TIP3    H234232   4.853   6.089  14.615  1.0425  1.2036 -1.3731
 4273TIP3   OH234233   6.099   1.322   5.818  0.1649  0.3891 -0.2215
 4273TIP3    H134234   6.141   1.286   5.896 -1.2110 -0.4342  0.1792
 4273TIP3    H234235   6.104   1.417   5.828 -2.2188  0.3710  2.1804
 4274TIP3   OH234236   1.017   6.356   2.585  0.5181  0.2180 -0.4045
 4274TIP3    H134237   0.996   6.448   2.571 -1.5385  0.0570  1.1846
 4274TIP3    H234238   1.008   6.316   2.498 -1.7238  0.9775 -0.5728
 4275TIP3   OH234239   2.661   1.111   3.140 -0.3222 -0.4034  0.3427
 4275TIP3    H134240   2.684   1.126   3.049 -1.1735 -1.9871 -0.1847
 4275TIP3    H234241   2.699   1.026   3.161 -0.6064 -0.3142  1.2865
 4276TIP3   OH234242   3.638   3.397  15.440 -0.6323 -0.3018 -0.3696
 4276TIP3    H134243   3.677   3.351  15.514  1.5918 -0.3956 -1.5312
 4276TIP3    H234244   3.660   3.489  15.454 -1.3485 -0.1401 -0.2607
 4277TIP3   OH234245   3.365   3.130   5.088 -0.0296  0.2789 -0.1861
 4277TIP3    H134246   3.311   3.202   5.055 -0.3257 -0.1191 -0.5723
 4277TIP3    H234247   3.388   3.079   5.011  0.8445  0.4004 -0.0154
 4278TIP3   OH234248   3.037   5.111   6.463 -0.4273  0.5058 -0.2146
 4278TIP3    H134249   2.993   5.194   6.442 -0.0686  0.7122 -0.1692
 4278TIP3    H234250   3.095   5.133   6.536  1.8358  0.9299 -2.0293
 4279TIP3   OH234251   6.101   0.040  12.021 -0.0396 -0.8000 -0.1756
 4279TIP3    H134252   6.053   0.118  12.050  0.4243 -0.6774  0.2650
 4279TIP3    H234253   6.179   0.075  11.978 -0.2862 -1.0023 -0.8073
 4280TIP3   OH234254   0.223   0.964  16.436 -0.6622 -0.0654 -0.1927
 4280TIP3    H134255   0.199   1.055  16.451 -0.5865  0.1496 -1.3200
 4280TIP3    H234256   0.165   0.914  16.494 -3.4332  0.4720 -2.2859
 4281TIP3   OH234257   2.171   5.655  12.620 -0.0655  0.6930  0.4381
 4281TIP3    H134258   2.177   5.605  12.538 -1.1404 -1.1961  1.4492
 4281TIP3    H234259   2.080   5.645  12.648  1.0812 -2.3029  3.9284
 4282TIP3   OH234260   1.684   3.193   1.809 -0.2809  0.4583 -0.7102
 4282TIP3    H134261   1.618   3.130   1.837  0.6343 -0.4978 -0.6191
 4282TIP3    H234262   1.727   3.151   1.735  0.3070  1.0057 -0.6878
 4283TIP3   OH234263   6.575   5.367  16.006  0.6965 -0.4306  0.0764
 4283TIP3    H134264   6.545   5.442  15.956  1.6298 -0.7072 -0.9204
 4283TIP3    H234265   6.669   5.363  15.990  0.4789 -2.5572 -0.9241
 4284TIP3   OH234266   1.969   6.177   2.183  0.1759 -0.2194 -0.2674
 4284TIP3    H134267   2.019   6.243   2.231 -1.7634 -0.1038  1.7248
 4284TIP3    H234268   1.981   6.201   2.091  3.6397 -0.1701  0.0785
 4285TIP3   OH234269   4.305   3.563  12.099  0.2220 -0.5976  0.0840
 4285TIP3    H134270   4.249   3.491  12.129 -0.0920 -0.9517 -1.2987
 4285TIP3    H234271   4.300   3.559  12.004  1.9226 -0.0817 -0.0533
 4286TIP3   OH234272   3.640   3.999   0.130  0.9267 -0.0423  0.3987
 4286TIP3    H134273   3.612   3.927   0.187  0.1103 -0.0047  0.0661
 4286TIP3    H234274   3.571   4.005   0.064 -0.0598  2.2856  1.5015
 4287TIP3   OH234275   0.109   6.336   0.519  0.1207 -0.1992  0.4309
 4287TIP3    H134276   0.181   6.273   0.510 -0.5208 -0.8020 -0.5808
 4287TIP3    H234277   0.056   6.302   0.591  1.3814  0.8166  1.9175
 4288TIP3   OH234278   4.993   3.139   2.389  0.5806 -0.0065 -0.5419
 4288TIP3    H134279   4.963   3.067   2.444 -0.6312  0.5547 -0.4459
 4288TIP3    H234280   4.915   3.191   2.373  1.1083  0.3584 -2.0332
 4289TIP3   OH234281   1.697   4.535  16.473  0.2279  0.3404 -0.1369
 4289TIP3    H134282   1.707   4.516  16.380 -0.4195 -0.3021 -0.0902
 4289TIP3    H234283   1.679   4.449  16.513  2.3503  0.2954  0.8591
 4290TIP3   OH234284   1.701   2.778  11.683  0.0548 -0.2550 -0.8735
 4290TIP3    H134285   1.680   2.685  11.691  1.3166 -0.4217  1.2093
 4290TIP3    H234286   1.691   2.813  11.772  0.8573  1.3197 -1.3603
 4291TIP3   OH234287   5.847   4.922  12.192  0.0382  0.2105 -0.4265
 4291TIP3    H134288   5.807   4.839  12.220 -0.5942  0.8770  0.7009
 4291TIP3    H234289   5.941   4.904  12.192  0.0305 -0.0411  1.4705
 4292TIP3   OH234290   5.870   3.321   1.156  0.0715  0.0871 -0.0438
 4292TIP3    H134291   5.904   3.247   1.108  0.6343  0.5191 -0.3168
 4292TIP3    H234292   5.835   3.380   1.089  1.6194  1.0815 -0.0228
 4293TIP3   OH234293   2.595   6.786   4.398  0.1835  0.0038 -0.4126
 4293TIP3    H134294   2.649   6.830   4.332  0.3643 -0.4104 -0.5458
 4293TIP3    H234295   2.652   6.718   4.433  0.3505  0.6978  0.7172
 4294TIP3   OH234296   6.674   3.164  16.345 -0.3894  0.6209  0.0377
 4294TIP3    H134297   6.691   3.163  16.439 -0.6825 -0.1683  0.0922
 4294TIP3    H234298   6.739   3.224  16.309 -0.4402  1.1216  0.7751
 4295TIP3   OH234299   3.363   3.332  11.868 -0.0055  0.1293  0.0370
 4295TIP3    H134300   3.356   3.397  11.799  0.0430 -0.2602 -0.3425
 4295TIP3    H234301   3.329   3.252  11.829 -0.8105  0.1063  0.7468
 4296TIP3   OH234302   2.242   4.777   1.921  0.2610 -0.0378 -0.2794
 4296TIP3    H134303   2.259   4.842   1.853 -2.3907  0.5992 -0.4535
 4296TIP3    H234304   2.215   4.829   1.997 -1.7228 -0.8480 -0.3697
 4297TIP3   OH234305   5.850   1.602   2.685 -0.0871  0.2633  0.0506
 4297TIP3    H134306   5.761   1.636   2.682  0.5259  1.9655  0.1304
 4297TIP3    H234307   5.904   1.673   2.650  1.4566  0.0506  1.8616
 4298TIP3   OH234308   3.689   3.393  10.820 -0.8547  0.3056 -0.3478
 4298TIP3    H134309   3.614   3.340  10.793 -0.5872 -0.4032  0.2832
 4298TIP3    H234310   3.729   3.422  10.738  0.0274 -1.9323 -0.7645
 4299TIP3   OH234311   4.405   6.379  16.151 -0.0386 -0.1115 -0.0740
 4299TIP3    H134312   4.486   6.408  16.109  0.4296  0.9488  1.4609
 4299TIP3    H234313   4.379   6.453  16.206 -1.3801 -0.9165  0.4297
 4300TIP3   OH234314   4.497   2.327   5.742 -0.4666 -0.3767 -0.0011
 4300TIP3    H134315   4.543   2.255   5.784  0.2060 -0.5572 -0.9893
 4300TIP3    H234316   4.516   2.315   5.648  0.9215  1.9116 -0.0884
 4301TIP3   OH234317   6.758   1.088  16.587  0.1511 -0.0881 -0.3979
 4301TIP3    H134318   6.775   1.003  16.629 -0.0704 -0.3673 -0.8726
 4301TIP3    H234319   6.844   1.130  16.583  0.3265 -0.4594 -0.5330
 4302TIP3   OH234320   5.866   6.544  14.981 -0.0379  0.1805 -0.2778
 4302TIP3    H134321   5.820   6.492  14.915  0.7423 -0.9225  0.0067
 4302TIP3    H234322   5.956   6.512  14.979  0.3192  1.0742  0.3825
 4303TIP3   OH234323   3.240   4.132   0.653 -0.4631 -0.7789  0.4240
 4303TIP3    H134324   3.314   4.166   0.602 -1.6980 -0.8993 -1.5403
 4303TIP3    H234325   3.216   4.205   0.710  0.0795 -0.1088 -0.1677
 4304TIP3   OH234326   3.498   3.259  11.207  0.1890  0.2227 -0.3098
 4304TIP3    H134327   3.572   3.303  11.166  0.3237 -1.4563 -2.0386
 4304TIP3    H234328   3.423   3.282  11.151  0.3164 -1.8446 -1.4321
 4305TIP3   OH234329   3.047   4.442   1.033  0.4511  0.0331  0.1123
 4305TIP3    H134330   3.052   4.535   1.052  3.3740  0.1305 -0.6763
 4305TIP3    H234331   3.026   4.401   1.117 -0.5243  1.3428  0.5312
 4306TIP3   OH234332   3.972   4.778  11.700 -0.2814 -0.3749 -0.4033
 4306TIP3    H134333   3.992   4.685  11.688 -0.2874 -0.4215 -0.0556
 4306TIP3    H234334   3.888   4.790  11.655  0.8146 -0.0251 -2.5031
 4307TIP3   OH234335   0.556   5.171  13.339 -0.0935 -0.0437  0.6766
 4307TIP3    H134336   0.540   5.120  13.419 -0.6301 -0.2279  0.4557
 4307TIP3    H234337   0.482   5.150  13.282 -1.0578  1.9854  1.0742
 4308TIP3   OH234338   4.360   2.807   4.668 -0.2072 -0.5595 -0.1004
 4308TIP3    H134339   4.406   2.742   4.614 -0.6140  0.7492 -2.1538
 4308TIP3    H234340   4.268   2.781   4.663 -0.3588  0.0797 -0.8462
 4309TIP3   OH234341   5.716   6.125   1.225 -0.4949 -0.8195  0.2203
 4309TIP3    H134342   5.663   6.159   1.296  0.2910  0.2379  0.3233
 4309TIP3    H234343   5.781   6.193   1.208 -0.8304 -0.9220 -1.7063
 4310TIP3   OH234344   2.072   1.972   0.401 -0.1737 -0.0661  0.3519
 4310TIP3    H134345   1.999   2.028   0.429  1.5690  1.9826  1.0298
 4310TIP3    H234346   2.106   1.935   0.482  1.7231  1.8498  0.4956
 4311TIP3   OH234347   0.253   5.694  12.280 -0.1952 -0.0095  0.2437
 4311TIP3    H134348   0.274   5.613  12.327  0.9888 -0.4473 -0.9556
 4311TIP3    H234349   0.300   5.762  12.328  2.1911 -0.6515 -1.0202
 4312TIP3   OH234350   5.180   2.459  11.040 -0.0707  0.1004  0.3786
 4312TIP3    H134351   5.238   2.431  10.969 -0.2827  0.7949 -0.0775
 4312TIP3    H234352   5.093   2.429  11.013  0.1866 -1.8917  1.5637
 4313TIP3   OH234353   4.668   2.583   4.364 -0.4750 -0.4069  0.5380
 4313TIP3    H134354   4.716   2.641   4.304  1.3777 -1.4399  0.9460
 4313TIP3    H234355   4.622   2.522   4.306 -1.8597  0.9597  0.1254
 4314TIP3   OH234356   4.481   3.266  16.302 -0.3359 -0.8391 -0.3452
 4314TIP3    H134357   4.409   3.262  16.239 -0.2680  0.6569 -0.5530
 4314TIP3    H234358   4.556   3.295  16.251 -0.6109  1.8625  0.6276
 4315TIP3   OH234359   2.394   0.116  15.268 -0.6219  0.2070  0.3498
 4315TIP3    H134360   2.469   0.165  15.235 -1.2427  0.9591  0.0101
 4315TIP3    H234361   2.392   0.036  15.215  0.2215 -0.0656  0.7046
 4316TIP3   OH234362   5.866   5.947  15.548  0.2224  0.3974  0.0532
 4316TIP3    H134363   5.959   5.933  15.528 -0.2153  0.4122 -2.1413
 4316TIP3    H234364   5.850   6.038  15.523 -0.0946  0.8502  1.7611
 4317TIP3   OH234365   6.269   3.696  16.283 -0.2967 -0.3549 -0.1166
 4317TIP3    H134366   6.323   3.723  16.357  2.7441 -0.7228 -2.0026
 4317TIP3    H234367   6.270   3.600  16.286  0.3918 -0.3899 -0.9244
 4318TIP3   OH234368   3.697   0.366  12.207  0.5317 -0.0025 -0.4203
 4318TIP3    H134369   3.672   0.286  12.253  3.2675 -0.0251  1.2626
 4318TIP3    H234370   3.699   0.341  12.115 -0.2018 -1.4178 -0.0823
 4319TIP3   OH234371   0.506   2.068   4.077  0.3231 -0.2990  0.0543
 4319TIP3    H134372   0.434   2.013   4.046  0.3484  0.0598 -0.6512
 4319TIP3    H234373   0.462   2.145   4.114  0.3057 -0.6001  0.6890
 4320TIP3   OH234374   1.973   3.201  14.296  0.5457  0.7907 -1.0350
 4320TIP3    H134375   1.886   3.160  14.292  0.9221  0.0713 -2.7125
 4320TIP3    H234376   2.025   3.141  14.349  0.3097  0.6510 -0.9577
 4321TIP3   OH234377   2.730   5.586   0.312 -0.0065 -0.2781  0.1861
 4321TIP3    H134378   2.755   5.579   0.404 -1.7879  0.0895  0.7246
 4321TIP3    H234379   2.722   5.680   0.296 -0.1784 -0.3579 -0.2242
 4322TIP3   OH234380   6.693   4.065   2.271  0.2446 -0.5944  0.1895
 4322TIP3    H134381   6.619   4.006   2.257  0.0389 -0.4796  0.7738
 4322TIP3    H234382   6.653   4.148   2.296  0.5684 -0.5081  0.4268
 4323TIP3   OH234383   3.484   5.572   4.614 -0.0981  0.4321  0.3790
 4323TIP3    H134384   3.494   5.477   4.604  0.1830  0.4999 -0.0275
 4323TIP3    H234385   3.390   5.587   4.614 -0.1552  0.0873  1.0962
 4324TIP3   OH234386   4.305   3.531  12.366 -0.8136 -0.2962  0.1224
 4324TIP3    H134387   4.217   3.531  12.404 -0.0954  1.1780  1.9628
 4324TIP3    H234388   4.299   3.592  12.292 -0.4211  3.5656  2.9804
 4325TIP3   OH234389   3.579   1.014   1.005 -0.4812  0.0176  0.1105
 4325TIP3    H134390   3.622   1.024   1.090 -0.9653  1.2463  0.2247
 4325TIP3    H234391   3.522   0.938   1.016  1.7283 -1.8064 -0.1085
 4326TIP3   OH234392   3.606   5.666   4.179  0.0319 -0.3365 -0.0482
 4326TIP3    H134393   3.605   5.761   4.162 -1.4221 -0.2892  0.1571
 4326TIP3    H234394   3.652   5.657   4.262 -1.3118  0.3870  0.8151
 4327TIP3   OH234395   5.342   1.452   0.644  0.1201  0.6103 -0.0088
 4327TIP3    H134396   5.317   1.477   0.733  0.1529  1.8858 -0.3359
 4327TIP3    H234397   5.264   1.409   0.608  1.4275 -4.0897  2.0279
 4328TIP3   OH234398   2.947   2.264   5.709 -0.2749 -0.1193  0.3418
 4328TIP3    H134399   3.025   2.273   5.655 -1.5472 -1.3007 -1.8543
 4328TIP3    H234400   2.966   2.190   5.766 -0.2887 -1.4603 -1.2884
 4329TIP3   OH234401   1.346   0.729  15.250 -0.3748 -0.5960 -0.6186
 4329TIP3    H134402   1.300   0.805  15.283 -3.1886 -1.9173 -1.2364
 4329TIP3    H234403   1.389   0.691  15.327  1.0649  1.5086 -0.3101
 4330TIP3   OH234404   0.092   3.404   0.282  0.1138 -0.3493  0.6396
 4330TIP3    H134405   0.183   3.433   0.280  0.4480 -1.2045 -3.1184
 4330TIP3    H234406   0.098   3.310   0.303 -0.0517 -0.1593  1.5950
 4331TIP3   OH234407   1.923   5.564  15.637 -0.8074  0.5846  0.3315
 4331TIP3    H134408   1.854   5.630  15.623 -0.2818  0.8239 -1.4189
 4331TIP3    H234409   1.928   5.518  15.554  0.9979  0.4344  0.4950
 4332TIP3   OH234410   1.841   6.579   0.645 -0.2760  0.9095 -0.3276
 4332TIP3    H134411   1.824   6.494   0.605  0.7027  0.0496  0.9970
 4332TIP3    H234412   1.754   6.611   0.671 -0.6226  0.1714 -0.5506
 4333TIP3   OH234413   5.801   3.747   6.430 -0.0610 -0.1424  0.1110
 4333TIP3    H134414   5.784   3.722   6.521  1.2448 -0.6630  0.2391
 4333TIP3    H234415   5.868   3.815   6.436 -1.3255  1.2006 -0.3958
 4334TIP3   OH234416   4.435   0.758  16.382 -0.6869 -0.2832  0.6489
 4334TIP3    H134417   4.384   0.773  16.302  2.8711  0.5090 -1.6644
 4334TIP3    H234418   4.452   0.664  16.383  1.3754  0.0231 -1.0265
 4335TIP3   OH234419   5.574   2.545   0.688 -0.1911 -0.2244  0.4302
 4335TIP3    H134420   5.565   2.640   0.680 -0.0000 -0.1495  1.0104
 4335TIP3    H234421   5.509   2.509   0.628  0.4411  0.2679 -0.5700
 4336TIP3   OH234422   0.349   6.512   1.592 -0.1125  0.2432  0.4213
 4336TIP3    H134423   0.292   6.589   1.597 -0.6060 -0.1934  2.5735
 4336TIP3    H234424   0.345   6.486   1.500 -1.4564  1.6622  0.0229
 4337TIP3   OH234425   1.353   0.868  10.338 -0.7535  0.2489  0.3467
 4337TIP3    H134426   1.392   0.938  10.392 -1.9643  0.2266  1.3047
 4337TIP3    H234427   1.364   0.898  10.248  1.5302  0.1928  0.5536
 4338TIP3   OH234428   5.537   1.752   5.458 -0.5299  0.9968  0.0488
 4338TIP3    H134429   5.544   1.705   5.375  0.1663 -1.4641  1.3846
 4338TIP3    H234430   5.459   1.715   5.499 -2.0123  3.5827 -0.2543
 4339TIP3   OH234431   5.807   2.844  10.649 -0.0772  0.0660 -0.2707
 4339TIP3    H134432   5.844   2.836  10.561  1.0538 -0.5222  0.2339
 4339TIP3    H234433   5.817   2.757  10.688 -0.3712  0.3695  0.5029
 4340TIP3   OH234434   1.918   2.986  16.403  0.1808 -0.1096 -0.3518
 4340TIP3    H134435   1.991   2.959  16.347 -0.5591 -0.1510 -1.3081
 4340TIP3    H234436   1.863   2.909  16.410 -0.1113  0.1113 -0.1842
 4341TIP3   OH234437   2.076   4.851  12.095 -0.0635  0.2546 -0.3140
 4341TIP3    H134438   2.102   4.855  12.003 -2.3552 -0.5092 -1.0752
 4341TIP3    H234439   2.039   4.763  12.105  3.8455 -1.3676  2.5037
 4342TIP3   OH234440   1.719   6.463   3.763  0.3950 -0.1908 -0.4244
 4342TIP3    H134441   1.697   6.381   3.807 -0.8316 -0.0247 -0.6894
 4342TIP3    H234442   1.674   6.530   3.814 -1.2678 -0.0219 -2.0160
 4343TIP3   OH234443   1.287   2.803   1.400  0.4264  0.2327 -0.3439
 4343TIP3    H134444   1.338   2.733   1.441  1.6816  0.3084 -1.6775
 4343TIP3    H234445   1.200   2.794   1.437  1.0304 -0.8668  0.8953
 4344TIP3   OH234446   4.508   3.778  16.358  0.6527 -0.0201 -0.3770
 4344TIP3    H134447   4.603   3.782  16.363  0.7251 -0.3972 -1.2788
 4344TIP3    H234448   4.486   3.830  16.281  0.1908 -0.5652 -0.6190
 4345TIP3   OH234449   0.531   2.157  11.073  0.1056 -0.0668  0.2211
 4345TIP3    H134450   0.525   2.068  11.109  0.0971  0.4999  1.6872
 4345TIP3    H234451   0.602   2.152  11.009  1.9294 -0.5571  2.1521
 4346TIP3   OH234452   5.574   2.048  13.050 -0.0112 -0.4125  0.0685
 4346TIP3    H134453   5.500   2.010  13.003 -0.1415  1.8319 -1.7026
 4346TIP3    H234454   5.555   2.142  13.054  2.2418  0.0891  0.4930
 4347TIP3   OH234455   5.984   5.834  17.090 -0.1704 -0.4532  0.0841
 4347TIP3    H134456   6.036   5.756  17.108 -0.1590 -0.2090  1.1644
 4347TIP3    H234457   6.028   5.904  17.138  0.7610  0.6004 -2.1408
 4348TIP3   OH234458   5.980   5.052  15.038  0.3142  0.2258 -0.1120
 4348TIP3    H134459   6.025   5.025  14.957 -1.0988 -1.7137 -0.3227
 4348TIP3    H234460   6.029   5.007  15.107  1.3031  1.6008  0.1198
 4349TIP3   OH234461   3.140   3.257   0.835 -0.0715  0.1150 -0.0380
 4349TIP3    H134462   3.120   3.300   0.752  2.3208  1.2808 -0.0931
 4349TIP3    H234463   3.189   3.323   0.884  0.9055 -1.4861  1.2178
 4350TIP3   OH234464   1.551   4.902   1.262  0.8232 -0.2805  0.2529
 4350TIP3    H134465   1.582   4.853   1.338 -1.9983  0.2186  1.8998
 4350TIP3    H234466   1.455   4.902   1.272  0.5219  2.5354 -1.5730
 4351TIP3   OH234467   3.659   0.811   2.920 -0.5335  0.0797 -0.1452
 4351TIP3    H134468   3.723   0.746   2.951 -1.8137 -0.2942  1.8588
 4351TIP3    H234469   3.627   0.775   2.838  0.6018 -0.5528 -0.3375
 4352TIP3   OH234470   4.990   3.633   4.496 -0.2007  0.4783 -0.1834
 4352TIP3    H134471   5.005   3.712   4.548  1.6017  0.5745 -0.7806
 4352TIP3    H234472   4.943   3.574   4.555  0.7442  1.0230  1.1480
 4353TIP3   OH234473   6.301   6.675  11.619  0.3776  0.3421 -0.0371
 4353TIP3    H134474   6.251   6.710  11.693  1.5914  1.3964  0.3082
 4353TIP3    H234475   6.334   6.752  11.573  1.3215 -0.3300 -0.5141
 4354TIP3   OH234476   2.782   0.047   0.730  0.0897 -0.2087 -0.4932
 4354TIP3    H134477   2.785   0.077   0.640 -1.6341  0.2518 -0.4397
 4354TIP3    H234478   2.792  -0.048   0.724  2.2444  0.0019 -0.9383
 4355TIP3   OH234479   6.083   1.864  11.813  0.4610 -0.6929  0.9760
 4355TIP3    H134480   6.063   1.787  11.865  1.9558 -0.4968  1.9157
 4355TIP3    H234481   6.140   1.832  11.743 -0.1682 -0.6855  0.4594
 4356TIP3   OH234482   1.955   4.255   3.849  0.1540 -0.1227  0.0762
 4356TIP3    H134483   1.915   4.337   3.821  1.5831  1.1142  1.4824
 4356TIP3    H234484   2.018   4.281   3.916  1.2231 -2.2976 -0.0202
 4357TIP3   OH234485   1.489   3.921  12.717 -0.0458 -0.2587  0.4212
 4357TIP3    H134486   1.508   4.005  12.758 -0.3256  0.8214 -1.5235
 4357TIP3    H234487   1.403   3.896  12.751  0.2388 -0.0102  1.3625
 4358TIP3   OH234488   5.869   5.341  14.681  0.0915  0.3485  0.1140
 4358TIP3    H134489   5.872   5.246  14.671 -0.0436  0.3021  0.4833
 4358TIP3    H234490   5.775   5.361  14.688  0.1953  0.2269  2.5534
 4359TIP3   OH234491   5.393   6.127   1.478  0.4546 -0.1289  0.1440
 4359TIP3    H134492   5.303   6.116   1.508 -0.6433  0.7083 -2.5029
 4359TIP3    H234493   5.436   6.175   1.548 -0.6644 -1.8644  2.1561
 4360TIP3   OH234494   5.401   0.496   0.471  0.4655 -0.2180  0.1571
 4360TIP3    H134495   5.305   0.487   0.469  0.2767  1.6685 -0.9745
 4360TIP3    H234496   5.416   0.586   0.500  1.9217 -0.5811  0.5886
 4361TIP3   OH234497   1.727   3.243  13.179 -0.1615 -0.0856 -0.5651
 4361TIP3    H134498   1.747   3.337  13.175 -0.9524  0.0733 -0.9937
 4361TIP3    H234499   1.751   3.217  13.268  0.3606  0.4518 -0.5407
 4362TIP3   OH234500   2.136   5.419   6.153  0.2721 -0.3361 -0.3226
 4362TIP3    H134501   2.101   5.363   6.223 -0.0903 -0.7963 -0.8552
 4362TIP3    H234502   2.071   5.489   6.144  1.3021  0.8653  1.1424
 4363TIP3   OH234503   5.094   0.178   3.829 -0.5423  0.2591 -0.2980
 4363TIP3    H134504   5.079   0.084   3.837 -1.3270  0.3716 -0.3912
 4363TIP3    H234505   5.118   0.206   3.917  2.3324 -0.4531 -0.7534
 4364TIP3   OH234506   0.326   3.729   0.444 -0.3340 -0.2027 -0.3258
 4364TIP3    H134507   0.234   3.716   0.422 -0.5267  1.2278 -0.4780
 4364TIP3    H234508   0.342   3.668   0.517 -2.0148  1.0141  1.1644
 4365TIP3   OH234509   0.733   1.182   2.231  0.2230 -0.7210  0.2263
 4365TIP3    H134510   0.819   1.209   2.262  0.2639  1.9688 -1.8129
 4365TIP3    H234511   0.749   1.103   2.179  1.2818 -0.8972  0.8107
 4366TIP3   OH234512   4.835   2.009   5.682 -0.5635  0.2601  0.4247
 4366TIP3    H134513   4.767   2.030   5.747  0.0990  0.3258  1.1145
 4366TIP3    H234514   4.851   2.093   5.638 -0.4369  0.4019  0.7370
 4367TIP3   OH234515   0.346   2.707  14.694  0.1646  0.8110 -0.2774
 4367TIP3    H134516   0.403   2.665  14.759  1.3976  0.8119 -1.3144
 4367TIP3    H234517   0.401   2.715  14.616 -0.5031  3.0281 -0.5865
 4368TIP3   OH234518   0.025   4.239   1.887  0.1993 -0.2070 -0.0620
 4368TIP3    H134519   0.013   4.185   1.810  0.1341 -1.0029  0.4985
 4368TIP3    H234520   0.023   4.178   1.961  0.6790  0.4853  0.5434
 4369TIP3   OH234521   4.627   0.659   1.775 -0.3118  0.4812  0.1662
 4369TIP3    H134522   4.573   0.702   1.840 -0.7150  0.9535 -0.4633
 4369TIP3    H234523   4.614   0.565   1.791 -0.1172  0.5870  0.9842
 4370TIP3   OH234524   1.968   6.489  11.616  0.2216 -0.5649 -0.1286
 4370TIP3    H134525   1.994   6.523  11.530  0.7270 -0.4390  0.0711
 4370TIP3    H234526   1.872   6.494  11.616  0.2969  1.9771  0.3278
 4371TIP3   OH234527   0.802   0.448  16.574 -0.5846 -0.1501 -0.5913
 4371TIP3    H134528   0.877   0.449  16.515 -1.0649  0.0429 -1.2210
 4371TIP3    H234529   0.732   0.406  16.523 -0.2340 -2.6536  0.8501
 4372TIP3   OH234530   1.517   2.472   1.059 -0.1528  0.1410 -0.8860
 4372TIP3    H134531   1.475   2.394   1.023 -0.4811 -0.9561  1.6600
 4372TIP3    H234532   1.493   2.472   1.152  1.7488  2.0081 -0.3021
 4373TIP3   OH234533   5.025   2.788  11.974 -0.2161  0.4004  0.1982
 4373TIP3    H134534   5.063   2.700  11.963  2.5595  1.6302 -0.9167
 4373TIP3    H234535   5.095   2.840  12.012 -1.1729  2.5891 -0.8572
 4374TIP3   OH234536   4.604   3.300   5.821 -0.1206  0.3698  0.4005
 4374TIP3    H134537   4.645   3.219   5.792  1.1458  0.5703  1.5535
 4374TIP3    H234538   4.568   3.279   5.908  1.4262  1.3761  1.3260
 4375TIP3   OH234539   3.630   6.789   2.684  0.2142 -0.1173  0.4836
 4375TIP3    H134540   3.715   6.822   2.714  1.8973 -2.9859 -0.7967
 4375TIP3    H234541   3.613   6.837   2.603  0.6737  0.3282  0.6451
 4376TIP3   OH234542   3.649   2.213  16.777  0.4805 -0.0350 -0.0629
 4376TIP3    H134543   3.719   2.148  16.784  0.4026 -0.3718 -1.9287
 4376TIP3    H234544   3.655   2.246  16.687 -1.2361  0.5320 -0.0104
 4377TIP3   OH234545   3.874   4.087  15.176 -0.0680  0.0434  0.2756
 4377TIP3    H134546   3.925   4.091  15.095  1.5054 -1.8463  1.0849
 4377TIP3    H234547   3.786   4.062  15.147  0.4407 -0.5109 -0.8719
 4378TIP3   OH234548   1.330   5.114   0.523 -0.3807  0.1444  0.3045
 4378TIP3    H134549   1.247   5.139   0.565 -0.9829  2.1455 -1.8242
 4378TIP3    H234550   1.303   5.080   0.438  0.9701  1.5189 -0.7227
 4379TIP3   OH234551   2.646   3.826   4.423  0.6445 -0.1677 -0.0460
 4379TIP3    H134552   2.726   3.835   4.474  0.6764 -1.9732  0.2755
 4379TIP3    H234553   2.670   3.773   4.348  0.0534  0.4787 -0.7194
 4380TIP3   OH234554   1.409   4.422   1.010 -1.1075  0.2250 -0.1420
 4380TIP3    H134555   1.459   4.346   1.037 -0.2671  0.3274 -1.3213
 4380TIP3    H234556   1.475   4.490   0.996 -1.5498  0.3789 -1.6785
 4381TIP3   OH234557   0.427   1.578   2.053 -0.0240  0.6666 -0.9877
 4381TIP3    H134558   0.484   1.654   2.039  1.3086 -0.2190 -0.5343
 4381TIP3    H234559   0.487   1.505   2.067 -1.1959  0.1587  2.2150
 4382TIP3   OH234560   4.976   6.331  13.683 -0.7460  0.1520  0.8725
 4382TIP3    H134561   5.046   6.363  13.740  3.1251 -1.5134 -2.4840
 4382TIP3    H234562   4.963   6.240  13.709 -0.1444 -0.1438  0.1338
 4383TIP3   OH234563   6.583   6.653   2.887 -0.1060  0.3064  0.4726
 4383TIP3    H134564   6.659   6.711   2.885 -1.5178  2.1985 -0.7043
 4383TIP3    H234565   6.508   6.710   2.899 -1.4765 -1.3985  0.5074
 4384TIP3   OH234566   2.511   1.965   4.354  0.1557  0.2489  0.3182
 4384TIP3    H134567   2.453   1.888   4.355  1.4104 -0.8977 -2.7705
 4384TIP3    H234568   2.456   2.035   4.321  0.1304 -0.5146 -1.3537
 4385TIP3   OH234569   3.937   3.424  11.806 -0.1390  0.0036  0.0029
 4385TIP3    H134570   4.015   3.369  11.801 -0.6633 -1.1005  2.3984
 4385TIP3    H234571   3.940   3.461  11.895 -3.7784 -2.5234  1.4338
 4386TIP3   OH234572   0.099   2.132  10.974  0.2976 -0.6030  0.0364
 4386TIP3    H134573   0.194   2.133  10.958  0.2938  0.8385 -0.0388
 4386TIP3    H234574   0.074   2.225  10.975 -0.9221 -0.9163  1.2688
 4387TIP3   OH234575   1.146   2.935  14.729  0.3295 -0.2726 -0.1801
 4387TIP3    H134576   1.129   3.016  14.680 -0.0534 -0.6671 -0.7104
 4387TIP3    H234577   1.130   2.865  14.666 -1.1412 -0.8365  0.7553
 4388TIP3   OH234578   5.319   4.600   1.135 -0.2271 -0.4125  0.3362
 4388TIP3    H134579   5.364   4.649   1.204 -0.7151 -0.1554  0.4689
 4388TIP3    H234580   5.339   4.648   1.054 -1.8510  0.8314  0.6305
 4389TIP3   OH234581   2.449   5.462   3.243  0.0021 -0.1692  0.0264
 4389TIP3    H134582   2.500   5.453   3.324 -1.1985 -2.0950  0.6511
 4389TIP3    H234583   2.378   5.521   3.266  0.2227  0.0780  0.0766
 4390TIP3   OH234584   1.611   1.013   5.532 -0.4404  0.2991 -0.4934
 4390TIP3    H134585   1.557   1.081   5.572 -2.2802 -2.2389  1.7044
 4390TIP3    H234586   1.560   0.984   5.456 -1.4947 -1.0004  0.6593
 4391TIP3   OH234587   1.483   3.911   1.361 -0.0475  0.2687  0.2371
 4391TIP3    H134588   1.398   3.867   1.351 -0.3004 -0.2347  3.4446
 4391TIP3    H234589   1.545   3.839   1.373  0.9147  0.6390 -1.9967
 4392TIP3   OH234590   5.460   5.861   1.382  0.1316 -0.4448  0.3595
 4392TIP3    H134591   5.375   5.858   1.338 -0.1973 -2.2531  1.0157
 4392TIP3    H234592   5.453   5.936   1.441  0.2784  1.4849 -1.9745
 4393TIP3   OH234593   4.750   1.694   0.574 -0.3996  0.0307 -0.4417
 4393TIP3    H134594   4.796   1.628   0.523  1.0981  0.1787  0.6479
 4393TIP3    H234595   4.712   1.646   0.647 -0.1120  0.2205 -0.1641
 4394TIP3   OH234596   5.814   3.385  15.110  0.7220 -0.3924  0.3188
 4394TIP3    H134597   5.767   3.362  15.030  0.1408  0.1200  0.5019
 4394TIP3    H234598   5.793   3.477  15.125  1.8734 -0.1255  0.3623
 4395TIP3   OH234599   0.324   1.160   4.744 -0.1508  0.2758 -0.7757
 4395TIP3    H134600   0.396   1.097   4.743 -0.3835  0.0124 -0.8920
 4395TIP3    H234601   0.306   1.175   4.837 -0.6571 -0.4724 -0.7477
 4396TIP3   OH234602   1.652   4.804  16.720  0.1890 -0.1962 -0.7629
 4396TIP3    H134603   1.690   4.730  16.768  1.7540 -0.8059 -2.7693
 4396TIP3    H234604   1.570   4.770  16.684 -0.2052 -0.2294  0.1445
 4397TIP3   OH234605   5.765   0.601   0.171  0.4746  0.8226  0.0903
 4397TIP3    H134606   5.728   0.564   0.251 -0.0988  0.7433 -0.2124
 4397TIP3    H234607   5.852   0.631   0.198  0.3153  0.7396  0.7289
 4398TIP3   OH234608   1.071   4.377   4.797 -0.5508 -0.0791 -0.1326
 4398TIP3    H134609   1.136   4.408   4.735 -0.0399  1.4330  1.1015
 4398TIP3    H234610   1.049   4.454   4.850 -3.2307 -0.5651 -0.3900
 4399TIP3   OH234611   2.903   2.565  16.077  0.2192  0.3723 -0.3369
 4399TIP3    H134612   2.841   2.598  16.142  1.1190  1.5700 -0.0325
 4399TIP3    H234613   2.982   2.544  16.128  0.9967  1.4949 -1.0321
 4400TIP3   OH234614   6.241   6.219  13.547  0.3353  0.2206 -0.0756
 4400TIP3    H134615   6.292   6.138  13.547  1.8987  1.1786 -0.0891
 4400TIP3    H234616   6.247   6.251  13.637  0.5319  0.8085 -0.2931
 4401TIP3   OH234617   5.140   3.152   1.858  0.2430  0.3207 -0.0300
 4401TIP3    H134618   5.083   3.078   1.879 -0.8709  1.2515  0.3286
 4401TIP3    H234619   5.226   3.113   1.846  0.2298 -0.7367  2.6546
 4402TIP3   OH234620   1.513   2.067  13.481 -0.5517  0.0429  0.6466
 4402TIP3    H134621   1.558   2.101  13.403 -0.5216 -1.6495 -0.1112
 4402TIP3    H234622   1.584   2.036  13.538 -0.5979 -3.5579 -0.9778
 4403TIP3   OH234623   6.098   5.585   0.985  0.2813  0.6673  0.0994
 4403TIP3    H134624   6.138   5.586   1.072  0.8373  0.3939 -0.1447
 4403TIP3    H234625   6.139   5.510   0.942 -0.3590  0.5014 -0.2260
 4404TIP3   OH234626   1.472   5.761   4.781  0.1284 -0.0060 -0.3062
 4404TIP3    H134627   1.478   5.836   4.840  3.6829  0.8861 -1.5113
 4404TIP3    H234628   1.402   5.784   4.720 -2.1403  0.0206  2.1220
 4405TIP3   OH234629   5.002   3.249  13.233 -0.0719 -0.2450 -0.7424
 4405TIP3    H134630   5.092   3.275  13.251  0.1533 -1.4067 -0.0650
 4405TIP3    H234631   4.949   3.317  13.275  0.4884 -0.0111 -0.3930
 4406TIP3   OH234632   4.175   6.254  10.685 -0.4034  0.4399 -0.1929
 4406TIP3    H134633   4.251   6.308  10.664  0.3333  0.1699  1.5957
 4406TIP3    H234634   4.100   6.310  10.668  0.2198  1.0302 -1.0975
 4407TIP3   OH234635   3.420   1.404  13.656 -0.0900 -0.2417  0.4917
 4407TIP3    H134636   3.458   1.433  13.739  2.5568 -1.2422 -0.2641
 4407TIP3    H234637   3.496   1.391  13.598 -1.7385 -0.9126 -1.6619
 4408TIP3   OH234638   0.601   3.213  12.306  0.0503  0.2215  0.2628
 4408TIP3    H134639   0.637   3.131  12.272 -0.4515  0.3759 -0.6546
 4408TIP3    H234640   0.634   3.280  12.247  0.0309  0.6209  0.7032
 4409TIP3   OH234641   6.038   2.564  10.847 -0.0836  0.1586 -0.1700
 4409TIP3    H134642   6.068   2.587  10.935 -1.0050  1.1531 -0.0948
 4409TIP3    H234643   5.944   2.548  10.858  0.1812 -1.9056 -0.5726
 4410TIP3   OH234644   4.787   6.475   1.886  0.3943  0.0695  0.1011
 4410TIP3    H134645   4.713   6.483   1.826 -0.2145  0.0915  0.8385
 4410TIP3    H234646   4.784   6.384   1.916 -0.0927  0.3974  1.0829
 4411TIP3   OH234647   4.408   3.633   5.965  0.2201  0.3397  0.3939
 4411TIP3    H134648   4.316   3.632   5.991 -0.1668 -2.8972 -0.6332
 4411TIP3    H234649   4.457   3.607   6.043  0.0137 -0.1201  0.3732
 4412TIP3   OH234650   5.821   6.217  15.535  0.2714 -0.2669 -0.7232
 4412TIP3    H134651   5.762   6.292  15.550 -0.9148 -1.2800 -0.1848
 4412TIP3    H234652   5.867   6.205  15.619  1.9796  1.0800 -1.3979
 4413TIP3   OH234653   4.730   0.469  12.317 -0.2269 -0.0176 -0.7018
 4413TIP3    H134654   4.745   0.487  12.410 -2.6928  0.6115 -0.3507
 4413TIP3    H234655   4.649   0.419  12.315 -1.4264  1.8346 -2.5968
 4414TIP3   OH234656   0.608   0.278  13.465  0.1964  0.1960 -0.2370
 4414TIP3    H134657   0.677   0.317  13.411  0.1215  0.3445 -0.2250
 4414TIP3    H234658   0.526   0.300  13.421  0.1972 -0.7773 -0.7645
 4415TIP3   OH234659   3.314   4.438  12.023  0.4621 -0.3883  0.0524
 4415TIP3    H134660   3.391   4.410  12.073  2.1523  0.3198 -2.0082
 4415TIP3    H234661   3.293   4.524  12.060 -0.7450 -1.4671  2.0514
 4416TIP3   OH234662   6.545   6.054   2.249 -0.3845 -0.4650 -0.1391
 4416TIP3    H134663   6.517   6.019   2.333 -1.2779 -1.4856 -0.8282
 4416TIP3    H234664   6.464   6.078   2.204  0.1620  1.8750  0.0032
 4417TIP3   OH234665   1.539   0.708  14.529 -0.1340 -0.2582  0.3911
 4417TIP3    H134666   1.510   0.620  14.508  0.5134 -0.4483  0.2944
 4417TIP3    H234667   1.524   0.759  14.449  0.5870 -0.5526  0.0636
 4418TIP3   OH234668   2.374   4.668   3.417 -1.2679 -0.1073  0.1339
 4418TIP3    H134669   2.385   4.633   3.329  0.7616  1.3294 -0.2567
 4418TIP3    H234670   2.398   4.761   3.410 -3.2817  0.6374  1.7576
 4419TIP3   OH234671   3.838   4.680   1.572  0.5756 -1.0149  0.4512
 4419TIP3    H134672   3.892   4.717   1.502 -0.5616 -0.6755 -0.2713
 4419TIP3    H234673   3.869   4.590   1.581 -0.7147 -1.8145 -2.0865
 4420TIP3   OH234674   3.065   5.365   0.495 -0.3452 -0.4022 -0.3029
 4420TIP3    H134675   3.041   5.284   0.539 -0.0205 -1.0223 -1.2621
 4420TIP3    H234676   3.018   5.364   0.412 -0.6221  0.5709 -0.1826
 4421TIP3   OH234677   4.159   3.174   1.721 -0.6988 -0.1491  0.0290
 4421TIP3    H134678   4.115   3.260   1.720 -1.8882 -0.7387 -1.1323
 4421TIP3    H234679   4.171   3.152   1.629 -1.3740 -1.6889  0.2744
 4422TIP3   OH234680   4.097   0.639  14.258  0.1141 -0.7429  0.0611
 4422TIP3    H134681   4.174   0.681  14.298 -0.9915 -0.0662  1.5794
 4422TIP3    H234682   4.044   0.611  14.332 -0.6978 -2.0110 -0.9629
 4423TIP3   OH234683   5.178   0.629  11.913  0.5990 -0.1016 -0.7354
 4423TIP3    H134684   5.138   0.700  11.964  0.0760 -0.7156 -0.2718
 4423TIP3    H234685   5.144   0.641  11.825  1.2632  0.7884 -0.8869
 4424TIP3   OH234686   1.309   5.307  16.514  0.1535 -0.9757  0.0747
 4424TIP3    H134687   1.252   5.367  16.563 -0.1178 -0.2612 -1.0816
 4424TIP3    H234688   1.354   5.363  16.451  1.4097 -1.6939  0.3185
 4425TIP3   OH234689   0.182   0.430  11.331  0.1678 -0.1216 -0.3149
 4425TIP3    H134690   0.203   0.446  11.423 -0.5757 -1.9671  0.2209
 4425TIP3    H234691   0.239   0.490  11.283 -0.0902  1.5653  1.3464
 4426TIP3   OH234692   1.854   3.678   0.666  0.0731  0.0190 -0.2874
 4426TIP3    H134693   1.834   3.718   0.751 -0.6913 -0.4513 -0.2392
 4426TIP3    H234694   1.785   3.614   0.653  0.8067 -0.6953 -0.7583
 4427TIP3   OH234695   4.403   1.178   3.360  0.1750 -0.3194 -0.0876
 4427TIP3    H134696   4.375   1.259   3.317 -0.4573  1.0317  2.6043
 4427TIP3    H234697   4.487   1.200   3.400  0.4796 -1.3137 -0.1737
 4428TIP3   OH234698   0.026   4.386  14.673  0.1996 -0.6387  0.0851
 4428TIP3    H134699  -0.042   4.422  14.731  1.6935  0.8639  0.9785
 4428TIP3    H234700   0.096   4.358  14.731  0.9008 -0.9685 -0.8835
 4429TIP3   OH234701   0.796   6.656   4.547 -0.0247  0.4285 -0.3229
 4429TIP3    H134702   0.813   6.656   4.453  0.0384 -1.0610 -0.3387
 4429TIP3    H234703   0.882   6.647   4.588 -0.2571 -3.3037 -0.3007
 4430TIP3   OH234704   3.555   3.751   3.365 -0.2234  0.0529 -0.0762
 4430TIP3    H134705   3.477   3.755   3.310 -0.1703  1.8417 -0.0957
 4430TIP3    H234706   3.620   3.803   3.318  0.6371 -0.5087  0.4641
 4431TIP3   OH234707   2.524   1.212  16.343  0.0979  0.0028  0.0093
 4431TIP3    H134708   2.567   1.149  16.285  0.5504  1.1428 -0.9475
 4431TIP3    H234709   2.488   1.278  16.284  1.5008  1.7790  1.0207
 4432TIP3   OH234710   0.881   1.963  11.073 -0.0781  0.0609  0.5323
 4432TIP3    H134711   0.829   2.010  11.007 -2.8324 -1.6837  1.2679
 4432TIP3    H234712   0.955   1.927  11.024  0.4198  2.4623 -0.6389
 4433TIP3   OH234713   3.034   1.446   2.637  0.1601  0.2184 -0.6022
 4433TIP3    H134714   3.120   1.427   2.600  0.8242  1.1357  0.4379
 4433TIP3    H234715   3.027   1.390   2.714 -0.0679  0.3392 -0.5334
 4434TIP3   OH234716   5.089   5.983  16.882 -0.0415 -0.4407  0.2837
 4434TIP3    H134717   5.027   5.912  16.899  0.3337 -0.1761  3.1247
 4434TIP3    H234718   5.037   6.050  16.837 -1.6136 -0.6277  1.7407
 4435TIP3   OH234719   6.267   2.830   2.783  0.2455 -0.0179  0.2416
 4435TIP3    H134720   6.227   2.744   2.775  0.3107  0.0139 -0.4474
 4435TIP3    H234721   6.243   2.859   2.871 -0.6891 -0.2849  0.0841
 4436TIP3   OH234722   6.579   3.395   2.849 -0.0281 -0.0063 -0.2230
 4436TIP3    H134723   6.495   3.441   2.841  0.4798  1.6141  2.5001
 4436TIP3    H234724   6.644   3.458   2.820  0.4790  0.1638  1.1747
 4437TIP3   OH234725   4.270   2.287   1.922  0.0350 -0.0255  0.4477
 4437TIP3    H134726   4.343   2.333   1.964  0.4223 -1.1222  1.0143
 4437TIP3    H234727   4.299   2.196   1.916 -1.0564 -0.3664  0.1498
 4438TIP3   OH234728   0.720   1.964   1.449 -0.6780  0.3652  0.4050
 4438TIP3    H134729   0.800   1.974   1.397 -0.3662  1.6729  1.0939
 4438TIP3    H234730   0.657   1.926   1.389  0.3793 -0.4293 -0.2354
 4439TIP3   OH234731   0.989   1.922   6.662 -0.0963 -0.2598 -0.2107
 4439TIP3    H134732   0.989   2.015   6.638 -0.0928 -0.4322 -0.9142
 4439TIP3    H234733   0.900   1.905   6.692  0.0219  0.0702  0.3477
 4440TIP3   OH234734   0.961   2.382   3.702 -0.3665 -0.8190 -0.9279
 4440TIP3    H134735   1.002   2.377   3.788 -1.8031  2.3656  0.0944
 4440TIP3    H234736   1.008   2.451   3.657 -1.4617 -0.4771 -1.5862
 4441TIP3   OH234737   0.021   1.013  14.787 -0.1177 -0.4710  0.2069
 4441TIP3    H134738  -0.027   1.009  14.704  0.3610  0.5720 -0.1388
 4441TIP3    H234739   0.065   1.098  14.785 -0.1125 -0.4261  1.5495
 4442TIP3   OH234740   1.566   1.058   1.900  0.2731 -0.0029 -0.0313
 4442TIP3    H134741   1.575   1.095   1.987 -0.6438 -0.4044  0.2430
 4442TIP3    H234742   1.504   0.986   1.910 -0.3583  0.3481 -1.1198
 4443TIP3   OH234743   6.615   2.013  16.721 -0.2923  0.0058 -0.1188
 4443TIP3    H134744   6.652   2.014  16.633  1.2571 -1.7791  0.4341
 4443TIP3    H234745   6.522   1.993  16.709 -0.2748  0.6274 -1.3689
 4444TIP3   OH234746   5.668   2.864   4.393 -0.0571 -0.3549 -0.6065
 4444TIP3    H134747   5.720   2.892   4.318 -0.4290 -0.0705 -0.7610
 4444TIP3    H234748   5.724   2.880   4.469  0.1318 -0.1722 -0.7833
 4445TIP3   OH234749   5.762   1.410  11.798 -0.6173 -0.1884  0.0688
 4445TIP3    H134750   5.788   1.396  11.889 -1.4540  0.4501  0.4176
 4445TIP3    H234751   5.844   1.400  11.749 -0.0814 -0.1792  0.9276
 4446TIP3   OH234752   3.848   2.597   1.187 -0.1665  0.4324 -0.2135
 4446TIP3    H134753   3.895   2.541   1.125  0.6974 -0.6436  1.3277
 4446TIP3    H234754   3.865   2.557   1.272 -1.7586  1.5442  0.6734
 4447TIP3   OH234755   6.218   2.386   2.427  0.2741 -0.0531 -0.5119
 4447TIP3    H134756   6.221   2.428   2.341 -0.3800  3.2197  0.8783
 4447TIP3    H234757   6.128   2.355   2.436  0.1759  0.1556 -0.7790
 4448TIP3   OH234758   0.433   3.111   0.783  0.1530 -0.1015  0.1378
 4448TIP3    H134759   0.518   3.085   0.818  0.8771  2.3565  0.4382
 4448TIP3    H234760   0.449   3.123   0.689 -0.2748 -1.0963 -0.0695
 4449TIP3   OH234761   3.900   5.380  12.231  0.0564  0.0187 -0.1379
 4449TIP3    H134762   3.907   5.291  12.195  0.8287  0.5782 -1.4513
 4449TIP3    H234763   3.854   5.430  12.164 -0.1990  0.6647  0.5043
 4450TIP3   OH234764   3.162   1.065   4.117  0.8060 -0.3759 -0.6212
 4450TIP3    H134765   3.152   1.017   4.035  0.1424 -2.1744  0.4409
 4450TIP3    H234766   3.222   1.011   4.169  0.2377  0.0628  0.5391
 4451TIP3   OH234767   1.447   1.079  14.836  0.4586  0.5982 -0.4686
 4451TIP3    H134768   1.364   1.033  14.822  0.9684 -0.4252 -0.1745
 4451TIP3    H234769   1.514   1.020  14.801  1.4918 -0.6297  3.1318
 4452TIP3   OH234770   4.474   2.996   1.428 -0.0722  0.4108  0.5212
 4452TIP3    H134771   4.396   2.942   1.437  0.5083 -0.9049 -1.7253
 4452TIP3    H234772   4.449   3.065   1.367  0.9550 -1.0588 -1.6558
 4453TIP3   OH234773   3.016   1.452   5.257  0.4741  0.3853 -0.1608
 4453TIP3    H134774   3.079   1.385   5.284  1.1578  0.4628 -1.5009
 4453TIP3    H234775   2.934   1.425   5.299  1.1667 -0.2423  0.8372
 4454TIP3   OH234776   0.040   1.530   5.879  0.1758 -0.3826 -0.1905
 4454TIP3    H134777   0.087   1.603   5.839  0.5931 -1.0312 -0.9044
 4454TIP3    H234778   0.077   1.524   5.968 -0.6929  1.0045  0.2929
 4455TIP3   OH234779   4.816   1.700   2.514  0.1336  0.5824 -0.0344
 4455TIP3    H134780   4.813   1.667   2.604 -0.5767 -1.7577 -0.8501
 4455TIP3    H234781   4.910   1.707   2.494  0.2928  0.7912  0.7474
 4456TIP3   OH234782   2.523   3.025  12.058  0.0798  0.7896  0.1724
 4456TIP3    H134783   2.497   2.934  12.040 -0.1985  0.7696  0.6591
 4456TIP3    H234784   2.472   3.077  11.995  0.6362  0.5752 -0.4680
 4457TIP3   OH234785   4.035   4.111   4.186 -0.6380 -0.5888  1.0902
 4457TIP3    H134786   4.052   4.137   4.277 -0.3154  1.8141  0.4168
 4457TIP3    H234787   3.940   4.107   4.180 -0.7740  1.3197  1.0930
 4458TIP3   OH234788   4.862   5.468  13.800 -0.0150 -0.0947  0.0533
 4458TIP3    H134789   4.790   5.436  13.745 -0.3047  1.1358 -0.3064
 4458TIP3    H234790   4.818   5.515  13.871  0.3810 -1.1162  1.0156
 4459TIP3   OH234791   6.738   2.904  14.546 -0.3081  0.5928 -0.1160
 4459TIP3    H134792   6.780   2.990  14.550  0.0567  0.4810 -1.1540
 4459TIP3    H234793   6.800   2.844  14.585 -0.6218  0.8112  0.7388
 4460TIP3   OH234794   1.482   0.157   3.788  0.1073 -0.4102  0.3764
 4460TIP3    H134795   1.472   0.200   3.873 -1.5549 -0.9614  0.4940
 4460TIP3    H234796   1.552   0.206   3.745 -1.7767  2.5530  0.4452
 4461TIP3   OH234797   3.841   0.438   4.191  0.8244 -0.4408  0.7724
 4461TIP3    H134798   3.902   0.433   4.265  0.5518  0.8008  1.1113
 4461TIP3    H234799   3.846   0.530   4.163 -1.6905 -0.0027  1.5018
 4462TIP3   OH234800   2.378   4.926  17.041  0.1916 -0.1226  0.0334
 4462TIP3    H134801   2.441   4.887  16.981 -0.7222 -0.8586 -0.4702
 4462TIP3    H234802   2.364   5.014  17.006 -2.9579 -1.5850 -3.0801
 4463TIP3   OH234803   2.347   1.680  14.698 -0.0336  0.1830 -0.7573
 4463TIP3    H134804   2.276   1.627  14.661 -0.2134 -1.0137  1.1648
 4463TIP3    H234805   2.426   1.648  14.655 -0.3644 -0.3106 -1.0098
 4464TIP3   OH234806   4.097   2.407   3.540  0.0944 -0.1722  0.0409
 4464TIP3    H134807   4.104   2.312   3.541 -0.7932 -0.2413  0.9194
 4464TIP3    H234808   4.116   2.434   3.630  1.6018  0.5989 -0.4764
 4465TIP3   OH234809   0.640   4.343   0.370  0.6919 -0.1113 -0.4582
 4465TIP3    H134810   0.552   4.372   0.345  1.5647  2.1808 -1.1236
 4465TIP3    H234811   0.670   4.292   0.295  0.1257 -0.4831 -0.4401
 4466TIP3   OH234812   4.572   5.381  10.875  0.1642 -0.6575  0.6216
 4466TIP3    H134813   4.477   5.377  10.891  0.2813  0.4147  1.7341
 4466TIP3    H234814   4.600   5.289  10.876 -1.2623 -1.2699 -2.6550
 4467TIP3   OH234815   5.183   0.272  14.043 -0.1213 -0.5385 -0.2708
 4467TIP3    H134816   5.217   0.324  13.970  0.0462 -0.2450  0.0163
 4467TIP3    H234817   5.154   0.191  14.002  0.2087 -0.4796 -0.6280
 4468TIP3   OH234818   3.451   0.641  14.945 -0.2986 -0.2756 -0.1777
 4468TIP3    H134819   3.521   0.626  15.008  0.9607  1.2885 -1.1519
 4468TIP3    H234820   3.371   0.645  14.998  0.8844  2.4600  1.5515
 4469TIP3   OH234821   2.247   5.265   5.064 -0.8750 -0.1051 -0.1058
 4469TIP3    H134822   2.240   5.335   5.128  1.2498  0.0238  0.0604
 4469TIP3    H234823   2.256   5.311   4.980  0.2014 -0.1474 -0.0309
 4470TIP3   OH234824   2.355   4.525  17.161  0.0946  0.5460 -0.2475
 4470TIP3    H134825   2.421   4.498  17.097  0.5518 -0.0264  0.4406
 4470TIP3    H234826   2.296   4.450  17.166 -0.1969  0.7708 -0.3281
 4471TIP3   OH234827   5.721   2.562   0.376  0.3186  0.2247  0.6881
 4471TIP3    H134828   5.661   2.534   0.307 -0.4767  2.4479  0.3917
 4471TIP3    H234829   5.740   2.482   0.425 -1.1758 -0.9360 -0.5050
 4472TIP3   OH234830   6.195   1.643  12.953 -0.8426  0.2465  0.4449
 4472TIP3    H134831   6.195   1.714  12.889  1.2073 -0.1972 -0.1238
 4472TIP3    H234832   6.139   1.576  12.914 -2.1401  1.2179  0.6066
 4473TIP3   OH234833   0.741   0.814  11.230  0.2038  0.1721 -0.3277
 4473TIP3    H134834   0.679   0.805  11.302  1.4609  1.7155  1.0331
 4473TIP3    H234835   0.696   0.777  11.154 -1.6597 -0.3422  0.9653
 4474TIP3   OH234836   0.568   2.355   4.351  0.7570  0.7410 -0.7268
 4474TIP3    H134837   0.573   2.441   4.391  1.1469  0.7894 -0.8796
 4474TIP3    H234838   0.650   2.345   4.303 -0.3815  1.3509 -2.9000
 4475TIP3   OH234839   0.707   5.774   6.524 -0.0107  0.1574  0.8482
 4475TIP3    H134840   0.802   5.780   6.533 -0.0071  2.1839 -0.1563
 4475TIP3    H234841   0.681   5.713   6.594  2.0292 -0.7322  0.9174
 4476TIP3   OH234842   3.845   3.534   5.665  0.2484 -0.3357 -1.1234
 4476TIP3    H134843   3.765   3.483   5.669 -0.0539  0.2177  1.0678
 4476TIP3    H234844   3.861   3.546   5.571 -2.3519 -0.2508 -1.6360
 4477TIP3   OH234845   5.446   1.295  16.792 -0.1601 -0.4007  0.0644
 4477TIP3    H134846   5.494   1.231  16.739 -0.2680  0.1983 -0.7977
 4477TIP3    H234847   5.355   1.270  16.784  0.0260 -2.0978  2.4714
 4478TIP3   OH234848   3.575   3.575   6.004  0.0949 -0.0555  0.1014
 4478TIP3    H134849   3.615   3.656   6.036  1.1201 -0.2877 -0.5335
 4478TIP3    H234850   3.638   3.507   6.026  0.4958 -0.3155 -1.6822
 4479TIP3   OH234851   5.537   5.184   0.154  0.0402  0.0390 -0.3626
 4479TIP3    H134852   5.586   5.219   0.080 -1.5743 -0.5546 -1.8063
 4479TIP3    H234853   5.457   5.237   0.158 -1.4282 -1.9350 -1.2155
 4480TIP3   OH234854   2.325   3.330   1.140 -0.3274  0.1636 -0.4882
 4480TIP3    H134855   2.419   3.314   1.128 -0.6371 -1.4720 -1.0300
 4480TIP3    H234856   2.295   3.362   1.055 -0.3697  0.0724 -0.5081
 4481TIP3   OH234857   1.670   0.127  12.050  0.2423 -0.0908 -0.0834
 4481TIP3    H134858   1.583   0.119  12.088  0.6149  0.1145  0.8495
 4481TIP3    H234859   1.709   0.040  12.058 -1.3364 -1.5086 -4.4367
 4482TIP3   OH234860   2.190   3.634   0.027 -0.2488  0.4377  0.7893
 4482TIP3    H134861   2.224   3.549   0.055  1.2275  0.3303 -1.1654
 4482TIP3    H234862   2.264   3.676  -0.017 -1.8459  1.3843 -1.1520
 4483TIP3   OH234863   4.112   4.021  12.114  0.3866 -0.0188 -0.0181
 4483TIP3    H134864   4.179   4.082  12.081  0.5349 -0.0892  0.1516
 4483TIP3    H234865   4.137   4.006  12.205 -1.0241  1.5829  0.6856
 4484TIP3   OH234866   6.760   2.565   1.204 -0.7791 -0.5195  0.1920
 4484TIP3    H134867   6.746   2.491   1.144 -0.8319 -0.0935 -0.3261
 4484TIP3    H234868   6.826   2.619   1.161  0.4346 -1.0583  1.2986
 4485TIP3   OH234869   6.774   2.297  13.057 -0.5097 -0.0355  0.5925
 4485TIP3    H134870   6.794   2.252  13.139  0.3237 -1.4376 -0.3224
 4485TIP3    H234871   6.851   2.281  13.002 -1.6523 -0.4193 -0.9799
 4486TIP3   OH234872   3.382   4.378  15.835  0.4038  0.5700  0.4258
 4486TIP3    H134873   3.467   4.415  15.858 -0.2667  0.7079  3.0240
 4486TIP3    H234874   3.321   4.419  15.897 -0.9815 -2.0718  0.9302
 4487TIP3   OH234875   4.362   2.161  12.509  0.2305  0.8683 -0.3071
 4487TIP3    H134876   4.271   2.168  12.539 -0.2830 -0.1555 -1.5351
 4487TIP3    H234877   4.394   2.081  12.549  0.5295  1.1105 -0.0571
 4488TIP3   OH234878   3.808   1.155   4.829  0.5211  0.4606 -0.1734
 4488TIP3    H134879   3.715   1.173   4.821  0.3746 -0.4659 -0.7202
 4488TIP3    H234880   3.843   1.169   4.741  0.4817 -1.3048 -0.5219
 4489TIP3   OH234881   3.364   5.742   3.154  0.7554  0.2741  0.1596
 4489TIP3    H134882   3.321   5.809   3.100 -0.6103  0.4154  1.3559
 4489TIP3    H234883   3.437   5.712   3.101 -1.4084 -0.7512 -2.4937
 4490TIP3   OH234884   5.596   3.231  15.620 -0.0478  0.1735 -0.1063
 4490TIP3    H134885   5.536   3.187  15.560 -1.4553  0.8748  0.7465
 4490TIP3    H234886   5.547   3.305  15.654  0.0353 -1.0812  3.1543
 4491TIP3   OH234887   2.484   3.123  14.415  0.2426  0.2760  0.0001
 4491TIP3    H134888   2.524   3.115  14.502  1.0144  0.3814 -0.3327
 4491TIP3    H234889   2.556   3.151  14.358 -0.7080  2.2811 -0.2928
 4492TIP3   OH234890   3.744   4.032   2.884  0.6692 -0.8144  0.2778
 4492TIP3    H134891   3.692   4.094   2.935 -0.8721 -2.1077  0.3677
 4492TIP3    H234892   3.784   4.084   2.815 -0.9074  0.2331  0.1071
 4493TIP3   OH234893   2.137   1.738   3.721  0.2051 -0.8673  0.3196
 4493TIP3    H134894   2.056   1.687   3.724 -0.5874  0.3132  0.0727
 4493TIP3    H234895   2.159   1.742   3.628 -1.9489  2.4185 -0.2413
 4494TIP3   OH234896   2.456   3.611   5.836  0.4963  0.0718 -0.1599
 4494TIP3    H134897   2.429   3.649   5.919  0.1437 -0.4220 -0.0437
 4494TIP3    H234898   2.394   3.647   5.772  0.0660 -0.4322 -0.0248
 4495TIP3   OH234899   4.065   4.278  16.454  0.4431  0.1059  0.1243
 4495TIP3    H134900   3.991   4.267  16.396 -1.2109  1.2173  1.8918
 4495TIP3    H234901   4.099   4.190  16.469 -1.8078 -0.6930  0.8255
 4496TIP3   OH234902   6.424   5.654  13.446 -0.0420 -0.8609 -0.2674
 4496TIP3    H134903   6.368   5.658  13.523  0.8909 -1.3668  0.4486
 4496TIP3    H234904   6.411   5.565  13.412  0.1616 -0.9021 -0.2348
 4497TIP3   OH234905   4.250   6.345   3.515 -0.1600 -0.2795 -0.2028
 4497TIP3    H134906   4.245   6.426   3.464 -0.3065  0.2134  0.5802
 4497TIP3    H234907   4.323   6.297   3.477  1.5186  1.3106  0.8457
 4498TIP3   OH234908   3.807   5.802   3.985 -0.2491 -0.7402 -0.0831
 4498TIP3    H134909   3.869   5.758   4.044  0.1167 -0.4831 -0.2736
 4498TIP3    H234910   3.816   5.895   4.007 -2.0887 -0.8376  1.3644
 4499TIP3   OH234911   0.146   3.544   4.363 -0.4443 -0.4251 -0.5956
 4499TIP3    H134912   0.111   3.500   4.441  0.9155 -0.6541 -0.0890
 4499TIP3    H234913   0.214   3.486   4.331  0.8637  0.8973 -0.3616
 4500TIP3   OH234914   4.282   6.687   6.371  0.1118  0.5282 -0.3861
 4500TIP3    H134915   4.272   6.742   6.294 -3.3308  0.1661 -0.3397
 4500TIP3    H234916   4.315   6.604   6.337  0.8402  1.0781 -1.0803
 4501TIP3   OH234917   4.865   5.922   4.079  0.4840 -0.1362  0.0822
 4501TIP3    H134918   4.822   5.844   4.044 -0.5004  0.3510  0.1762
 4501TIP3    H234919   4.831   5.930   4.168  1.6321 -0.3645  0.5688
 4502TIP3   OH234920   0.294   0.949   3.068 -0.5968  0.0039 -0.2611
 4502TIP3    H134921   0.201   0.930   3.064 -0.5811  0.1817 -1.9336
 4502TIP3    H234922   0.298   1.036   3.109 -1.1404 -0.1058  0.0387
 4503TIP3   OH234923   4.044   5.660  12.588  0.8715 -0.4125 -0.0660
 4503TIP3    H134924   4.124   5.617  12.618  1.1420 -0.6163 -1.0693
 4503TIP3    H234925   4.046   5.653  12.493  0.2861  0.7054 -0.1777
 4504TIP3   OH234926   6.634   5.698  17.113  0.1859  0.5803  0.7485
 4504TIP3    H134927   6.560   5.730  17.163 -0.2378  0.0872  0.4487
 4504TIP3    H234928   6.596   5.663  17.032  0.8390  1.1886  0.1607
 4505TIP3   OH234929   1.153   3.724   5.446  1.0160  0.3795 -0.2615
 4505TIP3    H134930   1.160   3.714   5.541 -1.4279 -0.5592 -0.1099
 4505TIP3    H234931   1.073   3.774   5.432  0.9765 -0.0431 -1.8342
 4506TIP3   OH234932   0.612   4.711   2.274  0.1561 -0.1119  0.3496
 4506TIP3    H134933   0.691   4.678   2.230  2.0875  0.5938  3.0356
 4506TIP3    H234934   0.566   4.633   2.303  1.1709 -0.5415  0.8523
 4507TIP3   OH234935   3.069   3.693  10.909  0.4294 -0.0061  0.3089
 4507TIP3    H134936   3.024   3.672  10.828  0.6067  0.1224  0.1772
 4507TIP3    H234937   3.112   3.611  10.935 -0.2317 -0.2450  0.6640
 4508TIP3   OH234938   0.137   1.248   5.777  0.6679 -0.2725  0.0715
 4508TIP3    H134939   0.092   1.328   5.805 -1.4296 -1.9470  1.8962
 4508TIP3    H234940   0.223   1.278   5.747 -0.1528  2.6689  0.3420
 4509TIP3   OH234941   3.545   6.414  16.400 -0.2587 -0.7354  0.4828
 4509TIP3    H134942   3.608   6.437  16.332 -1.2305 -0.4794 -0.3489
 4509TIP3    H234943   3.587   6.342  16.448  0.8720 -0.2458  0.2718
 4510TIP3   OH234944   2.705   5.351   3.409  0.0392 -0.3591 -0.1580
 4510TIP3    H134945   2.737   5.307   3.487 -1.3783 -2.2425 -0.5644
 4510TIP3    H234946   2.661   5.283   3.359 -0.5466  1.1393 -1.8123
 4511TIP3   OH234947   1.348   4.100   5.919 -0.0321  0.4381  0.2088
 4511TIP3    H134948   1.440   4.078   5.906 -0.6597 -2.0438 -0.8229
 4511TIP3    H234949   1.335   4.181   5.870  1.5514  0.7101  0.1978
 4512TIP3   OH234950   1.594   0.398   2.841  0.5994  0.2197 -0.0419
 4512TIP3    H134951   1.595   0.484   2.800  0.9237 -0.0939 -0.7232
 4512TIP3    H234952   1.512   0.359   2.812  1.6115 -0.6784 -1.9113
 4513TIP3   OH234953   0.340   3.783  15.253 -0.0875 -0.3209  0.3387
 4513TIP3    H134954   0.385   3.811  15.174 -0.9694  0.8509  0.2244
 4513TIP3    H234955   0.259   3.835  15.254 -0.3827 -0.7716  1.6763
 4514TIP3   OH234956   5.750   5.132   3.404 -0.1103 -0.5590 -0.6203
 4514TIP3    H134957   5.680   5.194   3.385 -0.4845 -0.6528  0.3708
 4514TIP3    H234958   5.829   5.186   3.410 -0.5533 -0.0280  1.0096
 4515TIP3   OH234959   1.937   2.083  13.913 -0.2422 -0.3052 -0.0339
 4515TIP3    H134960   1.994   2.142  13.962  1.2433 -0.9419 -0.9217
 4515TIP3    H234961   1.905   2.136  13.840 -1.0583  0.1358  0.6210
 4516TIP3   OH234962   3.647   4.896  14.646  0.3205 -0.1820 -0.5292
 4516TIP3    H134963   3.606   4.973  14.606 -0.2804  0.7664  1.7418
 4516TIP3    H234964   3.722   4.931  14.695 -0.5810 -0.8298  1.4105
 4517TIP3   OH234965   6.710   6.531  16.954 -0.2371  0.0857  0.5365
 4517TIP3    H134966   6.701   6.463  17.020 -0.4407 -1.0700 -0.6427
 4517TIP3    H234967   6.668   6.494  16.876  0.8195  1.0318 -0.5136
 4518TIP3   OH234968   2.020   1.757  14.602 -0.1075 -0.1741  0.1472
 4518TIP3    H134969   2.042   1.675  14.646  0.7485  0.6327  1.2909
 4518TIP3    H234970   2.075   1.759  14.524  0.6450 -0.2186  0.6648
 4519TIP3   OH234971   3.527   3.153  13.377  0.4091 -0.3205  0.2769
 4519TIP3    H134972   3.568   3.185  13.458 -1.4802  0.8735  0.8231
 4519TIP3    H234973   3.433   3.163  13.392 -0.0367 -1.2473 -1.6140
 4520TIP3   OH234974   5.547   2.346  12.862 -0.0180 -0.2129  0.0486
 4520TIP3    H134975   5.482   2.398  12.909 -0.7959 -1.6833  0.6783
 4520TIP3    H234976   5.505   2.261  12.850  0.8974 -0.4658 -1.6647
 4521TIP3   OH234977   4.156   2.419  13.475 -0.3363  0.1979 -0.1000
 4521TIP3    H134978   4.196   2.344  13.432 -1.2566 -0.2344 -0.2205
 4521TIP3    H234979   4.185   2.494  13.423 -0.9705 -0.2625 -1.1496
 4522TIP3   OH234980   4.608   5.882  14.520  0.3679 -0.0785  0.3242
 4522TIP3    H134981   4.573   5.794  14.530  2.1811 -0.9087 -0.2225
 4522TIP3    H234982   4.537   5.940  14.547 -0.6565 -1.7139  1.2579
 4523TIP3   OH234983   3.578   4.243   3.444  0.2633 -0.4654  0.2345
 4523TIP3    H134984   3.656   4.208   3.489  0.9919  1.0798  0.2655
 4523TIP3    H234985   3.613   4.309   3.384 -1.1227  1.6184  1.5827
 4524TIP3   OH234986   5.736   5.894  11.326 -0.0809  0.6115  0.0508
 4524TIP3    H134987   5.756   5.830  11.257  0.0012  0.6061  0.0802
 4524TIP3    H234988   5.663   5.945  11.291  1.2963  1.9944 -0.9412
 4525TIP3   OH234989   5.571   4.728  10.197 -0.2263  0.4593  0.2134
 4525TIP3    H134990   5.486   4.705  10.235  0.2541  0.6638  1.4665
 4525TIP3    H234991   5.573   4.824  10.200 -0.8997  0.5867 -2.0083
 4526TIP3   OH234992   5.113   3.882   3.714  0.0038  0.1077 -0.4668
 4526TIP3    H134993   5.199   3.847   3.738 -0.1771  0.2876  0.4956
 4526TIP3    H234994   5.107   3.964   3.763 -1.2343 -0.5358  0.5033
 4527TIP3   OH234995   3.266   5.932   3.836  0.3036  0.5650  0.1782
 4527TIP3    H134996   3.254   5.837   3.836  0.6093  0.5259 -0.0473
 4527TIP3    H234997   3.285   5.953   3.927 -0.8513  0.5516  0.4311
 4528TIP3   OH234998   6.112   0.800   0.505 -0.1392 -0.0758  0.4381
 4528TIP3    H134999   6.155   0.719   0.533 -2.0815 -0.9127  1.1703
 4528TIP3    H235000   6.019   0.784   0.520 -0.5865  2.2697  0.4908
 4529TIP3   OH235001   2.994   0.245   5.588  0.7638 -0.1574 -0.8035
 4529TIP3    H135002   3.071   0.290   5.622  0.2404  0.7925 -0.8224
 4529TIP3    H235003   2.924   0.266   5.651  0.3538 -0.3995 -1.1716
 4530TIP3   OH235004   3.257   5.475   5.156 -0.1424 -0.0087 -0.8008
 4530TIP3    H135005   3.279   5.411   5.088  0.5604 -0.0184 -0.5676
 4530TIP3    H235006   3.330   5.472   5.217 -0.7340  0.0637 -0.0774
 4531TIP3   OH235007   1.411   2.406   2.869 -0.3284 -0.1311 -0.0490
 4531TIP3    H135008   1.428   2.500   2.875 -1.8958  0.1236  0.9664
 4531TIP3    H235009   1.480   2.365   2.920  1.5416  0.2822 -2.1051
 4532TIP3   OH235010   5.414   6.590   3.518 -0.4933  0.9722 -0.6231
 4532TIP3    H135011   5.368   6.510   3.491 -1.8732  1.8097 -0.8515
 4532TIP3    H235012   5.389   6.603   3.609  2.3125 -0.5688  0.5072
 4533TIP3   OH235013   3.973   0.149  11.208 -0.2321  0.1272  0.1163
 4533TIP3    H135014   4.007   0.239  11.216  0.4160 -0.2426  2.3366
 4533TIP3    H235015   3.929   0.147  11.124  2.5542  1.5994 -1.5470
 4534TIP3   OH235016   2.143   5.771   5.295 -0.1107 -0.1567 -0.3730
 4534TIP3    H135017   2.201   5.699   5.321 -0.9170  0.2191  2.8346
 4534TIP3    H235018   2.183   5.849   5.334 -1.1058  0.5951 -0.8287
 4535TIP3   OH235019   5.165   4.911   4.526 -0.2240  0.0220  0.0118
 4535TIP3    H135020   5.254   4.878   4.537  0.5599  0.7701 -3.1357
 4535TIP3    H235021   5.123   4.896   4.611  1.5331 -4.2598  0.3640
 4536TIP3   OH235022   0.412   0.190   0.291 -0.2640 -0.2707 -0.3481
 4536TIP3    H135023   0.319   0.205   0.307 -0.6073 -0.7912 -1.7633
 4536TIP3    H235024   0.443   0.147   0.371 -0.8320  1.4191  0.8282
 4537TIP3   OH235025   4.183   0.264  15.571  0.0544  0.2213  0.5310
 4537TIP3    H135026   4.225   0.249  15.487 -2.1166  1.1910 -0.8191
 4537TIP3    H235027   4.193   0.181  15.618  1.0375 -0.4442 -0.7986
 4538TIP3   OH235028   1.166   6.162  11.440 -0.5485  0.1614 -0.5841
 4538TIP3    H135029   1.098   6.212  11.394 -3.2831 -1.7732  1.0530
 4538TIP3    H235030   1.181   6.085  11.385  0.9139  0.9022 -1.2743
 4539TIP3   OH235031   2.775   0.816  16.386  0.6554  0.0936 -0.0179
 4539TIP3    H135032   2.770   0.813  16.482  2.2216  0.2074  0.0987
 4539TIP3    H235033   2.863   0.783  16.366 -0.4158 -2.0754 -1.5619
 4540TIP3   OH235034   3.616   0.717  16.276 -0.0537 -0.0841 -0.2245
 4540TIP3    H135035   3.684   0.696  16.211  0.9277  2.0479  0.0265
 4540TIP3    H235036   3.540   0.667  16.248  1.1242 -1.2639 -1.4814
 4541TIP3   OH235037   2.234   0.583  14.060  0.0231 -0.0824  0.4666
 4541TIP3    H135038   2.301   0.516  14.071 -0.0039  0.0006  1.1980
 4541TIP3    H235039   2.212   0.581  13.967 -0.0083 -1.1179  0.4938
 4542TIP3   OH235040   5.926   4.151  16.848  0.6120 -0.0370  0.0247
 4542TIP3    H135041   5.949   4.066  16.885 -0.2357 -0.1675  0.2865
 4542TIP3    H235042   5.845   4.176  16.894  0.7143  0.7895 -0.2261
 4543TIP3   OH235043   5.835   2.150  13.190  0.1165  0.3331 -0.2567
 4543TIP3    H135044   5.812   2.159  13.282  0.2611 -2.4356  0.1331
 4543TIP3    H235045   5.754   2.120  13.148  1.0868 -3.0448 -0.0528
 4544TIP3   OH235046   0.686   5.082  15.667  0.0350  0.2374 -0.2885
 4544TIP3    H135047   0.707   5.096  15.575  0.5203  2.0750  0.0601
 4544TIP3    H235048   0.702   4.989  15.682 -0.3725 -0.1510 -2.1282
 4545TIP3   OH235049   0.370   2.857  17.068  0.5657  0.1792 -0.5263
 4545TIP3    H135050   0.280   2.886  17.079  0.6531  1.3110 -2.2667
 4545TIP3    H235051   0.402   2.843  17.157 -1.1462  0.3029  0.1497
 4546TIP3   OH235052   0.054   6.638   3.363  0.1323  0.1340  0.6936
 4546TIP3    H135053  -0.019   6.595   3.408 -0.2202  0.4189  0.3986
 4546TIP3    H235054   0.088   6.572   3.303  1.0599 -0.4859  1.8755
 4547TIP3   OH235055   4.172   5.659  14.655 -0.4587  0.2306  0.2525
 4547TIP3    H135056   4.122   5.740  14.670  0.3688  1.4793 -2.8936
 4547TIP3    H235057   4.254   5.688  14.615  0.4768 -2.1200  0.2784
 4548TIP3   OH235058   1.845   5.589  14.164  0.1598 -0.3976  0.0452
 4548TIP3    H135059   1.853   5.561  14.255 -0.3292 -1.0976 -0.1159
 4548TIP3    H235060   1.761   5.635  14.160  0.2697 -0.2024 -0.0088
 4549TIP3   OH235061   2.522   1.989  11.443 -0.0867 -0.5920  0.4647
 4549TIP3    H135062   2.537   2.002  11.537  1.9514  0.3444  0.0819
 4549TIP3    H235063   2.451   2.049  11.422 -0.0826 -0.2735  1.2913
 4550TIP3   OH235064   1.351   3.860   2.696  0.6606  0.4067  0.6259
 4550TIP3    H135065   1.281   3.799   2.675  0.4485  0.9709 -0.3408
 4550TIP3    H235066   1.312   3.947   2.686  1.8764  0.7851 -1.5329
 4551TIP3   OH235067   5.429   4.954  11.763 -0.4256 -0.3610 -0.4061
 4551TIP3    H135068   5.451   5.042  11.734 -2.1335  0.7823  1.6226
 4551TIP3    H235069   5.356   4.927  11.707  0.7296 -0.9582 -1.6991
 4552TIP3   OH235070   6.557   2.029   6.474  0.1944  0.6531  0.1972
 4552TIP3    H135071   6.566   1.972   6.550  0.4555 -0.6992 -0.8160
 4552TIP3    H235072   6.620   2.099   6.489  0.1478  0.4859  1.2752
 4553TIP3   OH235073   5.092   4.056   2.641 -0.6436  0.3561 -0.1586
 4553TIP3    H135074   5.108   3.966   2.669  0.8239  1.5248  3.2640
 4553TIP3    H235075   5.157   4.073   2.573 -0.4031 -0.8783 -0.2489
 4554TIP3   OH235076   5.653   4.427  11.134  0.1733 -0.1750  0.2352
 4554TIP3    H135077   5.676   4.486  11.062 -0.8018  1.3177  1.0858
 4554TIP3    H235078   5.714   4.450  11.204 -1.4987  1.3283  1.2758
 4555TIP3   OH235079   4.075   0.800  11.583  0.4146  0.1818 -0.4041
 4555TIP3    H135080   4.101   0.819  11.493  2.0422 -1.1552 -0.2656
 4555TIP3    H235081   4.158   0.786  11.630 -0.2861  2.4445  1.7283
 4556TIP3   OH235082   0.923   5.435   1.470  0.3806  0.1009 -0.0858
 4556TIP3    H135083   0.918   5.463   1.562 -0.8868  1.8294 -0.6234
 4556TIP3    H235084   0.839   5.392   1.454  0.1990  0.6694 -0.6854
 4557TIP3   OH235085   4.654   6.712  11.938  0.1803  0.9921  0.2305
 4557TIP3    H135086   4.610   6.644  11.989 -0.5587  1.2687 -0.0096
 4557TIP3    H235087   4.623   6.698  11.848 -0.2283  1.8201  0.2318
 4558TIP3   OH235088   1.378   1.396  15.985  0.2810  0.6351  0.2368
 4558TIP3    H135089   1.366   1.367  16.076 -0.6639  1.5773  0.4399
 4558TIP3    H235090   1.464   1.438  15.985  0.6112 -0.0288  0.5122
 4559TIP3   OH235091   2.380   3.162  12.347  0.2676  0.1263  0.4512
 4559TIP3    H135092   2.377   3.069  12.325 -0.1813  0.6217 -1.8034
 4559TIP3    H235093   2.290   3.185  12.368  0.1269  0.3277 -0.3406
 4560TIP3   OH235094   2.497   2.936  15.999 -0.0805  0.0351 -0.4174
 4560TIP3    H135095   2.534   3.023  16.016  1.7696 -0.9021  0.6419
 4560TIP3    H235096   2.536   2.909  15.916  0.7514 -0.5010  0.1428
 4561TIP3   OH235097   1.667   4.913  13.916  0.0156 -0.5513 -0.6370
 4561TIP3    H135098   1.609   4.944  13.986 -1.0723  1.3612 -2.2991
 4561TIP3    H235099   1.609   4.885  13.846  0.9770  1.8012 -2.5170
 4562TIP3   OH235100   1.634   6.219  13.708  0.0303  0.3388  0.0882
 4562TIP3    H135101   1.694   6.278  13.662  0.9341 -0.4417  0.2306
 4562TIP3    H235102   1.564   6.203  13.646  0.9116 -0.1882 -0.8028
 4563TIP3   OH235103   1.045   6.116   1.890 -0.0552 -0.3097  0.1521
 4563TIP3    H135104   0.992   6.174   1.944  0.0100 -1.1693  1.1927
 4563TIP3    H235105   1.103   6.174   1.841 -0.9643  0.5618  0.0816
 4564TIP3   OH235106   4.302   5.308  12.481 -0.4467  0.2777  0.2411
 4564TIP3    H135107   4.284   5.400  12.499 -2.8010 -0.6445  3.3656
 4564TIP3    H235108   4.322   5.306  12.387 -0.3630  3.9112  0.0433
 4565TIP3   OH235109   0.852   5.836  13.663 -0.0358  0.1220 -0.1260
 4565TIP3    H135110   0.901   5.762  13.625 -0.7148 -0.5248  0.2279
 4565TIP3    H235111   0.877   5.837  13.755  0.0394  0.3904 -0.1486
 4566TIP3   OH235112   0.469   6.228  12.230 -0.0544 -0.4213 -0.3402
 4566TIP3    H135113   0.565   6.218  12.230  0.0500  0.3629 -1.7072
 4566TIP3    H235114   0.445   6.228  12.137 -1.5527 -1.9547 -0.0049
 4567TIP3   OH235115   0.568   6.106  15.493  0.2164 -0.1933 -0.1886
 4567TIP3    H135116   0.571   6.012  15.476  0.8766 -0.1699 -0.2384
 4567TIP3    H235117   0.658   6.136  15.478  0.4347  0.1377  1.5313
 4568TIP3   OH235118   1.320   2.749   5.620 -0.7207 -0.5291 -0.2086
 4568TIP3    H135119   1.248   2.697   5.655 -0.2218 -0.8008  0.4294
 4568TIP3    H235120   1.358   2.694   5.551 -1.1560 -0.3593 -0.5876
 4569TIP3   OH235121   2.213   6.212  12.267  0.0458 -0.5800 -0.6349
 4569TIP3    H135122   2.300   6.242  12.239 -0.8993  0.9300 -2.1593
 4569TIP3    H235123   2.230   6.134  12.320  2.5241  1.2727  1.5594
 4570TIP3   OH235124   1.600   4.524  13.679 -0.3043 -0.2740 -0.0226
 4570TIP3    H135125   1.564   4.610  13.659 -0.2072  0.1393  1.4136
 4570TIP3    H235126   1.544   4.462  13.633 -0.8164  0.5265 -0.4890
 4571TIP3   OH235127   2.122   1.078   0.860  0.3045 -0.2426  0.2754
 4571TIP3    H135128   2.129   1.033   0.775 -1.2868 -0.4561  0.2369
 4571TIP3    H235129   2.137   1.170   0.839 -0.3832 -0.2522 -0.3083
 4572TIP3   OH235130   6.209   1.341   1.428 -0.7326  0.1466  0.1996
 4572TIP3    H135131   6.115   1.334   1.447 -1.2331  1.9640 -1.2505
 4572TIP3    H235132   6.234   1.255   1.395 -1.9669 -0.2725  0.3029
 4573TIP3   OH235133   5.752   6.686  16.262  0.2113 -0.0700 -0.5281
 4573TIP3    H135134   5.734   6.738  16.184  0.7164 -1.2234 -1.4493
 4573TIP3    H235135   5.700   6.606  16.250 -0.6375  0.2318  0.9079
 4574TIP3   OH235136   4.090   0.995  14.638 -0.4958  0.5673 -0.3135
 4574TIP3    H135137   4.183   0.975  14.629 -0.2098  1.9999 -0.7652
 4574TIP3    H235138   4.056   0.990  14.549 -0.9609 -0.3799 -0.0945
 4575TIP3   OH235139   5.414   3.809  13.241  0.3462  0.1279 -0.0233
 4575TIP3    H135140   5.400   3.903  13.255  0.2823  0.1916 -0.5009
 4575TIP3    H235141   5.429   3.774  13.328 -1.7331  0.2195  0.4164
 4576TIP3   OH235142   3.736   1.823   4.363 -0.3679 -0.0423 -0.4363
 4576TIP3    H135143   3.802   1.855   4.301  0.0201  1.1846  0.5837
 4576TIP3    H235144   3.653   1.834   4.317  0.0427 -0.8104 -1.4103
 4577TIP3   OH235145   1.661   5.407  14.413 -0.4217 -0.1601  0.1038
 4577TIP3    H135146   1.623   5.412  14.500  0.7632  4.2586  0.6387
 4577TIP3    H235147   1.598   5.452  14.357  1.1727  1.8966 -0.1469
 4578TIP3   OH235148   4.327   5.804   2.965 -0.8544 -0.6547 -0.5135
 4578TIP3    H135149   4.327   5.777   2.873  2.5430 -0.0343 -0.8187
 4578TIP3    H235150   4.403   5.860   2.974 -1.2940 -0.3713  2.6364
 4579TIP3   OH235151   4.753   4.573  14.801 -0.0488  0.8008  0.0338
 4579TIP3    H135152   4.753   4.590  14.896  1.6050 -0.0884  0.2353
 4579TIP3    H235153   4.799   4.648  14.764  0.3210  0.5867  0.0599
 4580TIP3   OH235154   4.602   5.984  11.597  0.2865 -0.0157 -0.1007
 4580TIP3    H135155   4.674   6.020  11.648  0.2607  0.1048 -0.1492
 4580TIP3    H235156   4.638   5.903  11.559  0.4196  0.0838 -0.1867
 4581TIP3   OH235157   4.340   5.632   5.975  0.2064  0.1549  0.0656
 4581TIP3    H135158   4.289   5.557   6.003 -0.7471  1.0094  0.6967
 4581TIP3    H235159   4.397   5.598   5.905 -2.2928 -0.5495 -1.7707
 4582TIP3   OH235160   3.676   5.047  15.198 -0.1091  0.2238  0.3388
 4582TIP3    H135161   3.718   4.978  15.147 -1.3446  0.4566 -1.0298
 4582TIP3    H235162   3.708   5.033  15.288 -0.9859 -2.6453  0.2741
 4583TIP3   OH235163   5.877   5.394   5.668  0.3373 -0.7769 -0.7602
 4583TIP3    H135164   5.879   5.323   5.732  2.2927  0.5042  0.7114
 4583TIP3    H235165   5.900   5.353   5.585  0.8596 -1.9522 -0.0447
 4584TIP3   OH235166   2.509   0.854  15.907  0.3308  0.1610 -0.0813
 4584TIP3    H135167   2.597   0.844  15.872  1.1043  2.3354  1.0428
 4584TIP3    H235168   2.519   0.919  15.976 -2.2602  0.8427 -0.2719
 4585TIP3   OH235169   2.737   5.851  16.137  0.0748 -0.3460 -0.4059
 4585TIP3    H135170   2.763   5.777  16.082 -0.2899 -0.5379 -0.3246
 4585TIP3    H235171   2.750   5.928  16.082  0.2108 -0.4894 -0.5777
 4586TIP3   OH235172   0.248   6.454   3.150  0.5771 -0.2014 -0.4480
 4586TIP3    H135173   0.325   6.427   3.101  0.2281  0.1166 -1.1813
 4586TIP3    H235174   0.224   6.539   3.112  0.1574 -0.0653  0.1065
 4587TIP3   OH235175   2.992   5.449   2.333  0.2843  0.5965  0.1229
 4587TIP3    H135176   2.976   5.386   2.403  1.5734  0.9437  0.7720
 4587TIP3    H235177   2.937   5.523   2.354  0.5927  0.6587  0.7300
 4588TIP3   OH235178   2.256   0.196  11.409 -0.2668 -0.1555 -0.1809
 4588TIP3    H135179   2.230   0.214  11.500  1.3614 -0.4207  0.3730
 4588TIP3    H235180   2.346   0.230  11.403  0.6436 -2.5087 -0.8841
 4589TIP3   OH235181   4.349   5.059  13.052  0.5501 -0.4239  0.3171
 4589TIP3    H135182   4.367   5.005  13.129  2.0562 -1.0999 -0.4810
 4589TIP3    H235183   4.280   5.011  13.005 -0.2565 -0.0916  1.1454
 4590TIP3   OH235184   0.546   5.561  10.940  0.1010 -0.2648  0.2864
 4590TIP3    H135185   0.574   5.649  10.967 -0.4500 -0.3921  1.3158
 4590TIP3    H235186   0.600   5.541  10.864 -0.7112  1.5252 -0.8322
 4591TIP3   OH235187   4.825   0.960   0.794 -0.1923  0.3764 -0.1153
 4591TIP3    H135188   4.910   0.917   0.794  0.0456  0.8037  0.7394
 4591TIP3    H235189   4.813   0.993   0.705  0.6930  0.5985 -0.1582
 4592TIP3   OH235190   4.794   0.379  11.935 -0.1753 -0.2871  0.0936
 4592TIP3    H135191   4.771   0.383  12.028 -1.5102 -1.8150 -0.1153
 4592TIP3    H235192   4.786   0.286  11.914  1.7140 -0.2060 -1.1837
 4593TIP3   OH235193   2.831   4.199  17.177  0.4106 -0.0459  0.4199
 4593TIP3    H135194   2.766   4.177  17.243  0.8204 -0.2278  0.7672
 4593TIP3    H235195   2.839   4.119  17.124 -2.2790  1.0717 -1.9046
 4594TIP3   OH235196   0.147   4.877   1.439 -0.1653  0.2519  0.3102
 4594TIP3    H135197   0.136   4.824   1.360 -0.5877 -0.6211  0.9353
 4594TIP3    H235198   0.085   4.949   1.428 -0.6782 -0.2044  0.1152
 4595TIP3   OH235199   3.998   0.843   1.282 -0.0108 -0.5631  0.4498
 4595TIP3    H135200   3.979   0.828   1.189 -1.0152 -1.1740  0.7418
 4595TIP3    H235201   4.094   0.841   1.287  0.0239 -1.7684 -0.3706
 4596TIP3   OH235202   3.426   4.325  14.831  0.4797  0.0249  0.7386
 4596TIP3    H135203   3.331   4.335  14.835  0.3444 -1.0655  0.7152
 4596TIP3    H235204   3.450   4.355  14.743 -0.0878 -1.2432  0.1108
 4597TIP3   OH235205   4.704   4.030  14.486  0.4690  0.4019 -0.4016
 4597TIP3    H135206   4.738   3.970  14.553  2.0610  0.2194 -1.3200
 4597TIP3    H235207   4.782   4.077  14.455 -0.1445  0.1707 -2.4101
 4598TIP3   OH235208   2.431   6.730  15.076  0.3240 -0.1108  0.1297
 4598TIP3    H135209   2.416   6.635  15.078  2.7089 -0.7052 -2.7120
 4598TIP3    H235210   2.367   6.763  15.013  0.1360  0.0035  0.3819
 4599TIP3   OH235211   2.549   1.160   5.044 -0.6838 -0.2656 -1.2591
 4599TIP3    H135212   2.635   1.202   5.055 -0.5469 -0.7014 -0.5971
 4599TIP3    H235213   2.549   1.089   5.108 -1.7735  0.0932 -0.8404
 4600TIP3   OH235214   2.165   6.085   5.059  0.1720  0.0662 -0.0208
 4600TIP3    H135215   2.138   6.137   5.134  0.7829  0.7548 -0.2689
 4600TIP3    H235216   2.101   6.013   5.055 -0.2882  0.4256  0.7131
 4601TIP3   OH235217   1.728   3.798   5.729  0.2052 -0.1929  0.0547
 4601TIP3    H135218   1.696   3.736   5.794  0.2833  1.1155  1.4140
 4601TIP3    H235219   1.824   3.789   5.732  0.4116  1.6101  2.0872
 4602TIP3   OH235220   1.789   6.678   0.309 -0.5762 -0.3215 -0.0187
 4602TIP3    H135221   1.717   6.637   0.356 -1.3077 -0.0500 -0.8719
 4602TIP3    H235222   1.854   6.609   0.300 -0.1136 -0.2073  1.9465
 4603TIP3   OH235223   0.110   5.221  16.968  0.1993 -0.0035  0.1635
 4603TIP3    H135224   0.102   5.292  17.031  2.0288  0.7776 -0.4411
 4603TIP3    H235225   0.060   5.251  16.892 -0.9242 -0.3827  0.7329
 4604TIP3   OH235226   2.205   1.124  14.841  0.3435 -0.6357  0.1404
 4604TIP3    H135227   2.236   1.124  14.750  1.6415 -0.0995  0.5545
 4604TIP3    H235228   2.118   1.164  14.836  0.9259  0.6057 -0.7209
 4605TIP3   OH235229   0.748   6.219   3.536  0.2171  0.5825  0.0765
 4605TIP3    H135230   0.812   6.155   3.567 -1.3940 -1.0572  0.1241
 4605TIP3    H235231   0.678   6.217   3.601 -0.3767  1.6159 -0.4959
 4606TIP3   OH235232   6.413   2.673   1.281  0.0925 -0.5541 -0.0928
 4606TIP3    H135233   6.359   2.693   1.357  0.7314  1.7440 -0.1753
 4606TIP3    H235234   6.356   2.689   1.206 -0.8004 -3.6119 -0.1942
 4607TIP3   OH235235   3.472   5.124  16.165  0.4144 -0.4384 -0.7203
 4607TIP3    H135236   3.509   5.148  16.250  0.5240 -0.8569 -0.6461
 4607TIP3    H235237   3.378   5.143  16.174  0.4261 -0.4800 -0.5052
 4608TIP3   OH235238   5.167   1.830   2.718 -0.5559 -0.0479 -0.1032
 4608TIP3    H135239   5.151   1.918   2.752 -0.0797 -0.1525  0.3967
 4608TIP3    H235240   5.129   1.831   2.630  1.4965  1.3998 -1.0504
 4609TIP3   OH235241   6.340   5.780   0.051 -0.0603 -0.0267 -0.0899
 4609TIP3    H135242   6.381   5.815   0.131 -0.1240 -0.3237  0.0730
 4609TIP3    H235243   6.313   5.858   0.002 -0.6235  0.1559  0.4930
 4610TIP3   OH235244   2.718   5.082  13.711 -0.1186 -0.2908  0.4926
 4610TIP3    H135245   2.681   5.085  13.800 -1.2381 -0.7444  0.0637
 4610TIP3    H235246   2.666   5.016  13.666  1.5040 -1.2683 -0.0450
 4611TIP3   OH235247   0.023   3.427  17.164 -0.0230 -0.4762  0.4733
 4611TIP3    H135248   0.021   3.480  17.084  0.3003  1.6653  1.8202
 4611TIP3    H235249   0.101   3.456  17.211 -0.5007 -1.2916  1.8490
 4612TIP3   OH235250   2.639   2.852  12.539 -0.3796 -0.0354  0.6160
 4612TIP3    H135251   2.714   2.828  12.593  1.9050 -2.1107 -3.0522
 4612TIP3    H235252   2.623   2.944  12.560  1.6709 -0.1316  3.1614
 4613TIP3   OH235253   0.894   3.018   3.371  0.5873  1.0206 -0.0308
 4613TIP3    H135254   0.820   2.961   3.351  0.5967  0.3647  1.6136
 4613TIP3    H235255   0.939   2.974   3.444  1.5523  2.3092  0.1912
 4614TIP3   OH235256   0.051   4.126  14.995  0.3022  0.4137 -0.0712
 4614TIP3    H135257   0.060   4.158  15.085  0.2946 -0.0038  0.0840
 4614TIP3    H235258   0.002   4.044  15.004 -0.6492  0.9242 -0.5680
 4615TIP3   OH235259   4.147   0.275   5.585 -0.0218 -0.2107 -0.2619
 4615TIP3    H135260   4.093   0.305   5.512 -0.5906  0.5770  0.4661
 4615TIP3    H235261   4.147   0.347   5.647  0.9855 -0.6211  0.2460
 4616TIP3   OH235262   1.616   3.209   4.775 -0.1563 -0.1267  0.0337
 4616TIP3    H135263   1.678   3.209   4.848  0.4981  1.0107 -0.4897
 4616TIP3    H235264   1.600   3.302   4.758  0.3066 -0.3390 -1.7496
 4617TIP3   OH235265   1.424   5.973  13.746  0.9114  0.2286 -0.0435
 4617TIP3    H135266   1.402   5.896  13.797 -1.1649  0.5715 -0.3359
 4617TIP3    H235267   1.374   6.044  13.786 -0.5396  0.5694 -2.2431
 4618TIP3   OH235268   3.599   4.608   3.831 -0.6366 -0.2081 -0.2541
 4618TIP3    H135269   3.642   4.523   3.821  1.3331  0.4901  1.5213
 4618TIP3    H235270   3.637   4.662   3.762  2.0369  0.5819  1.6674
 4619TIP3   OH235271   4.033   2.898   2.824  0.1466  0.5609  0.1376
 4619TIP3    H135272   3.962   2.961   2.835 -0.9487 -0.6995  0.4453
 4619TIP3    H235273   4.072   2.920   2.740 -1.7635  0.1730 -0.8982
 4620TIP3   OH235274   1.323   5.078   4.499 -0.0931 -0.3472 -0.1678
 4620TIP3    H135275   1.398   5.018   4.499 -0.1226 -0.3815 -0.5658
 4620TIP3    H235276   1.350   5.148   4.559  0.6975  0.1772 -1.0980
 4621TIP3   OH235277   1.190   4.629   4.210 -0.1175  0.0075 -0.6181
 4621TIP3    H135278   1.168   4.702   4.268 -0.1025  0.9252 -1.7170
 4621TIP3    H235279   1.225   4.562   4.267 -0.2360  0.8266  0.4417
 4622TIP3   OH235280   2.098   4.468  15.130 -0.0785 -0.1870 -0.1499
 4622TIP3    H135281   2.041   4.521  15.185  0.0660  0.3181 -0.4815
 4622TIP3    H235282   2.170   4.442  15.187 -0.2300 -0.1572  0.0537
 4623TIP3   OH235283   0.280   1.287   3.646  0.2248  0.0127 -0.1174
 4623TIP3    H135284   0.352   1.344   3.673  0.3974  0.1290 -0.7999
 4623TIP3    H235285   0.233   1.268   3.726  0.8219  0.2133  0.2877
 4624TIP3   OH235286   6.170   6.312   4.613  0.2737 -0.4952  0.3683
 4624TIP3    H135287   6.081   6.311   4.579  0.9108 -0.6542 -1.4534
 4624TIP3    H235288   6.192   6.219   4.626  0.5507 -0.5373 -0.3331
 4625TIP3   OH235289   0.954   3.401   0.114 -0.0160 -0.0275  0.3772
 4625TIP3    H135290   0.997   3.361   0.189  0.6886  0.7133  0.3765
 4625TIP3    H235291   0.971   3.495   0.123 -2.5730  0.4735  0.9949
 4626TIP3   OH235292   1.143   6.586   0.488 -0.5147 -0.2481 -0.1748
 4626TIP3    H135293   1.148   6.681   0.491 -0.6946 -0.2718  0.9372
 4626TIP3    H235294   1.086   6.567   0.413  0.4817  0.4767 -1.1445
 4627TIP3   OH235295   2.115   5.137   3.741  0.3505  0.2944  0.4012
 4627TIP3    H135296   2.196   5.183   3.762 -0.0177  0.7248  0.8998
 4627TIP3    H235297   2.082   5.106   3.825  0.2114 -0.2470  0.1538
 4628TIP3   OH235298   4.497   0.779  14.798 -0.9931  0.1711 -0.0148
 4628TIP3    H135299   4.503   0.730  14.717 -0.3871  0.4539 -0.1472
 4628TIP3    H235300   4.587   0.799  14.821 -1.2232  1.3084 -0.0242
 4629TIP3   OH235301   6.062   5.014   4.154 -0.4732 -0.3051  0.2969
 4629TIP3    H135302   6.067   4.962   4.234 -1.2333 -1.0986 -0.1480
 4629TIP3    H235303   6.033   4.952   4.087 -0.5835  0.5090 -0.4328
 4630TIP3   OH235304   1.716   3.627   3.657 -0.4720 -0.1977  0.5097
 4630TIP3    H135305   1.764   3.615   3.739 -1.1019  0.3762  0.9722
 4630TIP3    H235306   1.624   3.634   3.683 -0.6623  0.1922 -0.2259
 4631TIP3   OH235307   6.707   4.180  12.285 -0.1986 -0.0882  0.3838
 4631TIP3    H135308   6.748   4.121  12.221  1.1226  0.2250  0.8949
 4631TIP3    H235309   6.660   4.121  12.344  3.6991 -1.1699  2.8243
 4632TIP3   OH235310   2.731   4.787   2.752  0.0627  0.7941 -0.6339
 4632TIP3    H135311   2.676   4.728   2.700  0.6374  1.4283 -2.0394
 4632TIP3    H235312   2.739   4.745   2.837  0.5881 -1.2384 -1.6350
 4633TIP3   OH235313   4.089   4.122   5.571 -0.4655  0.4088  0.2755
 4633TIP3    H135314   4.177   4.156   5.553 -0.8270  0.6891 -1.0654
 4633TIP3    H235315   4.101   4.066   5.648  0.9626  0.1604 -0.0836
 4634TIP3   OH235316   1.853   4.010  15.644 -0.5349 -0.4831  0.4842
 4634TIP3    H135317   1.821   4.017  15.554  1.0368  1.0775 -0.0188
 4634TIP3    H235318   1.908   3.932  15.644  0.7942  0.3992 -0.4202
 4635TIP3   OH235319   3.672   4.627   1.356  0.1591  0.2140 -0.1943
 4635TIP3    H135320   3.718   4.675   1.287  1.6421 -0.7435  0.0858
 4635TIP3    H235321   3.694   4.673   1.437 -0.1219  0.2792 -0.1522
 4636TIP3   OH235322   5.534   0.022  16.922  1.1702  0.2293  0.1980
 4636TIP3    H135323   5.612   0.061  16.960  1.3631  0.2229 -0.1893
 4636TIP3    H235324   5.466   0.088  16.934  1.3778  0.4829 -0.0124
 4637TIP3   OH235325   0.158   3.782  16.392  0.5464  0.1193 -0.4660
 4637TIP3    H135326   0.088   3.751  16.449  0.1473  1.0448 -0.4434
 4637TIP3    H235327   0.212   3.704  16.376  1.1813  0.0058  1.8954
 4638TIP3   OH235328   4.089   6.685  11.570  0.0424  0.0254  0.1767
 4638TIP3    H135329   4.087   6.773  11.606  0.0626  0.5605 -1.0825
 4638TIP3    H235330   4.004   6.647  11.593 -0.5862  0.9296 -0.6060
 4639TIP3   OH235331   6.081   2.501   3.285  0.3691  0.7872  0.5598
 4639TIP3    H135332   6.044   2.561   3.350  0.1364  0.9928  0.2347
 4639TIP3    H235333   6.142   2.554   3.234 -0.2452  0.8784 -0.0822
 4640TIP3   OH235334   2.432   3.747  17.144  0.6689  0.0901  0.5096
 4640TIP3    H135335   2.465   3.659  17.131 -0.1388 -0.5989  2.7057
 4640TIP3    H235336   2.489   3.785  17.212 -0.1722  0.5223  0.9995
 4641TIP3   OH235337   0.658   3.804   4.176  0.1669  0.1717  0.4878
 4641TIP3    H135338   0.698   3.885   4.144  0.9453 -0.6999 -0.7784
 4641TIP3    H235339   0.580   3.834   4.224  1.7913  1.8322  2.2630
 4642TIP3   OH235340   0.212   0.730   2.120 -0.0494 -0.0793  0.3509
 4642TIP3    H135341   0.248   0.651   2.159  0.2014  0.2478  0.7909
 4642TIP3    H235342   0.161   0.699   2.045 -0.2705 -0.6883  0.7485
 4643TIP3   OH235343   5.796   1.761  14.238  0.7886 -0.4266  0.3309
 4643TIP3    H135344   5.839   1.826  14.292  0.3777  0.3391 -0.2430
 4643TIP3    H235345   5.799   1.680  14.290  1.3424  0.0355  1.0265
 4644TIP3   OH235346   4.200   4.589   2.889  0.2433  0.4775  0.6152
 4644TIP3    H135347   4.143   4.665   2.903 -2.5471 -0.9877 -1.6252
 4644TIP3    H235348   4.246   4.608   2.807 -0.1432 -0.0154  0.2726
 4645TIP3   OH235349   2.699   1.375   3.709 -0.2480 -0.4590 -0.6503
 4645TIP3    H135350   2.711   1.363   3.804  1.0095 -0.9836 -0.8551
 4645TIP3    H235351   2.780   1.419   3.681 -0.7815  0.0443 -1.4313
 4646TIP3   OH235352   4.856   4.832  14.798 -0.3390 -0.2446 -0.2835
 4646TIP3    H135353   4.824   4.922  14.804 -0.6457 -0.4496  1.9713
 4646TIP3    H235354   4.878   4.820  14.706 -1.9626  1.5633 -0.9671
 4647TIP3   OH235355   0.283   6.758   5.911  0.3662 -0.0708  0.0935
 4647TIP3    H135356   0.226   6.681   5.903  1.2082 -0.5786 -1.4449
 4647TIP3    H235357   0.312   6.776   5.821  0.0631  2.1601  0.3888
 4648TIP3   OH235358   2.454   0.989   4.760  0.7429  0.4533 -0.2201
 4648TIP3    H135359   2.478   0.980   4.852 -0.3266 -1.1571 -0.0598
 4648TIP3    H235360   2.538   0.989   4.714  1.2459  0.1063  0.6675
 4649TIP3   OH235361   1.963   6.665  16.462 -0.7849  0.5514  0.2440
 4649TIP3    H135362   2.044   6.678  16.511 -0.3227 -1.6111  0.1344
 4649TIP3    H235363   1.981   6.590  16.406 -2.2952  1.1443 -1.0952
 4650TIP3   OH235364   6.359   1.320   3.539 -0.0889 -0.1375 -0.6236
 4650TIP3    H135365   6.347   1.244   3.597  0.3527  1.5220  1.8182
 4650TIP3    H235366   6.298   1.305   3.467 -1.5700 -1.8014  0.8643
 4651TIP3   OH235367   1.293   3.888  16.096  0.7091 -0.2833  0.2720
 4651TIP3    H135368   1.202   3.918  16.094  0.9692  0.5133 -0.0566
 4651TIP3    H235369   1.287   3.793  16.089 -0.0969 -0.2384  0.2290
 4652TIP3   OH235370   2.740   5.040  14.624 -0.0942 -0.0528  0.8846
 4652TIP3    H135371   2.788   4.957  14.617  0.6108  0.1371  2.7650
 4652TIP3    H235372   2.670   5.021  14.686 -0.1315  0.6551  1.0678
 4653TIP3   OH235373   3.694   0.553   3.724 -0.1517 -0.4793 -0.1443
 4653TIP3    H135374   3.751   0.542   3.647 -0.9959  0.1412 -0.8819
 4653TIP3    H235375   3.737   0.502   3.793  0.2168 -1.7231 -1.2423
 4654TIP3   OH235376   3.795   3.934  13.196 -0.2478  0.5828  0.3003
 4654TIP3    H135377   3.879   3.895  13.220  0.7157  1.7098 -1.0304
 4654TIP3    H235378   3.769   3.887  13.117 -0.4046  0.8460  0.1946
 4655TIP3   OH235379   3.461   2.395  14.962 -0.0599 -0.3494 -0.6107
 4655TIP3    H135380   3.515   2.367  14.888  0.4324 -1.2181  0.0428
 4655TIP3    H235381   3.401   2.321  14.977 -1.1626  0.4276 -1.0577
 4656TIP3   OH235382   2.246   0.246  13.478  0.4667  0.1991  0.0190
 4656TIP3    H135383   2.231   0.178  13.413  0.0128  0.8498 -0.5765
 4656TIP3    H235384   2.159   0.283  13.494  0.6784  0.5170  0.4635
 4657TIP3   OH235385   0.858   5.197  16.397 -0.3563 -0.0365 -0.0557
 4657TIP3    H135386   0.931   5.174  16.341 -1.2185 -2.3085 -0.3493
 4657TIP3    H235387   0.866   5.139  16.473 -0.3404  1.5950  1.2555
 4658TIP3   OH235388   6.469   1.662  17.045 -0.1259  0.1506  0.0671
 4658TIP3    H135389   6.459   1.619  17.130 -0.2649  0.1490  0.0521
 4658TIP3    H235390   6.452   1.592  16.982  0.9848 -0.0939  0.0195
 4659TIP3   OH235391   5.550   4.998  16.353  0.2897  0.2640  0.3643
 4659TIP3    H135392   5.589   4.919  16.314 -1.2117  0.4741 -1.7385
 4659TIP3    H235393   5.609   5.069  16.329 -0.1887  0.2629 -0.8983
 4660TIP3   OH235394   4.104   4.333   3.474 -0.4876  0.3620  0.4418
 4660TIP3    H135395   4.116   4.276   3.398 -2.8552 -0.0828  0.3391
 4660TIP3    H235396   4.175   4.397   3.468 -0.1966 -0.1164 -1.7216
 4661TIP3   OH235397   4.674   4.358   1.709 -0.3525 -0.1691 -0.5314
 4661TIP3    H135398   4.602   4.311   1.666 -1.0534 -0.4383  0.8712
 4661TIP3    H235399   4.633   4.401   1.784  0.8599  0.0879  0.0108
 4662TIP3   OH235400   5.223   4.063   2.367 -0.4421  0.2187  0.3450
 4662TIP3    H135401   5.132   4.090   2.353 -0.6284  0.2702  1.5186
 4662TIP3    H235402   5.271   4.097   2.292 -1.4067  0.1275 -0.3219
 4663TIP3   OH235403   0.146   3.920   0.200  0.0368  0.2501  0.2081
 4663TIP3    H135404   0.202   3.874   0.137 -0.0755  0.6011 -0.1497
 4663TIP3    H235405   0.090   3.852   0.236  1.2739 -0.2796  1.2201
 4664TIP3   OH235406   1.772   0.831   4.329  0.5767 -0.0160 -0.1022
 4664TIP3    H135407   1.825   0.841   4.250 -1.5365  0.1071 -1.5724
 4664TIP3    H235408   1.825   0.776   4.386  2.4636  0.4638 -1.3038
 4665TIP3   OH235409   3.831   1.276   4.278 -0.2005 -0.1007 -0.3302
 4665TIP3    H135410   3.750   1.241   4.315 -0.9200 -0.7124 -2.3385
 4665TIP3    H235411   3.898   1.211   4.301 -0.3627  0.1288  0.8649
 4666TIP3   OH235412   1.571   0.956   2.217 -0.5734 -0.3666  0.0681
 4666TIP3    H135413   1.643   0.894   2.232  0.1816  0.0749 -1.5537
 4666TIP3    H235414   1.607   1.040   2.245 -0.5401 -0.1823 -0.5295
 4667TIP3   OH235415   0.386   2.129   5.837 -0.3648 -0.5511 -0.2368
 4667TIP3    H135416   0.444   2.151   5.910  0.7891 -2.1466 -0.6214
 4667TIP3    H235417   0.356   2.040   5.855 -2.0013 -0.0928 -0.5207
 4668TIP3   OH235418   1.673   1.875  11.947 -0.3921 -0.6677  0.2158
 4668TIP3    H135419   1.663   1.935  12.020  0.0496 -0.8707  0.4456
 4668TIP3    H235420   1.600   1.896  11.888  0.0143  0.4101  0.0678
 4669TIP3   OH235421   6.702   2.440  13.702  0.1687 -0.6686 -0.0676
 4669TIP3    H135422   6.766   2.483  13.646  2.0186 -1.2721  1.4660
 4669TIP3    H235423   6.676   2.361  13.653  0.7730 -0.5378 -0.6101
 4670TIP3   OH235424   2.545   2.086   0.318  0.0074 -0.0500 -0.0662
 4670TIP3    H135425   2.543   2.131   0.234  1.4905 -1.3102 -0.8373
 4670TIP3    H235426   2.482   2.014   0.308 -1.7395  1.2823  0.8669
 4671TIP3   OH235427   3.501   1.332  12.065  0.1696 -0.1194 -0.5888
 4671TIP3    H135428   3.554   1.254  12.083 -0.7349 -0.8927 -1.1357
 4671TIP3    H235429   3.415   1.297  12.041 -0.5913  1.0994  0.2455
 4672TIP3   OH235430   0.639   2.090   5.713 -0.2552  0.0146  0.0877
 4672TIP3    H135431   0.677   2.034   5.782  1.8808  2.1723  0.7926
 4672TIP3    H235432   0.548   2.103   5.741 -0.6898 -2.5993  0.1579
 4673TIP3   OH235433   6.321   3.509   2.786  0.2261 -0.2768 -0.1166
 4673TIP3    H135434   6.303   3.566   2.860  0.3653 -1.0099  0.5004
 4673TIP3    H235435   6.315   3.566   2.709 -1.0658  0.2500  0.3537
 4674TIP3   OH235436   6.567   1.825   2.179  0.4532  0.2520 -0.3192
 4674TIP3    H135437   6.488   1.853   2.226  0.4945 -1.2783  0.7408
 4674TIP3    H235438   6.587   1.739   2.216  2.0225  0.1559 -1.3222
 4675TIP3   OH235439   0.083   3.315  13.531 -0.0056 -0.3187 -0.1479
 4675TIP3    H135440   0.061   3.233  13.577  0.4108 -1.4398 -1.8463
 4675TIP3    H235441   0.106   3.287  13.442  0.3569  1.6451 -0.7190
 4676TIP3   OH235442   5.626   1.331   0.141 -0.2910  0.1512  0.4758
 4676TIP3    H135443   5.692   1.395   0.164 -0.8627  1.5161 -1.4001
 4676TIP3    H235444   5.623   1.270   0.215  1.3043  1.4463  1.6528
 4677TIP3   OH235445   6.555   3.652   3.979  0.0655  0.2414  0.2142
 4677TIP3    H135446   6.495   3.686   4.045 -0.3682 -1.9270  1.0077
 4677TIP3    H235447   6.501   3.594   3.924  1.0695 -0.4074 -0.1157
 4678TIP3   OH235448   0.120   0.002   5.487 -0.2195 -0.4926 -0.5969
 4678TIP3    H135449   0.083  -0.062   5.427  0.1140 -1.4101  0.1618
 4678TIP3    H235450   0.069   0.081   5.471 -0.4442 -0.8482 -1.7461
 4679TIP3   OH235451   3.033   5.689  14.894 -0.0881  0.2657  0.5267
 4679TIP3    H135452   3.073   5.651  14.973  1.1915  2.1248  0.8274
 4679TIP3    H235453   3.004   5.776  14.921 -0.0006  0.7789 -0.9379
 4680TIP3   OH235454   3.391   0.457   5.552  0.5716 -0.2443 -0.3365
 4680TIP3    H135455   3.463   0.396   5.566 -0.0071 -0.7165  0.7271
 4680TIP3    H235456   3.402   0.523   5.620  0.8800  0.5640 -1.1430
 4681TIP3   OH235457   3.825   1.061  12.358 -0.0699 -0.1932  0.8414
 4681TIP3    H135458   3.874   0.993  12.313  1.9470  1.5334  0.2567
 4681TIP3    H235459   3.891   1.113  12.403 -1.5749  1.0166  1.7739
 4682TIP3   OH235460   3.525   6.713  14.701 -0.4719  0.0918 -0.4406
 4682TIP3    H135461   3.504   6.805  14.683 -2.5474 -0.5112 -1.4484
 4682TIP3    H235462   3.499   6.667  14.621  0.2184 -1.4237  0.1808
 4683TIP3   OH235463   2.134   3.821  12.754  0.5020  0.2500 -0.0702
 4683TIP3    H135464   2.102   3.843  12.666  2.6811 -0.1081 -1.0152
 4683TIP3    H235465   2.204   3.758  12.739 -0.3415 -1.3194  2.0834
 4684TIP3   OH235466   3.556   1.279  15.783 -0.3298 -0.1188 -0.0784
 4684TIP3    H135467   3.576   1.193  15.745 -0.5347 -1.4282  2.5662
 4684TIP3    H235468   3.596   1.342  15.723  2.7200 -2.1914 -0.4299
 4685TIP3   OH235469   3.490   2.417   2.598 -0.5677  0.9773  0.1564
 4685TIP3    H135470   3.448   2.401   2.683 -1.2297  2.2510  0.0807
 4685TIP3    H235471   3.584   2.413   2.617 -0.6476  3.4986  1.4551
 4686TIP3   OH235472   1.519   1.981  15.625  0.4262  0.1972 -0.0121
 4686TIP3    H135473   1.543   1.956  15.536  0.7005  0.3416  0.0232
 4686TIP3    H235474   1.485   1.900  15.663  1.9838 -0.3248  0.3334
 4687TIP3   OH235475   6.668   0.241  12.452  0.0129  0.2613 -0.0870
 4687TIP3    H135476   6.628   0.190  12.522 -0.8390  1.3601  0.2451
 4687TIP3    H235477   6.748   0.193  12.431 -0.5908 -1.0242  0.4328
 4688TIP3   OH235478   0.750   1.741  12.189  0.1016  0.0706 -0.8959
 4688TIP3    H135479   0.689   1.696  12.130 -0.5285 -0.6233  0.2315
 4688TIP3    H235480   0.802   1.670  12.227 -0.2165  0.3776  0.1502
 4689TIP3   OH235481   3.923   6.037   0.989  0.9712 -0.2316  0.1011
 4689TIP3    H135482   4.018   6.029   0.977  1.1306 -0.1812  1.2214
 4689TIP3    H235483   3.909   6.132   0.996  0.3463  0.0811 -3.5523
 4690TIP3   OH235484   4.133   1.786   2.708  0.1146  0.5606  0.2327
 4690TIP3    H135485   4.112   1.879   2.695 -0.4803  0.5180  0.8714
 4690TIP3    H235486   4.106   1.745   2.626  0.6977  0.9944 -0.1909
 4691TIP3   OH235487   1.620   3.929  16.925 -0.2839  0.6745  0.5794
 4691TIP3    H135488   1.675   3.913  16.848 -0.8790 -1.8155  0.5683
 4691TIP3    H235489   1.683   3.950  16.995  0.5733 -0.4360  0.1799
 4692TIP3   OH235490   6.494   1.516  14.785  0.0894 -0.0244 -0.3667
 4692TIP3    H135491   6.512   1.534  14.693  1.0403 -0.4315 -0.2788
 4692TIP3    H235492   6.578   1.486  14.820  0.1227  1.5055  0.9879
 4693TIP3   OH235493   3.996   3.218   4.539 -0.0911  0.4231 -0.7786
 4693TIP3    H135494   3.951   3.153   4.485 -1.1860  0.8136 -0.3837
 4693TIP3    H235495   4.001   3.296   4.483  1.9205 -0.1904 -1.5330
 4694TIP3   OH235496   3.660   1.350  16.710  0.5355  0.4569 -0.3946
 4694TIP3    H135497   3.597   1.421  16.715  0.6226  0.5962 -1.0816
 4694TIP3    H235498   3.695   1.355  16.620 -0.3118 -1.1644 -0.8615
 4695TIP3   OH235499   0.158   0.826   3.639  0.3457  0.0663 -0.5358
 4695TIP3    H135500   0.148   0.828   3.543  0.5352 -1.2323 -0.6022
 4695TIP3    H235501   0.227   0.762   3.654  0.7891  0.7663  0.4499
 4696TIP3   OH235502   2.838   2.927  17.169 -0.2296  0.0473 -0.0438
 4696TIP3    H135503   2.881   2.908  17.252 -0.7965  0.3776  0.3227
 4696TIP3    H235504   2.753   2.885  17.175 -0.4327  0.4146 -0.3009
 4697TIP3   OH235505   0.144   3.721   2.900  0.0338  0.0975  0.0032
 4697TIP3    H135506   0.215   3.694   2.958  0.0398 -1.0430 -0.5062
 4697TIP3    H235507   0.163   3.812   2.881  0.7318  0.1329  0.7787
 4698TIP3   OH235508   2.395   4.235   5.760 -0.2960 -0.1591  0.0228
 4698TIP3    H135509   2.438   4.304   5.708 -1.4044 -0.7681 -1.8177
 4698TIP3    H235510   2.460   4.166   5.767 -0.2053 -0.1781 -0.8502
 4699TIP3   OH235511   4.384   0.394   1.994 -0.2957 -0.7596 -0.2434
 4699TIP3    H135512   4.320   0.448   2.040 -1.2936 -2.3673  0.3345
 4699TIP3    H235513   4.469   0.430   2.020 -0.9176  1.6890 -1.3757
 4700TIP3   OH235514   4.199   2.900   5.734 -0.3042 -0.0591 -0.5160
 4700TIP3    H135515   4.225   2.956   5.661 -3.5712  2.9389  0.3846
 4700TIP3    H235516   4.137   2.838   5.696  2.0929 -2.2356 -1.1819
 4701TIP3   OH235517   0.578   4.478   3.392 -0.1881 -0.0819 -0.3964
 4701TIP3    H135518   0.628   4.499   3.471  0.4656  2.2927 -1.3496
 4701TIP3    H235519   0.490   4.512   3.409 -0.0535  0.4094 -0.6627
 4702TIP3   OH235520   4.395   2.143  12.156 -0.4423  0.1748 -0.2081
 4702TIP3    H135521   4.432   2.166  12.071  0.0925 -0.9817 -0.3057
 4702TIP3    H235522   4.471   2.129  12.212 -0.7745  0.0604  0.2178
 4703TIP3   OH235523   3.583   3.259   6.014  0.3627  0.1003 -0.1231
 4703TIP3    H135524   3.543   3.173   6.001 -1.0660  0.8749 -1.1999
 4703TIP3    H235525   3.516   3.310   6.059  1.7749  0.2380  1.9517
 4704TIP3   OH235526   0.074   0.096  12.366  0.0046 -0.5553 -0.1556
 4704TIP3    H135527   0.132   0.034  12.410  1.8528  1.0637 -0.1736
 4704TIP3    H235528   0.118   0.116  12.284 -1.1798 -0.1265 -0.7145
 4705TIP3   OH235529   3.955   3.560   1.501 -0.1869  0.2395  0.2458
 4705TIP3    H135530   3.862   3.565   1.478 -0.5113 -0.5362  1.3264
 4705TIP3    H235531   4.000   3.607   1.430 -1.2808 -0.5764 -1.0356
 4706TIP3   OH235532   6.168   6.220  16.176 -0.6129  0.4625 -0.0305
 4706TIP3    H135533   6.177   6.277  16.099 -0.4463 -1.0505 -1.1730
 4706TIP3    H235534   6.074   6.205  16.184 -0.7746  1.7885  0.9935
 4707TIP3   OH235535   6.558   4.181   1.230 -0.2770 -0.0257 -0.1290
 4707TIP3    H135536   6.609   4.252   1.193  0.9505 -0.6677  0.2600
 4707TIP3    H235537   6.497   4.224   1.290 -1.4477  0.9026 -1.9012
 4708TIP3   OH235538   2.671   4.275   3.581  0.3262 -0.3564  0.1537
 4708TIP3    H135539   2.725   4.339   3.626 -0.4239  0.5953 -0.2598
 4708TIP3    H235540   2.599   4.326   3.544 -1.4209 -1.7022  1.5422
 4709TIP3   OH235541   5.514   1.682  12.063  0.2069 -0.2299  0.2492
 4709TIP3    H135542   5.535   1.661  11.972 -1.4499  0.0076 -0.2297
 4709TIP3    H235543   5.526   1.777  12.069  0.6012 -0.2870  0.3600
 4710TIP3   OH235544   3.335   1.899   1.051  0.3193 -0.3689 -0.6994
 4710TIP3    H135545   3.310   1.818   1.095 -1.5194 -0.3210 -1.5690
 4710TIP3    H235546   3.427   1.886   1.028 -0.0967 -2.5057 -1.4253
 4711TIP3   OH235547   1.999   4.589  15.598  0.5443  0.1386  0.0973
 4711TIP3    H135548   2.034   4.533  15.528 -0.0070 -0.2882  0.1606
 4711TIP3    H235549   1.904   4.585  15.587  0.3356 -1.4378  2.0114
 4712TIP3   OH235550   4.310   3.934  11.774 -0.2212  0.0986 -0.1350
 4712TIP3    H135551   4.255   4.008  11.799  0.5408  0.4757  0.4577
 4712TIP3    H235552   4.274   3.904  11.691 -1.0821  0.5755  0.0543
 4713TIP3   OH235553   2.299   1.068  15.395  0.0853 -1.0257  0.2819
 4713TIP3    H135554   2.313   1.128  15.468  5.2326 -0.5573 -0.6754
 4713TIP3    H235555   2.351   1.105  15.324 -2.2035 -3.0713 -2.6939
 4714TIP3   OH235556   6.706   6.420   4.537  0.5727 -0.1574  0.1408
 4714TIP3    H135557   6.679   6.350   4.596 -0.0641 -1.4088 -1.5588
 4714TIP3    H235558   6.770   6.379   4.479  0.9569  0.9502 -0.2527
 4715TIP3   OH235559   3.414   6.638  16.477 -0.3172 -0.1137  0.1507
 4715TIP3    H135560   3.364   6.595  16.547 -1.5299 -1.5206 -1.5129
 4715TIP3    H235561   3.476   6.571  16.448  1.1511  0.9230  0.7591
 4716TIP3   OH235562   0.834   2.684   2.334 -0.5628  0.1378 -0.2578
 4716TIP3    H135563   0.894   2.723   2.398 -0.4674 -0.6240  0.1284
 4716TIP3    H235564   0.777   2.627   2.386 -0.2072 -0.8302 -0.8859
 4717TIP3   OH235565   4.894   2.795  12.405  0.1035  0.1576  0.2776
 4717TIP3    H135566   4.870   2.775  12.496  0.8808 -0.0805  0.4356
 4717TIP3    H235567   4.879   2.713  12.358 -1.9998  0.7399 -0.1903
 4718TIP3   OH235568   0.688   5.866  17.023 -0.0950  0.0439 -0.3981
 4718TIP3    H135569   0.691   5.875  16.927 -0.9691 -0.1968 -0.4527
 4718TIP3    H235570   0.634   5.789  17.038  0.5736 -0.2965  0.2844
 4719TIP3   OH235571   6.343   3.053   2.533 -0.3289 -0.5151 -1.0419
 4719TIP3    H135572   6.269   3.094   2.577 -0.4256 -0.0493 -1.6251
 4719TIP3    H235573   6.325   2.959   2.537 -0.6200 -0.4429 -0.6090
 4720TIP3   OH235574   1.340   2.073  12.699 -0.5360 -0.4804  0.2868
 4720TIP3    H135575   1.312   2.154  12.655 -0.7867  0.3480  1.9169
 4720TIP3    H235576   1.259   2.036  12.734 -0.0922  0.0241  1.9004
 4721TIP3   OH235577   6.442   0.163  12.133  0.2845 -0.3083  0.1268
 4721TIP3    H135578   6.412   0.074  12.148 -1.5452  0.2971  0.2614
 4721TIP3    H235579   6.396   0.191  12.054  0.1442  0.8139  0.5859
 4722TIP3   OH235580   5.842   5.524   2.401 -0.6742  0.5015  0.0195
 4722TIP3    H135581   5.800   5.555   2.481 -2.9091 -1.0040 -0.4687
 4722TIP3    H235582   5.837   5.598   2.341  0.6961  1.5216  1.0951
 4723TIP3   OH235583   4.680   2.100   2.600  0.0319  0.1790 -0.4056
 4723TIP3    H135584   4.596   2.086   2.555  0.0918  0.4166 -0.5922
 4723TIP3    H235585   4.734   2.147   2.536  0.2794  0.1001 -0.2552
 4724TIP3   OH235586   5.902   5.187  12.886 -0.1032 -0.2732  0.0187
 4724TIP3    H135587   5.875   5.117  12.944  1.4354  0.7930  2.1701
 4724TIP3    H235588   5.919   5.145  12.802  0.6488 -2.4564  1.2032
 4725TIP3   OH235589   1.634   6.245  16.457 -0.0230 -0.0975 -0.3039
 4725TIP3    H135590   1.539   6.241  16.443  0.1064  0.7536 -1.6780
 4725TIP3    H235591   1.661   6.154  16.462 -0.5498 -0.5022 -3.0662
 4726TIP3   OH235592   6.448   0.243  11.115  0.0240 -0.2726  0.0689
 4726TIP3    H135593   6.459   0.245  11.020  1.1270 -0.3575  0.1820
 4726TIP3    H235594   6.447   0.336  11.141 -0.1804 -0.2519 -0.0102
 4727TIP3   OH235595   1.006   1.666   6.546  0.2292 -0.0102  0.0091
 4727TIP3    H135596   1.044   1.598   6.601 -0.6646 -0.4292  0.1256
 4727TIP3    H235597   0.995   1.741   6.604 -3.1521 -1.2592  1.1885
 4728TIP3   OH235598   4.837   4.237  16.470 -0.0940  0.4466  0.5205
 4728TIP3    H135599   4.851   4.158  16.522  1.9309 -0.8361 -1.7843
 4728TIP3    H235600   4.754   4.222  16.424 -0.2450  0.1548  0.8840
 4729TIP3   OH235601   0.183   6.123   0.225  0.8788  0.0432  0.4088
 4729TIP3    H135602   0.263   6.162   0.190  1.2604  0.0555  1.2779
 4729TIP3    H235603   0.168   6.046   0.170  0.8369  0.6793 -0.4929
 4730TIP3   OH235604   5.444   4.458   3.212  0.9671  0.1022 -0.5187
 4730TIP3    H135605   5.361   4.432   3.172  0.8570 -0.7172  0.2129
 4730TIP3    H235606   5.499   4.484   3.138  0.1096  0.5231 -1.0251
 4731TIP3   OH235607   4.955   5.760   3.387  0.2502  0.2243  0.6047
 4731TIP3    H135608   4.922   5.826   3.326 -0.4389 -0.3495  0.3288
 4731TIP3    H235609   4.998   5.695   3.331 -1.3892 -0.8957  0.5740
 4732TIP3   OH235610   2.299   0.312  14.935 -0.3203 -0.2509  0.0853
 4732TIP3    H135611   2.339   0.331  15.020  1.1828  1.0372 -0.8440
 4732TIP3    H235612   2.367   0.267  14.885 -0.6071  0.3923 -0.9394
 4733TIP3   OH235613   5.387   4.151  13.354 -0.1000 -0.4668 -0.6152
 4733TIP3    H135614   5.299   4.129  13.387 -0.2968  1.1480  0.0264
 4733TIP3    H235615   5.446   4.102  13.411 -0.5568 -1.0601 -0.6359
 4734TIP3   OH235616   5.191   2.277   4.344  0.5806  0.4993  0.1067
 4734TIP3    H135617   5.225   2.366   4.346 -1.1661  1.3103 -2.1319
 4734TIP3    H235618   5.212   2.241   4.430  2.7757  2.4871  0.4834
 4735TIP3   OH235619   5.581   6.608  14.599 -0.3907 -0.4290 -0.0715
 4735TIP3    H135620   5.611   6.518  14.615 -2.1861 -1.1369 -0.4504
 4735TIP3    H235621   5.639   6.640  14.530 -0.8523 -1.9666 -1.2362
 4736TIP3   OH235622   1.149   0.278  11.119 -0.0337  0.4282  0.3492
 4736TIP3    H135623   1.149   0.372  11.138  1.1364  0.5992 -0.3908
 4736TIP3    H235624   1.173   0.273  11.026  0.0039 -0.6114  0.4126
 4737TIP3   OH235625   6.534   1.511   1.583  0.2151 -0.0482 -0.8174
 4737TIP3    H135626   6.592   1.491   1.657 -0.7330  0.7496  0.1863
 4737TIP3    H235627   6.532   1.607   1.579 -1.6567 -0.0212 -0.2727
 4738TIP3   OH235628   4.309   3.627   2.740 -0.4303  0.1209 -0.5655
 4738TIP3    H135629   4.284   3.719   2.733 -1.0237  0.0786  0.8331
 4738TIP3    H235630   4.300   3.593   2.651 -1.1058  1.1857 -0.9165
 4739TIP3   OH235631   0.313   4.069  16.002 -0.1108 -0.0410  0.0174
 4739TIP3    H135632   0.362   4.097  15.925 -0.6837  0.0485 -0.3211
 4739TIP3    H235633   0.331   4.137  16.067 -0.8575  0.7086 -0.5433
 4740TIP3   OH235634   3.947   0.753   2.404 -0.6805 -0.6097 -0.1037
 4740TIP3    H135635   3.942   0.836   2.452 -0.5244 -1.1354  0.8617
 4740TIP3    H235636   4.041   0.737   2.393 -0.7133 -0.5724 -0.4319
 4741TIP3   OH235637   2.307   6.455  14.919 -0.4455 -0.3100 -0.2816
 4741TIP3    H135638   2.258   6.445  15.001  0.6875  2.0188  0.7732
 4741TIP3    H235639   2.298   6.547  14.897  2.9028  0.1202 -0.3328
 4742TIP3   OH235640   4.468   4.999  17.013  0.0160  0.0279  0.1330
 4742TIP3    H135641   4.414   5.018  16.936  1.2876  1.6264 -0.4105
 4742TIP3    H235642   4.531   4.933  16.983 -0.3973 -0.4232  0.2348
 4743TIP3   OH235643   4.035   3.148   3.576 -0.0241  0.0915 -0.1694
 4743TIP3    H135644   4.068   3.099   3.501 -2.8699 -0.8272 -0.9448
 4743TIP3    H235645   3.955   3.190   3.544 -0.9233  0.2991  2.1428
 4744TIP3   OH235646   5.761   0.172   4.766  0.2249 -0.0580 -0.4503
 4744TIP3    H135647   5.788   0.193   4.676  0.5801  1.2553 -0.0537
 4744TIP3    H235648   5.690   0.234   4.785 -1.8679 -2.2000 -0.7996
 4745TIP3   OH235649   0.955   0.963   1.816  0.1151 -0.0727 -0.6518
 4745TIP3    H135650   0.992   0.915   1.742 -1.5620 -1.0539 -0.8910
 4745TIP3    H235651   0.982   0.914   1.893 -0.2580 -0.5006 -0.7910
 4746TIP3   OH235652   5.008   2.076   0.911 -0.1732  0.5559 -0.6284
 4746TIP3    H135653   5.008   1.983   0.888 -0.9214  0.2007  0.7108
 4746TIP3    H235654   5.094   2.108   0.882  0.5325 -0.8158 -0.1204
 4747TIP3   OH235655   0.866   2.162  12.147 -0.2948  0.2176 -0.2486
 4747TIP3    H135656   0.831   2.100  12.210 -1.0762  0.9151  0.0160
 4747TIP3    H235657   0.825   2.245  12.169  2.2888  1.3495  0.7769
 4748TIP3   OH235658   4.405   3.848   0.565 -0.1977  0.4423  0.6671
 4748TIP3    H135659   4.438   3.813   0.648  1.4144 -0.1410 -0.1789
 4748TIP3    H235660   4.420   3.942   0.571  1.8637  0.1797  0.2472
 4749TIP3   OH235661   0.092   4.521  10.779  0.3986  0.5249 -0.3247
 4749TIP3    H135662   0.078   4.427  10.787 -1.3954  0.7489 -0.3940
 4749TIP3    H235663   0.156   4.542  10.846 -1.0719 -0.3783  1.4615
 4750TIP3   OH235664   3.447   0.152   3.406 -0.1093 -0.1281 -0.3840
 4750TIP3    H135665   3.427   0.202   3.485  0.5573 -1.4283  0.6396
 4750TIP3    H235666   3.361   0.137   3.365 -0.5572 -0.1694  0.5505
 4751TIP3   OH235667   6.171   3.043   5.539  0.1514 -0.2738 -0.2520
 4751TIP3    H135668   6.160   3.138   5.537 -1.1815 -0.4060 -0.9188
 4751TIP3    H235669   6.148   3.018   5.628 -1.7122 -0.1425 -0.6396
 4752TIP3   OH235670   5.345   3.544  12.707 -0.0310  0.3828 -0.2286
 4752TIP3    H135671   5.435   3.560  12.734 -0.2355 -0.6433  1.1727
 4752TIP3    H235672   5.320   3.622  12.658  1.7116  0.5517 -0.9009
 4753TIP3   OH235673   0.619   4.550   1.429 -0.4843 -0.0798  0.0450
 4753TIP3    H135674   0.533   4.509   1.434  0.5038 -2.5465 -1.5914
 4753TIP3    H235675   0.680   4.481   1.454  1.1061  1.4644  0.6825
 4754TIP3   OH235676   2.928   6.099   2.517  0.2924  0.6946 -0.0822
 4754TIP3    H135677   3.011   6.146   2.508 -0.6703  2.5282  0.0028
 4754TIP3    H235678   2.895   6.126   2.603 -2.2289  3.3320 -1.6865
 4755TIP3   OH235679   6.601   1.208   5.064 -0.8743  0.4860 -0.5563
 4755TIP3    H135680   6.684   1.206   5.113 -1.1819  0.3561 -0.0388
 4755TIP3    H235681   6.628   1.203   4.972 -0.3308 -0.2217 -0.3677
 4756TIP3   OH235682   0.705   4.662  16.302  0.0529 -0.4240  0.2617
 4756TIP3    H135683   0.750   4.607  16.366 -0.5080  0.5139  1.5000
 4756TIP3    H235684   0.690   4.745  16.347 -2.7382 -0.6097 -0.1468
 4757TIP3   OH235685   6.304   4.771  15.035 -0.0604 -0.1820 -0.4878
 4757TIP3    H135686   6.334   4.683  15.057  0.6047  0.5590  1.8864
 4757TIP3    H235687   6.226   4.783  15.088 -0.0174  0.7325 -0.6215
 4758TIP3   OH235688   2.002   6.374  15.296  0.6663 -0.1412 -0.0279
 4758TIP3    H135689   2.017   6.429  15.373 -0.6937  0.5837 -0.2428
 4758TIP3    H235690   1.961   6.295  15.332 -1.1938  0.7395 -0.0772
 4759TIP3   OH235691   6.781   2.519   5.208  0.7903 -0.3785 -0.1393
 4759TIP3    H135692   6.833   2.557   5.137  2.7918  0.4047  1.6232
 4759TIP3    H235693   6.716   2.586   5.228  1.4303  0.2306 -0.0266
 4760TIP3   OH235694   0.966   3.930  15.776 -0.3590 -0.0511 -0.3816
 4760TIP3    H135695   0.960   3.835  15.784 -0.4283  0.1004  2.6014
 4760TIP3    H235696   1.046   3.945  15.726  1.5914 -1.7242  1.9850
 4761TIP3   OH235697   1.253   4.632  15.076  0.0852 -0.1587 -0.9263
 4761TIP3    H135698   1.172   4.682  15.066 -0.4894 -0.8397  0.1544
 4761TIP3    H235699   1.258   4.613  15.169  1.4165 -0.2671 -1.0074
 4762TIP3   OH235700   1.651   2.462  13.251  0.5062 -0.1975 -0.1250
 4762TIP3    H135701   1.717   2.490  13.315 -0.7558 -0.1194  1.1851
 4762TIP3    H235702   1.609   2.543  13.223  1.2576 -0.1990 -1.3244
 4763TIP3   OH235703   3.716   2.168   0.406  0.0432  0.3119 -0.6588
 4763TIP3    H135704   3.740   2.154   0.314  1.3871 -2.0882 -0.0251
 4763TIP3    H235705   3.748   2.256   0.425  0.7998  0.4145 -2.1888
 4764TIP3   OH235706   2.914   0.525  14.429  0.1342 -0.1241  0.2282
 4764TIP3    H135707   3.003   0.509  14.397  0.3330  0.9539  0.2061
 4764TIP3    H235708   2.922   0.597  14.491 -0.7037 -0.0914  0.3208
 4765TIP3   OH235709   5.295   0.357   2.729 -0.9708 -0.0981  0.3871
 4765TIP3    H135710   5.313   0.278   2.780 -0.7915  0.1997  0.7873
 4765TIP3    H235711   5.271   0.423   2.794 -0.2314  0.4274  0.1459
 4766TIP3   OH235712   4.279   1.238  14.063 -0.7620 -0.3083  0.1384
 4766TIP3    H135713   4.241   1.312  14.110 -0.8141 -0.1874 -0.0929
 4766TIP3    H235714   4.370   1.264  14.047 -0.1051 -1.2335  2.0632
 4767TIP3   OH235715   0.956   5.958  11.123 -0.6319 -0.0225 -0.1202
 4767TIP3    H135716   1.012   5.949  11.046  0.2418 -0.1266  0.5200
 4767TIP3    H235717   0.982   5.887  11.181 -0.5062  0.7155  0.7475
 4768TIP3   OH235718   5.092   3.210  14.072 -0.0493  0.3672 -0.1759
 4768TIP3    H135719   5.178   3.167  14.077 -0.7770 -1.2803 -1.2022
 4768TIP3    H235720   5.107   3.287  14.017  0.9745  0.6865  0.5092
 4769TIP3   OH235721   3.156   3.125   4.735  0.1954 -0.3115  0.1550
 4769TIP3    H135722   3.093   3.160   4.671  0.3767 -0.0713  0.1056
 4769TIP3    H235723   3.132   3.167   4.817  0.8630  0.4872 -0.0496
 4770TIP3   OH235724   4.886   4.013  16.644 -0.1438  0.3313  0.0259
 4770TIP3    H135725   4.809   4.057  16.679  0.7456  0.4232  2.0153
 4770TIP3    H235726   4.907   3.946  16.709  1.5412  0.4087 -0.3966
 4771TIP3   OH235727   2.530   3.677  13.189  0.2464 -0.3361  0.1797
 4771TIP3    H135728   2.556   3.691  13.098  0.2106 -1.2978  0.0120
 4771TIP3    H235729   2.495   3.762  13.217  1.0229  0.2021 -0.4403
 4772TIP3   OH235730   1.708   5.689  14.962 -0.4156 -0.1633  0.8443
 4772TIP3    H135731   1.679   5.761  14.906  0.1214  0.7498  1.7074
 4772TIP3    H235732   1.768   5.639  14.906 -1.3328 -0.3521  0.0109
 4773TIP3   OH235733   5.279   1.905  13.003 -0.1259  0.2638 -0.4498
 4773TIP3    H135734   5.297   1.855  13.082  0.7643  1.6951  0.2986
 4773TIP3    H235735   5.195   1.873  12.972  0.5920 -1.9593 -0.2455
 4774TIP3   OH235736   1.463   1.833  11.763 -0.4897 -0.2371 -0.3346
 4774TIP3    H135737   1.413   1.837  11.681 -0.7543 -3.1160 -0.4052
 4774TIP3    H235738   1.473   1.739  11.780  3.2440  0.2228  0.7117
 4775TIP3   OH235739   5.861   2.404  11.179  0.1211  0.3998  0.3152
 4775TIP3    H135740   5.947   2.366  11.195  0.6240  1.5490  0.4266
 4775TIP3    H235741   5.806   2.370  11.250  1.2667  2.0630  2.0901
 4776TIP3   OH235742   5.946   1.551   0.675 -0.5698  0.1637  0.0234
 4776TIP3    H135743   5.855   1.561   0.705 -1.1863 -1.7663 -1.0125
 4776TIP3    H235744   5.951   1.460   0.645  1.6060  0.3576 -0.3526
 4777TIP3   OH235745   6.155   2.847  15.530  0.0157  0.4504 -0.1836
 4777TIP3    H135746   6.158   2.938  15.560  0.2063  0.8406 -1.3367
 4777TIP3    H235747   6.190   2.797  15.604 -3.7224  0.7968  2.1245
 4778TIP3   OH235748   5.509   5.292  12.823  0.4142 -0.0300 -0.1743
 4778TIP3    H135749   5.437   5.325  12.769  1.1301 -0.4997 -1.4401
 4778TIP3    H235750   5.543   5.217  12.775  0.6587 -0.8742  1.2676
 4779TIP3   OH235751   5.058   5.433  14.676 -0.5257 -0.2642  0.1710
 4779TIP3    H135752   5.040   5.342  14.699 -1.6961 -0.1201 -0.1102
 4779TIP3    H235753   5.114   5.428  14.599  0.3512 -0.7408  0.8312
 4780TIP3   OH235754   0.436   4.511   3.714 -0.2421  0.1525 -0.3982
 4780TIP3    H135755   0.365   4.448   3.719  0.4383 -0.5912  0.0998
 4780TIP3    H235756   0.428   4.549   3.627 -1.8671  0.8374  0.0085
 4781TIP3   OH235757   3.725   1.288  13.312 -0.2671 -0.4151 -0.5413
 4781TIP3    H135758   3.813   1.305  13.347 -0.6333  1.5485 -0.4541
 4781TIP3    H235759   3.735   1.291  13.217 -0.3041  0.3553 -0.5307
 4782TIP3   OH235760   5.664   2.702   6.598  0.6122 -0.0085 -0.4620
 4782TIP3    H135761   5.707   2.683   6.682  0.0689  1.6571  0.2163
 4782TIP3    H235762   5.664   2.617   6.552  0.5625 -1.0425  1.3624
 4783TIP3   OH235763   0.782   2.236  14.293  0.2723  0.5824 -0.0165
 4783TIP3    H135764   0.850   2.247  14.359  1.3039  3.5449 -1.4063
 4783TIP3    H235765   0.756   2.325  14.270 -3.5504 -0.4006 -0.1945
 4784TIP3   OH235766   2.375   4.625   5.777 -0.5193  0.3779  0.4899
 4784TIP3    H135767   2.426   4.567   5.721 -0.5177  0.7674  0.0795
 4784TIP3    H235768   2.286   4.588   5.776 -0.6952  0.7881 -0.3712
 4785TIP3   OH235769   6.670   2.520  12.498  0.2338  0.0603 -0.2637
 4785TIP3    H135770   6.751   2.543  12.543 -0.8878  0.3579  1.6808
 4785TIP3    H235771   6.626   2.459  12.557 -1.6045  0.9769 -0.6336
 4786TIP3   OH235772   0.511   5.754  15.700  0.2075  0.0536  0.0324
 4786TIP3    H135773   0.483   5.694  15.631 -0.4981  0.8623 -0.4072
 4786TIP3    H235774   0.502   5.703  15.781 -1.4440 -0.1183 -0.2129
 4787TIP3   OH235775   4.667   5.976   4.634  0.3205 -0.0548 -0.1433
 4787TIP3    H135776   4.575   5.953   4.619  0.3475 -0.2784  0.0217
 4787TIP3    H235777   4.714   5.893   4.623  0.5101  0.0725 -0.2955
 4788TIP3   OH235778   5.788   0.238  16.635  0.1376  0.8182 -0.2147
 4788TIP3    H135779   5.721   0.173  16.612 -0.5020 -0.0749  3.5221
 4788TIP3    H235780   5.738   0.311  16.672  1.0991  1.3704  0.0281
 4789TIP3   OH235781   5.635   6.620   6.400  0.5259 -0.3222  0.2188
 4789TIP3    H135782   5.657   6.529   6.420 -1.5673 -0.9164  0.1107
 4789TIP3    H235783   5.654   6.630   6.307 -0.9724 -1.2587 -0.2203
 4790TIP3   OH235784   1.489   5.545   2.475 -0.2054 -0.2120  0.0522
 4790TIP3    H135785   1.492   5.554   2.379  0.0625 -2.0174 -0.1418
 4790TIP3    H235786   1.396   5.532   2.494 -0.1433 -0.8959 -0.0880
 4791TIP3   OH235787   0.621   1.404   0.429 -0.4437  0.5875  0.0827
 4791TIP3    H135788   0.583   1.334   0.483  0.2951 -0.5045 -0.7585
 4791TIP3    H235789   0.695   1.362   0.384  0.2223  2.0044 -0.2128
 4792TIP3   OH235790   4.109   1.347  10.840 -0.6230  0.2601 -0.2021
 4792TIP3    H135791   4.033   1.328  10.895  0.6620 -1.7689  0.9835
 4792TIP3    H235792   4.125   1.266  10.792  0.1606  1.0005 -1.2177
 4793TIP3   OH235793   0.206   4.384  15.585 -0.3152 -0.7375  0.4330
 4793TIP3    H135794   0.224   4.412  15.495 -0.5486  2.4310  1.2528
 4793TIP3    H235795   0.282   4.331  15.610  2.2485  2.3944 -0.1155
 4794TIP3   OH235796   2.655   5.015  11.418 -0.0524  0.0198  0.5310
 4794TIP3    H135797   2.719   5.048  11.355 -0.5544 -0.0284 -0.0014
 4794TIP3    H235798   2.705   4.952  11.471  0.0773 -0.8098 -0.5627
 4795TIP3   OH235799   1.899   1.552   0.146  0.3250  0.6633  0.0153
 4795TIP3    H135800   1.813   1.510   0.147 -0.1571  1.6364  0.5639
 4795TIP3    H235801   1.948   1.506   0.078  0.0853 -1.2948  1.0789
 4796TIP3   OH235802   1.520   6.230  15.606  0.0481 -0.3116  0.5186
 4796TIP3    H135803   1.475   6.148  15.586 -0.1561 -0.4430  1.4769
 4796TIP3    H235804   1.606   6.203  15.638 -0.4413 -0.2138  1.9540
 4797TIP3   OH235805   4.532   6.012  16.267 -0.3130  0.0640  0.9917
 4797TIP3    H135806   4.549   6.012  16.172  3.0029  0.7469  1.4639
 4797TIP3    H235807   4.445   6.051  16.275 -0.5892  0.2628 -1.7493
 4798TIP3   OH235808   0.731   1.270   5.406  0.9890  0.0006  0.0931
 4798TIP3    H135809   0.823   1.289   5.392  1.1443 -1.1923 -0.6021
 4798TIP3    H235810   0.720   1.269   5.501  1.4413  1.2151  0.1778
 4799TIP3   OH235811   0.416   2.270  14.151 -0.3266  0.7223  0.2712
 4799TIP3    H135812   0.327   2.271  14.116 -0.7530 -2.8943  0.8281
 4799TIP3    H235813   0.408   2.303  14.240 -1.0354  0.7979  0.1778
 4800TIP3   OH235814   1.299   3.556   1.244  0.0617 -0.4253  0.2834
 4800TIP3    H135815   1.208   3.538   1.267  0.5500 -2.1426  1.0558
 4800TIP3    H235816   1.328   3.619   1.310 -0.2743 -0.6604  0.6623
 4801TIP3   OH235817   0.397   3.689   1.888  0.0082 -0.1186 -0.5225
 4801TIP3    H135818   0.408   3.598   1.859  1.2853 -0.2430  0.2807
 4801TIP3    H235819   0.328   3.724   1.832  0.2131 -1.2841 -1.5416
 4802TIP3   OH235820   3.136   2.257   2.433  0.4764  0.1062  0.3003
 4802TIP3    H135821   3.225   2.244   2.401  0.6893  0.7181  0.6156
 4802TIP3    H235822   3.124   2.191   2.501  0.3339 -0.6244 -0.4335
 4803TIP3   OH235823   0.874   4.432   1.882  0.0108  0.6916  0.2138
 4803TIP3    H135824   0.908   4.347   1.908 -2.1610 -0.8323 -1.6121
 4803TIP3    H235825   0.942   4.469   1.826 -0.7190 -1.8426 -2.5608
 4804TIP3   OH235826   4.801   6.647   1.647  0.4522  0.1386  0.4146
 4804TIP3    H135827   4.742   6.660   1.573  1.1740 -2.5776 -0.7644
 4804TIP3    H235828   4.743   6.642   1.723 -0.6864 -0.4613 -0.4534
 4805TIP3   OH235829   6.496   2.661  12.369  0.6476 -0.2170 -0.1114
 4805TIP3    H135830   6.580   2.628  12.402  2.1695  0.9396 -2.5284
 4805TIP3    H235831   6.451   2.584  12.336  0.7346 -0.8463  1.1736
 4806TIP3   OH235832   0.695   2.066  14.556  0.6674  0.1444  0.2971
 4806TIP3    H135833   0.614   2.062  14.607 -0.7895  0.1844 -1.8421
 4806TIP3    H235834   0.703   2.158  14.530 -0.0583 -0.2840 -1.6003
 4807TIP3   OH235835   1.226   2.851   1.150  0.6279 -0.0063  1.0857
 4807TIP3    H135836   1.272   2.779   1.106 -1.0099 -0.7881  0.5489
 4807TIP3    H235837   1.234   2.830   1.243  0.2472 -0.8541  0.9407
 4808TIP3   OH235838   1.198   2.608  15.743 -0.4425  0.4358 -0.0418
 4808TIP3    H135839   1.235   2.671  15.681  0.5617 -0.6384 -0.5622
 4808TIP3    H235840   1.274   2.563  15.780 -0.9119  1.6792  2.7208
 4809TIP3   OH235841   2.113   4.466   0.723 -0.0093 -0.0369 -0.4387
 4809TIP3    H135842   2.060   4.520   0.782  0.8309  0.2606  0.0728
 4809TIP3    H235843   2.170   4.528   0.678 -0.9215 -0.2205 -1.8926
 4810TIP3   OH235844   4.386   0.112  12.801 -0.2369  0.5837  0.1203
 4810TIP3    H135845   4.312   0.055  12.824  0.4798 -0.2281  0.4636
 4810TIP3    H235846   4.456   0.051  12.777  0.7205  1.3062  1.0130
 4811TIP3   OH235847   1.708   1.405   4.593 -0.3057  0.5380  0.1935
 4811TIP3    H135848   1.799   1.405   4.624 -0.3976  4.0455  0.9189
 4811TIP3    H235849   1.661   1.349   4.654  1.4982 -2.3868 -0.9346
 4812TIP3   OH235850   0.016   1.933  14.257 -0.0847  0.1743 -0.0072
 4812TIP3    H135851  -0.012   1.982  14.180 -0.1739  0.4393  0.1943
 4812TIP3    H235852   0.089   1.983  14.292  0.1082 -0.0712 -0.0516
 4813TIP3   OH235853   5.157   5.837  12.184 -0.3291  0.1762  0.4067
 4813TIP3    H135854   5.221   5.878  12.242  0.8675  2.3137 -2.2060
 4813TIP3    H235855   5.116   5.910  12.138 -2.7596 -1.3093  0.0483
 4814TIP3   OH235856   4.464   6.610   2.434 -0.5748 -0.3058 -0.7305
 4814TIP3    H135857   4.537   6.578   2.380  1.1997  2.1728  0.0015
 4814TIP3    H235858   4.430   6.685   2.385 -0.7723  0.2596  0.2598
 4815TIP3   OH235859   6.556   0.803  11.821 -0.2326 -0.2035  0.0300
 4815TIP3    H135860   6.650   0.821  11.825 -0.7423  2.9336  1.7994
 4815TIP3    H235861   6.527   0.844  11.739 -0.3174  0.7548  0.5210
 4816TIP3   OH235862   6.625   3.982  16.885 -0.0303  0.0048  0.0666
 4816TIP3    H135863   6.575   3.902  16.871 -0.6683  0.6863 -1.8692
 4816TIP3    H235864   6.563   4.041  16.929 -0.1764  0.0705 -0.2253
 4817TIP3   OH235865   1.449   0.787   6.607  0.6619 -1.0483 -0.0439
 4817TIP3    H135866   1.409   0.875   6.603  0.4173 -1.2083 -2.3920
 4817TIP3    H235867   1.528   0.794   6.553  0.6669 -2.2476 -0.2117
 4818TIP3   OH235868   6.147   4.493   6.139 -0.3490 -0.2638  0.0486
 4818TIP3    H135869   6.175   4.409   6.175  0.0252 -1.3646 -2.5673
 4818TIP3    H235870   6.210   4.556   6.172  0.2219 -1.2597  0.9216
 4819TIP3   OH235871   2.323   1.562   2.449 -0.1033 -0.6609  0.6855
 4819TIP3    H135872   2.350   1.482   2.494 -0.1873 -0.8273  0.4417
 4819TIP3    H235873   2.395   1.623   2.463  0.2602 -0.9947  0.3168
 4820TIP3   OH235874   2.969   2.253  16.439 -0.1358  0.5414  0.0727
 4820TIP3    H135875   2.905   2.208  16.385  0.7319  1.7914 -2.1522
 4820TIP3    H235876   2.956   2.218  16.527 -2.6861 -0.4614 -0.6216
 4821TIP3   OH235877   4.647   4.866   0.623  0.4145 -0.6988 -0.3552
 4821TIP3    H135878   4.680   4.956   0.633 -1.9973  0.0213  2.3565
 4821TIP3    H235879   4.701   4.815   0.684 -0.3257 -0.4203  0.5565
 4822TIP3   OH235880   2.641   0.281   5.475  0.2683  0.2940 -0.5743
 4822TIP3    H135881   2.659   0.207   5.533  2.6443  1.1963 -0.0409
 4822TIP3    H235882   2.657   0.247   5.387  0.7759  0.0074 -0.3762
 4823TIP3   OH235883   1.384   5.402  11.236  0.5435  0.2154 -0.0354
 4823TIP3    H135884   1.470   5.419  11.274  0.6964 -0.8315  0.1286
 4823TIP3    H235885   1.357   5.485  11.197  1.4485  0.6567  0.2699
 4824TIP3   OH235886   1.744   3.195   1.247  0.5093 -0.3337  0.6125
 4824TIP3    H135887   1.685   3.239   1.308  0.6108 -0.2056  0.6176
 4824TIP3    H235888   1.717   3.103   1.250  0.4855 -0.3206  0.8161
 4825TIP3   OH235889   2.909   3.384  17.128  0.1397  0.2741 -0.0262
 4825TIP3    H135890   2.875   3.393  17.039 -0.6551 -1.4280  0.0599
 4825TIP3    H235891   2.846   3.430  17.183 -0.6362 -0.6584 -0.1252
 4826TIP3   OH235892   3.402   2.561  12.939  0.0646  0.0333  0.1497
 4826TIP3    H135893   3.362   2.487  12.985  1.7558 -1.9110 -1.3019
 4826TIP3    H235894   3.345   2.574  12.863  0.1638 -0.2816  0.0192
 4827TIP3   OH235895   4.553   3.309  15.828 -0.2261  0.0972  0.3796
 4827TIP3    H135896   4.585   3.233  15.877 -0.0301 -0.8302 -1.1008
 4827TIP3    H235897   4.528   3.372  15.895 -0.0883 -1.1477  1.6639
 4828TIP3   OH235898   3.138   3.615  12.274  0.1446 -0.3737  0.0854
 4828TIP3    H135899   3.045   3.635  12.261  0.3865  1.3017  0.5986
 4828TIP3    H235900   3.160   3.556  12.202 -1.2497 -0.5967 -0.1924
 4829TIP3   OH235901   5.405   1.299  13.933 -0.0689 -0.5128 -0.0357
 4829TIP3    H135902   5.365   1.223  13.974 -1.8808 -0.6379 -1.8552
 4829TIP3    H235903   5.411   1.276  13.840  1.8093  0.5682 -0.2448
 4830TIP3   OH235904   4.035   1.810  14.613 -0.0727  0.0433 -0.2171
 4830TIP3    H135905   4.012   1.719  14.627 -0.5440  0.3405  1.0634
 4830TIP3    H235906   3.951   1.857  14.618  0.3725  0.7468  1.0860
 4831TIP3   OH235907   0.401   6.115   6.820 -0.0569  0.2798  0.0268
 4831TIP3    H135908   0.317   6.080   6.792 -1.1731  0.8221  2.4310
 4831TIP3    H235909   0.413   6.194   6.768  0.2773 -1.1197 -2.1494
 4832TIP3   OH235910   6.315   5.878  14.483 -0.5738 -0.2276  0.2955
 4832TIP3    H135911   6.372   5.811  14.445 -0.2927  0.1355  0.0664
 4832TIP3    H235912   6.332   5.874  14.577  1.1198  1.0244  0.0962
 4833TIP3   OH235913   2.730   4.072  13.432  0.6737 -0.0071 -0.0965
 4833TIP3    H135914   2.743   3.977  13.427  0.5488  0.0050 -0.6577
 4833TIP3    H235915   2.771   4.106  13.353 -1.7984  0.1385 -1.4001
 4834TIP3   OH235916   5.850   6.298  16.791  0.4548 -0.1581 -0.2395
 4834TIP3    H135917   5.777   6.235  16.785  0.5585 -0.2902 -0.1294
 4834TIP3    H235918   5.817   6.366  16.850  1.1443 -1.2397  1.4947
 4835TIP3   OH235919   4.730   0.318   0.184 -0.0851  0.0958 -0.0334
 4835TIP3    H135920   4.699   0.368   0.109  0.0983  1.3639  0.7065
 4835TIP3    H235921   4.754   0.384   0.249  0.6005 -0.9456  0.8141
 4836TIP3   OH235922   1.008   4.217  12.519  0.0880 -0.1632  0.0233
 4836TIP3    H135923   1.081   4.217  12.456 -0.7488 -0.6561 -0.9779
 4836TIP3    H235924   0.980   4.126  12.523 -0.1265 -0.0711  0.8320
 4837TIP3   OH235925   3.529   1.724  13.058  0.1336  0.1614 -0.1004
 4837TIP3    H135926   3.604   1.783  13.054  0.2378  0.1652  1.5302
 4837TIP3    H235927   3.566   1.636  13.056  0.3390  0.1440  2.2505
 4838TIP3   OH235928   5.578   5.901   2.596  0.2820 -0.0588 -0.3083
 4838TIP3    H135929   5.504   5.922   2.539  0.6553  0.1262 -0.7357
 4838TIP3    H235930   5.581   5.805   2.598  1.4226 -0.1116 -2.1719
 4839TIP3   OH235931   2.600   0.406   2.888  0.0287  0.1850 -0.0853
 4839TIP3    H135932   2.663   0.365   2.948 -0.1232 -0.6775 -0.4972
 4839TIP3    H235933   2.541   0.455   2.946  1.5483  1.7281  0.2545
 4840TIP3   OH235934   6.705   2.847   3.045 -0.0257  0.7359  0.0644
 4840TIP3    H135935   6.717   2.864   3.138  0.8152  4.5717 -0.5554
 4840TIP3    H235936   6.622   2.891   3.024 -2.3481 -3.4206 -0.4336
 4841TIP3   OH235937   1.342   6.723  10.368 -0.1580 -0.5327 -0.0915
 4841TIP3    H135938   1.370   6.636  10.341 -0.1091 -0.4968 -0.1576
 4841TIP3    H235939   1.423   6.774  10.374 -0.2630 -0.2392 -0.9647
 4842TIP3   OH235940   6.034   6.431   2.115 -1.1159 -0.1463  0.3314
 4842TIP3    H135941   6.069   6.503   2.167 -2.0122  1.1104 -0.7368
 4842TIP3    H235942   5.951   6.408   2.158 -0.0930 -1.6953  1.6180
 4843TIP3   OH235943   5.657   4.895  13.630 -0.4531 -0.0162  0.2316
 4843TIP3    H135944   5.700   4.864  13.710 -1.4290  0.0337  0.7924
 4843TIP3    H235945   5.576   4.845  13.626 -0.3195 -0.1738 -0.8549
 4844TIP3   OH235946   2.113   1.181   3.378  0.2592  0.1050 -0.0012
 4844TIP3    H135947   2.033   1.138   3.409  0.1412  0.0365 -0.3875
 4844TIP3    H235948   2.133   1.246   3.444 -0.8258  0.9867 -0.5027
 4845TIP3   OH235949   0.054   2.068   0.702  0.3341  0.1213  0.3753
 4845TIP3    H135950  -0.039   2.068   0.678  0.4873  2.0396 -0.4111
 4845TIP3    H235951   0.065   1.990   0.756 -1.6599 -0.3211  0.2179
 4846TIP3   OH235952   2.216   5.211   2.770  0.3921 -0.0265  0.8205
 4846TIP3    H135953   2.306   5.177   2.763  0.7425  1.0351 -0.0263
 4846TIP3    H235954   2.228   5.304   2.787 -0.5471  0.4209 -0.8209
 4847TIP3   OH235955   4.995   0.368  17.087 -0.0319 -0.1261 -0.4832
 4847TIP3    H135956   5.074   0.343  17.039  1.4182 -2.3368  2.6758
 4847TIP3    H235957   4.931   0.301  17.063 -0.3598  0.5324 -1.5360
 4848TIP3   OH235958   6.522   0.151  13.895  0.0402 -0.1556  0.8510
 4848TIP3    H135959   6.449   0.200  13.857  0.1587 -0.3710  0.3349
 4848TIP3    H235960   6.509   0.158  13.990  0.8877  2.1386  0.8749
 4849TIP3   OH235961   4.855   6.549  13.849  0.1261  0.0505  0.1251
 4849TIP3    H135962   4.889   6.511  13.767  0.3005  1.5181 -0.5285
 4849TIP3    H235963   4.932   6.555  13.905  0.1231 -0.4238  0.1841
 4850TIP3   OH235964   5.400   5.827   3.739  0.3379  0.0693  0.1822
 4850TIP3    H135965   5.320   5.793   3.777 -0.5225  2.0793  0.2856
 4850TIP3    H235966   5.444   5.873   3.812  0.9721  0.0209 -0.1592
 4851TIP3   OH235967   4.301   3.010  11.787  0.0448  0.6088  0.9570
 4851TIP3    H135968   4.251   2.947  11.840  1.6710 -0.8439  0.8603
 4851TIP3    H235969   4.336   2.958  11.715 -0.2024  2.0832 -0.2655
 4852TIP3   OH235970   5.825   0.736   6.846  0.4074  0.4222 -0.3033
 4852TIP3    H135971   5.771   0.703   6.773  1.6867  0.0697 -1.1202
 4852TIP3    H235972   5.911   0.697   6.831  1.0453  1.4381  0.6485
 4853TIP3   OH235973   5.964   3.360   5.199  0.1500  0.2030  0.0814
 4853TIP3    H135974   6.055   3.338   5.221  0.6220  0.6822 -1.3221
 4853TIP3    H235975   5.954   3.451   5.228  0.9701  1.0512 -2.1342
 4854TIP3   OH235976   5.593   0.629   4.272  0.1145  0.2547 -0.3057
 4854TIP3    H135977   5.582   0.701   4.334 -1.0311  1.1277 -1.4756
 4854TIP3    H235978   5.649   0.664   4.203  0.3312 -0.2869 -0.4146
 4855TIP3   OH235979   5.611   3.053   2.489 -0.0413  0.0857 -0.3172
 4855TIP3    H135980   5.550   3.121   2.518 -0.9468 -0.9846  0.3901
 4855TIP3    H235981   5.672   3.043   2.563  0.8263  0.9379 -0.8985
 4856TIP3   OH235982   1.883   2.872   4.211  0.3455 -0.0450  0.7011
 4856TIP3    H135983   1.843   2.829   4.136  0.5307  0.7550  0.1283
 4856TIP3    H235984   1.809   2.913   4.257  0.3758  0.6057  0.1891
 4857TIP3   OH235985   2.640   4.355  13.020 -0.3066  0.1713  0.0804
 4857TIP3    H135986   2.571   4.416  13.045  0.0743  1.2490 -1.3499
 4857TIP3    H235987   2.596   4.271  13.010 -1.1480  0.5555  0.4931
 4858TIP3   OH235988   0.854   3.820  17.195 -0.0029 -0.3362  0.6260
 4858TIP3    H135989   0.773   3.840  17.242 -0.8454  0.6230 -1.1043
 4858TIP3    H235990   0.905   3.901  17.200 -0.7633  0.3451 -1.2533
 4859TIP3   OH235991   2.593   0.049  11.065 -0.6721 -0.4143 -0.5146
 4859TIP3    H135992   2.547   0.117  11.016 -1.3036  1.7579  2.7890
 4859TIP3    H235993   2.653   0.096  11.122 -0.5157 -2.6700  1.3504
 4860TIP3   OH235994   2.802   3.079  14.917  0.0698 -0.7381 -0.2834
 4860TIP3    H135995   2.734   3.015  14.939  0.0958 -0.1971  1.5276
 4860TIP3    H235996   2.763   3.164  14.938  1.2132 -0.4059  0.6184
 4861TIP3   OH235997   1.917   4.454   5.475  0.7503  0.4370 -0.1214
 4861TIP3    H135998   1.901   4.385   5.410 -0.4406 -0.1618  0.7658
 4861TIP3    H235999   1.977   4.515   5.432  1.8676 -1.1707 -0.9090
 4862TIP3   OH236000   3.003   5.789  13.563  0.5475  0.0713 -0.1936
 4862TIP3    H136001   3.061   5.858  13.531 -0.1162  0.0840 -1.4571
 4862TIP3    H236002   3.034   5.710  13.519  0.5375 -0.1970  0.2849
 4863TIP3   OH236003   0.484   1.724   2.312  0.4452  0.0730 -0.1814
 4863TIP3    H136004   0.540   1.646   2.316  0.6727  0.2902  0.9914
 4863TIP3    H236005   0.533   1.792   2.358  0.1434  0.8659 -0.9811
 4864TIP3   OH236006   1.892   2.128   2.089 -1.0921 -0.2096  0.0007
 4864TIP3    H136007   1.964   2.139   2.026 -1.6440  1.6788 -0.3810
 4864TIP3    H236008   1.890   2.211   2.137 -0.7977 -1.5490  2.4493
 4865TIP3   OH236009   0.497   4.560  11.524 -0.2178 -0.2876 -0.2024
 4865TIP3    H136010   0.456   4.569  11.610  1.1576  0.9254  0.3668
 4865TIP3    H236011   0.526   4.469  11.520 -0.2719 -0.3425  0.6212
 4866TIP3   OH236012   5.057   3.063  16.699  0.0413  0.3697  0.5337
 4866TIP3    H136013   4.984   3.046  16.640  0.2721 -0.7383  0.5511
 4866TIP3    H236014   5.135   3.055  16.645  0.2887 -1.2613  1.0805
 4867TIP3   OH236015   4.742   4.456   3.186  0.0836  0.0172  0.0156
 4867TIP3    H136016   4.787   4.373   3.203 -0.6816 -0.3698  0.2350
 4867TIP3    H236017   4.766   4.512   3.259 -2.7888 -1.4643  2.2982
 4868TIP3   OH236018   5.870   6.375  12.910  0.5534  0.0221  0.0866
 4868TIP3    H136019   5.776   6.368  12.897  0.6989  0.6130 -1.4698
 4868TIP3    H236020   5.879   6.406  13.001 -0.8163  1.2380 -0.1505
 4869TIP3   OH236021   0.917   0.885   2.293  0.2767 -0.4058 -0.2525
 4869TIP3    H136022   0.962   0.968   2.308 -1.2717  0.3093  0.8510
 4869TIP3    H236023   0.851   0.906   2.227  0.4338 -0.9801 -0.5911
 4870TIP3   OH236024   0.028   5.795   3.603 -0.2746  0.0720  0.7507
 4870TIP3    H136025   0.110   5.769   3.560 -0.7089  0.5443 -0.4178
 4870TIP3    H236026   0.016   5.887   3.577 -1.2418 -0.0382  0.7794
 4871TIP3   OH236027   5.836   4.976  16.036 -0.4970 -0.0230 -0.2418
 4871TIP3    H136028   5.894   4.908  16.001  1.2575  0.6865  1.1032
 4871TIP3    H236029   5.808   5.026  15.960 -0.2819 -1.0971 -1.0489
 4872TIP3   OH236030   6.485   4.266   6.045 -0.3273 -0.1122  0.7047
 4872TIP3    H136031   6.535   4.322   6.105  1.9573 -1.0607 -0.1950
 4872TIP3    H236032   6.437   4.328   5.990 -0.8303  0.8236  2.1597
 4873TIP3   OH236033   5.132   5.032  15.690  0.0334  0.4469 -0.0307
 4873TIP3    H136034   5.046   4.991  15.680 -0.3472  1.1502  0.3125
 4873TIP3    H236035   5.174   5.018  15.605  0.3413 -1.5738  0.3910
 4874TIP3   OH236036   4.571   6.595  14.877  0.4103  0.5922  0.0456
 4874TIP3    H136037   4.639   6.663  14.876  2.0022 -0.9134  1.0007
 4874TIP3    H236038   4.553   6.578  14.784 -0.1797  2.4283 -0.2121
 4875TIP3   OH236039   4.570   5.604  11.162 -0.8224  0.0865 -0.5896
 4875TIP3    H136040   4.633   5.542  11.198  0.0797 -0.4690 -2.9315
 4875TIP3    H236041   4.623   5.673  11.124 -1.7621  1.1104 -0.0997
 4876TIP3   OH236042   0.759   6.152   3.211 -0.5651 -0.3350  0.2046
 4876TIP3    H136043   0.838   6.150   3.155 -1.0064 -1.5308 -0.4328
 4876TIP3    H236044   0.793   6.150   3.300  0.1479 -0.9491 -0.0643
 4877TIP3   OH236045   6.262   0.879  15.084 -0.7982  0.0293 -0.5843
 4877TIP3    H136046   6.230   0.892  14.995 -1.4593  0.2600 -0.3188
 4877TIP3    H236047   6.272   0.967  15.119  0.2397 -0.0404 -0.6990
 4878TIP3   OH236048   1.248   4.678   1.461 -0.0858  0.4258  0.0142
 4878TIP3    H136049   1.267   4.694   1.369  0.4153 -3.9928 -0.8638
 4878TIP3    H236050   1.177   4.739   1.482 -0.7237  1.0862 -3.4860
 4879TIP3   OH236051   0.221   3.463   1.213 -0.6588  0.2374  0.0106
 4879TIP3    H136052   0.248   3.398   1.277  0.4005  0.5769 -0.0706
 4879TIP3    H236053   0.172   3.528   1.264  0.5829  0.7525  0.5863
 4880TIP3   OH236054   2.288   2.270   3.944  0.3360 -0.4804  0.4189
 4880TIP3    H136055   2.353   2.246   3.877 -1.6417  0.3464 -1.9353
 4880TIP3    H236056   2.245   2.187   3.966  0.3393 -0.6192 -0.0760
 4881TIP3   OH236057   5.108   0.569  15.872  0.3800  0.8812 -0.4624
 4881TIP3    H136058   5.159   0.494  15.902 -1.6447 -0.7852 -0.9450
 4881TIP3    H236059   5.098   0.556  15.778  0.4117  2.0597 -0.6501
 4882TIP3   OH236060   3.417   2.001  12.411 -0.0454 -0.2179 -0.1895
 4882TIP3    H136061   3.351   2.053  12.364 -0.0671 -1.0149 -1.0768
 4882TIP3    H236062   3.424   1.920  12.360 -0.2720 -1.2488  1.3596
 4883TIP3   OH236063   3.279   2.604   3.706 -0.2826  0.1686 -1.0388
 4883TIP3    H136064   3.368   2.629   3.683 -0.6926  0.8331 -2.0215
 4883TIP3    H236065   3.234   2.598   3.621 -1.6796  1.8992 -0.4836
 4884TIP3   OH236066   1.031   0.423   5.639 -0.3167 -0.1920 -0.3816
 4884TIP3    H136067   0.969   0.411   5.711 -0.1659 -0.6792 -0.3296
 4884TIP3    H236068   0.983   0.396   5.561 -1.3266  2.6144 -0.8487
 4885TIP3   OH236069   0.085   5.078   2.060 -0.3701  0.5129 -0.2436
 4885TIP3    H136070  -0.006   5.051   2.066 -0.6773  1.6104  0.4950
 4885TIP3    H236071   0.128   5.034   2.133 -0.4009  0.3143 -0.3463
 4886TIP3   OH236072   3.614   4.261  16.141 -0.4956 -0.4763  0.5707
 4886TIP3    H136073   3.555   4.336  16.137  0.1516  0.0141 -3.5932
 4886TIP3    H236074   3.559   4.186  16.120 -0.6589 -0.9104  2.3685
 4887TIP3   OH236075   3.322   6.430  12.583 -0.1610 -0.7467 -0.9978
 4887TIP3    H136076   3.397   6.464  12.632  0.2377 -0.3962 -1.8458
 4887TIP3    H236077   3.272   6.381  12.649  0.3015 -0.1933 -0.2087
 4888TIP3   OH236078   6.739   1.673  16.698 -0.9212 -0.2602 -0.2437
 4888TIP3    H136079   6.674   1.735  16.666 -0.0027  0.9463  0.1283
 4888TIP3    H236080   6.694   1.625  16.768 -1.8942 -0.6016 -1.0813
 4889TIP3   OH236081   5.288   2.680   0.472  0.1701 -0.1826  0.0677
 4889TIP3    H136082   5.223   2.667   0.403 -0.9305 -1.1333  1.2385
 4889TIP3    H236083   5.365   2.714   0.426 -0.3835 -1.1757 -1.6812
 4890TIP3   OH236084   0.094   6.310  11.705 -0.2752 -0.5100 -0.0389
 4890TIP3    H136085   0.134   6.382  11.755  0.0442  0.7803 -2.0337
 4890TIP3    H236086   0.014   6.289  11.754 -0.6878  1.6238  0.3150
 4891TIP3   OH236087   1.334   4.538   2.688 -0.6636  0.1761 -0.2598
 4891TIP3    H136088   1.289   4.590   2.755  0.0729  0.1016  0.3094
 4891TIP3    H236089   1.276   4.540   2.612 -0.6907  1.7605 -0.2274
 4892TIP3   OH236090   3.334   3.719  15.521 -0.7198 -0.2688  0.7236
 4892TIP3    H136091   3.361   3.723  15.429 -1.9074 -0.4545  0.3469
 4892TIP3    H236092   3.382   3.644  15.556  0.8642  0.6772  0.6614
 4893TIP3   OH236093   5.077   3.264  14.354 -0.2998  0.5003 -0.9015
 4893TIP3    H136094   4.991   3.297  14.381 -0.6117 -0.1431 -1.1035
 4893TIP3    H236095   5.072   3.258  14.259  0.6160  2.2320 -1.1059
 4894TIP3   OH236096   2.247   1.172   0.064 -0.1695 -0.1086  0.1925
 4894TIP3    H136097   2.261   1.203   0.154 -0.2174  0.1401  0.1147
 4894TIP3    H236098   2.230   1.252   0.014 -0.9656 -0.3140  0.1218
 4895TIP3   OH236099   3.541   1.284   2.157  0.1202  0.0893 -0.1869
 4895TIP3    H136100   3.591   1.228   2.098  0.3782  0.2059 -0.0777
 4895TIP3    H236101   3.499   1.224   2.218  0.5603  0.0270  0.0571
 4896TIP3   OH236102   5.220   6.136  12.533  0.4509 -0.0826  0.1741
 4896TIP3    H136103   5.131   6.165  12.512  1.4093  1.4036 -2.3299
 4896TIP3    H236104   5.254   6.202  12.593  0.5453  0.5735 -0.5830
 4897TIP3   OH236105   1.360   0.191   2.876  0.3930 -0.0843 -0.0050
 4897TIP3    H136106   1.319   0.263   2.924  1.4433  0.1669  0.5683
 4897TIP3    H236107   1.374   0.123   2.942  0.0214 -0.5562 -0.4003
 4898TIP3   OH236108   6.284   0.146   5.846 -0.2420 -0.1245  0.0230
 4898TIP3    H136109   6.317   0.178   5.763 -0.3755  0.4692  0.1897
 4898TIP3    H236110   6.328   0.062   5.860  1.0129  0.5359  0.1336
 4899TIP3   OH236111   4.494   4.878   4.766 -0.1237 -0.2057 -0.0770
 4899TIP3    H136112   4.579   4.863   4.809  0.5369 -1.7247 -1.7812
 4899TIP3    H236113   4.429   4.860   4.834  0.8501  1.9237  1.5558
 4900TIP3   OH236114   4.957   2.977  14.143  0.2884  0.2732 -0.4384
 4900TIP3    H136115   5.003   3.048  14.097 -1.5507  2.6049  1.1159
 4900TIP3    H236116   5.005   2.966  14.225  0.9914 -0.8507 -0.9744
 4901TIP3   OH236117   2.561   5.966   0.497  0.5439  0.2806  0.2254
 4901TIP3    H136118   2.565   5.902   0.568  1.4018  0.3535  0.2620
 4901TIP3    H236119   2.646   5.957   0.453  0.0862  0.3472 -0.6944
 4902TIP3   OH236120   1.335   6.689   6.540 -0.4243  0.1050  0.3994
 4902TIP3    H136121   1.336   6.782   6.561  1.5513  0.8696 -2.5615
 4902TIP3    H236122   1.374   6.647   6.617 -2.0570  1.5605  2.1080
 4903TIP3   OH236123   1.415   5.954  12.653  0.1959  0.3256 -0.0350
 4903TIP3    H136124   1.397   5.918  12.566  0.8038  1.1131 -0.4958
 4903TIP3    H236125   1.407   6.049  12.641  0.5205  0.4483  0.7107
 4904TIP3   OH236126   4.452   2.536  12.713 -0.3807 -0.1810  0.8099
 4904TIP3    H136127   4.489   2.518  12.626  0.4570 -0.3786  1.1948
 4904TIP3    H236128   4.360   2.555  12.696 -0.1707  0.0496 -0.1513
 4905TIP3   OH236129   0.573   4.420   4.860 -0.5803 -0.5319  0.7278
 4905TIP3    H136130   0.549   4.328   4.856 -0.3075 -0.5671 -0.6455
 4905TIP3    H236131   0.490   4.467   4.852 -0.6174 -0.6586  0.3672
 4906TIP3   OH236132   5.976   6.533   1.351 -0.3117  0.4938  0.0429
 4906TIP3    H136133   5.915   6.504   1.419 -0.5143 -0.5557 -0.5625
 4906TIP3    H236134   5.976   6.462   1.287  4.1622 -1.2740  1.5994
 4907TIP3   OH236135   6.341   4.965   1.884  0.1559  0.3547  0.0524
 4907TIP3    H136136   6.365   5.050   1.922 -0.1764  0.4079  0.1466
 4907TIP3    H236137   6.321   4.985   1.793 -1.0707  0.5917  0.3495
 4908TIP3   OH236138   2.059   3.755   6.424 -0.1187 -0.0430  0.0997
 4908TIP3    H136139   2.009   3.835   6.443 -1.9242 -0.9855 -0.4552
 4908TIP3    H236140   2.045   3.699   6.501 -0.7553 -0.7123 -0.5012
 4909TIP3   OH236141   1.252   1.038   0.325 -0.1947 -0.6243 -0.2352
 4909TIP3    H136142   1.183   0.973   0.318 -1.2544  0.4825 -0.4549
 4909TIP3    H236143   1.261   1.054   0.419  0.9102 -1.9040 -0.0820
 4910TIP3   OH236144   1.047   1.165  11.411 -0.0561  0.4096  0.3527
 4910TIP3    H136145   1.115   1.132  11.353  0.1995 -0.4753  1.1321
 4910TIP3    H236146   1.036   1.257  11.385  0.9672  0.3890 -0.2163
 4911TIP3   OH236147   3.907   3.315   3.309 -0.4071 -0.3891 -0.2518
 4911TIP3    H136148   3.895   3.394   3.362 -0.5409  0.9227 -2.1592
 4911TIP3    H236149   3.838   3.320   3.243  1.2119 -0.6940 -2.0400
 4912TIP3   OH236150   4.303   5.579   5.180  0.0554 -0.4019  0.4695
 4912TIP3    H136151   4.367   5.517   5.144  0.0650  0.8593 -1.8503
 4912TIP3    H236152   4.227   5.525   5.201  0.4256 -1.3460 -0.5394
 4913TIP3   OH236153   0.250   6.415   1.347  0.2303  0.2659 -0.3287
 4913TIP3    H136154   0.205   6.409   1.263  0.2229 -2.5901 -0.2255
 4913TIP3    H236155   0.186   6.382   1.410  0.7589  0.9305  0.5663
 4914TIP3   OH236156   3.337   2.612   5.168  0.0328  0.0049 -0.4898
 4914TIP3    H136157   3.385   2.676   5.221 -1.2050  0.8747 -0.3726
 4914TIP3    H236158   3.316   2.660   5.087 -3.1866  0.7110  0.6352
 4915TIP3   OH236159   4.064   6.036   4.980  0.1401  0.0638  0.0685
 4915TIP3    H136160   4.125   5.971   5.014 -0.2640 -0.7123 -0.6427
 4915TIP3    H236161   4.087   6.117   5.025 -0.1953 -0.8407  2.0050
 4916TIP3   OH236162   5.604   1.279   0.622  0.4134  0.5225  0.4648
 4916TIP3    H136163   5.593   1.353   0.562  1.6448  0.5429  0.2249
 4916TIP3    H236164   5.527   1.281   0.677 -0.1357  1.2823 -0.3002
 4917TIP3   OH236165   0.706   6.683   5.486  0.4822  0.0783  0.5179
 4917TIP3    H136166   0.796   6.699   5.515  0.3774  2.3977 -0.3071
 4917TIP3    H236167   0.652   6.716   5.558  0.2823  2.2249 -0.5540
 4918TIP3   OH236168   3.919   0.211  16.597 -0.5754 -0.2598  0.3234
 4918TIP3    H136169   3.914   0.306  16.582  0.4581 -0.2174  0.2146
 4918TIP3    H236170   3.936   0.174  16.511  0.4261 -0.4190  0.5758
 4919TIP3   OH236171   1.630   2.906   5.453 -0.4929 -0.2045 -0.3045
 4919TIP3    H136172   1.635   2.910   5.357 -0.4521  1.9108 -0.2494
 4919TIP3    H236173   1.543   2.941   5.473 -0.0798  0.3757  0.4850
 4920TIP3   OH236174   5.379   1.074  11.847  0.3658 -0.5662  0.2713
 4920TIP3    H136175   5.450   1.062  11.909  1.0539 -1.6241 -0.6763
 4920TIP3    H236176   5.406   1.146  11.791  0.3517 -0.4925  0.3590
 4921TIP3   OH236177   6.271   1.664   1.517 -0.4580 -0.1011 -0.2917
 4921TIP3    H136178   6.366   1.655   1.527 -0.5663 -2.8574 -1.0564
 4921TIP3    H236179   6.243   1.581   1.478 -2.9988  1.2425 -1.5632
 4922TIP3   OH236180   0.026   2.264   4.815  0.0583 -0.0104 -0.3207
 4922TIP3    H136181  -0.045   2.306   4.767  0.7894 -0.3741 -1.7919
 4922TIP3    H236182  -0.010   2.182   4.846 -0.8990  0.9384  1.1629
 4923TIP3   OH236183   5.311   4.610   4.128  0.2476 -0.5503 -0.4501
 4923TIP3    H136184   5.231   4.653   4.158  0.7068 -1.7363  2.7684
 4923TIP3    H236185   5.373   4.681   4.116 -0.1324  0.0654  1.0227
 4924TIP3   OH236186   0.119   4.888   3.822  0.1812 -0.0224  0.6846
 4924TIP3    H136187   0.172   4.881   3.743 -0.1178  2.5374  0.1499
 4924TIP3    H236188   0.137   4.976   3.855 -1.6625 -0.0761  2.0155
 4925TIP3   OH236189   0.859   4.423  17.105 -0.5497  0.1469  0.3765
 4925TIP3    H136190   0.877   4.457  17.017 -1.3858 -1.5957 -0.5260
 4925TIP3    H236191   0.945   4.401  17.141 -0.3225 -1.9099 -1.2407
 4926TIP3   OH236192   5.977   0.100   5.274  0.1064  0.4782  0.3463
 4926TIP3    H136193   5.995   0.121   5.182 -0.3373  1.6378  0.5198
 4926TIP3    H236194   6.064   0.098   5.315  0.2592  0.5406  0.0320
 4927TIP3   OH236195   4.893   1.626  11.036 -0.5792 -0.5251  0.0909
 4927TIP3    H136196   4.898   1.539  11.076 -1.9880  0.1334  1.8621
 4927TIP3    H236197   4.800   1.644  11.029 -0.3126  1.1092  0.3991
 4928TIP3   OH236198   4.910   3.213  11.023  0.3513  0.5300  0.1812
 4928TIP3    H136199   4.886   3.243  10.935 -0.1977  0.8710  0.4439
 4928TIP3    H236200   4.958   3.286  11.061  0.9480  0.2304  0.0285
 4929TIP3   OH236201   3.803   4.545  15.113 -0.3423  0.0452 -0.6900
 4929TIP3    H136202   3.882   4.545  15.059  0.2126  0.8000  0.0846
 4929TIP3    H236203   3.834   4.521  15.200 -1.1729 -0.8436 -0.6262
 4930TIP3   OH236204   2.483   3.451  12.108 -0.0968 -0.3664  0.2198
 4930TIP3    H136205   2.539   3.497  12.045 -0.6131  2.1591  1.4479
 4930TIP3    H236206   2.542   3.390  12.153  0.6649 -0.8854 -1.4191
 4931TIP3   OH236207   2.923   0.376  15.021 -0.1115  0.8273  0.8432
 4931TIP3    H136208   3.008   0.395  14.980 -0.3360 -1.6441 -1.0085
 4931TIP3    H236209   2.906   0.452  15.077  1.2410  3.5460 -2.0833
 4932TIP3   OH236210   1.076   5.207  13.645  0.1281 -0.2069 -0.4550
 4932TIP3    H136211   1.074   5.177  13.554  2.6150  2.7571 -1.6829
 4932TIP3    H236212   1.031   5.291  13.643  0.4846  0.0434  1.0096
 4933TIP3   OH236213   5.508   5.172   3.946  0.9034  0.0464 -0.2032
 4933TIP3    H136214   5.487   5.265   3.951 -1.6024 -0.4256 -0.5108
 4933TIP3    H236215   5.546   5.151   4.031 -0.6194  0.9161  0.7361
 4934TIP3   OH236216   2.999   6.595   2.970  0.4209 -0.1849  0.2258
 4934TIP3    H136217   2.991   6.680   3.012  1.2486 -0.4215  0.8817
 4934TIP3    H236218   3.046   6.540   3.033  1.5732 -0.5896 -0.9165
 4935TIP3   OH236219   1.771   5.517   2.543  0.2312  0.3015 -0.6023
 4935TIP3    H136220   1.814   5.463   2.476 -0.0639 -1.8030  0.8021
 4935TIP3    H236221   1.685   5.537   2.506 -0.5948 -2.2836 -0.2653
 4936TIP3   OH236222   2.503   0.245  12.637  0.0208 -0.6997  0.9241
 4936TIP3    H136223   2.464   0.301  12.704 -0.1004  0.1134  0.1920
 4936TIP3    H236224   2.589   0.221  12.673 -0.4618 -1.1368  1.8172
 4937TIP3   OH236225   2.207   0.512   2.607 -0.1689 -0.1702  0.2667
 4937TIP3    H136226   2.294   0.504   2.569 -0.7293  0.2631 -1.1697
 4937TIP3    H236227   2.172   0.423   2.605  0.9014 -0.7135  2.6109
 4938TIP3   OH236228   5.803   6.249   5.077 -0.2867 -0.1432 -0.3259
 4938TIP3    H136229   5.858   6.279   5.004 -1.6200 -0.3471 -1.4619
 4938TIP3    H236230   5.724   6.303   5.070  0.1526  0.9320  1.9509
 4939TIP3   OH236231   4.165   1.570  14.831  0.0916 -0.1607  0.0817
 4939TIP3    H136232   4.229   1.600  14.766  0.8780  0.6629  1.1823
 4939TIP3    H236233   4.116   1.648  14.855 -1.2132 -0.7473 -0.5888
 4940TIP3   OH236234   3.097   3.167  13.856 -0.3232  0.2725  0.4881
 4940TIP3    H136235   3.026   3.180  13.793  0.8679  1.7873 -0.6145
 4940TIP3    H236236   3.128   3.256  13.875  1.9943 -0.3950  0.0825
 4941TIP3   OH236237   6.572   0.806   4.496 -0.1666  0.6217 -0.2928
 4941TIP3    H136238   6.615   0.819   4.581 -1.4410 -0.8975  0.6522
 4941TIP3    H236239   6.539   0.893   4.473  1.5296  1.3745 -0.0234
 4942TIP3   OH236240   6.094   1.878   3.177 -0.0423  0.5855  0.3725
 4942TIP3    H136241   6.159   1.847   3.115 -0.0992  0.6893  0.2607
 4942TIP3    H236242   6.123   1.966   3.201  0.7991 -0.0063  1.6361
 4943TIP3   OH236243   6.180   3.164   6.836 -0.0347  0.7285  0.6729
 4943TIP3    H136244   6.142   3.084   6.800 -1.2722  0.3842  2.6021
 4943TIP3    H236245   6.271   3.162   6.806 -0.8345  0.3204 -2.0247
 4944TIP3   OH236246   5.065   0.892   6.111 -0.4047  0.3510  0.0885
 4944TIP3    H136247   4.992   0.946   6.141 -0.1947  0.6402  0.0871
 4944TIP3    H236248   5.025   0.809   6.084 -0.4850 -0.3950  2.2949
 4945TIP3   OH236249   1.840   5.511   0.766  0.2809 -0.2258 -0.3070
 4945TIP3    H136250   1.848   5.522   0.671 -2.7712  1.9028 -0.4565
 4945TIP3    H236251   1.828   5.599   0.800  1.8292 -0.8678  2.2158
 4946TIP3   OH236252   2.520   4.314  16.217  0.0980 -0.3127  0.3240
 4946TIP3    H136253   2.607   4.290  16.182 -0.3613 -0.4331 -0.7917
 4946TIP3    H236254   2.539   4.372  16.291  1.1257  0.0228 -0.1765
 4947TIP3   OH236255   3.646   1.854  14.804 -0.3017  0.0113 -0.3362
 4947TIP3    H136256   3.660   1.764  14.774  0.1605  0.4192 -1.3608
 4947TIP3    H236257   3.700   1.908  14.747 -1.7516  1.0934 -0.7604
 4948TIP3   OH236258   6.270   3.593  15.861  0.0478 -0.2521 -0.2527
 4948TIP3    H136259   6.211   3.544  15.804 -2.4745  0.5607  1.4873
 4948TIP3    H236260   6.264   3.549  15.946  0.4679  0.9756  0.4408
 4949TIP3   OH236261   0.014   1.765   4.428 -0.2255  0.1061  0.1748
 4949TIP3    H136262  -0.004   1.859   4.432 -1.5408 -0.0326 -1.4247
 4949TIP3    H236263   0.060   1.745   4.509 -2.4067  1.6135  1.8619
 4950TIP3   OH236264   1.188   2.580   6.137 -0.5444 -0.1509 -0.9991
 4950TIP3    H136265   1.200   2.485   6.131 -1.3347 -0.3351  0.1858
 4950TIP3    H236266   1.276   2.614   6.149 -0.4259 -0.9157  0.5608
 4951TIP3   OH236267   1.322   1.054  15.183  0.1920 -0.4474 -0.0632
 4951TIP3    H136268   1.280   1.027  15.101  0.5919  0.6314 -0.6388
 4951TIP3    H236269   1.413   1.072  15.159 -0.0286  1.3342  0.2684
 4952TIP3   OH236270   2.698   1.914  14.353 -0.3300 -0.1778  0.1547
 4952TIP3    H136271   2.653   1.904  14.437 -1.9377 -0.6548 -0.7083
 4952TIP3    H236272   2.696   2.008  14.335  0.6263 -0.0004  0.9577
 4953TIP3   OH236273   2.647   4.381   3.155  0.4503 -0.4661  0.0040
 4953TIP3    H136274   2.647   4.309   3.218  0.5811 -0.2770  0.2214
 4953TIP3    H236275   2.580   4.357   3.091 -0.2209 -0.3005  0.6291
 4954TIP3   OH236276   4.711   4.600   3.879 -0.4768 -0.2888  0.0136
 4954TIP3    H136277   4.716   4.685   3.923 -0.2761  0.3328 -1.1647
 4954TIP3    H236278   4.769   4.544   3.930  0.9912  0.8341 -0.3409
 4955TIP3   OH236279   2.319   2.547   5.622  0.2628 -0.0904  0.2163
 4955TIP3    H136280   2.356   2.623   5.666  0.0565 -0.2906  0.7417
 4955TIP3    H236281   2.228   2.544   5.651  0.6292 -1.3512  1.3286
 4956TIP3   OH236282   5.352   0.815  11.705 -0.2387  0.0387  0.6478
 4956TIP3    H136283   5.358   0.898  11.752 -0.5243 -0.6468  1.9461
 4956TIP3    H236284   5.276   0.826  11.648  1.3653  1.6460 -1.2990
 4957TIP3   OH236285   6.688   1.907   2.449  0.2344  0.1273 -0.0230
 4957TIP3    H136286   6.653   1.902   2.360  1.1750 -1.4961 -0.3414
 4957TIP3    H236287   6.770   1.858   2.445 -0.6423 -1.6877  2.1714
 4958TIP3   OH236288   4.771   4.351  13.445 -0.0125 -0.1224 -0.0124
 4958TIP3    H136289   4.861   4.328  13.469  0.2576  1.2567  0.4059
 4958TIP3    H236290   4.756   4.307  13.362  0.3613 -1.9464  0.8220
 4959TIP3   OH236291   1.076   2.799  13.732 -0.2668  0.1127  0.3562
 4959TIP3    H136292   1.164   2.805  13.770 -0.4894  0.4455  0.8264
 4959TIP3    H236293   1.017   2.821  13.804 -0.6856  0.9903 -0.2339
 4960TIP3   OH236294   5.137   1.839  13.595  0.2135 -0.2985 -1.2660
 4960TIP3    H136295   5.223   1.860  13.630  0.6764 -0.4746 -2.2705
 4960TIP3    H236296   5.138   1.744  13.584 -0.1870 -0.3251 -1.1001
 4961TIP3   OH236297   6.702   0.022   5.719  0.1124 -1.2326 -0.0509
 4961TIP3    H136298   6.630   0.002   5.659  0.1595 -0.7334 -0.2799
 4961TIP3    H236299   6.779   0.028   5.663  0.0715 -0.2558 -0.0285
 4962TIP3   OH236300   1.594   2.263  14.745  0.4984  0.0974  0.6411
 4962TIP3    H136301   1.561   2.282  14.657  0.2810 -0.0840  0.6828
 4962TIP3    H236302   1.516   2.243  14.797  0.7045 -0.7836  0.6288
 4963TIP3   OH236303   1.791   0.764  16.676 -0.1783  0.7343 -0.0943
 4963TIP3    H136304   1.798   0.670  16.659 -2.4441  0.2779  1.0786
 4963TIP3    H236305   1.878   0.790  16.708 -0.0209 -1.4042  1.4089
 4964TIP3   OH236306   4.456   0.322  15.368  0.8310 -0.1726  0.0537
 4964TIP3    H136307   4.500   0.264  15.430 -0.5444 -1.5963 -0.2247
 4964TIP3    H236308   4.407   0.383  15.423  1.6364  0.2074  0.3582
 4965TIP3   OH236309   6.530   5.356   1.809 -0.7866  0.3790  0.3608
 4965TIP3    H136310   6.583   5.310   1.743  0.5986  0.6408  1.2394
 4965TIP3    H236311   6.526   5.296   1.883 -1.6222  0.4232  0.3556
 4966TIP3   OH236312   3.596   0.841   4.363 -0.1066 -0.1663 -0.7413
 4966TIP3    H136313   3.644   0.880   4.436 -1.8854  0.7528  0.0170
 4966TIP3    H236314   3.570   0.915   4.309 -1.9730 -0.4395 -0.2781
 4967TIP3   OH236315   2.576   0.224   3.850 -0.3865 -0.2433  0.3183
 4967TIP3    H136316   2.531   0.304   3.823 -0.2057 -0.2608 -0.0413
 4967TIP3    H236317   2.661   0.227   3.805  0.1385 -0.0245  1.2854
 4968TIP3   OH236318   2.986   5.164   1.605  0.3726  0.4814 -0.1552
 4968TIP3    H136319   2.957   5.251   1.633  3.0433  1.3282  0.1857
 4968TIP3    H236320   2.929   5.144   1.530 -0.5911  2.3027  0.0225
 4969TIP3   OH236321   2.864   3.272  10.827 -0.0250 -0.7951  0.1395
 4969TIP3    H136322   2.900   3.215  10.759  1.0478 -0.7021  0.6027
 4969TIP3    H236323   2.801   3.218  10.873 -0.5928 -0.9301 -0.7754
 4970TIP3   OH236324   3.768   2.026  11.612 -0.3356 -0.1543  0.5661
 4970TIP3    H136325   3.768   1.931  11.623  2.5585 -0.5530 -1.6851
 4970TIP3    H236326   3.695   2.044  11.552 -1.4603 -0.7669  1.6963
 4971TIP3   OH236327   2.046   4.647   4.565 -0.3708 -0.6405  0.2383
 4971TIP3    H136328   2.132   4.653   4.523 -0.7457 -0.0437 -0.4781
 4971TIP3    H236329   1.990   4.606   4.499 -1.5782  2.5309 -0.9205
 4972TIP3   OH236330   0.917   5.539   5.823 -0.1298  0.4471 -0.1766
 4972TIP3    H136331   0.889   5.541   5.914  1.1826  1.2113  0.2338
 4972TIP3    H236332   0.850   5.589   5.776 -1.8787 -1.5606  0.0062
 4973TIP3   OH236333   2.608   4.546  14.423 -0.1938  0.3774  0.1379
 4973TIP3    H136334   2.621   4.640  14.437 -0.1903  0.5561 -0.9716
 4973TIP3    H236335   2.665   4.505  14.488  1.4383  1.1580 -0.7418
 4974TIP3   OH236336   2.562   4.668   2.551 -0.2960 -0.4014  0.3413
 4974TIP3    H136337   2.587   4.606   2.483  0.9423  0.4812 -0.0457
 4974TIP3    H236338   2.478   4.636   2.584 -0.9681 -0.8062 -1.6548
 4975TIP3   OH236339   1.017   2.455  13.724 -0.0744 -0.8305  0.2153
 4975TIP3    H136340   1.063   2.494  13.799  0.2457 -0.0308 -0.3854
 4975TIP3    H236341   1.000   2.365  13.751  0.3777 -0.6642  1.1020
 4976TIP3   OH236342   5.602   5.246  10.919 -0.4506  0.8134 -0.2931
 4976TIP3    H136343   5.561   5.280  10.998 -0.2908  0.9836 -0.2828
 4976TIP3    H236344   5.601   5.320  10.858  0.0471  0.8932 -0.2148
 4977TIP3   OH236345   0.200   1.637  16.403 -0.7259 -0.6865  0.3334
 4977TIP3    H136346   0.129   1.691  16.438 -0.0188  0.2302  0.3784
 4977TIP3    H236347   0.155   1.574  16.346 -1.4843  0.7550 -0.7484
 4978TIP3   OH236348   3.555   2.263  14.712 -0.2933  1.0912  0.0971
 4978TIP3    H136349   3.610   2.340  14.697  0.9083  0.1592 -0.5969
 4978TIP3    H236350   3.606   2.191  14.674 -2.0821  0.1881 -0.7082
 4979TIP3   OH236351   4.850   1.029   0.103 -0.2592 -0.2434  0.4271
 4979TIP3    H136352   4.797   0.978   0.165 -0.2978  0.6252  1.1409
 4979TIP3    H236353   4.908   0.966   0.062  0.4627 -0.6979  2.0927
 4980TIP3   OH236354   5.749   3.408  10.978  0.0886 -0.3627  0.4901
 4980TIP3    H136355   5.828   3.425  10.927  1.6059 -1.0987  2.4506
 4980TIP3    H236356   5.743   3.312  10.982  0.6886 -0.3824  2.5185
 4981TIP3   OH236357   2.579   4.988   1.884 -0.1408 -0.5584  0.2073
 4981TIP3    H136358   2.597   5.015   1.794  2.6255 -1.7162  0.2964
 4981TIP3    H236359   2.484   4.996   1.893 -0.4925 -0.1942 -2.7313
 4982TIP3   OH236360   1.589   4.491   2.771  0.2619 -0.1202 -0.0429
 4982TIP3    H136361   1.497   4.504   2.748  0.0518 -1.2442  0.1358
 4982TIP3    H236362   1.595   4.399   2.796  1.6436 -0.3037 -0.9890
 4983TIP3   OH236363   6.200   2.839  16.126  0.0876  0.3671 -0.3483
 4983TIP3    H136364   6.147   2.908  16.167 -0.8773 -1.3608  1.4571
 4983TIP3    H236365   6.254   2.805  16.197  0.8763 -0.4368 -1.3139
 4984TIP3   OH236366   6.224   6.668  11.271  0.0586  0.4156 -0.3364
 4984TIP3    H136367   6.146   6.725  11.270  1.6219  2.7085 -1.5739
 4984TIP3    H236368   6.296   6.728  11.288  1.8316 -1.2435 -1.6297
 4985TIP3   OH236369   0.571   5.437   2.845 -0.0931 -0.6267  0.1070
 4985TIP3    H136370   0.583   5.403   2.934  0.7641 -2.1388 -0.5324
 4985TIP3    H236371   0.503   5.382   2.807 -0.2259 -0.2002 -0.2830
 4986TIP3   OH236372   5.496   1.995   2.250  0.2015  0.2178 -0.5430
 4986TIP3    H136373   5.532   2.080   2.228 -0.9111  0.4057 -1.7339
 4986TIP3    H236374   5.571   1.936   2.250  0.7576  0.9121 -1.2323
 4987TIP3   OH236375   4.900   6.391   2.183  0.8322 -0.4399 -0.0333
 4987TIP3    H136376   4.961   6.322   2.207  2.2624  0.7522 -0.0308
 4987TIP3    H236377   4.945   6.439   2.113 -0.7445 -0.3627 -1.0612
 4988TIP3   OH236378   0.752   0.852   1.634 -0.1582 -0.3984 -0.2312
 4988TIP3    H136379   0.795   0.881   1.715  0.8255 -1.9283 -0.1569
 4988TIP3    H236380   0.674   0.805   1.663 -0.0096 -0.6166 -0.1823
 4989TIP3   OH236381   1.014   0.528   0.118 -0.0961  0.3057 -0.0784
 4989TIP3    H136382   0.983   0.441   0.144 -2.1357  1.3650  1.3413
 4989TIP3    H236383   1.033   0.520   0.024 -0.1213 -1.6645  0.0359
 4990TIP3   OH236384   0.075   5.519   4.526 -0.0342  0.3764 -0.3645
 4990TIP3    H136385   0.001   5.459   4.515 -0.2888  0.5472  0.3523
 4990TIP3    H236386   0.126   5.483   4.598  0.5526  0.3016 -0.8085
 4991TIP3   OH236387   6.692   6.557  11.335 -0.0535 -0.5145 -0.3537
 4991TIP3    H136388   6.754   6.542  11.263 -0.1287 -0.4747 -0.4262
 4991TIP3    H236389   6.706   6.483  11.394  0.8830  0.0907  0.2102
 4992TIP3   OH236390   3.340   4.980   1.139 -0.2633  0.2140  0.0545
 4992TIP3    H136391   3.289   4.979   1.221 -1.0990  0.5059 -0.4473
 4992TIP3    H236392   3.285   5.028   1.078 -2.1618 -4.3303 -2.2718
 4993TIP3   OH236393   6.480   1.357   6.102  0.2861 -0.3142  0.5998
 4993TIP3    H136394   6.465   1.320   6.189 -0.7407  0.0700  0.5950
 4993TIP3    H236395   6.572   1.383   6.103  0.4386 -0.8397  1.3644
 4994TIP3   OH236396   5.577   1.045   3.546 -0.8304 -0.5315 -0.0562
 4994TIP3    H136397   5.501   1.086   3.504 -1.7793 -2.5519 -0.4232
 4994TIP3    H236398   5.625   1.003   3.475 -0.2172 -0.6025  0.3888
 4995TIP3   OH236399   3.423   4.515   3.039  0.4201 -0.0127 -0.1887
 4995TIP3    H136400   3.420   4.566   2.958  0.3073 -1.2974 -1.0209
 4995TIP3    H236401   3.515   4.494   3.051  0.2272 -1.5673 -1.1470
 4996TIP3   OH236402   1.851   2.402   2.994  0.0769 -0.0989  0.3306
 4996TIP3    H136403   1.805   2.436   2.917  1.6455 -1.7440 -1.4402
 4996TIP3    H236404   1.924   2.352   2.958  0.7056 -1.1945  2.9094
 4997TIP3   OH236405   5.595   2.250   5.156 -0.0395 -0.3506 -0.3131
 4997TIP3    H136406   5.671   2.291   5.196  0.2094 -0.7017 -0.4176
 4997TIP3    H236407   5.622   2.159   5.141  0.6097  0.2006 -3.0621
 4998TIP3   OH236408   4.172   4.433  15.851 -0.1042 -0.3811  0.5906
 4998TIP3    H136409   4.185   4.405  15.942 -0.3424 -0.7989  0.4987
 4998TIP3    H236410   4.258   4.461  15.822 -0.1349  0.2896  1.1243
 4999TIP3   OH236411   2.629   2.778   0.456  0.5937  0.0469  0.5571
 4999TIP3    H136412   2.631   2.693   0.501  1.4955 -0.8402 -1.0726
 4999TIP3    H236413   2.537   2.795   0.439  0.3316 -0.1237  1.7377
 5000TIP3   OH236414   4.059   4.428  16.680  0.1335  0.1511  0.2630
 5000TIP3    H136415   4.055   4.519  16.652 -1.5725 -0.2119 -0.8065
 5000TIP3    H236416   4.092   4.380  16.603  3.6147  0.0907  1.6006
 5001TIP3   OH236417   1.540   2.653  13.760  0.7246  0.0963 -0.7223
 5001TIP3    H136418   1.585   2.732  13.790  1.0901  0.0642 -1.1701
 5001TIP3    H236419   1.590   2.581  13.799 -0.9022  0.0831  1.5251
 5002TIP3   OH236420   5.763   6.141  14.266  0.0687  0.1442 -0.2513
 5002TIP3    H136421   5.681   6.116  14.225 -0.9749 -1.0731  2.3688
 5002TIP3    H236422   5.784   6.068  14.325  2.5067  0.8701 -0.1124
 5003TIP3   OH236423   4.035   3.473  13.386  0.1601  0.5433  0.0072
 5003TIP3    H136424   3.967   3.414  13.416 -0.9354  2.7107  2.1194
 5003TIP3    H236425   4.052   3.531  13.460  0.6577  3.3262 -2.0869
 5004TIP3   OH236426   1.903   0.071  11.269  0.1323 -0.1085 -0.0227
 5004TIP3    H136427   1.852   0.139  11.314  1.1519  0.4218  0.3587
 5004TIP3    H236428   1.856   0.057  11.187 -0.3983  0.6781  0.1300
 5005TIP3   OH236429   4.357   2.036  15.242  0.7131  0.6029  0.0440
 5005TIP3    H136430   4.371   1.941  15.244  1.1071  0.6650  1.8521
 5005TIP3    H236431   4.368   2.060  15.150  1.6105 -0.9617 -0.2902
 5006TIP3   OH236432   5.492   0.653   2.775 -0.2009 -0.6958 -0.1297
 5006TIP3    H136433   5.574   0.629   2.732  0.2038  0.2923  0.0590
 5006TIP3    H236434   5.493   0.604   2.857  0.6667  0.0150  0.3027
 5007TIP3   OH236435   5.520   5.009  14.413  0.1518  0.5471 -0.1891
 5007TIP3    H136436   5.453   4.957  14.369  0.2673  0.2149  0.0251
 5007TIP3    H236437   5.550   4.954  14.485  0.6778  0.6819 -0.3020
 5008TIP3   OH236438   4.960   4.623  16.441  0.3213 -0.4818 -0.9564
 5008TIP3    H136439   4.962   4.711  16.479 -1.0560 -0.3727 -1.0615
 5008TIP3    H236440   4.938   4.638  16.349 -3.5895 -1.0113 -0.2852
 5009TIP3   OH236441   3.252   6.598  15.582 -0.7461 -0.2805  0.3905
 5009TIP3    H136442   3.346   6.603  15.600 -0.7844  1.0292  0.3811
 5009TIP3    H236443   3.245   6.541  15.505 -0.0223 -0.9022  0.7781
 5010TIP3   OH236444   2.607   0.744   0.030 -0.1561  0.2611  0.0566
 5010TIP3    H136445   2.676   0.751  -0.037  1.6448  1.4702  1.8900
 5010TIP3    H236446   2.546   0.814   0.009 -0.4890 -0.3880 -1.2134
 5011TIP3   OH236447   4.806   5.504  11.641 -0.0060 -0.1487  0.3281
 5011TIP3    H136448   4.798   5.409  11.651  1.6985 -0.3314  0.3470
 5011TIP3    H236449   4.866   5.530  11.710 -1.0064  1.0701  0.7657
 5012TIP3   OH236450   3.154   3.160  14.529  0.2740  0.0518  0.5683
 5012TIP3    H136451   3.061   3.175  14.511  0.5996  0.9240 -0.4644
 5012TIP3    H236452   3.163   3.065  14.524 -0.5221 -0.0294  0.4429
 5013TIP3   OH236453   6.166   3.184   6.100 -0.2421  0.5493  0.2414
 5013TIP3    H136454   6.255   3.207   6.128  0.2586 -1.8758  0.9030
 5013TIP3    H236455   6.112   3.256   6.130  1.6885  3.2158 -2.0666
 5014TIP3   OH236456   6.019   3.935   0.828  0.3576  0.2464  0.3366
 5014TIP3    H136457   6.014   3.840   0.824 -0.2355  0.3040 -0.4421
 5014TIP3    H236458   5.939   3.962   0.874  0.5641  0.3700  0.6312
 5015TIP3   OH236459   5.812   3.215  16.061  0.7669 -0.0255 -0.6932
 5015TIP3    H136460   5.776   3.264  16.135  0.4799  0.5633 -1.2086
 5015TIP3    H236461   5.743   3.217  15.995  2.0049  1.8477 -2.0301
 5016TIP3   OH236462   1.665   0.289  11.820  0.0142 -0.0112 -0.8239
 5016TIP3    H136463   1.675   0.232  11.895 -0.4747  0.0608 -0.7023
 5016TIP3    H236464   1.583   0.336  11.836 -0.2564 -0.2249 -1.5518
 5017TIP3   OH236465   3.927   5.318   2.992 -0.1559 -0.4583 -0.3743
 5017TIP3    H136466   3.932   5.223   2.997  2.4824 -0.3336  1.5465
 5017TIP3    H236467   4.003   5.344   2.940 -0.2534  0.6288 -0.0033
 5018TIP3   OH236468   0.454   2.818   1.218 -0.0245 -0.3173 -0.4644
 5018TIP3    H136469   0.465   2.902   1.172 -0.0003 -0.5368 -0.8626
 5018TIP3    H236470   0.442   2.843   1.309  1.2898  0.0733 -0.3749
 5019TIP3   OH236471   6.283   1.451  16.866  0.1223 -0.1668 -0.5089
 5019TIP3    H136472   6.196   1.488  16.851 -0.3086 -0.6967  0.5844
 5019TIP3    H236473   6.284   1.371  16.814 -0.0548 -0.1777 -0.4954
 5020TIP3   OH236474   3.167   1.415   3.280 -0.2946 -0.2429 -0.2621
 5020TIP3    H136475   3.163   1.331   3.235 -2.2982  0.6794 -1.9867
 5020TIP3    H236476   3.179   1.479   3.209  2.2001  0.9229  1.0755
 5021TIP3   OH236477   3.092   2.428   4.820 -0.4400 -0.7065  0.8807
 5021TIP3    H136478   3.150   2.364   4.861 -1.3761 -1.5028  0.9960
 5021TIP3    H236479   3.120   2.431   4.728 -1.5811 -2.7317  0.4099
 5022TIP3   OH236480   5.687   5.060   4.148  0.1620  0.0545  0.4876
 5022TIP3    H136481   5.734   5.009   4.083 -1.1932 -1.1577  0.4228
 5022TIP3    H236482   5.743   5.057   4.226  0.6925 -0.4287  0.0932
 5023TIP3   OH236483   4.135   4.395  12.203  0.4958  0.1460  0.5455
 5023TIP3    H136484   4.089   4.425  12.125  1.4343  0.0699 -0.0514
 5023TIP3    H236485   4.222   4.436  12.197  0.5514  0.2066  1.5880
 5024TIP3   OH236486   1.357   0.066  12.408  0.3219 -0.0514 -0.1196
 5024TIP3    H136487   1.297   0.014  12.461  0.8702 -0.6001 -0.0255
 5024TIP3    H236488   1.352   0.154  12.445 -0.1736 -0.1617  0.0888
 5025TIP3   OH236489   3.918   6.575   1.689 -0.3529  0.0214  0.1368
 5025TIP3    H136490   3.881   6.526   1.763  0.2393 -0.5846  0.0456
 5025TIP3    H236491   3.854   6.563   1.619 -0.5995  0.0523  0.3508
 5026TIP3   OH236492   3.909   3.418   4.073  0.1632 -0.4221 -0.5753
 5026TIP3    H136493   3.831   3.381   4.032 -0.5787  1.0238 -0.5449
 5026TIP3    H236494   3.980   3.361   4.045 -1.1873 -3.3739  1.4940
 5027TIP3   OH236495   2.120   5.884  10.996 -0.6411  0.4850 -0.2260
 5027TIP3    H136496   2.046   5.922  11.042 -1.1105 -0.6420 -0.0257
 5027TIP3    H236497   2.095   5.793  10.980 -0.4266  0.7843 -2.5774
 5028TIP3   OH236498   3.610   2.903   0.883 -0.4322  0.4288 -0.0585
 5028TIP3    H136499   3.517   2.924   0.898 -0.0926  1.0607  1.3831
 5028TIP3    H236500   3.625   2.824   0.934 -0.4352 -0.3431 -1.2282
 5029TIP3   OH236501   2.164   5.752  11.719 -0.1629 -0.2037 -0.1398
 5029TIP3    H136502   2.153   5.818  11.787 -0.8074 -0.4445 -0.0060
 5029TIP3    H236503   2.147   5.798  11.637  2.1052  0.4680 -0.2977
 5030TIP3   OH236504   6.762   6.142   5.458 -0.7078 -0.1601 -0.1331
 5030TIP3    H136505   6.839   6.090   5.434 -0.0571 -0.3318  2.0906
 5030TIP3    H236506   6.775   6.226   5.413  1.1994  0.0722  0.7508
 5031TIP3   OH236507   6.724   3.090  16.631 -0.5374 -0.3682  0.2138
 5031TIP3    H136508   6.800   3.033  16.620 -1.1371 -0.9535 -1.2381
 5031TIP3    H236509   6.650   3.030  16.642 -0.9865  0.1628  0.1601
 5032TIP3   OH236510   1.429   3.295   2.501  0.0316  0.4852  0.6768
 5032TIP3    H136511   1.419   3.222   2.440  0.9951  1.3504 -0.5835
 5032TIP3    H236512   1.520   3.290   2.530 -0.0970  0.7565  1.1379
 5033TIP3   OH236513   0.302   6.160   0.498  0.4194 -0.2281 -0.2396
 5033TIP3    H136514   0.256   6.105   0.434 -0.8217  1.1672 -0.5738
 5033TIP3    H236515   0.372   6.103   0.531 -0.6000 -1.8918 -0.8210
 5034TIP3   OH236516   3.521   1.661   4.119  1.0473 -0.0549  0.9358
 5034TIP3    H136517   3.462   1.672   4.194  0.0396  2.2868 -0.1170
 5034TIP3    H236518   3.464   1.627   4.049  0.6404  2.9393 -0.3141
 5035TIP3   OH236519   2.171   0.285   1.584 -0.0619  0.4299  0.1519
 5035TIP3    H136520   2.202   0.195   1.585 -1.1617  0.0299  1.0629
 5035TIP3    H236521   2.209   0.323   1.505  1.4560 -0.4456  0.4121
 5036TIP3   OH236522   6.053   1.624  11.984 -0.1827  0.3638  0.2951
 5036TIP3    H136523   6.002   1.544  11.971 -1.0418  0.7417  1.2135
 5036TIP3    H236524   6.134   1.596  12.025  0.0707 -0.1648 -0.5366
 5037TIP3   OH236525   1.525   1.603  12.149 -0.1754 -0.3029 -0.3160
 5037TIP3    H136526   1.536   1.678  12.207  0.1207 -2.0824  2.0949
 5037TIP3    H236527   1.431   1.599  12.132 -0.1095  0.9949 -1.0870
 5038TIP3   OH236528   5.755   4.985  15.778 -0.8897  0.1134  0.3791
 5038TIP3    H136529   5.813   4.923  15.734 -1.6848 -1.0697  0.9211
 5038TIP3    H236530   5.758   5.064  15.724  0.5205 -0.2241 -0.0778
 5039TIP3   OH236531   3.932   3.533  12.118  0.0590 -0.1256  0.4875
 5039TIP3    H136532   3.990   3.462  12.143 -0.0939 -0.3407  0.2368
 5039TIP3    H236533   3.851   3.517  12.168 -0.1440 -0.3953  0.0780
 5040TIP3   OH236534   5.323   3.225  13.046  0.2657 -0.0393 -0.6077
 5040TIP3    H136535   5.357   3.186  12.966 -0.3064 -0.3685 -0.6927
 5040TIP3    H236536   5.307   3.316  13.024  0.6362  0.0030 -0.7061
 5041TIP3   OH236537   6.782   1.826  13.167 -0.5061 -0.7379  0.2868
 5041TIP3    H136538   6.865   1.785  13.141 -0.0308  0.0967  0.4422
 5041TIP3    H236539   6.724   1.752  13.185  1.0336 -1.4642  2.9566
 5042TIP3   OH236540   1.555   0.187   2.420  0.3309 -0.0134  0.1037
 5042TIP3    H136541   1.552   0.147   2.507 -1.1087  1.8180  0.9499
 5042TIP3    H236542   1.623   0.254   2.426 -0.2523  0.5896  0.0472
 5043TIP3   OH236543   0.396   1.704   1.103  0.0295  0.2186 -0.4785
 5043TIP3    H136544   0.490   1.696   1.089  0.5157 -0.6372  2.6741
 5043TIP3    H236545   0.362   1.615   1.096 -0.1983  0.2328  0.3039
 5044TIP3   OH236546   0.590   1.783   1.975  0.0689  0.0526  0.0517
 5044TIP3    H136547   0.663   1.845   1.973  1.5646 -1.6131 -0.6203
 5044TIP3    H236548   0.533   1.811   1.903  1.1491  0.1873 -0.7862
 5045TIP3   OH236549   3.173   3.993  14.153  0.7193 -0.3659 -0.0425
 5045TIP3    H136550   3.219   3.972  14.072  0.5942 -1.1438  0.0809
 5045TIP3    H236551   3.105   3.926  14.161 -0.0947  0.4384  0.0578
 5046TIP3   OH236552   6.311   3.148   0.506  0.5542 -0.0156  0.7381
 5046TIP3    H136553   6.335   3.228   0.553  1.1319  0.6057 -0.5613
 5046TIP3    H236554   6.378   3.084   0.532  0.8539  0.3110  0.7711
 5047TIP3   OH236555   1.674   2.597   6.089 -0.1885 -0.0190 -0.4622
 5047TIP3    H136556   1.653   2.602   6.183  1.1379 -1.8646 -0.0015
 5047TIP3    H236557   1.755   2.648   6.081  0.2770 -0.7242 -0.3688
 5048TIP3   OH236558   1.933   5.256   3.178  0.0777 -0.1830 -0.3998
 5048TIP3    H136559   1.892   5.308   3.247  1.9734 -0.3481  0.9236
 5048TIP3    H236560   1.861   5.230   3.122 -1.8463 -1.4676  2.4327
 5049TIP3   OH236561   2.465   0.418   0.744 -0.7433 -0.6702 -0.1549
 5049TIP3    H136562   2.544   0.471   0.744 -2.1020  1.7886  3.5606
 5049TIP3    H236563   2.475   0.359   0.819 -1.2709 -2.4611 -1.4180
 5050TIP3   OH236564   4.629   1.320   4.665 -0.1062 -0.6844 -0.5163
 5050TIP3    H136565   4.591   1.388   4.721  0.0560 -1.3935  0.4729
 5050TIP3    H236566   4.553   1.274   4.629 -0.3255 -2.8640  2.3858
 5051TIP3   OH236567   1.339   0.905  16.396  0.3623 -0.0920  0.2825
 5051TIP3    H136568   1.336   0.909  16.300 -0.1877 -0.9554  0.2589
 5051TIP3    H236569   1.412   0.845  16.415  0.4180  0.0142  0.4103
 5052TIP3   OH236570   0.432   2.152  10.543  0.6427  0.3254 -0.3166
 5052TIP3    H136571   0.496   2.158  10.614  0.5314 -0.5298 -0.1283
 5052TIP3    H236572   0.463   2.079  10.489  0.7874  1.0379 -1.2138
 5053TIP3   OH236573   4.391   4.826  12.269  0.3321  0.0169 -0.4372
 5053TIP3    H136574   4.311   4.869  12.300  0.0816 -1.5391  1.2604
 5053TIP3    H236575   4.454   4.897  12.256 -0.3378  0.9954  1.3804
 5054TIP3   OH236576   5.427   5.022  15.345 -0.2238 -0.5934  0.3648
 5054TIP3    H136577   5.400   5.114  15.340  0.6970 -0.3416 -0.2483
 5054TIP3    H236578   5.487   5.011  15.271  0.9762 -1.2396  1.3889
 5055TIP3   OH236579   1.001   5.219  11.557  0.2295 -0.0898  0.0203
 5055TIP3    H136580   1.096   5.222  11.550  0.1306 -0.1963 -1.7194
 5055TIP3    H236581   0.979   5.126  11.546 -0.1939  0.2064 -1.9474
 5056TIP3   OH236582   1.604   1.184  16.304  0.0812 -0.0519 -0.2815
 5056TIP3    H136583   1.632   1.176  16.213 -0.1198 -0.9937 -0.2672
 5056TIP3    H236584   1.521   1.233  16.300  1.0034  1.5824 -0.4295
 5057TIP3   OH236585   5.394   2.880  13.008 -0.3096 -0.4700 -0.2865
 5057TIP3    H136586   5.334   2.832  13.065 -0.1019  0.4122  0.6975
 5057TIP3    H236587   5.456   2.922  13.067  0.4006 -0.1763 -1.2076
 5058TIP3   OH236588   5.223   0.583  15.261 -0.0064  0.1234 -0.7305
 5058TIP3    H136589   5.277   0.618  15.190 -1.4474 -0.0076 -1.9411
 5058TIP3    H236590   5.169   0.516  15.220 -0.6976 -0.1367  0.5450
 5059TIP3   OH236591   0.674   4.582   3.124 -0.0254  0.3293 -0.1074
 5059TIP3    H136592   0.763   4.615   3.133  1.0791 -2.3728 -0.0760
 5059TIP3    H236593   0.655   4.543   3.210 -0.5949 -0.5212 -0.6084
 5060TIP3   OH236594   4.094   3.283  16.702  0.5386  0.0171 -0.1114
 5060TIP3    H136595   4.145   3.266  16.781 -1.1388  0.3267  1.0843
 5060TIP3    H236596   4.071   3.196  16.669  1.4234 -0.1157 -0.4322
 5061TIP3   OH236597   1.184   2.761   0.119 -0.2799 -0.2608 -0.2193
 5061TIP3    H136598   1.264   2.808   0.092  0.3241 -0.8107  0.5803
 5061TIP3    H236599   1.116   2.795   0.060  0.1502  1.5634  0.2720
 5062TIP3   OH236600   5.010   5.040   0.952  0.1120 -0.2072  0.1686
 5062TIP3    H136601   4.939   4.985   0.918 -0.4360 -1.0121  2.4525
 5062TIP3    H236602   4.989   5.128   0.918 -0.3037 -0.9445 -1.6006
 5063TIP3   OH236603   3.582   5.611   0.382 -0.1080 -0.2994 -0.5786
 5063TIP3    H136604   3.610   5.528   0.343 -0.6839 -1.2385  0.9129
 5063TIP3    H236605   3.663   5.649   0.417  0.4146  0.5635 -2.6355
 5064TIP3   OH236606   6.190   3.413  16.050  0.5994  0.3878 -0.6649
 5064TIP3    H136607   6.103   3.433  16.085  0.1226  0.3134 -1.7521
 5064TIP3    H236608   6.182   3.322  16.019  1.7528 -0.4306  1.2580
 5065TIP3   OH236609   0.133   6.437   1.103 -0.3275  0.3273 -0.5661
 5065TIP3    H136610   0.121   6.515   1.049 -1.6737 -0.7757 -1.9546
 5065TIP3    H236611   0.196   6.384   1.055 -0.3213  0.0340 -0.2426
 5066TIP3   OH236612   6.690   3.782  11.150 -0.2887  0.2477  0.1778
 5066TIP3    H136613   6.715   3.697  11.187 -1.0344 -0.6808 -1.3075
 5066TIP3    H236614   6.731   3.846  11.206 -1.9663 -1.0006  3.0562
 5067TIP3   OH236615   4.770   5.967   0.189 -0.1632  0.3164  0.1291
 5067TIP3    H136616   4.732   5.930   0.109  0.6489  0.8650 -0.5288
 5067TIP3    H236617   4.765   6.062   0.176 -0.2763  0.4190  0.8602
 5068TIP3   OH236618   5.528   3.412   5.427 -0.4152  0.0263 -0.4204
 5068TIP3    H136619   5.610   3.449   5.460  0.4256 -1.3678 -0.8296
 5068TIP3    H236620   5.463   3.481   5.440  0.6647  0.8946  0.6017
 5069TIP3   OH236621   4.193   1.915   4.728  0.2956  0.1029 -0.0964
 5069TIP3    H136622   4.264   1.899   4.791  0.4726  0.0775 -0.3005
 5069TIP3    H236623   4.129   1.966   4.777  0.7757  0.7306 -0.1041
 5070TIP3   OH236624   5.922   2.447  14.694 -0.3166  0.2183  0.0465
 5070TIP3    H136625   5.978   2.369  14.695 -1.3205 -0.5333  1.0375
 5070TIP3    H236626   5.834   2.413  14.712 -1.0025  1.4370 -0.8693
 5071TIP3   OH236627   0.878   3.684   0.988 -0.4190 -0.6920  0.3562
 5071TIP3    H136628   0.855   3.636   1.068 -1.9255 -1.5923 -0.5758
 5071TIP3    H236629   0.942   3.628   0.944  0.2001 -0.3283  0.7801
 5072TIP3   OH236630   2.513   5.383  13.317 -0.4501 -0.0751 -0.3240
 5072TIP3    H136631   2.583   5.319  13.311  0.1453  0.5345  0.0395
 5072TIP3    H236632   2.440   5.344  13.268  0.6849  0.0239 -2.1676
 5073TIP3   OH236633   6.769   4.895  15.396 -0.5270  0.0276 -0.3528
 5073TIP3    H136634   6.797   4.814  15.438 -2.1053  0.3621  1.5313
 5073TIP3    H236635   6.845   4.953  15.402  0.6944 -1.3160 -1.9191
 5074TIP3   OH236636   5.669   4.682   1.139 -0.0081 -0.2784 -0.8074
 5074TIP3    H136637   5.739   4.637   1.092 -1.7611 -1.3930 -2.4743
 5074TIP3    H236638   5.625   4.735   1.073 -0.0478  1.3568  0.4601
 5075TIP3   OH236639   1.806   5.851   1.716  0.0518 -0.3616  0.1291
 5075TIP3    H136640   1.755   5.796   1.775  0.5423 -0.7318  0.2192
 5075TIP3    H236641   1.897   5.840   1.745  0.4490 -1.4547 -1.3689
 5076TIP3   OH236642   3.925   0.047  11.807 -0.0883  0.4613 -0.1190
 5076TIP3    H136643   3.920   0.110  11.736 -2.1465 -1.4539 -1.7963
 5076TIP3    H236644   3.846   0.061  11.859  0.0318  0.0369  0.1917
 5077TIP3   OH236645   6.765   1.297  11.255 -0.7010 -0.1878 -0.7150
 5077TIP3    H136646   6.738   1.224  11.311 -1.2839 -0.2343 -1.0517
 5077TIP3    H236647   6.737   1.271  11.168 -0.9204  0.4469 -0.8336
 5078TIP3   OH236648   5.935   0.047  11.581 -1.0595 -0.0800  0.1603
 5078TIP3    H136649   5.945   0.035  11.486 -0.6876 -0.4353  0.2413
 5078TIP3    H236650   5.944  -0.041  11.617 -0.4114  0.1580  0.5901
 5079TIP3   OH236651   1.185   4.431  13.314 -0.3239 -0.1537 -0.0047
 5079TIP3    H136652   1.280   4.424  13.324 -0.0110 -0.3191 -2.4960
 5079TIP3    H236653   1.157   4.341  13.294 -1.0549 -0.1506  0.9603
 5080TIP3   OH236654   6.356   2.186  11.196 -0.3336  0.7685 -0.1306
 5080TIP3    H136655   6.437   2.204  11.244 -1.6098  1.2740  1.9538
 5080TIP3    H236656   6.343   2.092  11.205 -1.0526  0.9706  1.4904
 5081TIP3   OH236657   6.730   6.491   5.058 -0.5983 -0.1343 -0.1919
 5081TIP3    H136658   6.746   6.407   5.013 -0.3023  0.4461 -1.2044
 5081TIP3    H236659   6.647   6.522   5.021 -0.1607  0.5330 -0.6330
 5082TIP3   OH236660   4.676   0.267  14.539 -0.0590  0.1054  0.3294
 5082TIP3    H136661   4.712   0.343  14.493 -1.1981  0.2707 -0.3281
 5082TIP3    H236662   4.640   0.212  14.469  0.3974 -0.8530  0.8294
 5083TIP3   OH236663   3.708   0.278   0.218 -0.3809  0.2687 -0.3914
 5083TIP3    H136664   3.784   0.335   0.234 -0.3330  0.2620 -0.5955
 5083TIP3    H236665   3.635   0.323   0.260 -0.3107  0.3982 -0.4077
 5084TIP3   OH236666   1.651   4.492   1.503  0.0340 -0.2426  0.6172
 5084TIP3    H136667   1.744   4.493   1.527  0.2645 -3.1939  0.2529
 5084TIP3    H236668   1.648   4.440   1.423 -2.1177 -1.7673  1.5998
 5085TIP3   OH236669   3.586   0.789   6.303  0.1222 -0.3754  0.0247
 5085TIP3    H136670   3.504   0.765   6.259  1.1988 -0.3227 -2.1568
 5085TIP3    H236671   3.640   0.709   6.298  1.1519  0.3457 -0.9651
 5086TIP3   OH236672   6.661   3.217   2.207  0.4733  0.2330  0.4708
 5086TIP3    H136673   6.678   3.299   2.160 -1.2506 -0.4923 -1.5617
 5086TIP3    H236674   6.567   3.217   2.224  0.2691 -1.6834 -0.3598
 5087TIP3   OH236675   5.592   2.062  14.320 -0.5231 -0.4929 -0.2135
 5087TIP3    H136676   5.625   2.029  14.237  1.1096 -4.2049  1.6535
 5087TIP3    H236677   5.498   2.040  14.318 -1.1760  2.0113 -2.0242
 5088TIP3   OH236678   5.938   6.337  14.162  0.2512 -0.0266 -0.0253
 5088TIP3    H136679   5.874   6.285  14.210 -0.2467 -0.1343 -0.7970
 5088TIP3    H236680   5.916   6.325  14.070 -0.3007  2.0535 -0.2270
 5089TIP3   OH236681   3.529   4.831  14.879  0.0228 -0.9608 -0.2405
 5089TIP3    H136682   3.578   4.840  14.798  1.9270  0.4661  0.9696
 5089TIP3    H236683   3.506   4.738  14.883  0.8695 -1.2794 -1.8412
 5090TIP3   OH236684   3.389   3.314   6.698 -0.2023 -0.4881  0.2570
 5090TIP3    H136685   3.344   3.313   6.614 -0.1419  2.1952  0.0962
 5090TIP3    H236686   3.441   3.395   6.696  0.4148 -0.7583  2.5600
 5091TIP3   OH236687   4.785   5.007   2.033 -1.1719  0.1981 -0.4616
 5091TIP3    H136688   4.758   5.004   1.941 -3.3763 -3.3053  0.1281
 5091TIP3    H236689   4.860   4.948   2.038 -1.7594 -0.5078  0.1575
 5092TIP3   OH236690   5.968   4.757   2.017  0.0583 -0.1255 -0.0886
 5092TIP3    H136691   5.941   4.673   2.053 -0.2101 -0.3389 -0.7846
 5092TIP3    H236692   5.886   4.801   1.995  0.2169  0.1162 -0.2005
 5093TIP3   OH236693   6.632   1.325   2.218  0.2913  0.2868  0.1915
 5093TIP3    H136694   6.704   1.365   2.169 -0.7435  1.6724 -0.2833
 5093TIP3    H236695   6.674   1.261   2.275  1.7302 -0.0598 -1.1781
 5094TIP3   OH236696   4.934   3.641  11.947  0.2088  0.0641 -0.1175
 5094TIP3    H136697   4.888   3.610  12.025  1.4370  0.6053  0.8371
 5094TIP3    H236698   5.008   3.581  11.938  1.0508  1.0568  0.1465
 5095TIP3   OH236699   0.028   2.546  15.460 -0.1090  0.2304 -0.1170
 5095TIP3    H136700   0.000   2.620  15.514  3.6478  1.4896  0.4225
 5095TIP3    H236701   0.067   2.587  15.382  3.5770 -0.8250  0.9354
 5096TIP3   OH236702   4.485   4.103   2.493 -0.0303 -0.3534  0.2665
 5096TIP3    H136703   4.391   4.110   2.474 -0.1357 -1.2724  0.3862
 5096TIP3    H236704   4.491   4.032   2.557  0.9199 -1.6981 -1.2202
 5097TIP3   OH236705   1.751   4.130   3.654 -0.0387 -0.4895  0.3713
 5097TIP3    H136706   1.793   4.199   3.704 -3.1889  0.3916  2.0923
 5097TIP3    H236707   1.733   4.061   3.718 -2.9470  0.0993  0.3576
 5098TIP3   OH236708   4.550   3.062   3.048  0.8786  0.2095 -0.1588
 5098TIP3    H136709   4.584   3.008   2.977 -0.7697  0.4235 -1.1601
 5098TIP3    H236710   4.557   3.006   3.126  0.4761 -0.9647 -0.9278
 5099TIP3   OH236711   3.811   6.426   4.676  0.5269  0.0902 -0.0345
 5099TIP3    H136712   3.889   6.383   4.643  0.8327 -1.3702  2.3477
 5099TIP3    H236713   3.749   6.355   4.692  0.1688  0.7586  1.7864
 5100TIP3   OH236714   4.838   6.247   2.454 -0.5141 -0.3451  0.1438
 5100TIP3    H136715   4.830   6.219   2.363  0.4710  1.1490 -0.4435
 5100TIP3    H236716   4.850   6.342   2.449  0.7735 -0.3857  1.7569
 5101TIP3   OH236717   3.724   6.198  15.597  0.1847  0.2160  0.3265
 5101TIP3    H136718   3.814   6.220  15.570  0.4637 -0.6618  0.5140
 5101TIP3    H236719   3.682   6.169  15.516 -0.1484  1.2737  0.1026
 5102TIP3   OH236720   0.797   0.927  12.491  0.1296  0.1342  0.0632
 5102TIP3    H136721   0.755   0.958  12.571  0.2916  0.5652 -0.0183
 5102TIP3    H236722   0.724   0.898  12.436 -0.1665  1.7477 -0.4574
 5103TIP3   OH236723   0.794   0.313   5.151 -0.6378 -0.3833  0.0388
 5103TIP3    H136724   0.732   0.371   5.106 -0.8879 -0.7849 -0.1444
 5103TIP3    H236725   0.739   0.243   5.186 -0.1545 -1.4141 -1.1916
 5104TIP3   OH236726   3.884   5.266  15.352 -0.3756 -0.0773  0.3423
 5104TIP3    H136727   3.796   5.260  15.389  0.1390 -0.2147  1.6156
 5104TIP3    H236728   3.933   5.316  15.418  0.5824 -0.3044 -0.1904
 5105TIP3   OH236729   4.755   3.676   6.187  0.2838  0.1346  0.3737
 5105TIP3    H136730   4.811   3.721   6.124  1.1105 -1.4564 -0.0746
 5105TIP3    H236731   4.741   3.740   6.257  0.8755  1.2976 -0.5345
 5106TIP3   OH236732   5.476   1.864   3.310 -0.5632 -1.0181 -0.1265
 5106TIP3    H136733   5.476   1.809   3.388 -1.4309  1.1117  1.4661
 5106TIP3    H236734   5.568   1.889   3.298 -0.5134 -0.8451  0.5984
 5107TIP3   OH236735   5.057   4.323   5.723 -0.1370  0.7635 -0.7778
 5107TIP3    H136736   5.020   4.283   5.645 -0.1541 -0.7701 -0.0144
 5107TIP3    H236737   4.984   4.327   5.785  0.2881  0.3629 -0.2466
 5108TIP3   OH236738   5.819   5.273   5.224 -1.0118  0.4309 -0.5651
 5108TIP3    H136739   5.732   5.284   5.263 -2.1760 -0.7208 -2.6521
 5108TIP3    H236740   5.872   5.234   5.293 -1.5422  2.9019  1.3948
 5109TIP3   OH236741   0.655   4.332  10.667  0.5607 -0.1561  0.1700
 5109TIP3    H136742   0.606   4.266  10.716  0.5181  0.3041  0.7642
 5109TIP3    H236743   0.599   4.410  10.669  1.1059  0.2428  0.4794
 5110TIP3   OH236744   1.434   1.635  14.085  0.1320 -0.4984 -0.2601
 5110TIP3    H136745   1.355   1.678  14.053  1.2064  1.3843 -0.5315
 5110TIP3    H236746   1.433   1.651  14.180  0.5689  0.2280 -0.3712
 5111TIP3   OH236747   0.171   3.010  16.485 -0.0288 -0.0859  0.1564
 5111TIP3    H136748   0.195   2.938  16.543  0.1121  0.0608  0.2855
 5111TIP3    H236749   0.088   2.985  16.446 -0.2960 -0.0308  0.6912
 5112TIP3   OH236750   2.942   4.113  15.629  0.2883  0.5740 -0.0238
 5112TIP3    H136751   2.866   4.111  15.688  0.2464 -0.1064 -0.0921
 5112TIP3    H236752   3.009   4.162  15.677  0.0688  0.5009  0.3626
 5113TIP3   OH236753   0.545   3.836   3.391 -0.4680 -0.6997 -0.0847
 5113TIP3    H136754   0.479   3.842   3.321  1.7005 -0.7238 -2.2738
 5113TIP3    H236755   0.591   3.754   3.374  1.1330  0.0502  0.3954
 5114TIP3   OH236756   2.590   3.155  16.956  0.3526  0.2405  0.2481
 5114TIP3    H136757   2.671   3.201  16.933  0.7176 -0.8730 -0.7991
 5114TIP3    H236758   2.568   3.105  16.877 -0.7918 -0.2753  0.8805
 5115TIP3   OH236759   4.918   0.611   6.191  0.2687  0.0773 -0.1365
 5115TIP3    H136760   4.944   0.626   6.100 -1.3569 -1.9129 -1.0061
 5115TIP3    H236761   4.991   0.562   6.229  1.2265  1.4426 -0.1476
 5116TIP3   OH236762   0.696   5.804  11.011 -0.5016  0.7990 -0.4729
 5116TIP3    H136763   0.625   5.854  11.050 -1.2301 -0.6820  0.1737
 5116TIP3    H236764   0.761   5.796  11.081  0.6415  2.7095 -1.2597
 5117TIP3   OH236765   2.022   5.069   3.999  0.4153  0.6344 -0.1997
 5117TIP3    H136766   1.946   5.063   4.057  1.0385 -0.4444  0.5557
 5117TIP3    H236767   2.091   5.105   4.055  0.7563  0.5456 -0.5582
 5118TIP3   OH236768   2.848   4.967   0.123  0.1357 -0.1497  0.0655
 5118TIP3    H136769   2.798   5.003   0.195  1.1337 -0.9250  1.1786
 5118TIP3    H236770   2.932   5.012   0.127  0.4767 -0.7508 -0.1277
 5119TIP3   OH236771   3.364   0.043  15.336 -0.0718  0.2810  0.4704
 5119TIP3    H136772   3.275   0.016  15.312 -0.8890 -0.1113  3.4330
 5119TIP3    H236773   3.418  -0.034  15.320 -0.2971  0.4334 -1.1112
 5120TIP3   OH236774   4.173   0.956  15.165  0.6327 -0.2049  0.2724
 5120TIP3    H136775   4.098   0.923  15.215  0.0523 -2.0392 -1.6761
 5120TIP3    H236776   4.234   0.882  15.162  2.0040  0.8436  0.7115
 5121TIP3   OH236777   4.360   1.611   0.032  0.3996 -0.3951 -0.2019
 5121TIP3    H136778   4.277   1.658   0.035 -0.6020 -1.9807 -1.4564
 5121TIP3    H236779   4.413   1.651   0.101 -1.2539  0.9058  0.3727
 5122TIP3   OH236780   0.683   3.577   3.839  0.0810 -0.7084  0.0672
 5122TIP3    H136781   0.666   3.649   3.779 -2.3703 -1.1877  0.0999
 5122TIP3    H236782   0.740   3.615   3.906  1.8177  0.1702 -1.7805
 5123TIP3   OH236783   6.240   3.920  11.725  0.3292 -0.2873 -0.3770
 5123TIP3    H136784   6.325   3.905  11.766  0.1453 -1.5239 -0.4254
 5123TIP3    H236785   6.190   3.840  11.742 -1.8213  1.3941  2.0168
 5124TIP3   OH236786   5.245   4.099  11.658  0.7083 -0.3431  0.1383
 5124TIP3    H136787   5.193   4.168  11.698  1.1774 -0.7212  1.4406
 5124TIP3    H236788   5.228   4.108  11.564  1.0222  1.7584  0.2223
 5125TIP3   OH236789   1.430   5.391   5.560 -0.3770 -0.4229 -0.0348
 5125TIP3    H136790   1.341   5.356   5.551 -0.8141  0.5659  0.3679
 5125TIP3    H236791   1.442   5.446   5.483  0.4389 -1.6751 -0.8451
 5126TIP3   OH236792   0.054   5.589  14.663  0.1887 -0.3153 -0.1314
 5126TIP3    H136793   0.119   5.622  14.601  1.0208 -0.3911  0.6814
 5126TIP3    H236794   0.079   5.498  14.679 -0.9256 -0.7692 -0.8347
 5127TIP3   OH236795   4.083   1.830   1.469 -0.0004  0.0976 -0.1930
 5127TIP3    H136796   4.045   1.852   1.383  0.3461  0.8091 -0.1666
 5127TIP3    H236797   4.022   1.868   1.532 -0.1596 -0.2723 -0.1182
 5128TIP3   OH236798   4.399   2.813  10.778 -0.5214  0.3990 -0.0858
 5128TIP3    H136799   4.360   2.752  10.840  0.1391  0.8126  0.7595
 5128TIP3    H236800   4.444   2.758  10.713 -0.1140 -0.0168  0.5428
 5129TIP3   OH236801   4.662   0.325  14.071 -0.4973 -0.2836 -0.4120
 5129TIP3    H136802   4.569   0.323  14.051 -0.9098  0.7650  1.2122
 5129TIP3    H236803   4.687   0.417  14.064 -0.4256  0.0121  2.4823
 5130TIP3   OH236804   6.612   4.425   6.271 -0.6487 -0.7533  0.7412
 5130TIP3    H136805   6.540   4.406   6.331 -0.8371 -2.0485  0.1454
 5130TIP3    H236806   6.691   4.420   6.325 -0.8313 -1.7148  0.9319
 5131TIP3   OH236807   0.779   4.858   2.813  0.1971 -0.0782  0.6772
 5131TIP3    H136808   0.783   4.869   2.908 -1.2467  0.1379  0.7354
 5131TIP3    H236809   0.870   4.868   2.784  0.4843  1.1342  1.8939
 5132TIP3   OH236810   0.334   2.115   1.644  0.4023  0.0642 -0.3434
 5132TIP3    H136811   0.240   2.103   1.626  0.1577  2.3353 -0.8661
 5132TIP3    H236812   0.373   2.129   1.558  0.9527  0.6624 -0.0054
 5133TIP3   OH236813   5.164   3.447  12.190 -0.2342 -0.7813 -0.5500
 5133TIP3    H136814   5.208   3.527  12.218 -0.3848 -0.9095  0.0666
 5133TIP3    H236815   5.161   3.453  12.094  0.5448 -0.4695 -0.5603
 5134TIP3   OH236816   2.644   0.309   0.053  0.9342  0.3953  0.2835
 5134TIP3    H136817   2.564   0.275   0.092  2.0111 -1.6590  0.9024
 5134TIP3    H236818   2.624   0.317  -0.040 -0.1619  0.4769  0.5223
 5135TIP3   OH236819   4.392   5.652  10.929 -0.7196  0.6646  1.0836
 5135TIP3    H136820   4.454   5.639  11.001  1.1152 -0.4052 -0.5969
 5135TIP3    H236821   4.341   5.570  10.927 -0.3065  0.4143  0.7463
 5136TIP3   OH236822   4.232   0.114  16.624  0.5560  0.6780 -0.7251
 5136TIP3    H136823   4.149   0.146  16.659 -0.4084  0.4933 -2.7174
 5136TIP3    H236824   4.244   0.028  16.665 -0.9506  0.1078 -1.4382
 5137TIP3   OH236825   3.286   2.561  11.666  0.4053  1.2968  0.0766
 5137TIP3    H136826   3.251   2.648  11.646  0.5857  1.1020 -1.1801
 5137TIP3    H236827   3.222   2.501  11.629  0.8877  0.9132 -0.1416
 5138TIP3   OH236828   2.078   2.191   4.749 -0.5991  0.6861 -0.2047
 5138TIP3    H136829   1.998   2.241   4.733 -0.0829  1.6284  0.1018
 5138TIP3    H236830   2.108   2.221   4.835  0.0220  0.2507 -0.2653
 5139TIP3   OH236831   3.787   2.456   6.550 -0.1919  0.2822 -0.6377
 5139TIP3    H136832   3.845   2.532   6.540  0.6294 -0.2353  0.0044
 5139TIP3    H236833   3.747   2.445   6.464  0.3633  0.9025 -0.9913
 5140TIP3   OH236834   3.064   1.352   0.252 -0.4012  0.6374 -0.4665
 5140TIP3    H136835   3.093   1.318   0.167  0.0881 -0.4594  0.1235
 5140TIP3    H236836   3.124   1.424   0.271  0.4123 -0.0465 -0.3904
 5141TIP3   OH236837   3.153   3.641   0.092 -0.5246  0.1843 -0.3858
 5141TIP3    H136838   3.059   3.655   0.087 -0.9028 -1.5968  0.8480
 5141TIP3    H236839   3.188   3.724   0.125 -1.6503  0.8349 -0.7949
 5142TIP3   OH236840   0.033   6.055  11.908  0.1513 -0.0467  0.0531
 5142TIP3    H136841   0.044   6.116  11.981 -1.1046  0.0856  0.1492
 5142TIP3    H236842   0.121   6.022  11.892  0.7166  1.1215  0.5790
 5143TIP3   OH236843   6.178   1.924  17.214 -0.4483  0.0608 -0.5443
 5143TIP3    H136844   6.239   1.944  17.285 -0.6811  2.0888 -0.8664
 5143TIP3    H236845   6.092   1.918  17.257 -0.4052 -0.0342 -0.4713
 5144TIP3   OH236846   0.972   5.703   3.512  0.3375  0.0529  0.2029
 5144TIP3    H136847   0.969   5.653   3.431 -1.2153 -0.4813  0.5438
 5144TIP3    H236848   1.018   5.646   3.574 -1.7079 -1.1977  0.6809
 5145TIP3   OH236849   6.473   5.080  12.666  0.2000 -0.3566 -0.3452
 5145TIP3    H136850   6.413   5.133  12.614  0.5697  1.1424  0.6831
 5145TIP3    H236851   6.560   5.113  12.644  0.5243 -1.2401 -0.4320
 5146TIP3   OH236852   0.338   5.994   5.860 -0.2377 -0.6371 -0.4870
 5146TIP3    H136853   0.251   6.018   5.892  0.5394  0.1499  1.1711
 5146TIP3    H236854   0.370   6.071   5.814  0.0121 -0.5037 -0.1019
 5147TIP3   OH236855   2.493   2.585   3.161 -0.2940 -0.4522  0.4303
 5147TIP3    H136856   2.438   2.648   3.114 -0.2216 -1.8350 -1.6146
 5147TIP3    H236857   2.528   2.635   3.235 -3.7304  0.6743  1.5005
 5148TIP3   OH236858   3.913   3.023   6.836  0.9216  0.6366 -0.1045
 5148TIP3    H136859   3.840   2.973   6.873  0.4119  1.6034  0.2495
 5148TIP3    H236860   3.946   3.075   6.910 -0.1568  2.6497 -0.9521
 5149TIP3   OH236861   0.204   0.298  12.928  0.3318  0.1455 -0.2406
 5149TIP3    H136862   0.184   0.346  13.008  1.4603  2.1298 -1.0889
 5149TIP3    H236863   0.205   0.206  12.956 -1.3830  0.5941  1.5421
 5150TIP3   OH236864   6.417   2.273   4.667 -0.0969 -0.5167  0.9094
 5150TIP3    H136865   6.408   2.367   4.686  0.5590 -1.0448  4.4406
 5150TIP3    H236866   6.506   2.264   4.633 -0.7754  0.3100 -1.2227
 5151TIP3   OH236867   5.478   1.409   1.164 -0.0076  0.0845  0.3171
 5151TIP3    H136868   5.564   1.451   1.153  1.5707 -1.9008  3.6106
 5151TIP3    H236869   5.423   1.478   1.201  0.7884  0.8533  0.1158
 5152TIP3   OH236870   2.769   0.612  14.203  0.5894  0.6100  0.3654
 5152TIP3    H136871   2.680   0.620  14.236 -0.6991 -2.7535 -1.8143
 5152TIP3    H236872   2.818   0.575  14.277 -0.1262  1.0687  1.0912
 5153TIP3   OH236873   6.677   3.396  15.108  0.1532  0.0993  0.2585
 5153TIP3    H136874   6.617   3.378  15.180 -0.0934  0.8937  0.2638
 5153TIP3    H236875   6.622   3.400  15.030  0.2807  0.2300  0.1733
 5154TIP3   OH236876   6.573   0.647  11.268  0.2058  0.4767  0.4006
 5154TIP3    H136877   6.598   0.555  11.264 -0.0447  0.1803  3.5944
 5154TIP3    H236878   6.508   0.657  11.198  0.4220 -1.6710 -0.1755
 5155TIP3   OH236879   1.042   4.992   5.798  0.1395 -0.6399 -0.5407
 5155TIP3    H136880   1.105   5.012   5.866  1.0422 -1.4989 -1.0844
 5155TIP3    H236881   0.998   5.075   5.780  2.0878  0.3419 -1.1102
 5156TIP3   OH236882   2.455   6.640  16.742 -0.4121  0.4684 -0.0277
 5156TIP3    H136883   2.501   6.698  16.681  1.6214  1.6425  2.4266
 5156TIP3    H236884   2.492   6.553  16.726 -0.4504  0.6086 -0.9292
 5157TIP3   OH236885   4.653   6.468  14.218 -0.5879  0.6698 -0.4657
 5157TIP3    H136886   4.575   6.492  14.267  0.1183 -0.4159  1.3015
 5157TIP3    H236887   4.701   6.550  14.208 -0.2291  0.7825  1.6958
 5158TIP3   OH236888   1.102   3.563  14.055 -0.1384  0.1041 -0.0481
 5158TIP3    H136889   1.097   3.528  13.966  0.0856 -0.5918  0.2043
 5158TIP3    H236890   1.096   3.658  14.044  2.1748  0.2213 -1.0198
 5159TIP3   OH236891   2.520   0.702  16.413 -0.1655 -0.4964 -0.2089
 5159TIP3    H136892   2.428   0.723  16.429 -0.6667  0.8780 -3.9963
 5159TIP3    H236893   2.568   0.782  16.434 -0.0998 -0.5083 -0.3112
 5160TIP3   OH236894   6.403   5.532   3.079  0.2827  0.3566 -0.3228
 5160TIP3    H136895   6.471   5.570   3.135  0.0536 -2.6135  2.2561
 5160TIP3    H236896   6.324   5.535   3.132 -0.4911 -0.5274 -1.3901
 5161TIP3   OH236897   4.401   2.858  12.512 -0.2610 -0.8954  0.5921
 5161TIP3    H136898   4.463   2.930  12.518 -0.3180 -0.8090  0.1719
 5161TIP3    H236899   4.455   2.779  12.517 -0.2762 -0.8411  1.9296
 5162TIP3   OH236900   6.130   3.678   4.106  0.5987  0.3730  0.2583
 5162TIP3    H136901   6.124   3.769   4.077  1.8359  0.3571 -0.0889
 5162TIP3    H236902   6.221   3.668   4.134  0.3829 -0.6659  0.6042
 5163TIP3   OH236903   2.896   3.248   3.788 -0.2554  0.4746  0.4719
 5163TIP3    H136904   2.960   3.210   3.727  0.5915 -0.3570  1.8325
 5163TIP3    H236905   2.931   3.229   3.875 -1.7759  1.0393  1.2466
 5164TIP3   OH236906   5.705   2.055  12.575  0.1679  0.4224  0.3869
 5164TIP3    H136907   5.657   2.138  12.573  1.2036  1.0340 -1.5231
 5164TIP3    H236908   5.717   2.036  12.668  0.2975  2.6425  0.8683
 5165TIP3   OH236909   3.913   1.731  14.276  0.4020 -0.3230  0.1936
 5165TIP3    H136910   3.934   1.649  14.320 -2.0702 -1.1323 -0.0129
 5165TIP3    H236911   3.886   1.790  14.346  0.7393 -0.1514  0.1836
 5166TIP3   OH236912   0.187   1.609  13.470  0.0267  0.5310 -0.2740
 5166TIP3    H136913   0.271   1.566  13.484  0.3527  0.4975 -2.1509
 5166TIP3    H236914   0.207   1.683  13.413 -1.5456 -1.0282 -3.0618
 5167TIP3   OH236915   2.024   4.279   0.309 -0.6148  0.3400 -0.0797
 5167TIP3    H136916   2.072   4.201   0.334 -0.2985  0.0212 -1.5738
 5167TIP3    H236917   2.047   4.344   0.376  2.9014  0.5741 -1.3007
 5168TIP3   OH236918   4.151   3.522  13.954 -0.0090 -0.4750  0.5219
 5168TIP3    H136919   4.194   3.437  13.940  0.2797 -0.4275  1.0854
 5168TIP3    H236920   4.218   3.586  13.929  0.4077 -0.3944  1.7765
 5169TIP3   OH236921   6.473   2.176   1.965  0.3682 -0.0354 -0.4563
 5169TIP3    H136922   6.379   2.155   1.960  0.8648 -2.7688  0.2720
 5169TIP3    H236923   6.475   2.271   1.981 -2.3060 -0.0661  0.6115
 5170TIP3   OH236924   5.251   4.595   0.201 -0.1125  0.3561  0.1004
 5170TIP3    H136925   5.291   4.527   0.254 -0.3674  0.1187 -0.0080
 5170TIP3    H236926   5.243   4.670   0.260  0.7941  0.5181  0.0280
 5171TIP3   OH236927   5.181   4.899  15.316  0.3187  0.1933  0.2102
 5171TIP3    H136928   5.156   4.910  15.224 -0.7276  1.8281  0.6545
 5171TIP3    H236929   5.273   4.925  15.319  0.3920  0.0225 -0.3789
 5172TIP3   OH236930   1.532   2.559   3.593  0.1530 -0.0149  0.0476
 5172TIP3    H136931   1.470   2.526   3.657  1.3121 -0.9831  0.7039
 5172TIP3    H236932   1.606   2.498   3.596  0.2936 -0.0498 -2.1433
 5173TIP3   OH236933   5.575   3.658  16.312 -0.4614 -0.3439  0.3081
 5173TIP3    H136934   5.666   3.629  16.308  0.3772  2.0677  0.2391
 5173TIP3    H236935   5.541   3.645  16.223 -0.1111 -1.0338  0.2736
 5174TIP3   OH236936   4.627   1.025  12.710  0.2092 -0.1015 -0.0389
 5174TIP3    H136937   4.540   1.020  12.748  0.1308 -1.2182 -0.3170
 5174TIP3    H236938   4.669   1.100  12.753 -1.7007  2.0270 -1.6454
 5175TIP3   OH236939   4.959   5.442   2.732 -0.2692  0.4675  0.0256
 5175TIP3    H136940   4.978   5.463   2.641 -2.6017  0.7841 -0.4482
 5175TIP3    H236941   4.927   5.352   2.731  0.4389  0.1939  0.6617
 5176TIP3   OH236942   0.826   0.050   2.285  0.1722  0.1066  0.6204
 5176TIP3    H136943   0.792  -0.039   2.292 -0.6346  0.4953  2.0786
 5176TIP3    H236944   0.762   0.104   2.332  1.5966  1.1841  1.4048
 5177TIP3   OH236945   4.020   5.602  14.257  0.5797  0.1907 -0.8306
 5177TIP3    H136946   3.982   5.622  14.171 -0.5587 -0.8865 -0.6088
 5177TIP3    H236947   4.088   5.537  14.240 -1.2374 -1.8460 -0.7309
 5178TIP3   OH236948   2.928   0.580   2.218 -0.1764 -0.4514 -0.2950
 5178TIP3    H136949   2.902   0.520   2.287  1.3001 -0.0763  0.6202
 5178TIP3    H236950   2.871   0.656   2.230 -0.6222 -0.8071 -0.1414
 5179TIP3   OH236951   4.579   5.761  13.683 -0.0894  0.3281 -0.3026
 5179TIP3    H136952   4.543   5.673  13.679 -1.9940  1.0422  0.0901
 5179TIP3    H236953   4.674   5.749  13.674 -0.1782 -1.8509  1.0865
 5180TIP3   OH236954   5.919   2.946   3.723  0.2033  0.1186  0.2414
 5180TIP3    H136955   5.925   2.982   3.634 -0.6107  0.7952  0.4463
 5180TIP3    H236956   5.870   2.864   3.711 -2.3325  1.5199  0.3585
 5181TIP3   OH236957   2.465   5.835  10.617  0.0882 -0.2274 -0.1288
 5181TIP3    H136958   2.478   5.911  10.560  1.2832  0.3487  0.8674
 5181TIP3    H236959   2.380   5.850  10.658  0.1130  0.3503 -0.2754
 5182TIP3   OH236960   3.797   1.192   3.351 -0.1268 -0.7050  0.3145
 5182TIP3    H136961   3.853   1.123   3.317  0.2011  1.2663 -3.7409
 5182TIP3    H236962   3.710   1.154   3.353  0.5058 -2.1689  1.3782
 5183TIP3   OH236963   3.066   6.473   4.452 -0.2195  0.4625  0.0638
 5183TIP3    H136964   3.064   6.515   4.366 -1.7055  0.9763  0.3271
 5183TIP3    H236965   3.063   6.380   4.434  0.2494  0.5451 -0.4587
 5184TIP3   OH236966   3.001   0.086   3.418  0.0232 -0.5356 -0.4432
 5184TIP3    H136967   3.078   0.132   3.384  0.0502  0.6081  1.0624
 5184TIP3    H236968   2.927   0.138   3.387  0.0101 -0.0356  0.3739
 5185TIP3   OH236969   0.347   4.477  12.093  0.0192  0.7031 -0.3446
 5185TIP3    H136970   0.418   4.468  12.157 -1.0546  0.2257  0.8279
 5185TIP3    H236971   0.290   4.402  12.109 -0.3594  0.6528 -1.7828
 5186TIP3   OH236972   2.133   2.397   2.923  0.0692 -0.4047 -0.1697
 5186TIP3    H136973   2.193   2.331   2.887  0.6996  0.2175 -0.2945
 5186TIP3    H236974   2.162   2.479   2.883 -0.8181 -0.0776 -0.1567
 5187TIP3   OH236975   5.454   2.556   5.543  0.1665 -0.4936  0.1817
 5187TIP3    H136976   5.427   2.507   5.466  1.4084 -2.9294  1.1807
 5187TIP3    H236977   5.455   2.491   5.614  0.6029  1.2948  1.9168
 5188TIP3   OH236978   2.874   3.807  15.354  0.2645  0.0101 -0.4977
 5188TIP3    H136979   2.927   3.844  15.425 -1.3972  2.3252 -0.3633
 5188TIP3    H236980   2.784   3.810  15.386 -0.4078  0.0399 -2.2489
 5189TIP3   OH236981   3.380   5.517   1.515  0.6446 -0.1870  0.1778
 5189TIP3    H136982   3.392   5.452   1.584  0.5872 -1.9220 -1.3607
 5189TIP3    H236983   3.456   5.505   1.458  0.2683  0.6372 -0.5161
 5190TIP3   OH236984   2.970   0.858   3.986 -0.2754  0.0151  0.4221
 5190TIP3    H136985   2.965   0.813   4.069  0.2676 -1.9256 -0.5520
 5190TIP3    H236986   3.028   0.805   3.932 -0.2078  1.4824 -1.0518
 5191TIP3   OH236987   2.006   1.750  11.217  0.0821  0.0845  0.4430
 5191TIP3    H136988   1.965   1.727  11.133  0.8063 -1.4448  0.4585
 5191TIP3    H236989   1.955   1.703  11.283  1.2953 -1.1991  0.5311
 5192TIP3   OH236990   1.167   5.741   3.140  0.1696  0.4188 -0.2440
 5192TIP3    H136991   1.249   5.709   3.103  0.7117  0.1627  1.1084
 5192TIP3    H236992   1.193   5.782   3.222 -0.9766  0.9960 -0.1587
 5193TIP3   OH236993   3.085   2.468  16.686  0.3197  0.5355 -0.1319
 5193TIP3    H136994   2.996   2.470  16.721  0.5198  2.9457  0.4331
 5193TIP3    H236995   3.140   2.455  16.763  0.4912 -2.8537 -0.6735
 5194TIP3   OH236996   1.320   5.983  14.491 -0.1399 -0.2093 -0.0704
 5194TIP3    H136997   1.234   5.955  14.459 -0.9190  0.2309  1.5510
 5194TIP3    H236998   1.350   6.047  14.426 -1.5799  0.5204 -0.0434
 5195TIP3   OH236999   5.843   0.298   5.396  0.1305 -0.3036  0.2652
 5195TIP3    H137000   5.889   0.375   5.364 -0.1023 -0.7067 -1.1341
 5195TIP3    H237001   5.885   0.225   5.351 -0.8910 -0.8060  0.0855
 5196TIP3   OH237002   4.163   4.694  15.397 -0.1775  0.7155 -0.9397
 5196TIP3    H137003   4.192   4.746  15.322 -1.0136  0.2720 -1.5867
 5196TIP3    H237004   4.113   4.622  15.358 -1.0079  0.7311  0.0634
 5197TIP3   OH237005   4.062   1.665   3.487 -1.0091  0.0866 -0.2932
 5197TIP3    H137006   4.151   1.655   3.521 -2.3575  0.4813  4.0495
 5197TIP3    H237007   4.030   1.576   3.476 -0.7504 -0.0857  0.3044
 5198TIP3   OH237008   6.519   0.854  15.703  0.2478  0.9669 -0.0693
 5198TIP3    H137009   6.527   0.947  15.721  0.7576  0.9037  0.0566
 5198TIP3    H237010   6.529   0.846  15.609  0.6843  0.9976 -0.0296
 5199TIP3   OH237011   0.805   2.159   2.629 -0.6074  0.2649 -0.2078
 5199TIP3    H137012   0.755   2.156   2.711 -2.4740 -1.4674 -1.3146
 5199TIP3    H237013   0.744   2.199   2.566  0.3946  0.5541 -1.0084
 5200TIP3   OH237014   1.941   2.976   1.867  0.1962 -0.1850 -0.0925
 5200TIP3    H137015   1.849   2.969   1.840  0.0371  0.7702  0.1479
 5200TIP3    H237016   1.952   2.909   1.934 -0.1239 -0.7925 -0.6377
 5201TIP3   OH237017   4.960   5.242  15.030 -0.0240  0.1413 -0.2434
 5201TIP3    H137018   4.902   5.266  15.103  0.2342 -0.5023  0.1825
 5201TIP3    H237019   4.992   5.326  14.997 -0.3619  0.4572  0.2109
 5202TIP3   OH237020   4.936   5.569  11.906  0.0324  0.1577  1.3042
 5202TIP3    H137021   4.873   5.592  11.974  0.3062 -0.0263  1.6256
 5202TIP3    H237022   5.020   5.601  11.940  0.0866  0.5447  0.8099
 5203TIP3   OH237023   1.122   0.013   2.115  0.4580  0.4554  0.2711
 5203TIP3    H137024   1.191  -0.037   2.158 -0.1148  0.9524  1.8171
 5203TIP3    H237025   1.056   0.026   2.183 -1.3458 -0.3056 -1.2340
 5204TIP3   OH237026   6.268   4.789  16.073  0.7479  0.0482  0.0502
 5204TIP3    H137027   6.220   4.709  16.054  1.3143 -0.1121 -0.7310
 5204TIP3    H237028   6.233   4.818  16.157  2.5185 -2.5289  1.8211
 5205TIP3   OH237029   2.526   5.586   2.125  0.3201  0.3653  0.0296
 5205TIP3    H137030   2.584   5.542   2.063  0.2978  0.6957 -0.2325
 5205TIP3    H237031   2.453   5.617   2.071 -2.0602 -3.2399  0.8582
 5206TIP3   OH237032   1.904   1.245  15.352  0.0406 -0.6393 -0.1885
 5206TIP3    H137033   1.873   1.167  15.306 -2.6239 -1.7936  3.1379
 5206TIP3    H237034   1.925   1.215  15.440 -0.3930  2.2472  1.0249
 5207TIP3   OH237035   6.155   3.655   2.568  0.2139  0.1447 -0.1148
 5207TIP3    H137036   6.088   3.697   2.514  1.5740 -0.7760 -2.6943
 5207TIP3    H237037   6.163   3.567   2.531  1.8643 -0.2246  1.0451
 5208TIP3   OH237038   4.002   0.695   2.701  0.1718 -0.0387 -0.6059
 5208TIP3    H137039   3.920   0.701   2.652 -0.3571 -0.2715  0.2258
 5208TIP3    H237040   4.044   0.780   2.689  0.5466 -0.4165 -2.2701
 5209TIP3   OH237041   1.914   2.816  11.245 -0.1760  0.4585  0.7844
 5209TIP3    H137042   1.991   2.872  11.236  3.0949 -3.3004  2.3716
 5209TIP3    H237043   1.871   2.847  11.325  1.5663  0.7310  1.6660
 5210TIP3   OH237044   5.774   6.203   4.028  0.3608 -0.0979  0.1772
 5210TIP3    H137045   5.853   6.231   3.981  0.6950  0.4496  1.0262
 5210TIP3    H237046   5.807   6.145   4.097 -0.0149 -0.1413  0.3221
 5211TIP3   OH237047   6.038   0.293  16.760 -0.6274 -0.0760 -0.5302
 5211TIP3    H137048   5.953   0.279  16.718 -1.0678  1.4671 -0.1931
 5211TIP3    H237049   6.020   0.287  16.853 -0.1946 -0.5511 -0.4698
 5212TIP3   OH237050   0.350   6.639   4.624 -0.2291 -0.1818  0.5067
 5212TIP3    H137051   0.411   6.683   4.565  0.7872  0.5288  2.0316
 5212TIP3    H237052   0.271   6.625   4.571  1.4035 -1.6992 -1.7287
 5213TIP3   OH237053   6.392   4.654  15.850 -0.5862 -0.3436 -0.3162
 5213TIP3    H137054   6.451   4.597  15.900  0.0206 -0.8726 -1.5858
 5213TIP3    H237055   6.361   4.718  15.914 -0.3629 -1.3798  0.8884
 5214TIP3   OH237056   1.813   4.863   4.960 -0.2101  0.1444 -0.0390
 5214TIP3    H137057   1.734   4.842   5.010  0.2459 -0.4373  0.4593
 5214TIP3    H237058   1.871   4.905   5.024  0.7199 -1.3867  0.1650
 5215TIP3   OH237059   4.957   1.979   3.791  0.5979  0.1106 -0.3153
 5215TIP3    H137060   5.002   2.033   3.727  3.3350  0.0836  1.4298
 5215TIP3    H237061   4.916   2.042   3.851  1.0328  0.2136 -0.1217
 5216TIP3   OH237062   4.760   1.888  11.992  0.3926  0.1734  0.2607
 5216TIP3    H137063   4.665   1.876  11.984  0.2675  2.1144 -4.5029
 5216TIP3    H237064   4.797   1.820  11.935  1.5674  1.3971 -0.5056
 5217TIP3   OH237065   5.845   3.030  16.849  0.3718 -0.5465 -0.4655
 5217TIP3    H137066   5.796   3.080  16.914  1.1118  0.7700 -0.8736
 5217TIP3    H237067   5.918   3.087  16.825  0.2852 -1.1060 -2.2254
 5218TIP3   OH237068   1.444   6.328   0.213 -0.0582 -0.3775  0.3462
 5218TIP3    H137069   1.525   6.317   0.262 -0.4515 -2.0804  0.6678
 5218TIP3    H237070   1.380   6.355   0.279 -0.0944 -0.5386  0.3777
 5219TIP3   OH237071   2.971   1.066  14.126  0.0576  0.1947  0.2403
 5219TIP3    H137072   2.902   1.000  14.122  1.2888 -1.2297  1.1462
 5219TIP3    H237073   3.016   1.058  14.042 -1.1382  1.4847 -0.5636
 5220TIP3   OH237074   6.523   5.520  16.675 -0.0581 -0.4925  0.6643
 5220TIP3    H137075   6.462   5.570  16.621 -0.4286  0.2251  1.7182
 5220TIP3    H237076   6.506   5.550  16.765  1.4472 -0.6859  1.0407
 5221TIP3   OH237077   3.997   1.047   2.414 -0.1002  0.0654 -0.6470
 5221TIP3    H137078   4.085   1.012   2.404 -0.1716 -0.0584 -0.8500
 5221TIP3    H237079   4.006   1.141   2.397  0.8667  1.0085  3.8423
 5222TIP3   OH237080   6.568   0.809  16.583  0.1790 -0.3764 -0.7514
 5222TIP3    H137081   6.479   0.802  16.548  0.3971 -1.5670 -1.1045
 5222TIP3    H237082   6.596   0.898  16.561  0.3669 -1.0891 -3.8133
 5223TIP3   OH237083   0.099   0.957  12.364  0.1689  0.1291  0.4086
 5223TIP3    H137084   0.083   0.886  12.426  0.8174 -0.1218  0.3001
 5223TIP3    H237085   0.012   0.992  12.345 -0.5107 -2.2419 -1.4367
 5224TIP3   OH237086   3.590   4.075  15.215 -0.2431 -0.3050  0.9830
 5224TIP3    H137087   3.573   4.089  15.122 -0.1482  0.9791  1.1514
 5224TIP3    H237088   3.510   4.034  15.248 -0.6117  0.0397  0.5230
 5225TIP3   OH237089   2.764   1.375   1.192  0.1811 -0.2155 -0.1976
 5225TIP3    H137090   2.702   1.310   1.226 -1.9680  2.3786  1.2564
 5225TIP3    H237091   2.847   1.328   1.186 -1.2781 -3.1220  0.5244
 5226TIP3   OH237092   0.522   1.466   6.688 -0.5274 -0.6164 -0.0675
 5226TIP3    H137093   0.552   1.545   6.643 -2.7065  0.2941 -0.0474
 5226TIP3    H237094   0.555   1.394   6.634 -0.2795  0.3664 -1.2704
 5227TIP3   OH237095   4.923   0.934   3.358  0.2788  0.5735 -0.1859
 5227TIP3    H137096   4.868   0.897   3.427  0.4434  1.9785  0.7585
 5227TIP3    H237097   5.009   0.896   3.374 -0.0374 -0.3434 -0.6264
 5228TIP3   OH237098   0.386   3.283   5.587 -0.3660 -0.6623  0.0693
 5228TIP3    H137099   0.327   3.344   5.631  0.0548 -1.0566  1.2246
 5228TIP3    H237100   0.367   3.198   5.626  0.6924 -0.8562  0.2114
 5229TIP3   OH237101   2.336   4.178   0.029 -0.0692 -0.0154 -0.5708
 5229TIP3    H137102   2.430   4.192   0.023 -0.4099  3.0345 -0.3827
 5229TIP3    H237103   2.306   4.178  -0.062  0.3337 -4.4815 -0.9515
 5230TIP3   OH237104   2.255   5.138  11.767 -0.2046 -0.1666  0.2432
 5230TIP3    H137105   2.326   5.082  11.736 -0.5283 -0.0900 -0.6550
 5230TIP3    H237106   2.217   5.175  11.688 -1.2039 -0.1478  0.7211
 5231TIP3   OH237107   4.385   5.248   2.686 -0.1198 -0.2432 -0.2217
 5231TIP3    H137108   4.450   5.201   2.634  0.2708 -0.8069  0.7510
 5231TIP3    H237109   4.396   5.214   2.774  0.5502  2.0462  0.6682
 5232TIP3   OH237110   0.153   3.693   4.734  0.8063 -0.2724 -0.5197
 5232TIP3    H137111   0.140   3.682   4.640 -1.2770  0.6975 -0.4180
 5232TIP3    H237112   0.123   3.611   4.772  0.5905 -0.2544 -0.6492
 5233TIP3   OH237113   0.954   5.941   2.069 -0.1736  0.6955 -0.5159
 5233TIP3    H137114   1.013   5.916   2.140  0.1056  1.9498 -0.2846
 5233TIP3    H237115   1.008   5.993   2.009 -0.1441 -1.1556 -2.2016
 5234TIP3   OH237116   4.074   1.089  16.959  0.1662  0.3481 -0.2558
 5234TIP3    H137117   4.136   1.018  16.943  0.2686  0.2214  0.6411
 5234TIP3    H237118   4.114   1.165  16.917 -0.3747 -0.2895 -1.9897
 5235TIP3   OH237119   2.953   0.117   4.059 -0.2062  0.3326  0.4323
 5235TIP3    H137120   3.047   0.125   4.071  0.5407 -2.5642 -2.2763
 5235TIP3    H237121   2.936   0.155   3.972 -1.6678  1.2494  1.0725
 5236TIP3   OH237122   4.434   4.616  16.634  0.3164  0.1808  0.3509
 5236TIP3    H137123   4.432   4.711  16.622  2.2038  0.2912  0.6684
 5236TIP3    H237124   4.522   4.590  16.608 -0.1208 -1.4763  0.4073
 5237TIP3   OH237125   4.311   6.015  11.620 -0.1430  0.2357 -0.0783
 5237TIP3    H137126   4.325   6.106  11.647  1.0865 -0.4123  1.6077
 5237TIP3    H237127   4.393   5.989  11.578 -0.0266 -0.4541  0.5503
 5238TIP3   OH237128   0.905   4.355  15.120 -0.0086 -0.9281  0.5924
 5238TIP3    H137129   0.952   4.436  15.101 -1.7922  0.4605  1.7945
 5238TIP3    H237130   0.893   4.313  15.035  1.5784 -0.3201  0.0371
 5239TIP3   OH237131   0.693   0.496   0.063 -0.3611 -0.1285 -0.5888
 5239TIP3    H137132   0.740   0.416   0.040 -0.4887 -0.6927  1.0478
 5239TIP3    H237133   0.762   0.562   0.074  0.0290 -0.7617  1.0134
 5240TIP3   OH237134   2.571   4.332  13.730  0.0851 -0.1554  0.0594
 5240TIP3    H137135   2.488   4.292  13.705  0.7318 -1.3863 -0.2266
 5240TIP3    H237136   2.601   4.377  13.652  0.3262 -0.8638 -0.2635
 5241TIP3   OH237137   1.731   2.841  15.324  0.1562 -0.0207 -0.8590
 5241TIP3    H137138   1.711   2.885  15.242 -0.8234 -0.1003 -0.6835
 5241TIP3    H237139   1.792   2.899  15.369  1.0988 -0.2253 -1.8577
 5242TIP3   OH237140   5.373   2.490  11.833 -0.1608 -0.1190 -0.2039
 5242TIP3    H137141   5.461   2.499  11.870 -0.5532  0.4069  0.6121
 5242TIP3    H237142   5.376   2.542  11.752  0.9595 -1.9658 -1.4496
 5243TIP3   OH237143   2.469   2.499  14.466  0.0064 -0.2509  0.3999
 5243TIP3    H137144   2.391   2.505  14.521  0.0264 -0.3283  0.4360
 5243TIP3    H237145   2.441   2.536  14.382  0.2601  0.7953  0.7619
 5244TIP3   OH237146   6.405   4.609   0.230  0.5209 -0.4332 -0.2003
 5244TIP3    H137147   6.388   4.668   0.157  2.5450  0.3607 -0.1004
 5244TIP3    H237148   6.328   4.553   0.234 -0.9903  1.4655 -1.0004
 5245TIP3   OH237149   1.752   1.592  14.022 -0.6652  0.7687  0.0021
 5245TIP3    H137150   1.764   1.677  13.980  0.8219  0.4034 -0.3777
 5245TIP3    H237151   1.766   1.608  14.115 -1.5178  1.1350  0.0737
 5246TIP3   OH237152   5.440   6.586  10.970 -0.6372  0.5122 -0.0825
 5246TIP3    H137153   5.530   6.552  10.965 -0.4509  1.1595 -1.8648
 5246TIP3    H237154   5.412   6.566  11.059 -0.0672 -3.0454 -0.5517
 5247TIP3   OH237155   1.648   3.838  16.189  0.0522  0.4624  0.5285
 5247TIP3    H137156   1.711   3.901  16.154  1.0377  0.9677  3.0374
 5247TIP3    H237157   1.690   3.753  16.176 -0.0070  0.5402 -0.2691
 5248TIP3   OH237158   0.148   6.515   5.902  0.4135 -0.3066 -0.0277
 5248TIP3    H137159   0.059   6.524   5.868  0.7375  1.5001 -0.4781
 5248TIP3    H237160   0.140   6.453   5.974 -1.0624 -0.7956 -0.5737
 5249TIP3   OH237161   4.705   3.812   1.989  0.3262 -0.9424 -0.5524
 5249TIP3    H137162   4.767   3.739   1.979 -0.0063 -1.8479  2.8381
 5249TIP3    H237163   4.755   3.889   1.964  2.1871 -1.8805  0.0433
 5250TIP3   OH237164   0.942   1.566  12.301 -0.5171  0.1410 -0.3264
 5250TIP3    H137165   0.915   1.521  12.221  0.4728 -0.5066 -0.3162
 5250TIP3    H237166   0.979   1.497  12.357 -0.6371  0.6776  0.4412
 5251TIP3   OH237167   1.882   0.730  13.339  0.0474 -0.0914 -0.1691
 5251TIP3    H137168   1.884   0.707  13.432 -0.6872  1.5748  0.2833
 5251TIP3    H237169   1.945   0.670  13.298  1.4710  0.1143  1.6155
 5252TIP3   OH237170   3.135   4.276   0.303  0.6872  0.5248 -0.1706
 5252TIP3    H137171   3.166   4.298   0.215 -0.3116  1.9818 -0.1945
 5252TIP3    H237172   3.215   4.279   0.357  1.2794 -0.2286 -0.9866
 5253TIP3   OH237173   5.886   3.207   5.965  0.4893 -0.7107  0.0655
 5253TIP3    H137174   5.894   3.213   6.060 -0.8314  0.0528  0.1499
 5253TIP3    H237175   5.838   3.285   5.940 -0.5593 -1.6692 -1.0546
 5254TIP3   OH237176   4.314   6.229   1.193  0.3290 -0.1185  0.0951
 5254TIP3    H137177   4.392   6.232   1.138 -0.0992 -0.9963 -0.5942
 5254TIP3    H237178   4.340   6.271   1.275  0.6725  2.1993 -1.1294
 5255TIP3   OH237179   6.168   5.513   5.668  0.1610 -0.0077 -0.0659
 5255TIP3    H137180   6.216   5.436   5.639 -0.3254 -0.3025 -0.0999
 5255TIP3    H237181   6.216   5.544   5.745 -0.1893 -0.9232  0.5340
 5256TIP3   OH237182   2.174   1.446   0.044 -0.1756 -0.9507  0.2112
 5256TIP3    H137183   2.156   1.410  -0.043 -0.5265 -0.7180  0.1827
 5256TIP3    H237184   2.222   1.527   0.026 -0.8258 -0.5565  0.1977
 5257TIP3   OH237185   5.511   2.510  15.339  0.4514 -0.1419  0.5611
 5257TIP3    H137186   5.459   2.578  15.380 -0.7241 -1.0289  0.5979
 5257TIP3    H237187   5.596   2.551  15.321 -0.0054  1.1066  1.1911
 5258TIP3   OH237188   1.146   4.438  14.183 -0.2905  0.0770 -0.0528
 5258TIP3    H137189   1.116   4.450  14.093  0.0616 -0.1576 -0.2032
 5258TIP3    H237190   1.218   4.376  14.176 -0.0736  0.2797  0.3598
 5259TIP3   OH237191   4.024   0.861   0.985 -0.1953  0.5222  0.3988
 5259TIP3    H137192   4.021   0.933   0.922 -1.4088  0.0135 -0.1703
 5259TIP3    H237193   4.063   0.788   0.937 -0.9447  0.1907  0.2721
 5260TIP3   OH237194   1.151   6.703  12.598 -0.1614 -0.1301 -0.5280
 5260TIP3    H137195   1.082   6.652  12.553 -0.2294 -0.5858  0.0760
 5260TIP3    H237196   1.210   6.637  12.633 -0.5435  0.1732  0.7422
 5261TIP3   OH237197   3.005   4.234  14.620 -0.1161 -0.7703 -0.0939
 5261TIP3    H137198   2.989   4.150  14.663  0.3750 -1.1457 -0.6288
 5261TIP3    H237199   2.979   4.220  14.529 -0.9859 -0.0357  0.0290
 5262TIP3   OH237200   2.963   0.290   1.172  0.1336 -0.5418 -0.1736
 5262TIP3    H137201   3.008   0.246   1.099 -0.4125 -2.9738  0.8430
 5262TIP3    H237202   3.033   0.320   1.229  0.5813  1.6711 -1.7743
 5263TIP3   OH237203   4.703   0.301  10.573 -0.2400 -0.3662  0.2158
 5263TIP3    H137204   4.714   0.391  10.540 -1.6286 -0.1229  0.3471
 5263TIP3    H237205   4.774   0.290  10.636  0.2580  0.4571 -0.1746
 5264TIP3   OH237206   5.286   3.518   5.518  0.0488  0.0938 -0.1164
 5264TIP3    H137207   5.224   3.590   5.533  0.0718  0.1770 -0.4270
 5264TIP3    H237208   5.300   3.480   5.605  1.4444  1.6031  0.3561
 5265TIP3   OH237209   1.792   3.003   5.215 -0.2975  0.9689  0.0603
 5265TIP3    H137210   1.809   2.947   5.139 -2.7149 -0.6086  0.5590
 5265TIP3    H237211   1.709   3.046   5.195 -0.4643  1.3031  1.3727
 5266TIP3   OH237212   3.687   5.872  13.996 -0.3219  0.6409 -0.4258
 5266TIP3    H137213   3.614   5.897  14.054  1.4639 -0.1607  2.3497
 5266TIP3    H237214   3.724   5.956  13.967  0.0280  1.1542  1.3792
 5267TIP3   OH237215   6.221   6.623   3.589  0.8144  0.1206 -0.7666
 5267TIP3    H137216   6.209   6.593   3.679  1.7781  1.1186 -0.2812
 5267TIP3    H237217   6.160   6.695   3.579  2.4980  1.7557  0.0008
 5268TIP3   OH237218   5.444   6.654   0.315 -0.5914 -0.1457 -0.1268
 5268TIP3    H137219   5.485   6.720   0.259 -0.3792 -0.9947 -0.9901
 5268TIP3    H237220   5.358   6.639   0.275 -1.3112  0.7510  0.9875
 5269TIP3   OH237221   4.435   5.537  11.862  0.4084 -0.8650 -0.0570
 5269TIP3    H137222   4.405   5.628  11.865 -2.2433 -1.6664  0.6779
 5269TIP3    H237223   4.475   5.522  11.948  0.6279 -0.4712 -0.0878
 5270TIP3   OH237224   1.323   3.979   3.368  0.0134 -0.0332  0.1482
 5270TIP3    H137225   1.263   4.051   3.391 -0.8763 -1.1554  1.4716
 5270TIP3    H237226   1.278   3.933   3.297 -0.7757 -0.9033  1.1724
 5271TIP3   OH237227   1.014   0.673   2.930 -0.1081  0.0971 -0.1185
 5271TIP3    H137228   0.932   0.629   2.905  0.1658  0.1830 -1.2178
 5271TIP3    H237229   1.015   0.753   2.876  1.0444 -0.2673 -0.6600
 5272TIP3   OH237230   1.047   3.148   4.276  0.1147  0.1475  0.1569
 5272TIP3    H137231   1.080   3.060   4.257  1.6726  0.4639  1.1596
 5272TIP3    H237232   1.113   3.185   4.334  0.2211  2.5020 -1.3508
 5273TIP3   OH237233   3.529   0.269  17.163  0.2952  0.3295  0.1123
 5273TIP3    H137234   3.467   0.206  17.128 -0.4827  1.1919 -0.1106
 5273TIP3    H237235   3.612   0.221  17.169 -0.6592 -1.2430  1.6611
 5274TIP3   OH237236   2.794   0.731  13.512 -0.1494  0.4275 -0.1946
 5274TIP3    H137237   2.705   0.717  13.542  0.2205 -1.0852  0.3038
 5274TIP3    H237238   2.839   0.770  13.586 -0.2725  0.7074 -0.2677
 5275TIP3   OH237239   6.035   1.108  16.156  0.3414 -0.0101  0.1166
 5275TIP3    H137240   6.119   1.064  16.146 -0.2799 -1.4346  0.8389
 5275TIP3    H237241   6.009   1.130  16.066  0.8605 -0.7665 -0.2284
 5276TIP3   OH237242   1.012   1.729   1.776  0.3177 -0.3956  0.2725
 5276TIP3    H137243   0.991   1.651   1.724  0.8771  0.4867 -1.3418
 5276TIP3    H237244   0.935   1.786   1.767 -0.2897 -0.9140  1.8367
 5277TIP3   OH237245   2.340   0.946   4.480  0.1109  0.5261  0.2487
 5277TIP3    H137246   2.420   0.893   4.486 -0.1067  0.3725  2.1679
 5277TIP3    H237247   2.274   0.895   4.526 -0.3055  2.0681  1.4346
 5278TIP3   OH237248   0.705   0.386  13.699  0.4493 -0.3182 -0.4111
 5278TIP3    H137249   0.669   0.347  13.779  1.5778 -1.5725 -0.4914
 5278TIP3    H237250   0.659   0.342  13.628 -0.6579  0.8970 -0.4990
 5279TIP3   OH237251   4.857   6.699   4.350 -0.3322 -0.1490  0.0306
 5279TIP3    H137252   4.928   6.720   4.289  0.4415  2.8612  1.7434
 5279TIP3    H237253   4.779   6.741   4.312  0.1859  1.8852  1.0292
 5280TIP3   OH237254   1.213   1.799   5.484  0.0887  0.1971  0.3420
 5280TIP3    H137255   1.221   1.831   5.574 -0.6125 -1.7329  1.1507
 5280TIP3    H237256   1.121   1.813   5.461 -0.1927 -1.0255  0.6548
 5281TIP3   OH237257   4.184   3.608  16.824  0.0360 -0.1683  0.0380
 5281TIP3    H137258   4.179   3.632  16.917 -0.9258 -0.0839 -0.0249
 5281TIP3    H237259   4.262   3.553  16.818  0.2878  0.0873  0.8389
 5282TIP3   OH237260   3.155   6.327  10.720 -0.4334 -0.0337 -0.3844
 5282TIP3    H137261   3.235   6.372  10.693 -0.4882  1.1115  1.2188
 5282TIP3    H237262   3.186   6.246  10.761 -0.3055 -1.2250 -2.6841
 5283TIP3   OH237263   1.296   0.338  15.352  0.4232 -0.0772 -0.1629
 5283TIP3    H137264   1.318   0.379  15.268  1.1039  0.4093  0.2416
 5283TIP3    H237265   1.374   0.351  15.406  0.3224 -1.1713  0.2575
 5284TIP3   OH237266   2.141   0.197  16.108 -0.8272 -0.0381 -0.0231
 5284TIP3    H137267   2.058   0.166  16.072  0.4664 -2.2797 -1.3388
 5284TIP3    H237268   2.198   0.206  16.031 -0.4591  3.9254  0.4926
 5285TIP3   OH237269   6.662   4.601  11.384  0.2186  0.1417 -0.5609
 5285TIP3    H137270   6.654   4.656  11.461  3.1881  0.0581 -0.0652
 5285TIP3    H237271   6.665   4.662  11.311  3.0438  0.7453 -0.0534
 5286TIP3   OH237272   0.665   0.663   4.755  0.0484  0.3978  0.0927
 5286TIP3    H137273   0.734   0.634   4.695  0.5787  0.9595  0.4329
 5286TIP3    H237274   0.585   0.660   4.702  0.3763  0.0458 -0.3893
 5287TIP3   OH237275   2.550   2.393  12.897 -0.0290 -0.0950 -0.7068
 5287TIP3    H137276   2.582   2.472  12.941 -0.4056  0.1695 -0.9084
 5287TIP3    H237277   2.625   2.332  12.901 -0.4994 -0.6474  1.6105
 5288TIP3   OH237278   6.572   6.392   2.219 -0.2180  0.1956  0.0335
 5288TIP3    H137279   6.629   6.391   2.296  1.4256  0.8697 -1.1198
 5288TIP3    H237280   6.488   6.425   2.252  0.4246  0.4176  1.5401
 5289TIP3   OH237281   6.026   2.055  14.611  0.1454  0.0891  0.1577
 5289TIP3    H137282   6.108   2.100  14.591  0.3644 -0.2843  0.1992
 5289TIP3    H237283   6.018   2.061  14.706  0.2615 -0.1025  0.1808
 5290TIP3   OH237284   1.487   5.623  15.816  0.0035 -0.0716 -0.1922
 5290TIP3    H137285   1.559   5.684  15.831 -1.8512  1.8189  1.8360
 5290TIP3    H237286   1.511   5.545  15.866  0.5825  0.6332  0.6795
 5291TIP3   OH237287   2.089   4.570   1.835  0.7736 -0.3660  0.3346
 5291TIP3    H137288   2.160   4.633   1.850 -0.4725  1.4435 -0.8589
 5291TIP3    H237289   2.024   4.592   1.902  0.5594 -0.7500  0.2514
 5292TIP3   OH237290   1.146   5.544   1.921  0.3429  0.5783  0.3628
 5292TIP3    H137291   1.091   5.621   1.909 -1.4024 -0.6850  0.0102
 5292TIP3    H237292   1.194   5.561   2.003 -1.9716  0.9270  1.7206
 5293TIP3   OH237293   0.701   3.610  12.235 -0.3077 -0.1150 -0.3712
 5293TIP3    H137294   0.625   3.579  12.284 -0.1730 -1.2483 -0.8446
 5293TIP3    H237295   0.746   3.530  12.208  1.7542  0.5148  0.9505
 5294TIP3   OH237296   4.594   4.821  12.541 -0.0369  0.0407  0.5771
 5294TIP3    H137297   4.506   4.826  12.578 -0.6020 -1.9665 -0.4046
 5294TIP3    H237298   4.589   4.873  12.461 -0.6410 -0.9190 -0.0228
 5295TIP3   OH237299   1.856   2.407  11.776  0.0884  0.7006  0.5810
 5295TIP3    H137300   1.863   2.312  11.777  4.0001  0.7609  4.1994
 5295TIP3    H237301   1.764   2.424  11.754 -0.3201 -3.6934 -2.2850
 5296TIP3   OH237302   3.269   3.330  13.392  0.4988 -0.8611 -0.2173
 5296TIP3    H137303   3.329   3.397  13.424  2.1490 -3.2692  2.1315
 5296TIP3    H237304   3.183   3.360  13.420  1.3868 -0.5259  2.4193
 5297TIP3   OH237305   3.296   5.381   2.268  0.4516 -0.0013 -0.1768
 5297TIP3    H137306   3.204   5.399   2.250  0.5360 -0.4918 -1.1401
 5297TIP3    H237307   3.336   5.372   2.182  1.9336  2.7499  0.0800
 5298TIP3   OH237308   5.775   5.891  14.019  0.6566 -0.3607  0.0160
 5298TIP3    H137309   5.782   5.890  13.923  0.1457 -0.3835 -0.0256
 5298TIP3    H237310   5.693   5.937  14.036  0.0418 -1.5539  0.3949
 5299TIP3   OH237311   0.188   2.506  11.566  0.1566  0.2559  0.1752
 5299TIP3    H137312   0.106   2.461  11.588 -0.4901  2.3658  2.5438
 5299TIP3    H237313   0.159   2.586  11.521  1.1494 -0.5005 -1.9088
 5300TIP3   OH237314   5.727   2.717   3.269  0.1245  0.5196  0.4257
 5300TIP3    H137315   5.714   2.665   3.348 -0.5799  0.1068  0.0542
 5300TIP3    H237316   5.662   2.787   3.275  0.0955  0.5095  0.2348
 5301TIP3   OH237317   3.198   5.057   1.385  0.3263  0.0954  0.2283
 5301TIP3    H137318   3.270   5.105   1.424  0.9092 -1.3240  0.9795
 5301TIP3    H237319   3.169   4.997   1.454 -1.8142  0.8524  0.0785
 5302TIP3   OH237320   1.625   2.462   2.055  0.3457 -0.1344  0.3134
 5302TIP3    H137321   1.709   2.426   2.084  0.4525  0.7943  1.2233
 5302TIP3    H237322   1.564   2.439   2.126  0.4420  1.5152  0.9816
 5303TIP3   OH237323   3.704   3.320  15.705  0.0385 -0.2843  0.0281
 5303TIP3    H137324   3.770   3.388  15.719  0.0798 -0.1735 -0.6685
 5303TIP3    H237325   3.754   3.243  15.678 -0.1740  0.1096 -1.5948
 5304TIP3   OH237326   4.340   2.980  14.783 -0.3072  0.1611 -0.4288
 5304TIP3    H137327   4.273   3.047  14.794 -0.3313  0.7098 -3.1947
 5304TIP3    H237328   4.291   2.901  14.761 -0.1504  0.6189 -2.6997
 5305TIP3   OH237329   0.793   3.579   1.529 -0.0911 -0.3771  0.3192
 5305TIP3    H137330   0.765   3.504   1.581  0.4047 -0.5522  0.3354
 5305TIP3    H237331   0.838   3.636   1.592  1.3672 -1.0408 -0.0946
 5306TIP3   OH237332   1.105   1.939   5.716 -0.5205  0.2821 -0.0365
 5306TIP3    H137333   1.071   1.918   5.803  0.8119 -1.6940  0.0770
 5306TIP3    H237334   1.145   2.025   5.725  1.8432 -0.9202  2.0673
 5307TIP3   OH237335   1.620   0.983  15.097  0.4543  0.3761  0.2401
 5307TIP3    H137336   1.687   0.991  15.029  0.1164 -0.4127 -0.1910
 5307TIP3    H237337   1.618   0.890  15.118  0.0649  0.5134  0.8460
 5308TIP3   OH237338   1.658   5.033   4.102 -0.4486 -0.0541  0.0467
 5308TIP3    H137339   1.668   5.005   4.011  1.7619  2.2396 -0.5706
 5308TIP3    H237340   1.730   4.990   4.149  0.6966  1.5160 -0.1546
 5309TIP3   OH237341   2.924   1.629  13.308 -0.4432 -0.3098 -0.2939
 5309TIP3    H137342   2.982   1.554  13.318 -0.1873 -0.0997 -0.1881
 5309TIP3    H237343   2.983   1.703  13.291 -0.7407 -0.2797 -1.2527
 5310TIP3   OH237344   5.833   3.266   2.096  0.6868  0.0127 -0.8073
 5310TIP3    H137345   5.838   3.228   2.183 -0.8251  0.8541 -0.3224
 5310TIP3    H237346   5.911   3.233   2.051  1.1018 -1.0243  0.6081
 5311TIP3   OH237347   5.006   4.907   5.167 -0.4508  0.0584  0.1482
 5311TIP3    H137348   5.018   4.812   5.166 -1.0437 -0.0149 -0.2497
 5311TIP3    H237349   4.983   4.927   5.258  0.9008 -0.0153  0.5229
 5312TIP3   OH237350   3.350   3.715   4.569 -0.3376  0.4946  0.0256
 5312TIP3    H137351   3.419   3.653   4.545  1.2395  2.7815 -1.7285
 5312TIP3    H237352   3.275   3.688   4.517 -0.5615 -1.4723  1.2700
 5313TIP3   OH237353   6.247   3.696   1.023 -0.0543  0.0562  0.3361
 5313TIP3    H137354   6.181   3.718   1.089 -0.7904  1.4190 -0.8223
 5313TIP3    H237355   6.214   3.615   0.983  0.7375 -1.1811  2.0205
 5314TIP3   OH237356   4.448   3.158  11.161 -0.2736  0.1398 -0.0480
 5314TIP3    H137357   4.460   3.092  11.093 -0.3222  1.1543 -1.0870
 5314TIP3    H237358   4.471   3.114  11.242 -1.8081 -1.5964 -0.4945
 5315TIP3   OH237359   2.197   5.311   3.234 -0.3271 -0.1630  0.3440
 5315TIP3    H137360   2.116   5.275   3.197 -1.6784  0.4617  2.5488
 5315TIP3    H237361   2.226   5.376   3.170 -0.2568 -1.9648 -1.5662
 5316TIP3   OH237362   4.654   2.458  14.323 -0.6830 -0.1120  0.1046
 5316TIP3    H137363   4.656   2.363  14.326  0.4800 -0.0641  1.9005
 5316TIP3    H237364   4.565   2.479  14.295 -0.8376 -1.7074 -0.7041
 5317TIP3   OH237365   0.917   1.527   5.511 -0.0297  0.4137  0.0239
 5317TIP3    H137366   1.004   1.516   5.473  0.1934  0.9742  0.3643
 5317TIP3    H237367   0.918   1.614   5.551 -0.1066 -0.3071  1.6891
 5318TIP3   OH237368   6.566   4.070   0.613 -0.3960 -0.2947  0.0030
 5318TIP3    H137369   6.638   4.089   0.674  0.3508  3.2303 -1.7060
 5318TIP3    H237370   6.488   4.068   0.669  0.5444  0.2817  1.4155
 5319TIP3   OH237371   2.534   5.986   4.028 -0.2027 -0.6181 -0.1770
 5319TIP3    H137372   2.464   6.017   4.085 -0.5460  0.2754 -1.0598
 5319TIP3    H237373   2.527   6.040   3.950  1.1628 -0.8558 -0.4858
 5320TIP3   OH237374   1.873   4.651  12.013 -0.0894 -0.1199  0.2952
 5320TIP3    H137375   1.937   4.608  11.956 -0.9212 -1.6806  0.4622
 5320TIP3    H237376   1.842   4.582  12.071 -1.6920  0.6365  0.4219
 5321TIP3   OH237377   1.099   4.450  15.879 -0.2727 -0.0149 -0.2677
 5321TIP3    H137378   1.130   4.390  15.811 -0.7241 -1.1425  0.4974
 5321TIP3    H237379   1.152   4.429  15.956 -1.9555 -1.0266  0.6655
 5322TIP3   OH237380   1.661   5.996  14.980  0.1130  0.2772 -0.5504
 5322TIP3    H137381   1.626   6.012  14.892  0.4590  0.7724 -0.6067
 5322TIP3    H237382   1.681   6.084  15.014 -2.3206  0.3152  1.0042
 5323TIP3   OH237383   4.969   6.549   6.077 -0.9655  0.0144 -0.4144
 5323TIP3    H137384   4.961   6.593   5.993 -0.7727 -1.4751 -1.2358
 5323TIP3    H237385   4.906   6.477   6.074 -1.5956  0.4448  1.0813
 5324TIP3   OH237386   3.707   2.286   2.918 -0.1493  0.1077 -0.9150
 5324TIP3    H137387   3.679   2.195   2.923 -0.5947  0.2340 -1.0859
 5324TIP3    H237388   3.802   2.283   2.930 -0.3044 -0.2613  0.3863
 5325TIP3   OH237389   3.182   0.966  14.552  0.1237 -0.2339  0.3551
 5325TIP3    H137390   3.102   0.973  14.500 -0.5523  3.0288  1.5900
 5325TIP3    H237391   3.175   0.882  14.595 -1.6546 -0.8895 -1.0740
 5326TIP3   OH237392   0.882   3.709   4.028  0.8203 -0.3027 -0.1491
 5326TIP3    H137393   0.936   3.729   4.104  0.5324 -5.5586  1.8487
 5326TIP3    H237394   0.796   3.746   4.049  0.9373 -1.0450  1.8593
 5327TIP3   OH237395   6.082   2.632  14.440  0.0822  0.3037  1.2884
 5327TIP3    H137396   6.070   2.537  14.444  2.1928 -0.3395 -2.5321
 5327TIP3    H237397   6.020   2.661  14.373  4.2936  0.1057 -3.3039
 5328TIP3   OH237398   1.058   5.703  12.106 -0.6032  0.2269 -0.0437
 5328TIP3    H137399   1.068   5.782  12.160 -3.2312 -0.0838  1.0535
 5328TIP3    H237400   1.087   5.729  12.019  0.8846  1.6572  0.8233
 5329TIP3   OH237401   5.027   5.499  14.944  0.4465 -0.5577  0.0360
 5329TIP3    H137402   5.020   5.592  14.967 -1.7432 -0.6387 -0.0227
 5329TIP3    H237403   5.023   5.497  14.849  0.0381 -0.7074  0.0509
 5330TIP3   OH237404   1.270   5.478   4.175 -0.0948  0.5525  0.3394
 5330TIP3    H137405   1.265   5.479   4.080  2.0668  0.1094  0.1697
 5330TIP3    H237406   1.238   5.391   4.200  1.9517 -0.4176 -0.2393
 5331TIP3   OH237407   3.424   2.843  10.715 -0.0406  0.0709  0.4682
 5331TIP3    H137408   3.516   2.824  10.732 -0.3290 -0.2103  1.7876
 5331TIP3    H237409   3.380   2.758  10.714 -0.2256  0.1531 -0.7093
 5332TIP3   OH237410   6.345   3.157   3.003 -0.0558  0.0203  0.1491
 5332TIP3    H137411   6.316   3.196   3.086  0.8220 -0.0363  0.4965
 5332TIP3    H237412   6.273   3.174   2.942  0.4327  2.6008  0.1551
 5333TIP3   OH237413   3.107   2.762  11.615 -0.3041  0.4189 -0.6686
 5333TIP3    H137414   3.108   2.852  11.649  1.5326 -0.2293  1.2177
 5333TIP3    H237415   3.020   2.730  11.637 -0.3237  1.1402  0.4393
 5334TIP3   OH237416   3.782   5.327  16.566 -0.0672  0.0255  0.3984
 5334TIP3    H137417   3.843   5.382  16.517  0.4484 -0.6616  0.2543
 5334TIP3    H237418   3.723   5.389  16.609  0.1657  0.6718 -0.1929
 5335TIP3   OH237419   4.443   0.506   4.725  0.7556  0.1933 -0.1615
 5335TIP3    H137420   4.364   0.528   4.774  0.4669 -0.5616 -0.2785
 5335TIP3    H237421   4.510   0.565   4.761  0.6112 -0.4912  1.3167
 5336TIP3   OH237422   4.046   5.625  12.317  0.0778 -0.0491 -0.0052
 5336TIP3    H137423   4.132   5.602  12.283  0.4101  0.3582  0.5423
 5336TIP3    H237424   3.989   5.553  12.289  0.4227  0.0594 -1.0286
 5337TIP3   OH237425   3.847   1.012  16.419  0.0503 -0.0860  0.2954
 5337TIP3    H137426   3.883   1.076  16.482 -1.2055  1.1322 -0.1791
 5337TIP3    H237427   3.875   1.044  16.334 -1.8168  0.7216 -0.0663
 5338TIP3   OH237428   1.002   3.343  16.765  0.4761 -0.4272 -0.5728
 5338TIP3    H137429   1.070   3.351  16.699  1.7168  0.8766  0.7812
 5338TIP3    H237430   1.049   3.327  16.847 -1.0413 -2.5450 -0.0394
 5339TIP3   OH237431   4.327   0.416   0.697  0.4618  0.4576  0.1001
 5339TIP3    H137432   4.279   0.367   0.629  0.5026  0.1111  0.3165
 5339TIP3    H237433   4.365   0.490   0.650  0.2978  0.3484 -0.2134
 5340TIP3   OH237434   5.541   4.303  14.694 -0.4776 -0.2944  0.3628
 5340TIP3    H137435   5.461   4.258  14.722 -0.3625 -0.4656  0.4190
 5340TIP3    H237436   5.611   4.238  14.706 -0.0115  0.4634  2.2110
 5341TIP3   OH237437   1.441   2.149  13.071  0.5121 -0.5442  0.1813
 5341TIP3    H137438   1.526   2.191  13.055  0.7968 -0.6778  1.2635
 5341TIP3    H237439   1.413   2.183  13.156 -0.2126 -1.0056  0.1337
 5342TIP3   OH237440   5.414   2.862  16.737 -0.2443  0.3685  0.0123
 5342TIP3    H137441   5.345   2.848  16.802  0.8839  1.2692  1.4667
 5342TIP3    H237442   5.366   2.886  16.657 -1.6293  0.4979  0.8372
 5343TIP3   OH237443   4.652   4.849  11.504 -0.0455 -0.1282 -0.4304
 5343TIP3    H137444   4.656   4.799  11.423 -1.9773  1.2867 -1.4770
 5343TIP3    H237445   4.714   4.921  11.491 -0.6697  0.3451 -0.8705
 5344TIP3   OH237446   0.558   4.907   0.305 -0.6362 -0.3308 -0.0126
 5344TIP3    H137447   0.593   4.926   0.218  0.3209  0.0235  0.4363
 5344TIP3    H237448   0.576   4.814   0.318  0.3966 -0.0968  0.3149
 5345TIP3   OH237449   1.835   0.950   0.220 -0.0495  0.6586  0.2804
 5345TIP3    H137450   1.818   0.889   0.148  0.6791 -0.2209  0.8178
 5345TIP3    H237451   1.870   1.028   0.178  0.6413  0.0465 -0.3208
 5346TIP3   OH237452   2.695   6.246  13.162 -0.2831  0.3273  0.0269
 5346TIP3    H137453   2.704   6.155  13.136  0.5846  0.4938 -0.3110
 5346TIP3    H237454   2.670   6.292  13.082  0.4615  0.5511 -0.0897
 5347TIP3   OH237455   6.716   0.289   1.768 -0.0531  0.0911  0.2719
 5347TIP3    H137456   6.621   0.277   1.760  0.0023  0.2396 -0.7305
 5347TIP3    H237457   6.752   0.200   1.770 -0.1897  0.0378  0.3341
 5348TIP3   OH237458   5.415   3.340  10.280  0.0426  0.4321  0.5371
 5348TIP3    H137459   5.466   3.412  10.242  0.0004  0.0321 -0.3196
 5348TIP3    H237460   5.385   3.373  10.364  0.2331  1.3248  0.2687
 5349TIP3   OH237461   0.298   0.991   1.894  0.1510 -0.0086 -0.4005
 5349TIP3    H137462   0.249   0.978   1.976  1.4787 -2.1926  0.1160
 5349TIP3    H237463   0.378   1.037   1.921 -0.5016  1.4977 -0.9035
 5350TIP3   OH237464   2.986   1.282   2.850  0.1816 -0.3331  0.1775
 5350TIP3    H137465   3.028   1.198   2.864 -0.8734 -0.7778  0.7694
 5350TIP3    H237466   2.939   1.300   2.931  0.0870  0.6453 -0.0786
 5351TIP3   OH237467   1.682   4.387  15.055  0.0137  0.0433  0.1237
 5351TIP3    H137468   1.711   4.478  15.059 -3.4123  1.2902  0.3206
 5351TIP3    H237469   1.622   4.384  14.981  1.3949 -2.5842 -1.0198
 5352TIP3   OH237470   4.841   3.441   4.679 -0.1649 -0.4101  0.3632
 5352TIP3    H137471   4.878   3.402   4.758  3.5051  0.8864 -0.5263
 5352TIP3    H237472   4.789   3.515   4.712  0.0966 -0.7425  1.6009
 5353TIP3   OH237473   2.686   0.030   5.634  0.0427  0.9181 -0.0772
 5353TIP3    H137474   2.681   0.076   5.719 -2.2211  1.3585 -0.3742
 5353TIP3    H237475   2.762  -0.027   5.642  0.5384  1.7553  1.8451
 5354TIP3   OH237476   6.682   1.743  11.429  0.2411 -0.4614  0.2810
 5354TIP3    H137477   6.724   1.811  11.481  1.1856 -1.3111  0.6789
 5354TIP3    H237478   6.730   1.663  11.451 -0.7637 -1.2418 -0.2464
 5355TIP3   OH237479   5.415   3.475   4.987  0.2518  0.3385  0.4691
 5355TIP3    H137480   5.507   3.457   4.972  0.2626 -1.3501  2.1842
 5355TIP3    H237481   5.415   3.548   5.049  0.5596 -1.0420  2.1771
 5356TIP3   OH237482   3.897   0.406   2.133  0.3523 -0.4441  0.4553
 5356TIP3    H137483   3.966   0.387   2.197 -0.0718  2.0377  1.7960
 5356TIP3    H237484   3.816   0.398   2.183  0.0474  2.2903  0.5470
 5357TIP3   OH237485   0.529   5.580  15.068  0.4340 -0.0268  0.4948
 5357TIP3    H137486   0.477   5.500  15.066  1.1136 -0.5532  2.0355
 5357TIP3    H237487   0.601   5.560  15.128  2.0814  0.8779 -1.0940
 5358TIP3   OH237488   3.992   0.654   5.572 -0.3518 -0.0916 -0.1655
 5358TIP3    H137489   3.937   0.619   5.501  0.8874  0.7370 -1.5979
 5358TIP3    H237490   4.077   0.612   5.559  0.5189  1.6964 -0.5587
 5359TIP3   OH237491   5.911   1.847   0.144 -0.2846  0.1001  0.5407
 5359TIP3    H137492   5.849   1.868   0.073 -2.4785 -0.4335  2.1744
 5359TIP3    H237493   5.876   1.767   0.183  1.3989 -0.1398  1.6406
 5360TIP3   OH237494   4.251   2.198   4.185 -0.1298 -0.1037 -0.4929
 5360TIP3    H137495   4.166   2.191   4.143 -1.9657  0.6067  2.7789
 5360TIP3    H237496   4.265   2.112   4.226 -0.5455  0.5066  1.0244
 5361TIP3   OH237497   2.645   0.960  16.194 -0.5821  0.6667 -0.1959
 5361TIP3    H137498   2.678   0.919  16.275 -1.6916 -0.7057 -0.4020
 5361TIP3    H237499   2.705   0.929  16.126  0.7938  2.4003  0.1409
 5362TIP3   OH237500   3.789   3.298   0.384 -0.2993 -0.9842 -1.0080
 5362TIP3    H137501   3.831   3.311   0.469 -2.0231  1.3896 -0.4069
 5362TIP3    H237502   3.862   3.294   0.322  0.9351  0.5133  0.2463
 5363TIP3   OH237503   6.049   1.760  14.107 -0.4926  0.4087 -0.2803
 5363TIP3    H137504   5.987   1.810  14.159 -0.2087 -0.3351  0.8076
 5363TIP3    H237505   5.995   1.713  14.043 -0.8307  1.4266 -0.7638
 5364TIP3   OH237506   0.826   3.292   0.406 -0.1958  0.2568 -0.7605
 5364TIP3    H137507   0.921   3.281   0.402 -0.0834  1.0595 -0.6078
 5364TIP3    H237508   0.791   3.229   0.344  0.5774  1.4169 -2.4456
 5365TIP3   OH237509   4.984   4.945   6.502 -0.2933 -0.2256 -0.3376
 5365TIP3    H137510   5.041   4.955   6.425 -1.2367 -0.8059 -1.1445
 5365TIP3    H237511   4.957   5.034   6.523  0.1692 -0.0341 -0.5217
 5366TIP3   OH237512   4.868   0.290  14.781 -0.6650 -0.4304  0.2397
 5366TIP3    H137513   4.802   0.317  14.718 -0.6681 -1.0690 -0.0431
 5366TIP3    H237514   4.869   0.194  14.775  2.9392 -0.4329 -2.5933
 5367TIP3   OH237515   3.182   4.359  12.689  0.3239 -0.3050 -0.1244
 5367TIP3    H137516   3.139   4.291  12.740  1.3896 -1.2426 -0.4455
 5367TIP3    H237517   3.263   4.377  12.737  1.0819 -0.8196 -1.1704
 5368TIP3   OH237518   1.681   4.273  11.985 -0.3957 -0.1389 -0.0272
 5368TIP3    H137519   1.732   4.333  12.039  0.6047 -0.7650 -0.2435
 5368TIP3    H237520   1.726   4.189  11.994 -0.9926 -0.5498 -0.7765
 5369TIP3   OH237521   4.499   3.702  14.752  0.5309  0.1775  0.2863
 5369TIP3    H137522   4.534   3.747  14.829 -0.5240 -0.8986  1.4374
 5369TIP3    H237523   4.411   3.736  14.742  0.9845  1.0110 -1.0528
 5370TIP3   OH237524   1.893   0.670   4.858 -0.0687  0.6943  0.1401
 5370TIP3    H137525   1.900   0.762   4.830 -0.0395 -0.0886 -2.7350
 5370TIP3    H237526   1.983   0.642   4.871 -0.0117  0.7564 -0.1170
 5371TIP3   OH237527   2.218   6.642  13.749 -0.1607 -0.1272  0.2521
 5371TIP3    H137528   2.182   6.730  13.740  2.3395  0.8864 -0.7439
 5371TIP3    H237529   2.273   6.630  13.672  0.3968 -2.1704  0.8949
 5372TIP3   OH237530   3.813   6.633  12.738  0.2691 -0.3924  0.0198
 5372TIP3    H137531   3.828   6.728  12.730  0.7577 -0.5187 -0.7012
 5372TIP3    H237532   3.789   6.606  12.650  1.1974 -1.1130 -0.0264
 5373TIP3   OH237533   6.085   1.573  13.262  0.0499 -0.0292  0.2516
 5373TIP3    H137534   6.132   1.598  13.182  1.4307 -1.5614  0.5289
 5373TIP3    H237535   6.019   1.510  13.233  0.3865 -0.3977  0.2806
 5374TIP3   OH237536   5.267   0.434   3.176  0.3361  0.5775 -0.4573
 5374TIP3    H137537   5.239   0.343   3.187  0.4199  0.6317  0.2377
 5374TIP3    H237538   5.253   0.452   3.083  0.4583 -0.1895 -0.6325
 5375TIP3   OH237539   1.662   0.168  13.180 -0.1348 -0.9929  0.6524
 5375TIP3    H137540   1.729   0.166  13.111 -0.4522  1.0882  0.2211
 5375TIP3    H237541   1.640   0.076  13.194  0.3261 -1.5341 -1.6512
 5376TIP3   OH237542   0.322   4.712  12.796  0.2926  0.3682  0.2993
 5376TIP3    H137543   0.399   4.696  12.742 -1.3198 -0.5809 -1.8367
 5376TIP3    H237544   0.291   4.625  12.820 -1.4504  0.5977 -0.9195
 5377TIP3   OH237545   5.620   5.301   3.085  0.2203 -0.3174  0.0032
 5377TIP3    H137546   5.646   5.366   3.020  1.4752  0.1422  0.9193
 5377TIP3    H237547   5.564   5.350   3.146  0.1842 -0.3977  0.0343
 5378TIP3   OH237548   1.187   0.144  12.164 -0.2820  0.2826 -0.2018
 5378TIP3    H137549   1.194   0.111  12.074 -0.5508  1.4439 -0.6721
 5378TIP3    H237550   1.277   0.150  12.195 -0.1704  0.1526 -0.4979
 5379TIP3   OH237551   4.129   1.728  16.706  0.1106  0.2700  0.5563
 5379TIP3    H137552   4.149   1.803  16.650 -0.4597  0.1725  0.2087
 5379TIP3    H237553   4.141   1.760  16.795  0.9797  0.4420  0.3811
 5380TIP3   OH237554   1.281   0.003   3.670  0.3741  0.1206 -0.3683
 5380TIP3    H137555   1.238   0.071   3.618  2.1902 -0.8208 -3.3468
 5380TIP3    H237556   1.345   0.050   3.723  1.6884  0.8308 -2.4783
 5381TIP3   OH237557   3.714   0.899   3.344  0.0445 -0.2884 -0.4683
 5381TIP3    H137558   3.735   0.913   3.436  0.9154 -2.3862 -0.2863
 5381TIP3    H237559   3.799   0.895   3.300 -0.1255 -2.9416 -0.7127
 5382TIP3   OH237560   4.759   3.695   4.718  0.3806 -0.3531 -0.1767
 5382TIP3    H137561   4.781   3.754   4.790  0.8164 -1.1935  0.3868
 5382TIP3    H237562   4.730   3.753   4.648  2.4923  0.6789 -0.2740
 5383TIP3   OH237563   0.418   0.532  12.397  0.6573  0.0175 -0.6891
 5383TIP3    H137564   0.512   0.539  12.378  1.1122 -0.7226  1.0808
 5383TIP3    H237565   0.413   0.533  12.493 -0.9689 -1.8282 -0.6871
 5384TIP3   OH237566   2.458   6.184   5.524 -0.8438 -0.4272  0.0324
 5384TIP3    H137567   2.390   6.150   5.581 -0.7061  0.7187  0.9140
 5384TIP3    H237568   2.529   6.210   5.583 -0.1144 -0.5427 -0.7724
 5385TIP3   OH237569   1.293   0.627   2.802  0.3933  0.0339 -0.6664
 5385TIP3    H137570   1.238   0.704   2.819  1.3538  0.2521  1.8960
 5385TIP3    H237571   1.232   0.553   2.801 -0.0884  0.3246  1.6758
 5386TIP3   OH237572   6.350   2.072   3.974 -0.2288 -0.0163  0.6991
 5386TIP3    H137573   6.283   2.128   3.932  1.5924  1.2934 -0.6171
 5386TIP3    H237574   6.397   2.132   4.032  0.8957 -0.4913  0.2940
 5387TIP3   OH237575   2.725   0.072  14.608 -0.1775 -0.0488  0.6966
 5387TIP3    H137576   2.668   0.128  14.659  0.4018  0.4375  0.8281
 5387TIP3    H237577   2.776   0.132  14.553  2.6294 -0.0794  2.9839
 5388TIP3   OH237578   5.963   6.159   0.949  0.1059 -0.6726  0.9261
 5388TIP3    H137579   6.023   6.094   0.986  0.9106 -0.1614  0.5304
 5388TIP3    H237580   5.904   6.108   0.893  0.8942 -1.0197  0.4087
 5389TIP3   OH237581   1.532   5.337   1.124  0.6478  0.7243 -0.1019
 5389TIP3    H137582   1.495   5.277   1.060 -1.4993 -1.0076  2.5769
 5389TIP3    H237583   1.498   5.423   1.098 -0.1878  0.0892 -1.2408
 5390TIP3   OH237584   1.694   6.270  12.091 -0.6223 -0.3570 -0.3931
 5390TIP3    H137585   1.685   6.348  12.145  1.9776  1.6321 -2.5575
 5390TIP3    H237586   1.755   6.214  12.140  1.0141  1.0282 -0.7608
 5391TIP3   OH237587   4.020   3.464   0.072  0.0584  0.1669  0.1488
 5391TIP3    H137588   3.947   3.470   0.012 -0.6765 -0.4465  0.9549
 5391TIP3    H237589   4.001   3.528   0.141  0.5034  0.3235  0.1321
 5392TIP3   OH237590   4.853   4.621   1.882 -0.4240  0.3973  0.0544
 5392TIP3    H137591   4.791   4.568   1.832  1.0966 -0.4488 -1.0314
 5392TIP3    H237592   4.900   4.558   1.936 -0.2214  0.9670  0.5479
 5393TIP3   OH237593   5.468   2.957  13.725 -0.3916 -0.2691 -0.0741
 5393TIP3    H137594   5.550   2.926  13.762  0.3805  0.8400 -0.7744
 5393TIP3    H237595   5.403   2.892  13.751  1.2615 -3.1109 -2.3584
 5394TIP3   OH237596   0.141   0.730  12.969  0.3105 -0.4066  0.3329
 5394TIP3    H137597   0.069   0.788  12.946 -0.2879 -1.4660 -0.6051
 5394TIP3    H237598   0.099   0.644  12.982  1.2264 -0.7405  1.1624
 5395TIP3   OH237599   2.539   6.608  12.322  0.0321 -0.3567 -0.4416
 5395TIP3    H137600   2.494   6.663  12.258  2.3482  1.5856 -0.5660
 5395TIP3    H237601   2.486   6.615  12.402 -0.2730  1.2801 -0.7516
 5396TIP3   OH237602   1.899   0.196   4.195 -0.2445  0.2028 -0.2898
 5396TIP3    H137603   1.913   0.285   4.229  1.3433 -0.0026 -0.2908
 5396TIP3    H237604   1.944   0.140   4.258  0.1323 -0.4502 -1.1225
 5397TIP3   OH237605   0.666   6.349   4.908 -0.9232  0.3581 -0.0438
 5397TIP3    H137606   0.737   6.388   4.857 -1.1567  0.0827 -0.5924
 5397TIP3    H237607   0.593   6.345   4.847 -1.3880  0.5641  0.4954
 5398TIP3   OH237608   3.547   2.250   3.867  0.4402  0.2862  0.0843
 5398TIP3    H137609   3.513   2.221   3.783  0.3692  1.4208 -0.2940
 5398TIP3    H237610   3.513   2.339   3.878 -0.5392 -0.2445  1.8617
 5399TIP3   OH237611   3.661   2.593  14.969  0.0668  0.0381  0.1829
 5399TIP3    H137612   3.695   2.663  14.913  2.5037 -1.3591 -0.2227
 5399TIP3    H237613   3.589   2.555  14.918  1.2247 -0.1977 -1.3627
 5400TIP3   OH237614   5.131   4.559  13.185 -0.0219 -0.3326  0.1456
 5400TIP3    H137615   5.061   4.576  13.249  0.0809 -1.0028  0.4453
 5400TIP3    H237616   5.201   4.619  13.210  0.5563 -1.5423  1.5354
 5401TIP3   OH237617   3.344   3.963  14.816 -0.2821 -0.4202 -0.5784
 5401TIP3    H137618   3.361   3.898  14.749 -1.2675  0.3229 -1.5832
 5401TIP3    H237619   3.396   4.039  14.790 -0.3785 -0.2552 -0.2963
 5402TIP3   OH237620   1.112   1.233   4.758 -0.2665 -0.1364  0.6396
 5402TIP3    H137621   1.189   1.238   4.702  0.6907 -1.8159  1.7319
 5402TIP3    H237622   1.076   1.146   4.742 -0.5846 -0.2425  1.8350
 5403TIP3   OH237623   1.409   4.430  10.858 -0.4148  0.5458 -0.4525
 5403TIP3    H137624   1.335   4.477  10.897 -0.4650  0.7204 -0.7626
 5403TIP3    H237625   1.420   4.353  10.915  0.1122  1.2800  0.4714
 5404TIP3   OH237626   2.841   6.243   3.018 -0.6827 -0.4434  0.4819
 5404TIP3    H137627   2.842   6.147   3.017  0.1932 -0.4769  2.0601
 5404TIP3    H237628   2.751   6.266   3.040 -0.5864 -0.9383  1.4016
 5405TIP3   OH237629   5.340   5.206   2.696 -0.0885  0.4815  0.1083
 5405TIP3    H137630   5.267   5.153   2.728  1.8090 -2.0289  0.5910
 5405TIP3    H237631   5.348   5.183   2.603  0.3273  0.3972  0.1601
 5406TIP3   OH237632   1.524   6.020   1.006 -0.0397 -0.2344  0.1018
 5406TIP3    H137633   1.461   5.949   1.021  0.1839 -0.1093  1.7073
 5406TIP3    H237634   1.472   6.100   1.016 -0.1097 -0.1314 -0.9096
 5407TIP3   OH237635   6.648   2.169   4.590  0.8007  0.1132  0.5966
 5407TIP3    H137636   6.674   2.169   4.498  0.2134  0.9640  0.4136
 5407TIP3    H237637   6.675   2.084   4.623  0.2297 -0.5528 -0.5916
 5408TIP3   OH237638   4.002   1.653   4.621  1.0029 -0.1824 -0.4309
 5408TIP3    H137639   4.036   1.684   4.705 -0.8799 -1.2975  0.8165
 5408TIP3    H237640   3.948   1.577   4.644  1.2037 -1.0927 -2.7780
 5409TIP3   OH237641   0.122   1.913   5.976 -0.4558  0.1263 -0.1830
 5409TIP3    H137642   0.067   1.963   6.036 -0.5549 -1.5788  1.2383
 5409TIP3    H237643   0.195   1.881   6.030 -0.0342 -0.6759 -1.1784
 5410TIP3   OH237644   6.288   5.675   2.461 -0.5126  0.4567  0.7659
 5410TIP3    H137645   6.365   5.662   2.407  1.2574  0.8407  3.0413
 5410TIP3    H237646   6.214   5.670   2.400  1.2663 -0.1370 -1.4571
 5411TIP3   OH237647   1.187   1.690  13.991 -0.2982  0.3858 -0.1431
 5411TIP3    H137648   1.188   1.681  13.896  2.3391  1.7523 -0.3284
 5411TIP3    H237649   1.101   1.728  14.010 -1.4943 -1.3048 -1.7428
 5412TIP3   OH237650   1.367   4.097   4.355 -0.6637 -0.3375  0.2599
 5412TIP3    H137651   1.395   4.021   4.406 -0.2275 -0.6753 -0.4576
 5412TIP3    H237652   1.400   4.079   4.267 -2.2730 -0.2506 -0.3881
 5413TIP3   OH237653   3.024   5.334   0.062  0.4213 -0.0481  0.0186
 5413TIP3    H137654   3.058   5.404   0.118  0.8561 -0.6913  0.5728
 5413TIP3    H237655   2.968   5.282   0.120  0.1132 -0.1723 -0.3856
 5414TIP3   OH237656   6.586   2.095   0.595  0.3847 -0.7307  0.3057
 5414TIP3    H137657   6.495   2.091   0.625 -0.3856  1.0257 -1.5925
 5414TIP3    H237658   6.580   2.092   0.499  2.2702  0.0682  0.1184
 5415TIP3   OH237659   2.839   6.066   1.083  0.2210  0.0132 -0.3587
 5415TIP3    H137660   2.746   6.091   1.085  0.3408  0.4645 -0.2491
 5415TIP3    H237661   2.857   6.048   0.990 -0.1017 -0.5708 -0.3105
 5416TIP3   OH237662   1.229   1.487  11.451  0.4946 -0.2893 -0.3236
 5416TIP3    H137663   1.312   1.498  11.405 -0.1170  0.9058 -1.1847
 5416TIP3    H237664   1.169   1.548  11.408 -0.3339  0.2519  1.5196
 5417TIP3   OH237665   1.007   4.072   2.385 -0.1665  0.4234 -0.0180
 5417TIP3    H137666   1.087   4.021   2.370 -0.3706 -0.1295  0.7051
 5417TIP3    H237667   1.038   4.159   2.410  0.1811  0.8979 -2.0013
 5418TIP3   OH237668   2.230   5.637   3.244 -0.4134  0.4311  0.4511
 5418TIP3    H137669   2.187   5.611   3.163  1.3378  0.2476 -0.4633
 5418TIP3    H237670   2.240   5.732   3.236 -1.0657  0.5455  0.8952
 5419TIP3   OH237671   1.381   4.343   1.828  0.2890  0.6164  0.6790
 5419TIP3    H137672   1.300   4.367   1.873  0.7916  0.8395  1.4806
 5419TIP3    H237673   1.379   4.396   1.748 -0.4926  0.4026  0.5430
 5420TIP3   OH237674   3.772   2.517   3.744 -0.5303 -0.6260 -0.7117
 5420TIP3    H137675   3.820   2.568   3.678 -0.7688 -0.1915 -0.5497
 5420TIP3    H237676   3.761   2.431   3.703  0.0091 -0.5984 -0.9245
 5421TIP3   OH237677   5.077   6.118  11.004 -0.4985 -0.1527 -0.5084
 5421TIP3    H137678   5.163   6.133  10.964 -0.4016 -0.7002 -0.5086
 5421TIP3    H237679   5.085   6.158  11.091 -0.4561  0.3589 -0.7452
 5422TIP3   OH237680   1.031   6.332  16.244  0.0979 -0.0079  0.0983
 5422TIP3    H137681   0.936   6.334  16.260  0.1017 -0.7357  0.2195
 5422TIP3    H237682   1.040   6.355  16.152 -0.0800  1.7660  0.4805
 5423TIP3   OH237683   3.555   1.951   4.209 -0.6966 -0.2185 -0.3644
 5423TIP3    H137684   3.539   2.005   4.132 -1.0355  0.9969  0.5203
 5423TIP3    H237685   3.511   1.868   4.191 -0.6968  0.0232 -1.5044
 5424TIP3   OH237686   1.130   0.756   1.200 -0.0674  0.2953 -0.0793
 5424TIP3    H137687   1.078   0.718   1.129 -0.1616 -0.4172  0.3597
 5424TIP3    H237688   1.193   0.812   1.156 -0.3237  0.1005 -0.7092
 5425TIP3   OH237689   2.545   2.339   5.313  0.3334 -0.1780 -0.7306
 5425TIP3    H137690   2.544   2.421   5.264 -2.0965  0.7804  0.7511
 5425TIP3    H237691   2.473   2.288   5.277 -0.0188 -0.4218  0.2865
 5426TIP3   OH237692   1.956   6.214  11.250  0.1648 -0.5040 -0.3678
 5426TIP3    H137693   2.047   6.243  11.238 -0.4527  1.7038 -0.2021
 5426TIP3    H237694   1.940   6.153  11.179  1.6427 -0.5478 -0.6913
 5427TIP3   OH237695   2.175   6.112   3.595  0.2910 -0.4412 -0.3834
 5427TIP3    H137696   2.239   6.043   3.579 -0.5061 -1.2096 -0.3365
 5427TIP3    H237697   2.206   6.157   3.673  0.3393 -1.3276  0.1152
 5428TIP3   OH237698   2.052   3.070   4.272 -0.1892 -0.0853 -0.1158
 5428TIP3    H137699   2.052   3.059   4.367  0.6636 -0.9298 -0.1925
 5428TIP3    H237700   2.005   2.994   4.239  0.3325 -0.2875 -0.4048
 5429TIP3   OH237701   6.428   0.533   4.046 -0.0813  0.0807 -0.0773
 5429TIP3    H137702   6.388   0.521   3.960  2.5262 -1.9917 -1.1430
 5429TIP3    H237703   6.490   0.605   4.034  1.6449 -1.4239 -0.5463
 5430TIP3   OH237704   2.487   0.590   3.872  0.4184 -0.4562 -0.5447
 5430TIP3    H137705   2.484   0.681   3.843  1.0087 -0.1812  0.2368
 5430TIP3    H237706   2.431   0.588   3.950 -0.0242 -0.8896 -0.8599
 5431TIP3   OH237707   2.382   2.990  13.178  0.0082  0.2610 -0.2457
 5431TIP3    H137708   2.372   2.992  13.083  2.7064  0.0450 -0.6290
 5431TIP3    H237709   2.467   2.949  13.192  0.0944  1.0914  2.2305
 5432TIP3   OH237710   4.691   3.493   4.077 -0.0014  0.4466 -0.3626
 5432TIP3    H137711   4.696   3.562   4.143 -1.8132  0.7385 -0.4761
 5432TIP3    H237712   4.684   3.412   4.126  1.1952  0.3983 -0.2319
 5433TIP3   OH237713   6.383   4.713  12.697  0.2212  0.2696 -0.1686
 5433TIP3    H137714   6.387   4.717  12.793 -1.0680 -1.3883  0.0033
 5433TIP3    H237715   6.294   4.740  12.676 -0.4277 -2.0636 -0.6499
 5434TIP3   OH237716   5.879   0.476  15.827 -0.0200 -0.2778  0.2315
 5434TIP3    H137717   5.815   0.437  15.886 -0.1357 -0.7497 -0.2007
 5434TIP3    H237718   5.866   0.571  15.837  0.2958 -0.3448  1.3136
 5435TIP3   OH237719   0.971   1.982  11.339  0.7903 -0.9918  0.0563
 5435TIP3    H137720   0.924   1.981  11.255  0.1381 -1.4932  0.4159
 5435TIP3    H237721   0.953   2.069  11.374 -0.2893 -1.3344  0.4049
 5436TIP3   OH237722   4.672   0.300  13.107 -0.2685  0.1546  0.6073
 5436TIP3    H137723   4.696   0.245  13.182  1.3819  0.1093  0.0689
 5436TIP3    H237724   4.752   0.309  13.056 -0.8779  1.7983 -0.1456
 5437TIP3   OH237725   4.144   1.451   3.912  0.0874 -0.0857 -0.5932
 5437TIP3    H137726   4.149   1.378   3.850  0.7001 -0.6282  0.0794
 5437TIP3    H237727   4.229   1.451   3.955 -0.2823  0.3783  0.1483
 5438TIP3   OH237728   6.625   5.392  14.811 -0.3799 -0.6572  0.0619
 5438TIP3    H137729   6.554   5.421  14.754  0.3030  0.7322 -0.1280
 5438TIP3    H237730   6.687   5.348  14.752 -0.8258 -1.4295  0.1514
 5439TIP3   OH237731   1.013   2.045   0.377  0.5117 -0.0855 -0.1346
 5439TIP3    H137732   0.934   2.092   0.404  1.3128  0.5096  1.2124
 5439TIP3    H237733   0.982   1.956   0.358 -0.5979  0.3257 -0.3382
 5440TIP3   OH237734   3.313   1.273   1.177 -0.3440 -0.0302  0.3793
 5440TIP3    H137735   3.298   1.309   1.264 -1.5046 -1.4418  0.7977
 5440TIP3    H237736   3.400   1.232   1.182 -1.4915 -2.5334  1.8000
 5441TIP3   OH237737   6.338   5.315  14.201  0.3277 -0.3146 -0.2115
 5441TIP3    H137738   6.389   5.235  14.214  0.9092  0.1914  0.7384
 5441TIP3    H237739   6.392   5.370  14.145  0.9934  0.3362  1.0233
 5442TIP3   OH237740   6.613   2.420  16.810  0.0849  0.5940  0.0680
 5442TIP3    H137741   6.584   2.460  16.892  0.3365 -0.6474  0.7920
 5442TIP3    H237742   6.534   2.416  16.756 -0.3699  0.2725  0.7432
 5443TIP3   OH237743   5.049   5.481  14.339  0.2214  0.4656  0.0868
 5443TIP3    H137744   5.025   5.573  14.351  0.6233  0.5224  0.5258
 5443TIP3    H237745   5.019   5.459  14.251  0.4599  1.1266 -0.1682
 5444TIP3   OH237746   0.701   5.342   5.062 -0.7009 -0.0216  0.0439
 5444TIP3    H137747   0.791   5.359   5.034 -1.3933 -0.5018 -2.6690
 5444TIP3    H237748   0.689   5.400   5.138  1.6002  0.6561 -0.0200
 5445TIP3   OH237749   5.068   1.558  13.022 -0.1704  0.5126 -0.0315
 5445TIP3    H137750   5.016   1.638  13.011 -1.9950 -0.8135 -2.2211
 5445TIP3    H237751   5.074   1.521  12.933  1.0419 -1.5134  0.8080
 5446TIP3   OH237752   4.544   4.454   2.979 -0.1867  0.3722 -0.1221
 5446TIP3    H137753   4.617   4.461   3.040 -1.2927 -1.1084  1.4865
 5446TIP3    H237754   4.575   4.396   2.910  0.6406  0.9966 -0.2958
 5447TIP3   OH237755   5.574   4.997   4.501 -0.4304 -0.0243 -0.0456
 5447TIP3    H137756   5.553   5.029   4.589 -0.0675  1.9349 -0.6087
 5447TIP3    H237757   5.550   4.905   4.502  0.1984 -0.2339  2.3213
 5448TIP3   OH237758   5.627   4.769   0.844 -0.3733 -0.0346  0.7837
 5448TIP3    H137759   5.706   4.722   0.818 -1.7755 -3.1919  1.7944
 5448TIP3    H237760   5.613   4.832   0.774  2.4542 -0.0194  0.1004
 5449TIP3   OH237761   1.630   0.364   4.132  0.2002 -0.6250  0.5940
 5449TIP3    H137762   1.706   0.307   4.121  0.8174  0.4140 -0.9251
 5449TIP3    H237763   1.582   0.356   4.049 -0.4248  0.0332  0.8776
 5450TIP3   OH237764   1.799   6.205   1.603  0.3647 -0.1028 -0.4267
 5450TIP3    H137765   1.830   6.115   1.615 -0.4151 -0.2450  0.7762
 5450TIP3    H237766   1.775   6.233   1.692 -1.1913  0.6181 -1.0412
 5451TIP3   OH237767   6.146   2.538   2.800 -0.3541 -0.4729 -0.1401
 5451TIP3    H137768   6.232   2.541   2.758  0.9042  0.7069  2.2699
 5451TIP3    H237769   6.095   2.478   2.746  1.3690  0.2028 -2.7161
 5452TIP3   OH237770   3.725   0.031  13.511  0.0650  0.1338  0.1324
 5452TIP3    H137771   3.690  -0.007  13.430 -0.4155  0.4548  0.1815
 5452TIP3    H237772   3.721  -0.040  13.574 -0.6371  0.1939  0.1687
 5453TIP3   OH237773   0.483   6.204   2.153  0.5824  0.0728 -0.0095
 5453TIP3    H137774   0.457   6.114   2.172  0.4346  0.3035  0.9316
 5453TIP3    H237775   0.402   6.248   2.129  0.0078  0.7448  2.7404
 5454TIP3   OH237776   0.359   3.631   3.051  0.1427  0.3041  0.0981
 5454TIP3    H137777   0.436   3.604   3.101  0.7469  1.0209 -0.4327
 5454TIP3    H237778   0.342   3.558   2.993 -1.3752 -1.1389  2.2092
 5455TIP3   OH237779   6.164   5.175  13.188  0.6204  0.0878  0.1852
 5455TIP3    H137780   6.133   5.243  13.248  2.1474  1.8858 -0.9382
 5455TIP3    H237781   6.207   5.224  13.118  1.7274 -2.0733 -0.7181
 5456TIP3   OH237782   2.339   6.769   0.841  0.4969 -0.1558 -0.1242
 5456TIP3    H137783   2.269   6.729   0.790  0.2300  0.1747 -0.0203
 5456TIP3    H237784   2.378   6.696   0.889 -0.2455 -0.2399  0.3711
 5457TIP3   OH237785   1.056   4.960   6.709  0.2806 -0.1440 -0.0119
 5457TIP3    H137786   0.994   5.009   6.654  0.2193 -0.1886  0.0172
 5457TIP3    H237787   1.009   4.880   6.733  1.2085 -1.3430 -1.9699
 5458TIP3   OH237788   6.780   2.190   2.250 -0.3705 -0.2553 -0.0073
 5458TIP3    H137789   6.856   2.155   2.297  0.5257  0.2170 -1.0497
 5458TIP3    H237790   6.742   2.254   2.310  0.7461  0.3368  0.0946
 5459TIP3   OH237791   5.620   4.795   5.975 -0.0006 -0.3273 -0.1476
 5459TIP3    H137792   5.542   4.748   6.004 -0.3098  0.3276  0.1227
 5459TIP3    H237793   5.651   4.841   6.053  0.2940 -0.0842 -0.4023
 5460TIP3   OH237794   4.818   6.399   4.289 -0.4488  0.1674 -0.7919
 5460TIP3    H137795   4.741   6.367   4.336  0.2022  0.0816  0.2408
 5460TIP3    H237796   4.838   6.483   4.330  1.6479 -1.0614  0.9093
 5461TIP3   OH237797   1.441   3.416  14.600  0.4136 -0.1571  0.0352
 5461TIP3    H137798   1.468   3.382  14.514 -0.4861  0.9587 -0.7205
 5461TIP3    H237799   1.459   3.510  14.596  2.1396 -0.3468  1.8064
 5462TIP3   OH237800   3.265   0.722   2.463 -0.3286 -0.0830 -0.0878
 5462TIP3    H137801   3.326   0.661   2.422 -1.8864 -1.1378 -0.9306
 5462TIP3    H237802   3.253   0.792   2.399 -0.1276  0.0451  0.0141
 5463TIP3   OH237803   3.028   2.952  12.801  0.1970 -0.0056  0.3427
 5463TIP3    H137804   3.017   2.937  12.707 -0.1982 -0.2993  0.4347
 5463TIP3    H237805   2.948   2.918  12.841 -0.8526  2.5169  0.5602
 5464TIP3   OH237806   3.144   3.184  16.070 -0.0725 -0.1551 -0.0395
 5464TIP3    H137807   3.103   3.100  16.093 -0.8476 -0.7147 -3.0216
 5464TIP3    H237808   3.236   3.173  16.092 -0.1508 -1.8482 -0.3953
 5465TIP3   OH237809   1.206   1.304  14.404  0.4607  0.0606  0.1596
 5465TIP3    H137810   1.240   1.285  14.316  1.4401  1.0236  0.2980
 5465TIP3    H237811   1.279   1.347  14.448 -0.6044  1.2096  0.8583
 5466TIP3   OH237812   3.067   5.765   0.122 -0.3294 -0.9711 -0.2218
 5466TIP3    H137813   3.009   5.810   0.060 -0.0745  1.1014  0.9651
 5466TIP3    H237814   3.154   5.803   0.105 -0.0672 -1.1483  0.6710
 5467TIP3   OH237815   1.991   0.467  15.105  0.4679 -0.7745 -0.1927
 5467TIP3    H137816   1.986   0.534  15.036 -0.0791  0.3732  0.9196
 5467TIP3    H237817   1.980   0.516  15.187  3.4068 -1.7408  0.9122
 5468TIP3   OH237818   3.609   3.242   5.124 -0.9422 -0.0515 -0.4616
 5468TIP3    H137819   3.536   3.184   5.098 -0.1221 -1.5521  0.4410
 5468TIP3    H237820   3.566   3.322   5.155 -2.3993 -1.6176  1.9327
 5469TIP3   OH237821   3.511   6.601  15.251 -0.4270 -0.1624  0.2837
 5469TIP3    H137822   3.556   6.654  15.186  0.4720 -1.6117 -0.3368
 5469TIP3    H237823   3.434   6.567  15.206 -0.9332  0.5029  0.6388
 5470TIP3   OH237824   6.112   3.773   0.492 -0.2474  0.4551  0.2439
 5470TIP3    H137825   6.021   3.802   0.484 -0.3902 -0.0962 -0.1981
 5470TIP3    H237826   6.144   3.816   0.572 -0.9222  0.5770  0.4566
 5471TIP3   OH237827   1.600   0.833  13.862  0.1249 -0.0089  0.0902
 5471TIP3    H137828   1.588   0.895  13.789 -2.5067  0.1663  0.5583
 5471TIP3    H237829   1.587   0.747  13.823 -0.8481  0.0580  0.2449
 5472TIP3   OH237830   3.194   5.799  11.993 -0.9335 -0.4363  0.3088
 5472TIP3    H137831   3.109   5.792  11.950 -0.7465  2.3116 -0.7048
 5472TIP3    H237832   3.175   5.835  12.080 -0.9532 -2.0337  0.9985
 5473TIP3   OH237833   1.134   1.126   0.026  0.5555  0.3375  0.4232
 5473TIP3    H137834   1.193   1.142  -0.048 -0.4678  1.2683 -0.2280
 5473TIP3    H237835   1.192   1.112   0.101  1.6006  0.3560 -0.3651
 5474TIP3   OH237836   0.902   6.189  15.384  0.8167 -0.1632  0.4105
 5474TIP3    H137837   0.978   6.244  15.365 -0.2466  1.4264  0.5556
 5474TIP3    H237838   0.827   6.241  15.355 -0.1283 -2.9438 -2.6766
 5475TIP3   OH237839   1.053   0.986   4.651 -0.1569 -0.1185 -0.0548
 5475TIP3    H137840   1.009   0.948   4.576  0.7232 -1.8500  0.2668
 5475TIP3    H237841   1.119   0.922   4.676  1.3265  1.5559  0.6068
 5476TIP3   OH237842   2.929   4.123   2.346 -0.2995 -0.1167  0.5983
 5476TIP3    H137843   2.871   4.056   2.380 -0.1298 -0.5865 -0.0064
 5476TIP3    H237844   3.013   4.078   2.332  0.3051  0.6198  1.7388
 5477TIP3   OH237845   4.610   1.023  11.773  0.1367  0.1932 -0.0449
 5477TIP3    H137846   4.544   1.086  11.801  0.5163  1.2940 -1.4721
 5477TIP3    H237847   4.693   1.062  11.799  0.2686 -1.3077  1.9764
 5478TIP3   OH237848   5.358   6.418  13.066 -0.6470  0.6013 -0.6062
 5478TIP3    H137849   5.310   6.478  13.123  0.9383  0.6654  0.6970
 5478TIP3    H237850   5.404   6.359  13.125 -2.6162 -2.4037 -1.8051
 5479TIP3   OH237851   3.262   5.319   4.500  0.4138  0.1038 -0.5538
 5479TIP3    H137852   3.290   5.277   4.419  0.8635 -0.1122 -0.2851
 5479TIP3    H237853   3.267   5.413   4.481  1.5812  0.0758 -0.4227
 5480TIP3   OH237854   5.651   5.324   4.230 -0.1800  0.2762 -0.1907
 5480TIP3    H137855   5.664   5.231   4.209 -2.1434 -0.0255 -0.2248
 5480TIP3    H237856   5.684   5.333   4.319 -1.3241 -0.8235  0.3701
 5481TIP3   OH237857   3.786   5.259   5.309 -0.5579  0.1608 -0.4516
 5481TIP3    H137858   3.859   5.243   5.249 -0.7830  0.0657 -0.6952
 5481TIP3    H237859   3.710   5.223   5.266 -0.3682 -1.9553  0.8505
 5482TIP3   OH237860   3.888   4.456   3.300  0.5384 -0.0127  0.4292
 5482TIP3    H137861   3.874   4.523   3.366 -2.2162 -0.1737  0.1189
 5482TIP3    H237862   3.975   4.421   3.319  0.2007  0.5132  3.4361
 5483TIP3   OH237863   5.572   0.390  16.719 -0.3919  0.4746  0.0146
 5483TIP3    H137864   5.480   0.363  16.720 -0.4412  0.5604 -0.8869
 5483TIP3    H237865   5.568   0.486  16.722 -0.2774  0.4574  1.3082
 5484TIP3   OH237866   2.084   4.734  13.821  0.3170  0.0883 -0.7325
 5484TIP3    H137867   2.104   4.692  13.738 -0.3240  1.2884 -1.5254
 5484TIP3    H237868   2.168   4.761  13.856  1.0081 -3.4988  0.7871
 5485TIP3   OH237869   6.489   3.521   3.413  0.1297  0.1464  0.0504
 5485TIP3    H137870   6.491   3.435   3.370 -1.4868 -0.3843  0.9500
 5485TIP3    H237871   6.560   3.517   3.477 -0.0243 -0.5823  0.1910
 5486TIP3   OH237872   1.008   1.372   1.122  0.0163  0.4865  0.3564
 5486TIP3    H137873   1.084   1.333   1.078 -0.3005 -0.7207  0.8504
 5486TIP3    H237874   0.949   1.299   1.139 -1.2431  1.3938  0.0556
 5487TIP3   OH237875   1.409   2.415   2.282  0.3360  0.1386 -0.2852
 5487TIP3    H137876   1.443   2.352   2.346  0.4396  0.8992  0.4268
 5487TIP3    H237877   1.393   2.494   2.333 -1.3458  0.1895 -0.8633
 5488TIP3   OH237878   0.913   3.067   3.057 -0.5162 -0.1548 -0.5899
 5488TIP3    H137879   0.835   3.085   3.109 -0.6171  0.2695 -0.8825
 5488TIP3    H237880   0.880   3.028   2.976 -0.5979  1.7988 -1.5475
 5489TIP3   OH237881   3.550   1.053   4.740  0.3391  0.0053  0.2887
 5489TIP3    H137882   3.497   0.974   4.730 -1.1298  1.0497 -0.6487
 5489TIP3    H237883   3.492   1.116   4.783  0.9595  1.0415 -0.3431
 5490TIP3   OH237884   1.457   0.312   3.213  0.6120 -0.3789 -0.0989
 5490TIP3    H137885   1.487   0.385   3.266 -0.5701  0.8557 -1.0620
 5490TIP3    H237886   1.370   0.337   3.183 -1.2413 -3.5092  2.0318
 5491TIP3   OH237887   0.363   0.927  12.397  0.1175  0.0636 -0.2719
 5491TIP3    H137888   0.327   0.853  12.348 -0.2800  0.3541 -0.4219
 5491TIP3    H237889   0.292   0.991  12.400  0.6707  0.7060 -0.6900
 5492TIP3   OH237890   3.549   5.786   3.676 -0.8151  0.3068 -0.2800
 5492TIP3    H137891   3.571   5.717   3.739 -1.2414  1.0811  0.7333
 5492TIP3    H237892   3.456   5.774   3.659 -0.3720 -0.9904 -2.1503
 5493TIP3   OH237893   2.791   3.721   0.981 -0.3313  0.4284 -0.9911
 5493TIP3    H137894   2.762   3.642   1.026  2.9107 -1.8346 -2.4832
 5493TIP3    H237895   2.835   3.773   1.049 -1.1275  0.2199 -0.3035
 5494TIP3   OH237896   3.370   4.088   4.164 -0.1527  0.0588  0.3632
 5494TIP3    H137897   3.373   4.045   4.079 -0.6887  1.4581 -0.3999
 5494TIP3    H237898   3.454   4.132   4.172  0.2835 -0.8566  1.0159
 5495TIP3   OH237899   2.026   5.078  11.927  0.0639  0.1563 -0.6635
 5495TIP3    H137900   2.118   5.085  11.902  0.4584 -0.7660  0.4576
 5495TIP3    H237901   2.001   4.988  11.904 -0.2208  0.0338  0.0950
 5496TIP3   OH237902   1.613   2.823  16.266 -0.0586 -0.3507  0.2685
 5496TIP3    H137903   1.566   2.863  16.339 -0.5623 -1.0771  0.3597
 5496TIP3    H237904   1.549   2.823  16.194 -0.2915 -1.5292  0.4511
 5497TIP3   OH237905   1.335   2.241  14.460  0.8800 -0.3618  0.5176
 5497TIP3    H137906   1.388   2.172  14.421  2.0018 -1.0396  2.9845
 5497TIP3    H237907   1.289   2.197  14.532  0.5343  1.1717  1.2662
 5498TIP3   OH237908   6.760   2.424   0.546  0.0559  0.3665 -0.3367
 5498TIP3    H137909   6.850   2.402   0.521  0.0868  2.1661 -2.0971
 5498TIP3    H237910   6.709   2.410   0.466 -1.3389 -0.9559  0.7282
 5499TIP3   OH237911   3.437   3.941  12.589  0.4707  0.1562  0.4815
 5499TIP3    H137912   3.343   3.956  12.599  0.4764  0.6710 -0.2129
 5499TIP3    H237913   3.453   3.948  12.495  0.8695 -1.9719  0.3277
 5500TIP3   OH237914   3.447   3.503   5.786  0.5410  0.1915  0.3178
 5500TIP3    H137915   3.485   3.514   5.873  1.0423 -1.5743  0.3630
 5500TIP3    H237916   3.512   3.450   5.739 -0.8461 -0.9788 -0.3335
 5501TIP3   OH237917   6.500   0.955   4.182  0.2779  0.0776 -0.1844
 5501TIP3    H137918   6.540   1.042   4.188 -1.6383  1.1351 -1.3457
 5501TIP3    H237919   6.572   0.896   4.161  1.6456  1.3544  0.7166
 5502TIP3   OH237920   0.350   4.254  16.215  0.3831 -0.1753  0.2067
 5502TIP3    H137921   0.395   4.333  16.184  1.3492 -0.4630  0.8368
 5502TIP3    H237922   0.317   4.277  16.302 -0.0722 -0.2070  0.0487
 5503TIP3   OH237923   3.494   4.820   0.678  0.3703  0.7416  0.1026
 5503TIP3    H137924   3.419   4.765   0.657  1.9824 -1.4710 -0.2404
 5503TIP3    H237925   3.456   4.906   0.699 -2.4943 -0.9255  2.6455
 5504TIP3   OH237926   0.777   2.330  15.739 -0.8649 -0.5339  0.3565
 5504TIP3    H137927   0.687   2.353  15.764 -1.5149 -1.2185 -1.2689
 5504TIP3    H237928   0.795   2.386  15.663  0.0234 -0.5408  0.5585
 5505TIP3   OH237929   0.836   0.250   1.278 -0.2731  0.1048  0.3827
 5505TIP3    H137930   0.765   0.278   1.336 -0.4627 -0.9242  0.6737
 5505TIP3    H237931   0.798   0.181   1.224 -0.1436  1.1413 -1.1109
 5506TIP3   OH237932   6.554   5.781   6.026  0.1956 -0.2881 -0.1153
 5506TIP3    H137933   6.459   5.788   6.024  0.2366  1.0497  0.9663
 5506TIP3    H237934   6.585   5.869   6.005  1.1536 -0.2660  1.2274
 5507TIP3   OH237935   0.329   6.549   0.752  0.3734 -0.1865  0.3955
 5507TIP3    H137936   0.328   6.618   0.818  0.1775 -0.8156  1.0643
 5507TIP3    H237937   0.245   6.559   0.706 -0.4618 -1.0831  1.6758
 5508TIP3   OH237938   5.260   5.242  16.113  0.4447 -0.2737  0.2216
 5508TIP3    H137939   5.170   5.219  16.139  0.2974  1.1982  1.0942
 5508TIP3    H237940   5.294   5.161  16.074 -0.0974 -1.9622  2.9557
 5509TIP3   OH237941   6.648   5.843   0.953  0.2442 -0.1362 -0.2104
 5509TIP3    H137942   6.708   5.769   0.942  0.4872  0.1242 -0.6687
 5509TIP3    H237943   6.591   5.817   1.026 -0.2495 -1.1545 -0.9368
 5510TIP3   OH237944   5.336   4.966  12.978  0.5125  0.3190  0.1680
 5510TIP3    H137945   5.374   5.006  13.057  1.9032  0.2458 -0.4352
 5510TIP3    H237946   5.350   5.032  12.909 -2.0519  1.0506  0.2265
 5511TIP3   OH237947   5.360   6.600   2.070 -0.0685 -0.1155 -0.5402
 5511TIP3    H137948   5.322   6.613   2.157  0.2134 -1.2095 -0.2383
 5511TIP3    H237949   5.341   6.681   2.023 -1.7283 -0.1572 -0.0086
 5512TIP3   OH237950   6.302   0.891  13.593 -0.0055 -0.0033 -0.0627
 5512TIP3    H137951   6.299   0.882  13.498 -0.5063  0.1468 -0.0643
 5512TIP3    H237952   6.316   0.985  13.607 -0.6058  0.0769  0.0170
 5513TIP3   OH237953   6.057   1.917   0.398  0.1159 -0.1415 -0.4496
 5513TIP3    H137954   6.070   2.012   0.409 -1.2949 -0.0073  0.2170
 5513TIP3    H237955   6.014   1.909   0.313  0.1223 -0.1823 -0.4488
 5514TIP3   OH237956   3.353   1.049   2.585 -0.4953 -0.7612 -0.5673
 5514TIP3    H137957   3.387   1.138   2.577  0.8283 -1.2900 -1.1175
 5514TIP3    H237958   3.401   1.011   2.658 -1.8548 -0.7114  0.4089
 5515TIP3   OH237959   2.792   0.158   2.823 -0.0902 -0.1414 -0.7714
 5515TIP3    H137960   2.734   0.099   2.871  0.4889 -2.1769 -2.3938
 5515TIP3    H237961   2.734   0.200   2.759 -0.2988  0.0939 -0.4275
 5516TIP3   OH237962   3.439   2.916  14.519 -0.0301 -0.3800 -0.2939
 5516TIP3    H137963   3.350   2.882  14.511  0.6650 -2.2883 -0.3999
 5516TIP3    H237964   3.468   2.928  14.429 -0.2603  0.5310 -0.2577
 5517TIP3   OH237965   1.881   3.456   3.880  0.4563  0.5682  0.3805
 5517TIP3    H137966   1.922   3.398   3.815 -0.5909  1.9168 -1.5960
 5517TIP3    H237967   1.928   3.538   3.871 -1.7635  1.7703 -1.0590
 5518TIP3   OH237968   4.732   0.899   2.048  0.0981  0.2289  0.0565
 5518TIP3    H137969   4.806   0.952   2.018 -0.0693  0.8402  0.6919
 5518TIP3    H237970   4.766   0.852   2.124  0.3178 -0.7798 -0.6557
 5519TIP3   OH237971   5.307   5.131   1.736 -0.6544 -0.4633 -0.1210
 5519TIP3    H137972   5.263   5.213   1.714 -2.1688 -1.6792 -1.9834
 5519TIP3    H237973   5.263   5.065   1.682  0.8551 -2.4301  0.9135
 5520TIP3   OH237974   0.264   5.398   0.317  0.1344  0.3446  0.0455
 5520TIP3    H137975   0.293   5.457   0.248 -1.4183  0.2890 -0.6952
 5520TIP3    H237976   0.343   5.380   0.368  1.4020  0.0431 -1.9396
 5521TIP3   OH237977   6.648   3.998  16.559 -0.1707  0.4214  0.5983
 5521TIP3    H137978   6.627   3.905  16.562 -0.7756  0.5203 -0.1995
 5521TIP3    H237979   6.566   4.042  16.579  0.2287  0.7850  1.4768
 5522TIP3   OH237980   5.170   4.997   2.715 -0.4160  0.1953 -0.2745
 5522TIP3    H137981   5.240   4.940   2.682  1.1696  2.2412 -0.6292
 5522TIP3    H237982   5.150   4.962   2.802  2.6078  0.7449  0.7722
 5523TIP3   OH237983   1.614   1.138   1.164  0.3225 -0.5725  0.0455
 5523TIP3    H137984   1.690   1.182   1.124  0.9767 -0.6139  1.1925
 5523TIP3    H237985   1.652   1.084   1.234 -0.8178 -0.1585  1.0164
 5524TIP3   OH237986   4.812   2.740  13.951  0.4280  0.2005 -0.1633
 5524TIP3    H137987   4.835   2.657  13.908  1.6065 -0.1897  1.1279
 5524TIP3    H237988   4.798   2.716  14.042 -2.2382  0.9747 -0.2934
 5525TIP3   OH237989   1.151   1.018  16.799  0.0562 -0.0234 -0.0923
 5525TIP3    H137990   1.120   0.968  16.723  3.2234 -0.5900 -1.1579
 5525TIP3    H237991   1.112   1.105  16.788 -0.9390 -0.6000 -1.3896
 5526TIP3   OH237992   0.555   3.680  12.899 -0.2945 -0.0564  0.2170
 5526TIP3    H137993   0.588   3.741  12.834  1.3954 -1.3648 -0.2385
 5526TIP3    H237994   0.479   3.639  12.858 -1.1919  1.3793  0.3725
 5527TIP3   OH237995   5.158   4.132  15.859  0.4027  0.6252  0.1212
 5527TIP3    H137996   5.079   4.170  15.898  0.2186  1.4773 -1.0193
 5527TIP3    H237997   5.211   4.104  15.933 -1.9061 -2.0283  0.9472
 5528TIP3   OH237998   3.350   3.728   5.100  0.0536 -0.5403  0.1440
 5528TIP3    H137999   3.353   3.728   5.195 -3.4675 -0.3684  0.4094
 5528TIP3    H238000   3.416   3.792   5.073 -0.9147  1.7354  2.6709
 5529TIP3   OH238001   4.819   2.336   3.512  0.1799  0.3898  0.2627
 5529TIP3    H138002   4.760   2.319   3.585  0.7471  0.1902  0.6740
 5529TIP3    H238003   4.774   2.300   3.436 -0.2992  0.3795  0.5475
 5530TIP3   OH238004   5.426   1.979   5.969  0.0823 -0.2935 -0.5021
 5530TIP3    H138005   5.348   1.935   5.933 -1.3067  1.2925  0.4011
 5530TIP3    H238006   5.425   1.956   6.062 -1.1471  2.1620  0.1705
 5531TIP3   OH238007   1.444   3.364  16.197 -0.0317  0.4866  0.3945
 5531TIP3    H138008   1.416   3.273  16.188  0.5270  0.3915 -0.4173
 5531TIP3    H238009   1.377   3.403  16.253 -2.2923  0.4673 -2.0709
 5532TIP3   OH238010   5.608   0.000   0.105 -0.1445 -0.8652 -0.3165
 5532TIP3    H138011   5.696  -0.024   0.132 -0.0539  0.5500  0.8129
 5532TIP3    H238012   5.610  -0.000   0.010  1.0167 -1.0805 -0.2967
 5533TIP3   OH238013   1.413   2.364   0.716 -0.4687 -0.3402 -0.6820
 5533TIP3    H138014   1.337   2.340   0.664 -1.5112  0.5823  0.3620
 5533TIP3    H238015   1.381   2.432   0.776  1.1568  0.0262 -0.1769
 5534TIP3   OH238016   0.240   2.090   0.461  0.1101 -0.1947 -0.6529
 5534TIP3    H138017   0.182   2.084   0.538 -0.0774 -0.3869 -0.8084
 5534TIP3    H238018   0.322   2.125   0.496 -0.3747  0.9110 -0.5679
 5535TIP3   OH238019   5.968   2.938  11.556 -0.6029  0.4727 -0.1135
 5535TIP3    H138020   5.985   2.878  11.484 -2.1589  0.9189 -0.8969
 5535TIP3    H238021   5.876   2.964  11.544 -0.8731  0.6225  1.9774
 5536TIP3   OH238022   5.451   6.592   4.717  0.4968 -0.0903 -0.2081
 5536TIP3    H138023   5.431   6.557   4.630  0.2330  1.6512 -0.8848
 5536TIP3    H238024   5.397   6.671   4.725 -1.0066 -1.2502  2.3656
 5537TIP3   OH238025   1.058   1.574   1.534 -0.1376  0.7954  0.3879
 5537TIP3    H138026   1.069   1.569   1.439  0.6019 -1.9450  0.5168
 5537TIP3    H238027   0.967   1.601   1.546 -0.2077  1.3214 -1.0929
 5538TIP3   OH238028   4.753   0.970  14.037 -0.3516 -0.1656 -0.2208
 5538TIP3    H138029   4.750   0.968  13.942 -0.4341  1.6225 -0.2775
 5538TIP3    H238030   4.845   0.981  14.058 -0.1156 -2.0958 -0.0004
 5539TIP3   OH238031   5.723   0.699  13.068 -0.1960  0.0177 -0.0441
 5539TIP3    H138032   5.661   0.632  13.039 -0.6929 -0.2355  1.4998
 5539TIP3    H238033   5.808   0.654  13.068 -0.2126 -0.0327 -0.8532
 5540TIP3   OH238034   2.591   1.811  11.730  0.1341 -0.6851 -0.0999
 5540TIP3    H138035   2.501   1.807  11.695 -0.1362  0.9779  0.3033
 5540TIP3    H238036   2.581   1.853  11.816  1.3780  0.3346 -0.4246
 5541TIP3   OH238037   6.552   0.846   4.992  0.7252  0.1345 -0.7508
 5541TIP3    H138038   6.609   0.922   5.005  1.0553 -0.3694  1.0794
 5541TIP3    H238039   6.464   0.880   5.010  1.1320 -0.4660  3.3141
 5542TIP3   OH238040   3.344   0.763  14.684 -0.4135 -0.5098 -0.1067
 5542TIP3    H138041   3.279   0.757  14.754 -1.3862  0.0846 -0.9278
 5542TIP3    H238042   3.407   0.827  14.717  0.3392 -1.8275  1.1207
 5543TIP3   OH238043   2.061   5.868  15.466 -0.2518  0.3781  0.1186
 5543TIP3    H138044   2.094   5.800  15.408 -0.3857 -0.2875  0.8060
 5543TIP3    H238045   1.969   5.878  15.442 -0.7004 -0.9396  1.1656
 5544TIP3   OH238046   5.010   6.024   5.510  0.8361  0.1065  0.7202
 5544TIP3    H138047   4.963   6.060   5.435  0.4597  0.2997  1.0410
 5544TIP3    H238048   4.962   6.058   5.586  0.1640 -1.4647  1.0370
 5545TIP3   OH238049   0.130   2.878  11.805 -0.1761 -0.4405 -0.2182
 5545TIP3    H138050   0.082   2.796  11.818  0.1667 -0.6922 -0.5186
 5545TIP3    H238051   0.075   2.929  11.746 -1.1266  0.1858  1.1584
 5546TIP3   OH238052   3.821   5.005   4.439  0.0693  0.1266  0.0536
 5546TIP3    H138053   3.761   5.019   4.513 -1.7755 -2.9114 -0.6912
 5546TIP3    H238054   3.796   5.072   4.376 -0.7959  0.5186  0.7752
 5547TIP3   OH238055   2.943   0.611  12.965  0.5203 -0.6150  0.3799
 5547TIP3    H138056   3.019   0.604  12.908 -0.3723 -0.3969 -0.8904
 5547TIP3    H238057   2.925   0.705  12.968 -0.5568 -0.7660 -0.5559
 5548TIP3   OH238058   5.193   0.168   5.636  0.1644 -0.1218 -0.0709
 5548TIP3    H138059   5.185   0.125   5.721  0.6406  2.4420  1.3680
 5548TIP3    H238060   5.104   0.198   5.616  0.5522  2.0133  1.1352
 5549TIP3   OH238061   5.215   1.882   3.676 -0.4463 -0.4823  0.2745
 5549TIP3    H138062   5.252   1.796   3.694 -0.7336 -0.5381  0.6092
 5549TIP3    H238063   5.148   1.894   3.743 -0.1345  0.1701  0.4740
 5550TIP3   OH238064   5.782   4.332  11.746 -0.4415  0.3351  0.3383
 5550TIP3    H138065   5.703   4.278  11.756  0.4187 -0.9092  0.6731
 5550TIP3    H238066   5.824   4.329  11.832  1.2866 -1.1838 -0.4903
 5551TIP3   OH238067   5.382   3.536  14.640 -0.1967  0.0279 -0.3826
 5551TIP3    H138068   5.367   3.459  14.694  0.2715 -0.1553 -0.5047
 5551TIP3    H238069   5.467   3.569  14.670 -0.5679  0.7161 -0.0718
 5552TIP3   OH238070   5.623   3.884  16.039  0.2660  0.0921 -0.2334
 5552TIP3    H138071   5.535   3.870  16.005 -0.3080  1.1294  0.7833
 5552TIP3    H238072   5.653   3.796  16.065 -1.6985  0.0429  2.2796
 5553TIP3   OH238073   6.244   4.011   0.982 -0.7735  0.3335  0.1491
 5553TIP3    H138074   6.309   3.945   0.960 -0.4495  0.1655  1.5699
 5553TIP3    H238075   6.160   3.970   0.960 -0.4357  0.5969 -1.7991
 5554TIP3   OH238076   4.713   4.857  17.212 -0.2468  0.1997 -0.0364
 5554TIP3    H138077   4.807   4.839  17.212 -0.0794  1.0236 -0.1115
 5554TIP3    H238078   4.706   4.949  17.239 -0.9655  0.5077 -1.1959
 5555TIP3   OH238079   0.866   2.845   4.761  0.0965 -0.1014  0.3064
 5555TIP3    H138080   0.877   2.773   4.825  0.3473 -0.4296 -0.1020
 5555TIP3    H238081   0.795   2.815   4.704  0.7390 -0.3737 -0.3479
 5556TIP3   OH238082   3.425   1.264   2.888 -0.4402 -0.2155  0.0035
 5556TIP3    H138083   3.432   1.172   2.864 -2.6456 -0.9023  1.7179
 5556TIP3    H238084   3.494   1.276   2.954 -0.3502 -0.7173  0.0069
 5557TIP3   OH238085   5.990   1.178   0.984 -0.0716 -0.1488  0.4369
 5557TIP3    H138086   6.057   1.223   0.933 -0.2214  0.4695  0.7712
 5557TIP3    H238087   6.026   1.091   0.999  0.2865 -0.0987 -0.1039
 5558TIP3   OH238088   0.914   4.954   0.082  0.6421  0.0087  0.7720
 5558TIP3    H138089   0.981   4.981   0.020  0.2844  0.0089  0.3835
 5558TIP3    H238090   0.835   4.941   0.029  0.5269 -0.7307  1.1085
 5559TIP3   OH238091   0.170   0.675  16.072  0.1035  0.5770 -0.3531
 5559TIP3    H138092   0.218   0.640  15.997  0.5277 -0.6908  0.4707
 5559TIP3    H238093   0.226   0.745  16.106  0.3422  0.5390 -0.6613
 5560TIP3   OH238094   3.191   4.046   4.627  0.5085  0.1109  0.1985
 5560TIP3    H138095   3.227   4.010   4.546 -0.0287  0.7727 -0.3486
 5560TIP3    H238096   3.263   4.096   4.665  0.2798  1.2058 -0.7524
 5561TIP3   OH238097   2.686   5.966  15.480  0.0439 -0.1801  0.7231
 5561TIP3    H138098   2.653   6.055  15.470  1.6714  0.3123 -0.8064
 5561TIP3    H238099   2.608   5.911  15.477 -0.8268  1.0487 -0.7402
 5562TIP3   OH238100   3.748   0.197  13.086 -0.3203 -0.2425  0.7389
 5562TIP3    H138101   3.717   0.187  12.995 -0.1079  0.8948  0.5286
 5562TIP3    H238102   3.834   0.155  13.087  0.1122  0.5918  0.1442
 5563TIP3   OH238103   5.529   3.639  10.526 -0.0825  0.5877 -0.1356
 5563TIP3    H138104   5.452   3.587  10.506 -0.3071  1.6789 -2.5073
 5563TIP3    H238105   5.500   3.699  10.594 -1.3699  0.9790 -0.9849
 5564TIP3   OH238106   5.571   1.912  15.038 -0.5271  0.1731 -0.6958
 5564TIP3    H138107   5.563   1.817  15.034 -0.6154  0.0531  1.2198
 5564TIP3    H238108   5.547   1.934  15.128  0.1577  1.9482 -0.9088
 5565TIP3   OH238109   3.797   3.817  15.002 -0.5661 -0.0849  0.1046
 5565TIP3    H138110   3.768   3.767  15.078  0.4790  0.4090  0.8496
 5565TIP3    H238111   3.875   3.863  15.032 -0.1183  0.0959 -1.2840
 5566TIP3   OH238112   4.808   5.108   3.286  0.3344 -0.5869 -0.4124
 5566TIP3    H138113   4.868   5.071   3.351 -1.3491 -2.4397  0.1825
 5566TIP3    H238114   4.789   5.035   3.227 -0.2433  0.3581 -1.4445
 5567TIP3   OH238115   0.403   2.094  13.921 -0.3261 -0.2116  0.2314
 5567TIP3    H138116   0.374   2.127  13.836 -0.2797 -1.6821 -0.3841
 5567TIP3    H238117   0.453   2.166  13.959 -0.6592  0.5999 -0.8215
 5568TIP3   OH238118   6.617   5.163  16.609  0.0459  0.2093 -0.5306
 5568TIP3    H138119   6.566   5.203  16.539  2.1496 -1.8767 -3.5109
 5568TIP3    H238120   6.649   5.237  16.661  0.8027  2.1606 -3.5678
 5569TIP3   OH238121   6.676   5.112   6.020 -0.0834 -0.4775 -0.4580
 5569TIP3    H138122   6.604   5.155   6.065  0.1306 -0.1247 -0.4527
 5569TIP3    H238123   6.747   5.110   6.084  0.1703 -0.1134 -0.7221
 5570TIP3   OH238124   3.105   1.689   3.913  0.6544 -0.6917 -0.3394
 5570TIP3    H138125   3.124   1.780   3.891  0.7647 -1.0835 -1.9745
 5570TIP3    H238126   3.049   1.695   3.991  0.8205  0.7487 -0.2955
 5571TIP3   OH238127   3.766   1.658  14.615 -0.4378  0.2897 -0.2059
 5571TIP3    H138128   3.696   1.627  14.557  0.4071 -1.8439 -0.1827
 5571TIP3    H238129   3.836   1.594  14.604  0.4884  0.8922  1.7480
 5572TIP3   OH238130   1.488   3.586  15.628  0.1944 -0.5102  0.0169
 5572TIP3    H138131   1.544   3.625  15.694 -0.7923  1.1233 -0.0278
 5572TIP3    H238132   1.403   3.575  15.672 -0.4992  0.6874 -0.9306
 5573TIP3   OH238133   4.001   4.359  12.427  0.2259 -0.0344  0.2866
 5573TIP3    H138134   4.051   4.398  12.356 -1.4222  1.2129 -0.2601
 5573TIP3    H238135   4.039   4.395  12.506 -0.1004  1.3100 -0.1426
 5574TIP3   OH238136   3.004   6.253   3.673 -0.3020  0.1466  0.0775
 5574TIP3    H138137   3.043   6.330   3.713  0.2235  0.0065 -0.1582
 5574TIP3    H238138   3.002   6.273   3.580 -0.6210  0.0755  0.0687
 5575TIP3   OH238139   3.545   2.138   3.276 -0.3875  0.0468  0.1130
 5575TIP3    H138140   3.604   2.096   3.214  1.3457 -0.2141  1.8414
 5575TIP3    H238141   3.590   2.219   3.302 -0.8375 -0.0809  1.3757
 5576TIP3   OH238142   3.966   3.011  16.780 -0.2997 -0.4098  0.2965
 5576TIP3    H138143   3.904   3.060  16.834  1.3924  0.6063  1.4028
 5576TIP3    H238144   3.993   2.938  16.835 -1.5002 -1.6689 -0.7054
 5577TIP3   OH238145   3.572   4.386  14.382 -0.3049 -0.0034  0.1895
 5577TIP3    H138146   3.563   4.394  14.477  0.2901  0.2659  0.2270
 5577TIP3    H238147   3.496   4.334  14.355 -0.2375 -0.4641  0.8657
 5578TIP3   OH238148   0.889   0.729  10.952  0.0697  0.2658  0.4821
 5578TIP3    H138149   0.883   0.637  10.976  1.6657  0.1204  0.4313
 5578TIP3    H238150   0.981   0.743  10.932  0.0738  2.1618  1.6045
 5579TIP3   OH238151   2.207   4.162   4.956  0.2255 -0.1285  0.2709
 5579TIP3    H138152   2.207   4.222   5.031  1.6431  0.7592 -0.3907
 5579TIP3    H238153   2.252   4.084   4.989 -0.2594 -0.2318  0.6982
 5580TIP3   OH238154   5.915   3.809  12.506  0.0141 -0.2978  0.0996
 5580TIP3    H138155   5.949   3.891  12.470  0.1411  0.2982  1.4881
 5580TIP3    H238156   5.901   3.829  12.599 -2.4426 -1.0426 -0.0445
 5581TIP3   OH238157   1.051   6.640  15.564 -0.7331 -0.3377  0.5529
 5581TIP3    H138158   0.987   6.711  15.559 -1.3337 -0.9313 -0.7384
 5581TIP3    H238159   1.110   6.655  15.491 -1.3994 -1.6272 -0.3008
 5582TIP3   OH238160   4.499   4.900   4.495 -0.4850  0.4780 -0.8364
 5582TIP3    H138161   4.510   4.903   4.590 -1.5697  1.0750 -0.7070
 5582TIP3    H238162   4.411   4.864   4.482  0.7204 -2.4261 -1.7307
 5583TIP3   OH238163   5.283   4.514  13.972  0.0854  0.3855 -0.2991
 5583TIP3    H138164   5.316   4.439  14.020 -2.0911 -0.7097 -0.3915
 5583TIP3    H238165   5.258   4.479  13.886 -1.8935  0.9349 -0.0027
 5584TIP3   OH238166   1.862   1.272   1.076 -0.2313 -0.4453  0.1142
 5584TIP3    H138167   1.840   1.365   1.071 -0.3644 -0.3942  1.4388
 5584TIP3    H238168   1.841   1.238   0.989 -0.1450  0.7643 -0.3983
 5585TIP3   OH238169   0.998   5.935   5.776 -0.7579  0.1674  0.5571
 5585TIP3    H138170   0.903   5.932   5.770 -0.7684 -0.4007  0.9268
 5585TIP3    H238171   1.016   5.928   5.870 -0.3592  0.4300  0.5032
 5586TIP3   OH238172   5.528   4.738  11.214 -0.0618  0.0908 -0.5448
 5586TIP3    H138173   5.545   4.674  11.282  0.7238 -0.3415 -1.1227
 5586TIP3    H238174   5.518   4.821  11.261  0.5649 -0.1813  0.0863
 5587TIP3   OH238175   5.119   2.382   6.090  0.4900 -0.2371  0.1318
 5587TIP3    H138176   5.025   2.399   6.093  0.3633  0.0051 -2.4164
 5587TIP3    H238177   5.160   2.463   6.120 -0.1330  0.0909  0.1104
 5588TIP3   OH238178   1.356   1.604   3.762 -0.4035  0.0661 -0.0304
 5588TIP3    H138179   1.297   1.624   3.834 -1.9563 -0.1880 -1.1655
 5588TIP3    H238180   1.409   1.531   3.793  2.1286  2.7237  2.4672
 5589TIP3   OH238181   3.870   6.080  13.889 -0.5015 -0.2016 -0.4540
 5589TIP3    H138182   3.962   6.105  13.887 -0.9804  1.6162 -1.9007
 5589TIP3    H238183   3.853   6.041  13.803 -1.1611 -0.2950 -0.2900
 5590TIP3   OH238184   4.700   1.896  11.673 -0.2568  0.4959 -0.2398
 5590TIP3    H138185   4.769   1.938  11.725 -0.0601 -0.1201 -0.0009
 5590TIP3    H238186   4.698   1.946  11.591 -0.5178  1.4282  0.3166
 5591TIP3   OH238187   6.483   4.875  16.420  0.2010 -0.3888 -0.0733
 5591TIP3    H138188   6.459   4.967  16.417 -1.3026 -0.7733 -2.7058
 5591TIP3    H238189   6.574   4.872  16.392 -0.3460  0.1845 -2.0207
 5592TIP3   OH238190   3.941   5.806   2.998 -0.0224  0.0097  0.7824
 5592TIP3    H138191   3.998   5.876   2.967  0.1471  0.5846  2.3058
 5592TIP3    H238192   3.932   5.747   2.923  0.2052  1.4098 -0.3920
 5593TIP3   OH238193   4.665   0.111  15.443  0.5585 -0.2256 -0.3211
 5593TIP3    H138194   4.760   0.115  15.456  0.5622 -2.8058  1.0910
 5593TIP3    H238195   4.652   0.032  15.390 -0.7697  0.8123 -1.6427
 5594TIP3   OH238196   6.533   5.394   2.594 -0.1102 -0.8465  0.1355
 5594TIP3    H138197   6.486   5.315   2.622 -0.3857 -1.1209 -1.0065
 5594TIP3    H238198   6.549   5.443   2.674  0.0990 -2.0798  0.8722
 5595TIP3   OH238199   4.698   4.597   2.253  0.7537 -0.8155 -0.1708
 5595TIP3    H138200   4.687   4.653   2.330  1.6904 -1.2751  0.3067
 5595TIP3    H238201   4.643   4.638   2.186  0.0333 -0.3389  0.6953
 5596TIP3   OH238202   2.572   1.835  13.947 -0.5417  0.4766  0.0354
 5596TIP3    H138203   2.631   1.887  13.893 -0.5076 -0.1763 -0.5791
 5596TIP3    H238204   2.486   1.844  13.905 -1.0857  2.0708  1.3772
 5597TIP3   OH238205   3.490   2.651  14.238  0.5433 -0.0197  0.3625
 5597TIP3    H138206   3.513   2.744  14.235  1.0461 -0.1356  0.6206
 5597TIP3    H238207   3.555   2.609  14.182 -0.6191 -0.0377 -1.0428
 5598TIP3   OH238208   2.938   6.045  13.343  0.1069  0.1941  0.2030
 5598TIP3    H138209   2.847   6.039  13.315 -0.0126  0.0688  0.5996
 5598TIP3    H238210   2.989   6.027  13.265 -0.1974  1.2451 -0.2495
 5599TIP3   OH238211   1.875   1.096  15.852 -0.1165  0.6795  0.4100
 5599TIP3    H138212   1.935   1.137  15.914 -1.0545  0.0305  1.8188
 5599TIP3    H238213   1.916   1.108  15.766  1.3150  1.4560  1.1667
 5600TIP3   OH238214   2.922   0.405  14.108  0.0737  0.2701 -0.1325
 5600TIP3    H138215   2.860   0.335  14.127 -0.2025  0.2520 -1.0612
 5600TIP3    H238216   2.879   0.485  14.138 -0.3915  0.2513 -0.7231
 5601TIP3   OH238217   0.198   1.914  16.527  0.2137  0.0863 -0.3894
 5601TIP3    H138218   0.106   1.885  16.525  0.2861 -0.3398  1.2205
 5601TIP3    H238219   0.212   1.943  16.617  0.7165  3.3822 -1.3880
 5602TIP3   OH238220   5.421   6.506   6.563  0.1066 -0.2825  0.0232
 5602TIP3    H138221   5.483   6.570   6.528 -0.4745  0.4558  0.2975
 5602TIP3    H238222   5.435   6.427   6.511  1.5055 -0.2503  0.3069
 5603TIP3   OH238223   6.747   5.234   2.506 -0.3229 -0.1590  0.6283
 5603TIP3    H138224   6.664   5.280   2.522 -1.0107 -1.9921  2.7575
 5603TIP3    H238225   6.814   5.303   2.510 -1.6106  1.2003 -0.1068
 5604TIP3   OH238226   0.709   4.939  14.680  0.1542  0.0385  0.6104
 5604TIP3    H138227   0.711   4.995  14.757  2.6642  0.0221  0.6471
 5604TIP3    H238228   0.683   4.997  14.609  1.5701  1.0312  0.8569
 5605TIP3   OH238229   3.456   1.572   0.163 -0.7321  0.1182  0.2738
 5605TIP3    H138230   3.546   1.587   0.192 -0.1140 -0.1433 -1.3900
 5605TIP3    H238231   3.434   1.486   0.199  0.1018 -0.3231 -0.2254
 5606TIP3   OH238232   2.329   6.772   2.418  0.7432  0.5921 -0.2384
 5606TIP3    H138233   2.420   6.766   2.447  0.6158  0.0100  0.0517
 5606TIP3    H238234   2.334   6.811   2.331  1.3598 -0.5568 -0.7375
 5607TIP3   OH238235   5.893   4.733  11.828  0.3713  0.0659 -0.2316
 5607TIP3    H138236   5.815   4.680  11.843  0.3023 -0.2368 -1.5072
 5607TIP3    H238237   5.875   4.816  11.872 -1.0794  0.3452 -1.2965
 5608TIP3   OH238238   5.923   4.272  12.225 -1.2018 -0.1619  0.3458
 5608TIP3    H138239   5.954   4.336  12.162 -1.4883 -1.5701 -1.2945
 5608TIP3    H238240   5.999   4.255  12.281 -0.8202  0.8161  0.1407
 5609TIP3   OH238241   3.799   3.058  12.410  0.4494 -0.3999  0.0806
 5609TIP3    H138242   3.849   3.133  12.379  1.9943 -1.5518 -0.3119
 5609TIP3    H238243   3.842   3.032  12.492 -0.2367 -0.6911  0.3570
 5610TIP3   OH238244   0.949   1.451  16.947  0.4549 -0.2989  0.0823
 5610TIP3    H138245   0.877   1.391  16.928 -0.1366  0.2130  0.6528
 5610TIP3    H238246   1.013   1.435  16.878  0.1955 -1.4026  0.0877
 5611TIP3   OH238247   2.971   3.459  14.160  0.3087  0.2785 -0.4539
 5611TIP3    H138248   3.015   3.511  14.093 -0.3351  0.9803 -0.3462
 5611TIP3    H238249   2.999   3.369  14.143  0.4092  0.4924 -1.4582
 5612TIP3   OH238250   4.272   2.432  13.739 -0.0814 -0.1241 -0.2636
 5612TIP3    H138251   4.231   2.421  13.653  1.6436  2.3781 -1.5058
 5612TIP3    H238252   4.229   2.508  13.777  0.3056 -0.2300  0.4120
 5613TIP3   OH238253   4.137   6.058  10.858 -0.5369  0.7349 -0.0174
 5613TIP3    H138254   4.217   6.010  10.879 -0.8192 -0.1896 -0.9808
 5613TIP3    H238255   4.168   6.139  10.817 -0.0652 -0.1037 -1.4191
 5614TIP3   OH238256   6.719   2.767  16.789 -0.0712  0.0029  0.1910
 5614TIP3    H138257   6.677   2.832  16.733 -0.2923 -1.3045 -1.2470
 5614TIP3    H238258   6.804   2.752  16.750 -0.5673 -1.5749 -0.3704
 5615TIP3   OH238259   1.972   6.712  12.708  0.2337 -0.0483 -0.4769
 5615TIP3    H138260   1.956   6.635  12.653  1.3698 -0.5051 -0.1965
 5615TIP3    H238261   2.048   6.688  12.761 -0.2747  0.7349  0.6373
 5616TIP3   OH238262   3.272   6.550  14.345  0.0928  0.0752 -0.4772
 5616TIP3    H138263   3.206   6.602  14.390 -1.4078 -0.9444 -1.4034
 5616TIP3    H238264   3.346   6.548  14.406 -1.3223 -0.0768  1.3422
 5617TIP3   OH238265   2.040   5.366  14.925  0.0883  1.0903  0.3106
 5617TIP3    H138266   1.961   5.373  14.979 -1.3255 -1.5467 -1.1472
 5617TIP3    H238267   2.101   5.314  14.978  0.4359  2.1916  1.0107
 5618TIP3   OH238268   6.730   5.013  16.219  0.5891  0.3667  0.4640
 5618TIP3    H138269   6.716   5.084  16.281  1.3292  0.5769  0.4014
 5618TIP3    H238270   6.815   4.975  16.244 -0.9970 -2.3187  2.2702
 5619TIP3   OH238271   3.062   5.842  11.586  0.0165  0.4875 -0.2693
 5619TIP3    H138272   3.146   5.800  11.569  0.1870  1.1408 -1.1740
 5619TIP3    H238273   3.071   5.882  11.672 -0.3176 -1.6735  0.8349
 5620TIP3   OH238274   4.336   2.039   0.605 -0.4287 -0.1573  0.3249
 5620TIP3    H138275   4.403   2.106   0.592  0.6966 -1.2133  0.5460
 5620TIP3    H238276   4.377   1.973   0.661 -1.4108 -1.1780 -0.1095
 5621TIP3   OH238277   2.242   4.257  11.165  0.1188 -0.5272  0.2500
 5621TIP3    H138278   2.176   4.327  11.163  0.3582 -0.2893  0.5757
 5621TIP3    H238279   2.257   4.242  11.259  0.8388 -0.2903  0.1729
 5622TIP3   OH238280   2.553   5.178  12.996 -1.0887  0.6942 -0.0833
 5622TIP3    H138281   2.595   5.126  13.065 -0.9627  2.0515  0.9163
 5622TIP3    H238282   2.477   5.217  13.039 -0.9952  1.5810 -0.6997
 5623TIP3   OH238283   2.234   4.053  10.955 -0.4553  0.1844  0.0035
 5623TIP3    H138284   2.215   4.124  11.016 -0.1964  0.0045  0.2986
 5623TIP3    H238285   2.149   4.026  10.921 -0.6626 -0.0979  0.7261
 5624TIP3   OH238286   3.937   1.754  13.230  0.0257  0.3500  0.7278
 5624TIP3    H138287   3.895   1.814  13.169  0.1166 -0.2090  0.1034
 5624TIP3    H238288   3.870   1.733  13.294 -0.2886  0.3745  0.4058
 5625TIP3   OH238289   3.275   2.879   3.583 -0.2635 -0.6338  0.4348
 5625TIP3    H138290   3.249   2.939   3.513 -0.7183 -0.5599  0.6657
 5625TIP3    H238291   3.356   2.838   3.550  0.6024  0.8046  0.6962
 5626TIP3   OH238292   1.075   3.809  14.742  0.2116  0.1947 -0.2170
 5626TIP3    H138293   1.083   3.726  14.696 -0.5772  0.7605 -1.4284
 5626TIP3    H238294   1.072   3.785  14.834  0.1519 -1.1080 -0.5349
 5627TIP3   OH238295   2.650   3.268  11.627 -0.2206 -0.1764 -0.0391
 5627TIP3    H138296   2.594   3.344  11.615  0.6189  0.6863  1.2721
 5627TIP3    H238297   2.650   3.253  11.722  2.7567  0.6779  0.2004
 5628TIP3   OH238298   5.170   2.228  10.798 -0.1831 -0.2420 -0.1082
 5628TIP3    H138299   5.112   2.191  10.865 -1.3578  0.4714 -0.6939
 5628TIP3    H238300   5.250   2.176  10.804 -1.1413 -1.7519  0.2364
 5629TIP3   OH238301   2.402   1.155  10.165 -0.6484  0.7280 -0.4018
 5629TIP3    H138302   2.374   1.236  10.208  1.9987  0.7701  1.4818
 5629TIP3    H238303   2.498   1.157  10.169 -0.4303 -1.5556 -2.1607
 5630TIP3   OH238304   4.487   2.768  13.023 -0.2748 -0.6889 -0.0161
 5630TIP3    H138305   4.402   2.724  13.023 -0.4173 -0.4729  1.5434
 5630TIP3    H238306   4.466   2.859  13.001 -0.2666 -0.9192 -0.9928
 5631TIP3   OH238307   5.682   0.571   3.535 -0.4404  0.0026  0.2794
 5631TIP3    H138308   5.598   0.562   3.579  0.3270 -0.4466  1.7310
 5631TIP3    H238309   5.747   0.561   3.605  0.8184  0.6908 -0.7380
 5632TIP3   OH238310   3.242   3.641   5.681  0.3981  0.2065  0.1932
 5632TIP3    H138311   3.207   3.706   5.742 -0.6373 -1.9779  2.0765
 5632TIP3    H238312   3.318   3.604   5.727 -1.0973 -2.3026  0.8138
 5633TIP3   OH238313   5.449   4.893   4.076 -0.2354  0.5766  0.3754
 5633TIP3    H138314   5.542   4.913   4.086 -0.0872  0.2526 -0.2876
 5633TIP3    H238315   5.408   4.931   4.154  0.4743  0.5544  0.7751
 5634TIP3   OH238316   6.124   1.740  12.664 -0.2552 -0.5643 -0.7951
 5634TIP3    H138317   6.071   1.766  12.589  0.0914  0.7890 -0.6000
 5634TIP3    H238318   6.209   1.716  12.627 -0.6025 -1.5193 -0.9858
 5635TIP3   OH238319   0.055   1.374   0.032 -0.1261  0.3370  0.3336
 5635TIP3    H138320   0.010   1.389  -0.051  2.0236 -0.9946 -1.1587
 5635TIP3    H238321   0.123   1.442   0.035  0.7981 -0.5628  0.2205
 5636TIP3   OH238322   6.138   5.376  14.639  0.2939 -0.1922  0.1865
 5636TIP3    H138323   6.044   5.367  14.655  0.1868  2.7152  2.0505
 5636TIP3    H238324   6.144   5.389  14.544 -1.2491  0.0607  0.0860
 5637TIP3   OH238325   5.922   2.626  13.511  0.0994  0.0503  0.1050
 5637TIP3    H138326   6.015   2.624  13.531 -0.2054 -0.1464  1.6169
 5637TIP3    H238327   5.879   2.611  13.595 -1.2949 -0.4533 -0.6701
 5638TIP3   OH238328   2.236   1.708  14.397  0.2924 -0.1148  0.0313
 5638TIP3    H138329   2.214   1.769  14.326  0.3063 -0.1583 -0.0109
 5638TIP3    H238330   2.294   1.644  14.356  0.1705 -0.2324  0.0438
 5639TIP3   OH238331   1.262   6.058  16.720  0.1752  0.1780 -0.4335
 5639TIP3    H138332   1.172   6.066  16.749 -0.9141 -1.6915 -2.8980
 5639TIP3    H238333   1.276   5.964  16.711  2.2533  0.4481 -0.4859
 5640TIP3   OH238334   5.094   1.752  16.447  0.3365  0.8386 -0.6830
 5640TIP3    H138335   5.145   1.724  16.523  0.5879  1.0656 -0.7678
 5640TIP3    H238336   5.073   1.671  16.401 -1.1796  0.5214  0.4738
 5641TIP3   OH238337   0.854   1.160  16.055  0.3774  0.4112  0.2334
 5641TIP3    H138338   0.875   1.246  16.017  1.4161 -0.3759 -1.0494
 5641TIP3    H238339   0.778   1.131  16.005 -1.0791  1.2647  1.8131
 5642TIP3   OH238340   6.613   2.990   5.736  0.8221  0.2718 -0.6674
 5642TIP3    H138341   6.652   2.937   5.805 -2.0108  0.8560  1.5827
 5642TIP3    H238342   6.600   2.929   5.664  1.2495 -1.1019  0.3698
 5643TIP3   OH238343   0.431   2.476  11.411 -0.7389 -0.2017 -0.3757
 5643TIP3    H138344   0.436   2.570  11.396 -1.8537  0.1795  1.4147
 5643TIP3    H238345   0.351   2.463  11.462 -0.3602 -2.0777 -0.1616
 5644TIP3   OH238346   3.790   6.571   2.417  0.2141 -0.5676 -0.1513
 5644TIP3    H138347   3.772   6.495   2.361  0.2832  0.9281 -2.3371
 5644TIP3    H238348   3.713   6.578   2.473 -0.4437 -1.4211 -0.9183
 5645TIP3   OH238349   4.370   0.912   0.288  0.4440 -0.2776 -0.4793
 5645TIP3    H138350   4.280   0.935   0.311  0.6112  1.3103 -1.2315
 5645TIP3    H238351   4.423   0.961   0.351  0.8201 -2.0729  0.6878
 5646TIP3   OH238352   5.389   6.252  12.691  0.2847 -0.7240 -0.3464
 5646TIP3    H138353   5.446   6.193  12.740  0.8868 -1.0652 -1.4165
 5646TIP3    H238354   5.445   6.286  12.621 -1.3265 -2.8742 -2.8781
 5647TIP3   OH238355   3.489   3.006  15.750 -0.1994 -0.0183  0.2278
 5647TIP3    H138356   3.517   3.077  15.808 -0.2808 -1.2588  1.8769
 5647TIP3    H238357   3.434   3.048  15.684  0.5710  1.5763  0.5534
 5648TIP3   OH238358   1.515   6.689   0.189  0.7861  0.3438  0.0318
 5648TIP3    H138359   1.524   6.627   0.261 -0.4926 -1.0541 -0.9567
 5648TIP3    H238360   1.592   6.746   0.196  1.2340 -0.4321  1.8375
 5649TIP3   OH238361   5.850   3.938  10.417 -0.0507  0.6505 -0.0382
 5649TIP3    H138362   5.791   3.877  10.372  0.9458 -2.2345  2.2358
 5649TIP3    H238363   5.793   3.985  10.478 -0.5879  0.8216 -0.6554
 5650TIP3   OH238364   0.079   0.594  17.159  0.6884 -0.6440  0.4555
 5650TIP3    H138365   0.021   0.562  17.090 -0.6528  0.2822  1.1040
 5650TIP3    H238366   0.157   0.539  17.152  0.5627 -0.6245 -1.7223
 5651TIP3   OH238367   1.358   1.955   3.829 -0.3418 -0.0050  0.6960
 5651TIP3    H138368   1.428   1.906   3.870  0.6062 -0.4131 -1.2924
 5651TIP3    H238369   1.305   1.889   3.784 -0.4307  0.5467 -0.0329
 5652TIP3   OH238370   3.568   0.250  12.840 -0.2008  0.0362  0.2050
 5652TIP3    H138371   3.488   0.198  12.835 -0.0114 -0.2293 -0.1398
 5652TIP3    H238372   3.539   0.340  12.825 -0.2634 -0.2137 -1.2602
 5653TIP3   OH238373   1.732   6.426   2.972 -0.9908 -0.4458 -0.0487
 5653TIP3    H138374   1.722   6.504   2.918  0.1518  0.3489  0.8456
 5653TIP3    H238375   1.691   6.449   3.055 -0.9524 -0.9146  0.1026
 5654TIP3   OH238376   2.083   3.580  13.389 -0.1289  0.7721 -0.5472
 5654TIP3    H138377   2.162   3.559  13.339 -2.0284 -1.0444 -2.9957
 5654TIP3    H238378   2.061   3.670  13.362  0.3678  0.8121 -0.8326
 5655TIP3   OH238379   0.708   5.230  12.547 -0.4366 -0.0294  0.6872
 5655TIP3    H138380   0.658   5.272  12.476  1.5622  0.0025 -0.8010
 5655TIP3    H238381   0.758   5.302  12.586  0.2752 -0.4292  0.5255
 5656TIP3   OH238382   3.671   1.579  14.355 -0.4618 -0.0827  0.4608
 5656TIP3    H138383   3.586   1.598  14.317 -1.8182 -1.7039  2.5124
 5656TIP3    H238384   3.732   1.585  14.281 -2.2708  1.3494 -1.0143
 5657TIP3   OH238385   6.666   5.110  15.796 -0.0877 -0.3997  0.0091
 5657TIP3    H138386   6.713   5.087  15.876 -0.6080 -3.5200 -0.4330
 5657TIP3    H238387   6.723   5.079  15.726 -0.3226  0.9100 -0.7891
 5658TIP3   OH238388   1.493   0.903  12.226  0.6591  0.3616 -0.1270
 5658TIP3    H138389   1.473   0.947  12.309 -0.3509 -1.2067  0.5016
 5658TIP3    H238390   1.410   0.867  12.197  1.3571 -0.6787 -0.8914
 5659TIP3   OH238391   4.477   4.238   1.587  0.7953 -0.3693 -0.0091
 5659TIP3    H138392   4.431   4.196   1.660  1.9556 -4.0009 -1.1255
 5659TIP3    H238393   4.408   4.261   1.525  0.0355  0.1496  0.9944
 5660TIP3   OH238394   1.665   0.543  13.119 -0.3034  0.1887  0.5576
 5660TIP3    H138395   1.680   0.503  13.034  0.6158 -1.1983  1.3284
 5660TIP3    H238396   1.572   0.568  13.118 -0.8834 -1.8089 -0.0760
 5661TIP3   OH238397   6.418   3.183  16.789 -0.5205  0.0387  0.1406
 5661TIP3    H138398   6.492   3.126  16.805  0.3669  1.4886  1.5520
 5661TIP3    H238399   6.448   3.243  16.721 -0.4016  0.5747  0.6543
 5662TIP3   OH238400   5.489   3.928  11.133  0.9796  0.1278  0.1389
 5662TIP3    H138401   5.568   3.888  11.169  1.5869 -0.0442 -1.3286
 5662TIP3    H238402   5.518   4.013  11.102  0.7200 -0.1395 -0.8655
 5663TIP3   OH238403   2.055   6.005   2.419 -0.0717 -0.4997  0.0417
 5663TIP3    H138404   2.012   5.985   2.502  0.6057  0.7321  0.7245
 5663TIP3    H238405   2.018   6.090   2.393  1.3049  0.1912  0.2385
 5664TIP3   OH238406   1.668   1.220   2.159 -0.4537 -0.2645  0.0778
 5664TIP3    H138407   1.694   1.268   2.237 -0.9715 -1.2739  0.8889
 5664TIP3    H238408   1.619   1.284   2.107  2.0587  1.1622 -0.6723
 5665TIP3   OH238409   4.500   6.619   0.820  0.2489  0.5164  0.2185
 5665TIP3    H138410   4.552   6.600   0.898  2.1283 -1.4284 -1.3942
 5665TIP3    H238411   4.518   6.711   0.801 -0.0727  0.9652  1.8925
 5666TIP3   OH238412   1.716   6.378  13.254 -0.6675  0.6365 -0.0103
 5666TIP3    H138413   1.709   6.349  13.164  0.5658  1.1062 -0.2687
 5666TIP3    H238414   1.744   6.300  13.303 -0.5575  0.5864 -0.1560
 5667TIP3   OH238415   4.890   0.140  13.598  0.1651 -0.0488 -0.5306
 5667TIP3    H138416   4.876   0.105  13.686  0.1240  0.4058 -0.3509
 5667TIP3    H238417   4.802   0.147  13.560  0.2856 -1.6726 -1.1840
 5668TIP3   OH238418   2.921   1.981  15.512 -0.0802  0.1909  0.1343
 5668TIP3    H138419   2.867   1.922  15.460  1.4299 -0.0831 -1.1972
 5668TIP3    H238420   2.918   2.064  15.464  1.9566 -0.2798 -0.8768
 5669TIP3   OH238421   3.779   6.511   5.479  0.1024  0.5371  0.7166
 5669TIP3    H138422   3.781   6.448   5.407 -0.1751  0.0817  1.1006
 5669TIP3    H238423   3.868   6.547   5.481  0.3416 -0.0386  0.6616
 5670TIP3   OH238424   1.490   2.785   0.218 -0.5105 -0.0319 -0.1952
 5670TIP3    H138425   1.506   2.691   0.223  1.0616  0.2446  0.7281
 5670TIP3    H238426   1.453   2.808   0.303  2.9254  0.7580  1.2500
 5671TIP3   OH238427   6.744   6.596  11.691  0.5899 -0.0724 -0.2893
 5671TIP3    H138428   6.838   6.606  11.708  0.2134  1.6064  1.0682
 5671TIP3    H238429   6.730   6.644  11.609  0.9958 -0.8740 -0.8446
 5672TIP3   OH238430   4.127   4.903  13.117 -0.0903  0.1012  0.4014
 5672TIP3    H138431   4.061   4.855  13.166  0.3994 -0.5504  0.4375
 5672TIP3    H238432   4.209   4.883  13.162  0.0633  1.3510  0.6958
 5673TIP3   OH238433   0.495   3.923  11.919 -0.1261 -0.1323  0.4307
 5673TIP3    H138434   0.527   4.013  11.909  0.6492 -0.6739 -3.7629
 5673TIP3    H238435   0.565   3.878  11.967 -0.1704  1.2580  1.8864
 5674TIP3   OH238436   1.018   3.693   4.318  0.4072  0.6377  0.8503
 5674TIP3    H138437   1.107   3.682   4.351  1.0146  0.2571 -0.7983
 5674TIP3    H238438   0.991   3.780   4.347  1.0099  0.4363  2.0365
 5675TIP3   OH238439   2.771   3.499   5.210  0.5716 -0.1580 -0.1998
 5675TIP3    H138440   2.692   3.445   5.206  1.4372 -1.4255 -0.9605
 5675TIP3    H238441   2.843   3.436   5.202  1.6283  1.1172 -1.1251
 5676TIP3   OH238442   6.155   3.795   5.915  0.1045  0.2081  0.5230
 5676TIP3    H138443   6.161   3.846   5.996 -1.3288  0.7013  0.3639
 5676TIP3    H238444   6.114   3.855   5.852 -0.1648 -0.6291 -0.1309
 5677TIP3   OH238445   3.504   0.343   3.643 -0.1327 -0.3248  0.0921
 5677TIP3    H138446   3.565   0.274   3.618 -0.6935 -0.7062 -0.2423
 5677TIP3    H238447   3.559   0.410   3.684  0.7250  0.0728 -1.6324
 5678TIP3   OH238448   3.608   4.748  11.834  0.1366 -0.5072 -0.2418
 5678TIP3    H138449   3.637   4.813  11.770 -0.5195 -1.2092 -1.2822
 5678TIP3    H238450   3.513   4.758  11.837  0.0020 -1.5581 -0.5918
 5679TIP3   OH238451   0.028   0.931   2.178  0.3099  0.2544 -1.1227
 5679TIP3    H138452  -0.056   0.888   2.162  0.0952 -0.5153  1.5475
 5679TIP3    H238453   0.093   0.863   2.161  0.3070  0.3906 -1.6990
 5680TIP3   OH238454   1.113   3.138   6.755 -0.2747  0.2614 -0.3457
 5680TIP3    H138455   1.163   3.088   6.690 -0.9682 -0.4173 -0.3628
 5680TIP3    H238456   1.050   3.188   6.703 -0.7075 -0.1422 -0.2147
 5681TIP3   OH238457   3.498   3.027   1.149  1.1068  0.1611 -0.0741
 5681TIP3    H138458   3.463   2.961   1.209  0.5259  0.6891  0.1678
 5681TIP3    H238459   3.441   3.022   1.072 -1.1734  2.7591  1.2950
 5682TIP3   OH238460   2.056   0.962   5.797  0.1560 -0.4408 -0.8217
 5682TIP3    H138461   1.990   1.029   5.815  0.4425 -0.4407  0.2992
 5682TIP3    H238462   2.005   0.883   5.777 -0.2228 -0.6694  0.8999
 5683TIP3   OH238463   5.187   3.715  11.756 -0.1144  0.4546  0.3103
 5683TIP3    H138464   5.214   3.781  11.819  0.1838  0.5007  0.1342
 5683TIP3    H238465   5.129   3.762  11.696  0.1593  0.5728  0.1406
 5684TIP3   OH238466   2.015   0.654   0.369 -0.0865 -0.0558  0.1658
 5684TIP3    H138467   2.064   0.736   0.355  1.4918 -1.1758 -1.3356
 5684TIP3    H238468   1.965   0.642   0.288  0.2731 -0.9219  0.0611
 5685TIP3   OH238469   0.237   6.477  12.624  0.0741 -0.5677  0.1377
 5685TIP3    H138470   0.239   6.399  12.569  0.2907 -0.4600 -0.0048
 5685TIP3    H238471   0.314   6.468  12.680 -0.4321 -0.9484  0.7951
 5686TIP3   OH238472   5.676   3.500  11.580 -0.2000 -0.0239  0.2117
 5686TIP3    H138473   5.608   3.564  11.600 -0.9632 -0.7466 -0.0119
 5686TIP3    H238474   5.711   3.474  11.665  0.2645  0.8460  0.2892
 5687TIP3   OH238475   5.397   6.673   0.857  0.5466 -0.3305  0.0131
 5687TIP3    H138476   5.320   6.625   0.828 -0.0120  0.4583  0.1669
 5687TIP3    H238477   5.470   6.631   0.811  0.0962 -1.4212  0.2780
 5688TIP3   OH238478   5.304   3.267  12.474 -0.5108  0.0089  0.0082
 5688TIP3    H138479   5.349   3.218  12.543  1.6553  2.0408  0.1801
 5688TIP3    H238480   5.370   3.328  12.441 -2.1791  0.7359 -2.2635
 5689TIP3   OH238481   4.201   1.842  11.379 -0.3144  0.2206  0.1241
 5689TIP3    H138482   4.178   1.834  11.286 -1.0296 -0.3764  0.3434
 5689TIP3    H238483   4.266   1.912  11.382  0.4996 -0.4536 -0.9694
 5690TIP3   OH238484   0.621   0.749   3.822  0.2273  0.1263 -0.2084
 5690TIP3    H138485   0.559   0.795   3.878  2.0169  1.9863  0.3368
 5690TIP3    H238486   0.568   0.718   3.749 -1.4775  0.9390  0.6305
 5691TIP3   OH238487   1.272   3.325   6.476 -0.2473  0.1062 -0.1346
 5691TIP3    H138488   1.267   3.252   6.413 -0.1122  0.5401 -0.6622
 5691TIP3    H238489   1.185   3.328   6.516 -0.2762 -0.3006 -0.1602
 5692TIP3   OH238490   1.948   4.862   1.618  0.2454  0.3629 -0.1997
 5692TIP3    H138491   1.921   4.771   1.630  1.5608 -0.0224 -0.0616
 5692TIP3    H238492   2.000   4.883   1.695 -2.1583  2.1028  1.0792
 5693TIP3   OH238493   1.484   0.006  11.818 -0.1281 -0.6140 -0.1035
 5693TIP3    H138494   1.479  -0.035  11.731 -0.6684 -2.3727  0.7044
 5693TIP3    H238495   1.577   0.025  11.830  0.2531 -2.2185 -0.2913
 5694TIP3   OH238496   2.315   5.283  15.998 -0.3263 -0.2910  0.2739
 5694TIP3    H138497   2.246   5.276  16.064 -1.7397 -1.0428 -1.2189
 5694TIP3    H238498   2.321   5.377  15.980 -0.8815 -0.2089  0.4885
 5695TIP3   OH238499   5.285   5.425  14.506  0.0942  0.2075  0.1410
 5695TIP3    H138500   5.358   5.365  14.493 -0.1807 -0.3222  0.9701
 5695TIP3    H238501   5.237   5.422  14.423 -0.3760 -1.3766  0.4328
 5696TIP3   OH238502   3.538   3.339   2.906  0.0963  0.1386  0.1181
 5696TIP3    H138503   3.563   3.397   2.978  0.3768 -0.7130  0.7097
 5696TIP3    H238504   3.560   3.389   2.827  1.5889  0.3104  0.6154
 5697TIP3   OH238505   3.529   1.837   0.698 -0.0132 -0.0391 -0.2110
 5697TIP3    H138506   3.493   1.863   0.783  0.9050  0.6540 -0.0090
 5697TIP3    H238507   3.461   1.862   0.635  1.5000  5.1100 -0.2958
 5698TIP3   OH238508   5.056   2.634   5.005  0.1840 -0.0299 -0.6242
 5698TIP3    H138509   5.151   2.634   5.020  0.0450  2.1471  0.8218
 5698TIP3    H238510   5.042   2.709   4.947 -0.7292  0.2432 -0.0642
 5699TIP3   OH238511   0.985   1.437  15.980  0.1858 -0.1090 -0.2761
 5699TIP3    H138512   1.058   1.485  16.019 -0.3450 -0.0759  0.7237
 5699TIP3    H238513   1.010   1.424  15.889 -0.3929  3.6215 -1.1258
 5700TIP3   OH238514   3.541   1.584  12.747 -0.5340  0.0789  0.6809
 5700TIP3    H138515   3.471   1.649  12.746 -1.2870 -0.7160 -1.0191
 5700TIP3    H238516   3.613   1.628  12.793 -1.0540  2.0916 -0.3394
 5701TIP3   OH238517   2.754   0.322  16.666 -0.5228  0.1074 -0.1422
 5701TIP3    H138518   2.677   0.272  16.695  1.5373 -3.0594  0.4094
 5701TIP3    H238519   2.770   0.384  16.737 -2.5605  0.9013 -0.3160
 5702TIP3   OH238520   0.852   1.279  15.444  0.0978  0.3645  0.2771
 5702TIP3    H138521   0.947   1.280  15.442  0.1987 -2.2415  0.1018
 5702TIP3    H238522   0.829   1.330  15.522  1.4964  2.5052 -0.6348
 5703TIP3   OH238523   1.138   0.422  12.673  0.4475 -0.6963  0.4745
 5703TIP3    H138524   1.056   0.382  12.702 -1.8635  1.9843 -1.7637
 5703TIP3    H238525   1.150   0.496  12.732  0.9369 -0.7260  0.4092
 5704TIP3   OH238526   6.117   0.336  12.719 -0.2135 -0.3796 -0.0698
 5704TIP3    H138527   6.057   0.299  12.654  0.3579  0.9286 -1.4223
 5704TIP3    H238528   6.108   0.431  12.708 -0.4058 -0.0941  2.0899
 5705TIP3   OH238529   0.780   0.209  13.076 -0.1743 -0.0164  0.3311
 5705TIP3    H138530   0.764   0.284  13.134 -2.6749 -0.1417 -0.0913
 5705TIP3    H238531   0.836   0.151  13.127 -2.6097 -0.3218  2.9000
 5706TIP3   OH238532   5.727   0.633   1.491 -0.4878  0.1670  0.3994
 5706TIP3    H138533   5.747   0.544   1.519  1.6317 -0.0261 -1.3880
 5706TIP3    H238534   5.813   0.676   1.489 -1.3289  1.9019  0.0661
 5707TIP3   OH238535   3.930   0.804  11.133 -0.7569  0.6515 -0.5621
 5707TIP3    H138536   3.878   0.752  11.195  0.7411  0.2234  0.3739
 5707TIP3    H238537   3.894   0.780  11.047 -0.1771 -1.9307 -0.1681
 5708TIP3   OH238538   2.049   3.271  13.207  0.3348  0.2011  0.1261
 5708TIP3    H138539   2.138   3.237  13.202 -0.4805 -2.0586 -0.3283
 5708TIP3    H238540   2.032   3.309  13.121  0.1572 -1.3970 -0.5837
 5709TIP3   OH238541   6.236   2.074  16.633  0.1105  0.2693  0.5231
 5709TIP3    H138542   6.291   2.002  16.661 -1.5770 -1.3035 -0.0095
 5709TIP3    H238543   6.230   2.064  16.538 -2.2299 -0.5256  0.7003
 5710TIP3   OH238544   4.788   0.082   4.612  0.0361  0.2919  0.2310
 5710TIP3    H138545   4.715   0.100   4.552  0.5197 -0.0551 -0.4621
 5710TIP3    H238546   4.820  -0.004   4.586  0.4683  0.2905  0.7665
 5711TIP3   OH238547   1.199   1.030  14.198 -0.0388  0.1504 -0.2402
 5711TIP3    H138548   1.242   0.979  14.129 -0.0466 -0.3006  0.0868
 5711TIP3    H238549   1.250   1.111  14.202  0.6398 -0.2713 -0.0377
 5712TIP3   OH238550   0.019   1.452   5.484  0.2847 -0.2988 -0.0514
 5712TIP3    H138551   0.040   1.435   5.392 -0.3460  1.2890 -0.5175
 5712TIP3    H238552  -0.064   1.407   5.499 -0.0650  0.1847 -0.5221
 5713TIP3   OH238553   3.390   4.826   6.310 -0.4983 -0.0388  0.4312
 5713TIP3    H138554   3.478   4.796   6.287 -0.9419 -0.9593 -0.1420
 5713TIP3    H238555   3.404   4.906   6.361  0.6541  0.0458  0.0155
 5714TIP3   OH238556   5.284   4.358  16.954  0.4206  0.0815  0.1799
 5714TIP3    H138557   5.284   4.356  17.050  3.2162  3.0794  0.4408
 5714TIP3    H238558   5.192   4.361  16.930 -0.3487  0.6089  2.8662
 5715TIP3   OH238559   6.086   0.014   2.816  0.4288 -0.4668 -0.1151
 5715TIP3    H138560   6.030   0.089   2.837 -2.2857 -2.6644  1.2407
 5715TIP3    H238561   6.127  -0.010   2.899 -1.7653 -2.6171  0.5085
 5716TIP3   OH238562   2.467   4.735   4.743 -0.0402 -0.1943  0.0017
 5716TIP3    H138563   2.520   4.657   4.724  0.0814 -0.2653  0.6062
 5716TIP3    H238564   2.397   4.732   4.678  0.2390 -0.5434 -0.2916
 5717TIP3   OH238565   1.949   1.910  10.934 -0.0261 -0.1453  0.9124
 5717TIP3    H138566   1.893   1.965  10.989 -0.4075 -0.1290  0.5137
 5717TIP3    H238567   1.933   1.941  10.845  1.7809  0.9160  0.8983
 5718TIP3   OH238568   1.453   1.396   3.890 -0.6590  0.5141  0.6535
 5718TIP3    H138569   1.480   1.390   3.981 -0.5350 -1.0911  0.5269
 5718TIP3    H238570   1.529   1.369   3.839 -0.8780  0.9336  0.0754
 5719TIP3   OH238571   5.532   2.506   3.143  0.4444  0.5488  0.3897
 5719TIP3    H138572   5.578   2.580   3.183 -1.0650  1.7315  0.0212
 5719TIP3    H238573   5.601   2.443   3.123  2.3639  3.3252 -2.6477
 5720TIP3   OH238574   1.284   4.338   0.418 -0.3869 -0.1968 -0.1136
 5720TIP3    H138575   1.372   4.374   0.432 -1.1946  1.8248  0.0972
 5720TIP3    H238576   1.253   4.317   0.506 -0.7015  0.6013 -0.0270
 5721TIP3   OH238577   2.402   3.935   2.493 -0.1442  0.2350  0.4371
 5721TIP3    H138578   2.384   4.026   2.517 -0.4786 -0.0028  1.1309
 5721TIP3    H238579   2.320   3.903   2.456  0.6248  0.8635 -1.9803
 5722TIP3   OH238580   0.941   6.426  13.712  0.8566 -0.0997  0.1766
 5722TIP3    H138581   0.910   6.517  13.715 -0.6166 -0.5947  2.5315
 5722TIP3    H238582   0.938   6.403  13.619 -1.1913  1.4807 -0.2288
 5723TIP3   OH238583   0.325   2.787  12.477  0.3023 -0.1913  0.0050
 5723TIP3    H138584   0.398   2.801  12.537  0.6814 -2.0534  0.0586
 5723TIP3    H238585   0.364   2.795  12.389  0.1291  0.7760  0.0100
 5724TIP3   OH238586   3.513   1.851   2.522 -0.4154  0.3917  0.3633
 5724TIP3    H138587   3.518   1.820   2.613  1.3018  0.0572  0.1940
 5724TIP3    H238588   3.533   1.944   2.528  1.5105  0.0221  0.1808
 5725TIP3   OH238589   5.499   0.984  13.880 -0.5555  0.2202  0.4306
 5725TIP3    H138590   5.414   0.948  13.907 -0.3477 -0.9768 -0.4792
 5725TIP3    H238591   5.504   0.967  13.786 -0.0436  1.8349  0.1313
 5726TIP3   OH238592   2.506   0.754   2.635 -0.4098 -0.2387 -0.5317
 5726TIP3    H138593   2.500   0.780   2.727 -1.5230 -1.7188 -0.1555
 5726TIP3    H238594   2.419   0.773   2.599  0.0724  0.5008 -1.3595
 5727TIP3   OH238595   4.416   2.715   2.842  0.3527  0.1168  0.2322
 5727TIP3    H138596   4.364   2.794   2.829  0.0857 -0.2217 -0.8121
 5727TIP3    H238597   4.426   2.709   2.937 -0.5139  0.8269  0.3837
 5728TIP3   OH238598   3.521   2.802   3.877 -0.3458  0.9899  0.2507
 5728TIP3    H138599   3.588   2.793   3.809 -0.6671  1.0800 -0.0855
 5728TIP3    H238600   3.563   2.853   3.946  0.3113  0.0409  0.5694
 5729TIP3   OH238601   5.302   2.233  16.900 -1.1136  0.0401  0.0734
 5729TIP3    H138602   5.317   2.309  16.843 -1.2529  0.8291  1.0743
 5729TIP3    H238603   5.291   2.160  16.839  2.1102  0.2041 -0.8976
 5730TIP3   OH238604   3.951   3.006  11.600 -0.5949  0.2844 -0.5964
 5730TIP3    H138605   3.857   2.995  11.582 -0.5546 -0.8916 -0.1490
 5730TIP3    H238606   3.959   3.098  11.627 -1.5927  0.4432 -0.7806
 5731TIP3   OH238607   1.221   2.321  15.109 -0.1944  0.2266  0.4463
 5731TIP3    H138608   1.204   2.386  15.041 -0.3760 -0.0112  0.2636
 5731TIP3    H238609   1.185   2.360  15.189 -0.7983  0.1159  0.2337
 5732TIP3   OH238610   3.237   6.498  10.245 -0.6842  0.3267 -0.2299
 5732TIP3    H138611   3.312   6.551  10.218 -1.5850  1.4140 -0.6809
 5732TIP3    H238612   3.179   6.559  10.290 -0.4062 -0.9283  1.9276
 5733TIP3   OH238613   3.829   4.178  12.533 -0.0109 -0.1165  0.3039
 5733TIP3    H138614   3.861   4.185  12.623  0.4476  0.4125  0.1105
 5733TIP3    H238615   3.893   4.228  12.482 -0.9513  0.6540 -0.1393
 5734TIP3   OH238616   2.191   5.334  16.525 -0.1124 -0.4203  0.2214
 5734TIP3    H138617   2.150   5.278  16.591 -1.8416 -0.0789 -0.4903
 5734TIP3    H238618   2.158   5.422  16.544  1.8672  0.2385  0.7826
 5735TIP3   OH238619   6.346   2.684  14.390 -0.0954  0.1559  0.1976
 5735TIP3    H138620   6.252   2.669  14.382 -0.0920  0.1407  0.1831
 5735TIP3    H238621   6.386   2.600  14.365 -0.0907  0.0330  0.6223
 5736TIP3   OH238622   1.855   0.853   5.463  0.0287 -0.1456  0.1648
 5736TIP3    H138623   1.904   0.936   5.458  0.3848 -0.3638  0.0096
 5736TIP3    H238624   1.770   0.878   5.498  0.5869  0.1084  1.4239
 5737TIP3   OH238625   1.011   0.499   4.000 -0.1141  0.1812 -0.3021
 5737TIP3    H138626   0.946   0.570   3.998  0.6923  0.9122 -1.4490
 5737TIP3    H238627   1.027   0.480   3.908  0.3399 -0.8965 -0.0020
 5738TIP3   OH238628   6.406   5.751   2.672  0.1123 -0.3625 -0.1141
 5738TIP3    H138629   6.367   5.695   2.738  0.0121 -0.8300 -0.5645
 5738TIP3    H238630   6.349   5.741   2.595 -0.9212  1.6568  0.2957
 5739TIP3   OH238631   2.506   4.906  13.768  0.9362 -0.0002 -0.2487
 5739TIP3    H138632   2.441   4.896  13.699  0.3826 -0.9732  0.3815
 5739TIP3    H238633   2.558   4.825  13.764  0.9966  0.0032  0.3713
 5740TIP3   OH238634   1.934   4.935  11.385 -0.2441 -0.0946  0.4382
 5740TIP3    H138635   2.005   4.931  11.321  0.7858 -1.5853  1.5936
 5740TIP3    H238636   1.854   4.941  11.332  0.6303 -0.1853 -0.9451
 5741TIP3   OH238637   2.919   0.856   3.122 -0.1192 -0.2844 -0.3448
 5741TIP3    H138638   2.991   0.809   3.165  0.0724  1.3614  1.3055
 5741TIP3    H238639   2.962   0.908   3.054  0.4781  1.3534  1.1900
 5742TIP3   OH238640   4.689   3.496  14.918 -0.6188  0.2429 -0.4252
 5742TIP3    H138641   4.656   3.522  15.004 -0.4254  0.9803 -0.5687
 5742TIP3    H238642   4.781   3.473  14.933 -0.5294  0.5707 -0.4731
 5743TIP3   OH238643   5.511   2.141   2.769  0.4836  0.0870  0.2545
 5743TIP3    H138644   5.476   2.221   2.729  2.0342  0.9763  0.5998
 5743TIP3    H238645   5.446   2.117   2.835 -0.8432  0.0475 -1.0183
 5744TIP3   OH238646   6.448   1.348   2.588 -0.2046 -0.1840  0.1615
 5744TIP3    H138647   6.508   1.331   2.515 -0.5100  1.3934 -0.5099
 5744TIP3    H238648   6.500   1.398   2.650 -0.6047  0.5841 -0.1056
 5745TIP3   OH238649   5.693   0.332   1.327  0.8665  0.1369 -0.7505
 5745TIP3    H138650   5.695   0.253   1.273  2.2393 -1.4455  1.4502
 5745TIP3    H238651   5.734   0.306   1.409 -2.3578  1.9726  1.6813
 5746TIP3   OH238652   4.196   4.724   1.808  0.1077 -0.5747 -0.3645
 5746TIP3    H138653   4.217   4.666   1.735  0.3064 -0.7250 -0.1896
 5746TIP3    H238654   4.210   4.670   1.886  0.7895 -0.1382 -0.1775
 5747TIP3   OH238655   2.134   5.505   2.110 -0.4959 -0.4890  0.1525
 5747TIP3    H138656   2.180   5.589   2.104 -1.1074 -0.1388  0.2560
 5747TIP3    H238657   2.197   5.446   2.153 -0.2217  0.0331  0.4752
 5748TIP3   OH238658   5.201   4.610   3.820  0.0905 -0.8325 -0.6735
 5748TIP3    H138659   5.171   4.578   3.905 -1.1726 -1.0958 -1.1940
 5748TIP3    H238660   5.225   4.701   3.836 -0.7582 -0.6845 -0.1567
 5749TIP3   OH238661   5.188   1.751  11.552  0.1614  0.2612 -0.4196
 5749TIP3    H138662   5.223   1.840  11.556 -0.8839  0.6584  0.6068
 5749TIP3    H238663   5.265   1.696  11.539  0.6705  1.4005 -2.9884
 5750TIP3   OH238664   6.166   4.689   5.052  0.2080  0.0992  0.3040
 5750TIP3    H138665   6.099   4.746   5.090  0.4662  0.1725  0.6493
 5750TIP3    H238666   6.136   4.600   5.072  1.3080  0.1517  2.3755
 5751TIP3   OH238667   2.359   2.315   1.597 -0.0329 -0.4803  0.7890
 5751TIP3    H138668   2.392   2.275   1.677  0.4777 -1.9925 -0.1412
 5751TIP3    H238669   2.438   2.342   1.549 -0.2732 -0.9555  0.1180
 5752TIP3   OH238670   3.249   4.422   2.406  0.0936  0.0274 -0.7396
 5752TIP3    H138671   3.310   4.362   2.364 -0.6182 -0.5124 -1.0215
 5752TIP3    H238672   3.202   4.464   2.334  1.2203  1.6495 -0.5943
 5753TIP3   OH238673   0.013   2.735   2.576  0.5444 -0.1251  0.6029
 5753TIP3    H138674  -0.059   2.725   2.638  0.5241 -1.5312  0.3767
 5753TIP3    H238675   0.009   2.657   2.521  0.1346  1.3695 -1.6516
 5754TIP3   OH238676   0.792   3.007   5.580 -0.2224  0.5333  0.3698
 5754TIP3    H138677   0.833   2.986   5.663 -0.9007  1.4400  0.9504
 5754TIP3    H238678   0.698   3.000   5.597 -0.4613  2.7451  0.2751
 5755TIP3   OH238679   0.483   3.303   6.327  0.0450 -0.3165  0.2705
 5755TIP3    H138680   0.575   3.285   6.349  1.4813  0.9070 -3.7906
 5755TIP3    H238681   0.466   3.390   6.363  1.4548  0.6031 -1.1579
 5756TIP3   OH238682   3.845   5.883   5.014 -1.0226 -0.6927  0.6488
 5756TIP3    H138683   3.817   5.824   4.943 -0.2818 -0.1426 -0.1133
 5756TIP3    H238684   3.927   5.921   4.983  0.1311 -1.5821  2.4553
 5757TIP3   OH238685   5.677   5.599   3.656 -0.0707  0.2704  0.1332
 5757TIP3    H138686   5.709   5.688   3.642  2.7495 -0.2357  2.4081
 5757TIP3    H238687   5.755   5.549   3.679 -1.4599 -3.0055 -1.6659
 5758TIP3   OH238688   5.981   4.332  16.204 -0.2429  0.2085  0.5551
 5758TIP3    H138689   6.040   4.289  16.142 -0.1043 -1.5951  1.8498
 5758TIP3    H238690   5.897   4.334  16.159 -0.3393 -1.8104  0.5406
 5759TIP3   OH238691   3.696   3.668  15.215 -0.6493  0.2374  0.4273
 5759TIP3    H138692   3.604   3.693  15.226 -0.5316  1.0091 -0.2408
 5759TIP3    H238693   3.727   3.652  15.304 -1.0965  1.2515  0.7870
 5760TIP3   OH238694   1.524   2.506  14.460 -0.4559  0.1077  0.6502
 5760TIP3    H138695   1.480   2.437  14.410 -0.9060 -0.4463  1.7709
 5760TIP3    H238696   1.595   2.535  14.403 -2.6449  1.5554 -1.5334
 5761TIP3   OH238697   0.700   2.477   5.990 -0.0972  0.5244  0.2075
 5761TIP3    H138698   0.644   2.510   6.061 -0.3186  3.0744 -1.0274
 5761TIP3    H238699   0.780   2.530   5.997  0.5046 -0.2610 -0.5364
 5762TIP3   OH238700   4.555   3.519  11.361  0.5526  0.6351  0.2358
 5762TIP3    H138701   4.519   3.559  11.282  1.0938  0.7600  0.0439
 5762TIP3    H238702   4.641   3.487  11.334 -0.5189 -2.2818 -0.1337
 5763TIP3   OH238703   4.381   4.989   0.616 -0.7714 -0.0549 -0.2777
 5763TIP3    H138704   4.469   5.016   0.589 -0.5267 -2.8597 -2.6339
 5763TIP3    H238705   4.386   4.986   0.712  1.6875 -0.1434 -0.3450
 5764TIP3   OH238706   5.255   1.889  17.026 -0.3257 -0.8009 -0.6084
 5764TIP3    H138707   5.287   1.918  16.941  1.7782 -0.7410  0.1238
 5764TIP3    H238708   5.288   1.799  17.035  0.1562 -0.5386  0.4351
 5765TIP3   OH238709   4.650   2.094   6.144  0.0630 -0.0749 -0.2725
 5765TIP3    H138710   4.710   2.043   6.090  0.0785 -0.1687 -0.1652
 5765TIP3    H238711   4.566   2.049   6.137 -0.0656  0.2192 -0.6578
 5766TIP3   OH238712   6.485   5.564  15.002 -0.2293  0.5024  0.2936
 5766TIP3    H138713   6.531   5.544  15.084 -1.7554 -1.3864  0.7667
 5766TIP3    H238714   6.507   5.491  14.944 -1.1687  0.5182 -0.0930
 5767TIP3   OH238715   3.333   1.162   0.829 -0.3371 -0.3182  0.4030
 5767TIP3    H138716   3.400   1.170   0.897 -0.3311 -0.5827  0.4291
 5767TIP3    H238717   3.286   1.246   0.832 -1.3895 -0.9040  1.8344
 5768TIP3   OH238718   0.397   3.943  14.169  0.5942  0.4939 -0.4321
 5768TIP3    H138719   0.418   3.969  14.259 -1.0384  0.0191  0.1296
 5768TIP3    H238720   0.336   4.011  14.139  1.6940  1.0522 -1.4681
 5769TIP3   OH238721   0.641   2.413  13.941 -0.1054 -0.1955 -0.2741
 5769TIP3    H138722   0.633   2.400  14.036 -1.6388  1.6281 -0.1041
 5769TIP3    H238723   0.733   2.436  13.928 -0.4450  2.3483  1.2059
 5770TIP3   OH238724   1.382   6.715  13.401  0.5186  0.1556  0.1436
 5770TIP3    H138725   1.319   6.709  13.473  0.9381  0.5047  0.5447
 5770TIP3    H238726   1.382   6.807  13.376  0.2770  0.0134 -0.4000
 5771TIP3   OH238727   0.444   0.211  11.060  0.0254 -0.0980  0.1911
 5771TIP3    H138728   0.494   0.217  11.141  1.4801  2.4848 -0.7786
 5771TIP3    H238729   0.465   0.292  11.013 -2.5163 -0.4576 -1.7761
 5772TIP3   OH238730   0.602   0.190   0.600  0.5390 -0.1335  0.2863
 5772TIP3    H138731   0.507   0.186   0.615  0.5811 -1.6226  0.3589
 5772TIP3    H238732   0.610   0.206   0.506  0.1043 -3.5805 -0.4875
 5773TIP3   OH238733   6.464   3.213  15.812 -0.8453  0.3557 -0.1872
 5773TIP3    H138734   6.547   3.236  15.852 -1.4876  0.4488  1.1348
 5773TIP3    H238735   6.417   3.165  15.880 -2.7517  2.1803 -0.1136
 5774TIP3   OH238736   5.446   3.107  14.910 -0.0192 -0.1834 -0.1954
 5774TIP3    H138737   5.502   3.032  14.928 -0.2584 -0.5172 -0.8168
 5774TIP3    H238738   5.364   3.069  14.876 -1.1030  0.2190  1.8119
 5775TIP3   OH238739   3.079   5.127   4.566  0.2753  0.3775  0.4806
 5775TIP3    H138740   3.131   5.208   4.560  0.7526  0.0475  0.1209
 5775TIP3    H238741   3.095   5.096   4.655  0.7936  0.2182  0.3360
 5776TIP3   OH238742   5.038   4.034   6.047 -0.3990 -0.2256  0.0888
 5776TIP3    H138743   4.978   4.050   6.120 -1.6335 -3.0199 -0.1895
 5776TIP3    H238744   5.115   4.086   6.067 -0.7222 -0.8431  3.3847
 5777TIP3   OH238745   1.035   1.610   1.250 -0.0528  0.0142 -0.0643
 5777TIP3    H138746   1.074   1.638   1.168 -3.1821 -1.3592 -2.2283
 5777TIP3    H238747   1.010   1.519   1.235 -3.1629  0.5054  1.3663
 5778TIP3   OH238748   2.906   6.436  12.235 -0.3601 -0.0296  0.2892
 5778TIP3    H138749   2.978   6.490  12.201 -1.6239  2.3944  1.2028
 5778TIP3    H238750   2.892   6.468  12.324 -3.0547  0.1340 -0.1229
 5779TIP3   OH238751   0.933   6.076   3.879 -0.1509 -0.1444  0.0928
 5779TIP3    H138752   0.867   6.023   3.834 -2.3955  0.3541  2.5269
 5779TIP3    H238753   0.953   6.146   3.818  0.4586 -1.9362 -1.8913
 5780TIP3   OH238754   1.958   0.567  12.936 -0.0310 -0.2940 -0.4253
 5780TIP3    H138755   1.879   0.547  12.885  0.5763 -0.6076 -1.2550
 5780TIP3    H238756   2.016   0.492  12.922  1.1604  0.7666 -1.3209
 5781TIP3   OH238757   4.244   1.026  13.190 -0.0552 -0.0423 -0.0482
 5781TIP3    H138758   4.208   0.938  13.203 -0.3664  0.1262  0.2484
 5781TIP3    H238759   4.209   1.077  13.263  0.3476  0.2604 -0.0640
 5782TIP3   OH238760   6.721   4.417  16.383 -0.2130  0.1835  0.4406
 5782TIP3    H138761   6.768   4.385  16.461  0.5390  1.2347  0.4442
 5782TIP3    H238762   6.737   4.511  16.383 -1.4198  0.4029 -0.2008
 5783TIP3   OH238763   2.136   5.811  12.969 -0.2865 -0.3252  0.3267
 5783TIP3    H138764   2.169   5.870  13.036 -1.0930  2.7731 -1.7941
 5783TIP3    H238765   2.041   5.817  12.974 -0.4142 -1.7750  0.2751
 5784TIP3   OH238766   1.676   2.365  12.361 -0.6028 -0.1682 -0.4190
 5784TIP3    H138767   1.699   2.397  12.448 -0.5269  0.5869 -0.7073
 5784TIP3    H238768   1.737   2.293  12.345  1.5722  1.7072 -1.1207
 5785TIP3   OH238769   6.394   4.959  12.038 -0.0921 -0.5303 -0.3026
 5785TIP3    H138770   6.440   5.003  12.109 -0.4758 -2.1517  0.9873
 5785TIP3    H238771   6.311   5.006  12.030  0.5403  0.5595 -0.6801
 5786TIP3   OH238772   3.675   3.762  13.021  0.4356 -0.0512  0.1315
 5786TIP3    H138773   3.706   3.678  13.054  1.0835  0.4698  0.8796
 5786TIP3    H238774   3.624   3.740  12.943  4.0592 -0.8502 -2.2587
 5787TIP3   OH238775   4.073   1.106  16.102 -0.0605  0.0137 -0.2771
 5787TIP3    H138776   4.038   1.193  16.121  0.5209 -0.0152  1.0167
 5787TIP3    H238777   3.996   1.049  16.097 -0.3893  0.4710 -0.4713
 5788TIP3   OH238778   6.392   1.715   0.687  0.5715  0.3024 -0.8277
 5788TIP3    H138779   6.297   1.708   0.680  0.5887 -1.0468 -0.0394
 5788TIP3    H238780   6.409   1.722   0.781  1.2799 -0.0400 -0.9231
 5789TIP3   OH238781   1.120   6.199  13.671 -0.4179  0.6187 -0.0342
 5789TIP3    H138782   1.182   6.188  13.743  0.1323  0.7893 -0.4753
 5789TIP3    H238783   1.051   6.255  13.707  0.5413  1.8481 -0.0357
 5790TIP3   OH238784   1.281   0.949  12.601 -0.4166 -0.4327  0.5053
 5790TIP3    H138785   1.252   0.983  12.517 -0.0809  1.0531  0.9647
 5790TIP3    H238786   1.202   0.908  12.638 -0.6244 -0.8791 -0.4014
 5791TIP3   OH238787   2.998   3.478  15.650  0.6787  0.5122  0.4375
 5791TIP3    H138788   2.935   3.549  15.643 -0.0310 -0.1018  0.5075
 5791TIP3    H238789   3.049   3.499  15.728  1.6120  1.8238 -0.4896
 5792TIP3   OH238790   5.039   2.458  13.493  0.1276  0.4601 -0.3233
 5792TIP3    H138791   5.053   2.363  13.493 -0.6541  0.3337 -0.9331
 5792TIP3    H238792   4.985   2.474  13.571  2.2665  0.7563  1.1897
 5793TIP3   OH238793   0.968   3.139   2.738 -0.1457  0.2202 -0.2674
 5793TIP3    H138794   1.057   3.156   2.770 -0.4168  1.1114  0.0317
 5793TIP3    H238795   0.949   3.050   2.768  0.1385  0.5237  0.8866
 5794TIP3   OH238796   5.918   1.037   3.422  0.1505  0.3414  1.1514
 5794TIP3    H138797   6.001   0.993   3.400 -0.4165 -0.4021  0.4692
 5794TIP3    H238798   5.861   0.967   3.452 -0.5774  0.6885  0.6048
 5795TIP3   OH238799   4.756   3.695  12.192  0.3029 -0.4241  0.3615
 5795TIP3    H138800   4.692   3.729  12.129  1.6184  1.0666 -0.2368
 5795TIP3    H238801   4.724   3.725  12.277  0.2511  0.4111  0.0583
 5796TIP3   OH238802   6.315   5.300   4.021 -0.3295 -0.3881  0.0124
 5796TIP3    H138803   6.341   5.218   4.063 -0.9540 -0.1578  0.8756
 5796TIP3    H238804   6.233   5.324   4.064  0.2933  1.1463  0.4116
 5797TIP3   OH238805   3.795   3.837  13.888 -0.1250  0.1759 -0.1432
 5797TIP3    H138806   3.745   3.838  13.969 -0.4841  2.8034 -0.3067
 5797TIP3    H238807   3.885   3.854  13.915  0.4193 -2.4198 -0.0517
 5798TIP3   OH238808   2.935   2.705   1.384  0.7828 -0.1580 -0.1271
 5798TIP3    H138809   2.972   2.660   1.308 -0.1449 -0.7411 -0.2407
 5798TIP3    H238810   2.868   2.646   1.418  0.4682  0.5482  0.5265
 5799TIP3   OH238811   2.508   1.376   5.464 -0.2738 -0.2962  0.0068
 5799TIP3    H138812   2.465   1.305   5.512  0.6167 -0.7913  0.0994
 5799TIP3    H238813   2.499   1.453   5.520 -1.1238 -0.3626 -0.0285
 5800TIP3   OH238814   4.894   2.858  14.882 -0.0107 -0.2414  0.2646
 5800TIP3    H138815   4.811   2.821  14.911  0.4446 -1.6471 -0.1485
 5800TIP3    H238816   4.958   2.790  14.901  1.5118  1.7037  2.8888
 5801TIP3   OH238817   4.796   0.597  16.491  0.6492 -0.1506  0.5923
 5801TIP3    H138818   4.756   0.641  16.566  0.3384 -0.0985  0.3979
 5801TIP3    H238819   4.721   0.568  16.438  0.8712 -0.0068  0.1982
 5802TIP3   OH238820   1.583   4.992   0.186 -0.3674 -0.2848 -0.1489
 5802TIP3    H138821   1.624   5.049   0.251 -0.3480 -1.7594  1.2098
 5802TIP3    H238822   1.585   5.042   0.105 -1.2902  2.0738  1.1650
 5803TIP3   OH238823   1.309   4.829  14.675  0.2907 -0.1962  0.5425
 5803TIP3    H138824   1.227   4.800  14.715 -1.3612  1.7088 -1.1856
 5803TIP3    H238825   1.289   4.834  14.581  1.7604  2.1915  0.2749
 5804TIP3   OH238826   4.509   0.083   1.590  0.5243 -0.1961  0.2376
 5804TIP3    H138827   4.451   0.157   1.608  0.4799 -0.2145  0.1678
 5804TIP3    H238828   4.597   0.121   1.591  0.5822 -0.3298  1.2659
 5805TIP3   OH238829   4.367   6.437   1.459 -0.0103 -0.3489  0.2441
 5805TIP3    H138830   4.356   6.507   1.523  0.4702 -0.0226 -0.0307
 5805TIP3    H238831   4.320   6.363   1.498  0.1358 -0.1100  0.8998
 5806TIP3   OH238832   6.570   4.604   2.097 -0.0722  0.5337  0.0879
 5806TIP3    H138833   6.652   4.570   2.061 -0.6311 -0.0528 -0.6802
 5806TIP3    H238834   6.520   4.633   2.020 -0.2027  1.7809  0.6157
 5807TIP3   OH238835   2.319   2.082   3.111 -0.6791  0.2364  0.9016
 5807TIP3    H138836   2.334   2.176   3.107 -1.2903  0.3027 -0.0073
 5807TIP3    H238837   2.296   2.066   3.203 -1.1279  1.0592  0.9434
 5808TIP3   OH238838   2.217   1.778   0.599 -0.1170 -0.1035 -0.3973
 5808TIP3    H138839   2.279   1.793   0.527 -0.0366  1.5973 -0.0349
 5808TIP3    H238840   2.270   1.786   0.678 -0.2823 -1.5601 -0.1179
 5809TIP3   OH238841   0.421   6.383  13.647 -0.1871 -0.5146  0.7613
 5809TIP3    H138842   0.484   6.356  13.714  1.0883 -1.0272 -0.5806
 5809TIP3    H238843   0.453   6.342  13.567 -1.8308 -0.1559 -0.1230
 5810TIP3   OH238844   3.421   3.144   5.354  0.1627  0.1168 -0.2023
 5810TIP3    H138845   3.382   3.227   5.384  1.6795  1.2541 -1.2139
 5810TIP3    H238846   3.394   3.137   5.263 -1.9767 -1.8208  0.4761
 5811TIP3   OH238847   1.114   0.926  15.034 -0.3071  0.2914  0.1292
 5811TIP3    H138848   1.073   0.845  15.067  0.0537  0.5861  1.3415
 5811TIP3    H238849   1.044   0.992  15.039 -0.6762  0.0265 -1.0950
 5812TIP3   OH238850   5.371   0.596  13.932 -0.0859  0.0094  0.0964
 5812TIP3    H138851   5.338   0.507  13.945 -2.0393  0.5612 -0.7098
 5812TIP3    H238852   5.370   0.609  13.837 -2.7469  1.8354  0.2613
 5813TIP3   OH238853   3.317   4.723  11.830  0.6769 -0.2035 -0.2890
 5813TIP3    H138854   3.276   4.776  11.763  0.5940  2.0274  1.4191
 5813TIP3    H238855   3.245   4.692  11.884  0.9437  1.8022  1.3523
 5814TIP3   OH238856   3.666   2.114   5.043  0.1166  0.1179  0.7348
 5814TIP3    H138857   3.658   2.021   5.023  1.1513 -0.0995  1.2789
 5814TIP3    H238858   3.608   2.127   5.118  2.9428 -1.0079  3.3330
 5815TIP3   OH238859   3.381   2.402  15.607 -0.2890 -0.0154 -0.1830
 5815TIP3    H138860   3.452   2.344  15.578 -1.1197 -1.0414 -0.2144
 5815TIP3    H238861   3.301   2.352  15.591 -0.9937  0.9046  0.3734
 5816TIP3   OH238862   6.284   6.400   6.910 -0.1982  0.1151  0.3761
 5816TIP3    H138863   6.335   6.459   6.854  0.3767 -0.6044  0.1154
 5816TIP3    H238864   6.289   6.315   6.866  0.7022 -0.5963  1.7581
 5817TIP3   OH238865   2.972   2.394   2.947  0.1369 -0.1169  0.3700
 5817TIP3    H138866   3.004   2.312   2.984  1.3795  0.0953 -0.1604
 5817TIP3    H238867   3.035   2.460   2.978 -0.0718  0.4068 -0.2975
 5818TIP3   OH238868   3.052   5.555  11.136  0.6210 -0.3543  0.4135
 5818TIP3    H138869   2.989   5.486  11.115  0.4323 -0.0979  0.1172
 5818TIP3    H238870   3.001   5.620  11.184  0.4546  0.2305 -0.5174
 5819TIP3   OH238871   0.174   4.177   0.025 -0.0082  0.1075  0.2834
 5819TIP3    H138872   0.109   4.163  -0.044  1.5830 -1.1796 -1.0255
 5819TIP3    H238873   0.126   4.161   0.106 -1.3098 -0.9343 -0.6498
 5820TIP3   OH238874   3.800   0.354  14.808  0.0974  0.0174  0.3842
 5820TIP3    H138875   3.851   0.422  14.764  0.9824 -0.3885  0.7603
 5820TIP3    H238876   3.855   0.327  14.881  0.2458 -1.8746 -0.3875
 5821TIP3   OH238877   5.086   1.614  14.540  0.1083  0.7551  0.1891
 5821TIP3    H138878   5.100   1.691  14.485  0.1154  1.0645  0.6091
 5821TIP3    H238879   5.068   1.651  14.627  0.4246  0.2734  0.4633
 5822TIP3   OH238880   3.093   5.566   1.013 -0.3797 -0.8547  0.5450
 5822TIP3    H138881   3.117   5.634   1.077  0.6543 -2.9690  2.5738
 5822TIP3    H238882   3.026   5.514   1.058 -1.6611 -0.8240 -1.2328
 5823TIP3   OH238883   2.785   0.088   0.464 -0.4894  0.0573 -0.1537
 5823TIP3    H138884   2.875   0.059   0.447 -0.8327 -0.7111 -0.6795
 5823TIP3    H238885   2.760   0.136   0.384 -0.6280  0.0782 -0.0981
 5824TIP3   OH238886   3.548   3.453  12.003 -0.1430  0.1884 -0.3243
 5824TIP3    H138887   3.568   3.518  11.936  0.9268 -0.5878 -0.7822
 5824TIP3    H238888   3.467   3.412  11.973  0.0096  0.2541 -0.8369
 5825TIP3   OH238889   6.231   0.221  15.372  0.1530  0.0339 -0.6668
 5825TIP3    H138890   6.308   0.277  15.367  1.1518 -1.3437 -1.0544
 5825TIP3    H238891   6.182   0.255  15.448  0.8398  1.2591 -0.7478
 5826TIP3   OH238892   4.992   3.738   4.094  1.0929  0.4521 -0.1057
 5826TIP3    H138893   4.998   3.643   4.097  3.6774  0.4852 -1.4402
 5826TIP3    H238894   5.082   3.768   4.109  0.4394  2.6575 -0.2908
 5827TIP3   OH238895   3.648   1.932   1.468 -0.2144 -0.1993 -0.8387
 5827TIP3    H138896   3.555   1.910   1.459 -0.1502 -0.3477 -1.1615
 5827TIP3    H238897   3.693   1.847   1.464 -0.0728 -0.1360 -0.5823
 5828TIP3   OH238898   2.160   4.178   2.553  1.1196 -0.0862  0.3869
 5828TIP3    H138899   2.095   4.231   2.507 -0.1827 -1.1033  1.0106
 5828TIP3    H238900   2.139   4.087   2.529  3.0258 -0.3910 -0.3026
 5829TIP3   OH238901   5.611   3.738   3.850 -0.2686  0.5437  0.6691
 5829TIP3    H138902   5.578   3.667   3.905 -0.3653 -0.5318 -0.7076
 5829TIP3    H238903   5.534   3.771   3.804  0.2452 -1.0871 -1.5594
 5830TIP3   OH238904   3.800   0.764  17.058  0.4335 -0.0894  0.3492
 5830TIP3    H138905   3.844   0.836  17.101  0.5338 -1.7466  3.2905
 5830TIP3    H238906   3.867   0.696  17.049  0.0407 -0.3080 -1.1579
 5831TIP3   OH238907   3.076   2.895   0.162 -0.0744 -0.5877  0.4205
 5831TIP3    H138908   3.098   2.805   0.185 -1.8453 -1.1102  0.2172
 5831TIP3    H238909   2.988   2.908   0.198 -0.2255  0.7445 -0.3606
 5832TIP3   OH238910   3.581   0.154  15.694  0.1641  0.0214 -0.4131
 5832TIP3    H138911   3.564   0.248  15.690 -1.1464  0.0338  2.5607
 5832TIP3    H238912   3.495   0.113  15.684  0.1459 -0.6074  1.6871
 5833TIP3   OH238913   0.410   4.155  11.500 -0.0360  0.3637  0.0074
 5833TIP3    H138914   0.450   4.077  11.538 -4.1845 -1.6147  0.9178
 5833TIP3    H238915   0.394   4.132  11.408 -0.7316  0.3045  0.1313
 5834TIP3   OH238916   3.260   5.463  11.296  0.2769 -0.1158 -0.1435
 5834TIP3    H138917   3.248   5.368  11.287 -0.9724 -0.0482  0.5093
 5834TIP3    H238918   3.178   5.500  11.266  0.9280  0.8101 -0.8295
 5835TIP3   OH238919   6.618   1.643  16.323  0.1299  0.1170 -0.3076
 5835TIP3    H138920   6.651   1.664  16.235 -0.3053  0.5780 -0.3627
 5835TIP3    H238921   6.565   1.718  16.348 -0.8900 -0.6086 -0.2276
 5836TIP3   OH238922   1.974   3.852   5.809  0.8207  0.1033 -0.3387
 5836TIP3    H138923   1.924   3.870   5.889 -0.6970 -0.1888 -1.1768
 5836TIP3    H238924   1.948   3.921   5.748 -0.8575 -1.6564 -1.7571
 5837TIP3   OH238925   4.839   4.390  15.033 -0.2756 -0.3300 -0.0613
 5837TIP3    H138926   4.820   4.482  15.053 -1.0869 -0.8555  1.7279
 5837TIP3    H238927   4.893   4.360  15.106  0.4648 -1.1382 -0.9199
 5838TIP3   OH238928   2.285   6.333   2.013 -0.4368  0.5669 -0.1516
 5838TIP3    H138929   2.299   6.344   2.107  0.3618  2.3479 -0.4228
 5838TIP3    H238930   2.190   6.342   2.002 -0.9394 -2.4711  0.7230
 5839TIP3   OH238931   2.832   5.296   5.704  0.0407  0.0253 -0.1103
 5839TIP3    H138932   2.889   5.245   5.761  0.1932  0.3260  0.0070
 5839TIP3    H238933   2.748   5.299   5.750 -0.2750 -0.9806 -0.5898
 5840TIP3   OH238934   6.634   6.576   3.768  0.9952  0.1138  0.0467
 5840TIP3    H138935   6.623   6.574   3.673  0.5089  1.3818  0.0548
 5840TIP3    H238936   6.558   6.625   3.800 -0.0218 -2.1530  1.3184
 5841TIP3   OH238937   6.407   2.245  14.765 -0.2124 -0.0573 -0.2223
 5841TIP3    H138938   6.355   2.192  14.705  0.4871  0.5573 -1.4001
 5841TIP3    H238939   6.399   2.201  14.849  0.3848 -2.0863 -1.1722
 5842TIP3   OH238940   5.631   5.464  14.799  0.5307  0.5956 -0.1236
 5842TIP3    H138941   5.536   5.467  14.792  0.5477  3.4507 -0.3479
 5842TIP3    H238942   5.661   5.538  14.748  2.6810  1.6532  2.4239
 5843TIP3   OH238943   5.685   4.274  13.715 -0.6057  0.1818  0.1838
 5843TIP3    H138944   5.726   4.359  13.731  0.1414 -0.2981  0.8467
 5843TIP3    H238945   5.735   4.236  13.643 -0.3805 -0.0750  0.4769
 5844TIP3   OH238946   1.401   0.583  11.639  0.2375 -0.1517  0.6830
 5844TIP3    H138947   1.477   0.635  11.666 -1.2687  1.5404  1.9091
 5844TIP3    H238948   1.347   0.643  11.589  0.6480 -1.9353 -2.0907
 5845TIP3   OH238949   0.451   1.735   6.358  0.1249  0.2366 -0.3798
 5845TIP3    H138950   0.458   1.681   6.436  1.2166  0.8534 -0.0254
 5845TIP3    H238951   0.429   1.822   6.391 -0.0791  0.3519 -0.8084
 5846TIP3   OH238952   2.954   4.950  15.863 -0.2358 -0.1776  0.4361
 5846TIP3    H138953   3.010   4.926  15.790 -1.4050 -2.3346  0.1807
 5846TIP3    H238954   2.984   5.037  15.889  1.0793  0.0740 -1.7313
 5847TIP3   OH238955   1.904   4.052  14.963  0.9072  0.2875 -0.1294
 5847TIP3    H138956   1.871   4.116  14.901  0.5335  0.0639 -0.1659
 5847TIP3    H238957   1.903   4.098  15.048 -1.1901 -0.2521  0.1879
 5848TIP3   OH238958   4.585   3.940   3.670  0.0450 -0.3877 -0.0637
 5848TIP3    H138959   4.656   3.922   3.733 -0.4138 -1.0996  0.2595
 5848TIP3    H238960   4.581   3.862   3.615  0.5060  0.2729 -1.0560
 5849TIP3   OH238961   1.342   3.955  12.423 -0.2423  0.3420  0.0983
 5849TIP3    H138962   1.419   3.905  12.397  0.8114  1.9860 -0.0457
 5849TIP3    H238963   1.352   3.969  12.517 -0.7709 -0.1058  0.2253
 5850TIP3   OH238964   4.745   3.888   3.023  0.2240  0.5416 -0.1255
 5850TIP3    H138965   4.773   3.888   3.115 -1.5313 -0.1506  0.4458
 5850TIP3    H238966   4.655   3.920   3.025  1.1338  3.6575 -1.9922
 5851TIP3   OH238967   1.318   4.890   0.095  0.1536  0.2672  0.0343
 5851TIP3    H138968   1.388   4.846   0.142 -0.4010  0.6940  1.3039
 5851TIP3    H238969   1.273   4.943   0.161 -0.7287  0.8088 -0.9493
 5852TIP3   OH238970   6.480   2.630  15.436  0.0272  0.3448 -0.1744
 5852TIP3    H138971   6.532   2.657  15.512 -0.1504  1.0195 -0.2862
 5852TIP3    H238972   6.476   2.708  15.381 -0.5348  0.0957 -0.4924
 5853TIP3   OH238973   2.578   3.236  14.998 -0.3028  0.7411 -0.0611
 5853TIP3    H138974   2.597   3.270  15.085  0.2942  1.0252 -0.3032
 5853TIP3    H238975   2.496   3.279  14.973 -2.2071 -1.5651  1.5821
 5854TIP3   OH238976   0.882   4.490  12.027 -0.5222 -0.1029 -0.0707
 5854TIP3    H138977   0.881   4.494  11.931  0.5384  1.4037 -0.0541
 5854TIP3    H238978   0.942   4.419  12.047  2.1335  1.8416 -0.5866
 5855TIP3   OH238979   6.541   1.636   4.408 -0.4144  0.0787 -0.2078
 5855TIP3    H138980   6.481   1.705   4.382 -2.1183 -1.6187 -1.0499
 5855TIP3    H238981   6.628   1.675   4.400 -1.2519  1.8122 -1.5918
 5856TIP3   OH238982   6.318   0.808   0.888 -0.0733 -0.0698  0.7697
 5856TIP3    H138983   6.360   0.723   0.870  0.8560  0.1781  1.7053
 5856TIP3    H238984   6.350   0.865   0.818  1.4538  0.2076  1.6684
 5857TIP3   OH238985   0.621   5.116  16.785  0.7272  0.0410  0.1179
 5857TIP3    H138986   0.655   5.205  16.798  0.9810  0.1717 -1.2621
 5857TIP3    H238987   0.536   5.116  16.828  0.3630  1.2219 -0.5433
 5858TIP3   OH238988   2.131   3.391  16.653  0.3075 -0.3705 -0.5657
 5858TIP3    H138989   2.147   3.361  16.743  0.8948  1.6652  0.0562
 5858TIP3    H238990   2.051   3.443  16.659  0.3741 -0.1868 -1.2351
 5859TIP3   OH238991   4.820   4.973  16.066 -0.4669 -0.5150 -0.0098
 5859TIP3    H138992   4.758   5.045  16.081 -1.4575 -1.3564 -0.0237
 5859TIP3    H238993   4.801   4.910  16.135  0.6445 -0.6316  0.2198
 5860TIP3   OH238994   1.791   1.107   4.371 -0.0192 -0.3924  0.1223
 5860TIP3    H138995   1.798   1.012   4.359  1.3309 -0.3883  0.6035
 5860TIP3    H238996   1.855   1.144   4.311  0.8880  0.0760  1.3227
 5861TIP3   OH238997   6.057   3.766   1.205 -0.0398  0.5206  0.0602
 5861TIP3    H138998   6.036   3.788   1.296 -1.0362  0.3748 -0.1195
 5861TIP3    H238999   5.976   3.727   1.171  0.4410  0.2340 -0.7813
 5862TIP3   OH239000   1.848   1.233   0.384  0.4549  0.0813 -0.3347
 5862TIP3    H139001   1.760   1.269   0.373  0.8987  1.5340  0.7440
 5862TIP3    H239002   1.878   1.217   0.294 -0.7923 -0.1758 -0.7251
 5863TIP3   OH239003   0.420   3.540   6.444  0.4314 -0.0669 -0.2038
 5863TIP3    H139004   0.436   3.635   6.451  0.9140 -0.2299  1.2492
 5863TIP3    H239005   0.324   3.533   6.436  0.3945  0.5417 -0.3923
 5864TIP3   OH239006   1.495   6.256   2.990  0.1904  0.2334 -0.6674
 5864TIP3    H139007   1.574   6.262   3.044 -0.2297 -0.2773  0.0216
 5864TIP3    H239008   1.500   6.170   2.948 -1.2227 -0.9269  1.3838
 5865TIP3   OH239009   1.353   5.120  12.525  0.3745 -0.4626 -0.6775
 5865TIP3    H139010   1.427   5.112  12.465  0.0404  1.3447 -1.4168
 5865TIP3    H239011   1.358   5.211  12.556 -1.0191 -0.5730 -0.0689
 5866TIP3   OH239012   4.846   1.937  16.163 -0.5007  0.1298  0.1662
 5866TIP3    H139013   4.808   2.024  16.158  0.4332  0.6983  2.0023
 5866TIP3    H239014   4.854   1.920  16.257  2.0499 -0.6894 -0.1288
 5867TIP3   OH239015   6.216   3.825   1.912 -0.3229  0.3303  0.1789
 5867TIP3    H139016   6.190   3.733   1.897 -1.4295  0.8736 -1.5774
 5867TIP3    H239017   6.302   3.833   1.871 -0.8584  0.3990 -0.9777
 5868TIP3   OH239018   4.607   5.437   2.450  0.2319  0.0843  0.2898
 5868TIP3    H139019   4.625   5.349   2.483 -2.1531 -1.5658 -2.3524
 5868TIP3    H239020   4.513   5.450   2.466  0.3716  1.8204 -0.1087
 5869TIP3   OH239021   4.774   2.380   2.129  0.3101 -0.2706 -0.3807
 5869TIP3    H139022   4.688   2.338   2.123 -0.2107  0.8895 -1.4447
 5869TIP3    H239023   4.828   2.336   2.064  0.0874 -0.0361 -0.7255
 5870TIP3   OH239024   5.842   1.410   0.324  0.1397  0.2534 -0.2169
 5870TIP3    H139025   5.767   1.446   0.371  1.3168  2.0450  0.3866
 5870TIP3    H239026   5.900   1.375   0.393  1.6783  2.5175 -0.2587
 5871TIP3   OH239027   3.721   4.409   4.451 -0.0155  0.0693 -0.0753
 5871TIP3    H139028   3.631   4.378   4.439  0.0032  0.2815 -0.8037
 5871TIP3    H239029   3.718   4.502   4.428  0.3661  0.1003 -0.0079
 5872TIP3   OH239030   6.398   5.211  12.423  0.0681  0.7194 -0.0600
 5872TIP3    H139031   6.491   5.232  12.433  0.1434  0.2951  0.1129
 5872TIP3    H239032   6.362   5.287  12.376  0.3522  1.2254  0.5315
 5873TIP3   OH239033   5.794   2.664  14.070  0.0753 -0.6991 -0.0597
 5873TIP3    H139034   5.875   2.657  14.121  1.2102 -1.0835 -1.8361
 5873TIP3    H239035   5.785   2.758  14.053  0.1868 -0.6670  0.0576
 5874TIP3   OH239036   6.231   3.193   3.273 -0.2498  0.0136 -0.2613
 5874TIP3    H139037   6.219   3.285   3.295  0.3223 -0.1493  0.8100
 5874TIP3    H239038   6.307   3.165   3.325  0.1628 -0.8298 -1.2675
 5875TIP3   OH239039   0.061   5.005  15.972 -0.2581  0.0901 -0.1660
 5875TIP3    H139040   0.049   5.067  16.044 -1.5902 -1.4084  0.9693
 5875TIP3    H239041   0.040   4.920  16.010 -0.2735 -0.8400 -2.1465
 5876TIP3   OH239042   1.780   0.892   4.046 -0.4403 -0.0805 -0.3344
 5876TIP3    H139043   1.818   0.900   3.959  0.6241  0.4107  0.1685
 5876TIP3    H239044   1.732   0.974   4.060 -0.8214 -0.2625 -0.5441
 5877TIP3   OH239045   4.108   1.394   4.829  0.4781  0.0149 -0.0156
 5877TIP3    H139046   4.183   1.340   4.801  0.1357  0.5696 -2.1612
 5877TIP3    H239047   4.145   1.481   4.844  0.2449  0.3548 -1.3361
 5878TIP3   OH239048   5.487   1.994  15.914  0.3249  0.4590 -0.2299
 5878TIP3    H139049   5.458   2.011  16.004  1.4445  0.1561  0.2057
 5878TIP3    H239050   5.531   2.075  15.888  0.0127  0.5414 -0.4987
 5879TIP3   OH239051   2.760   3.693  14.198 -0.0335 -0.3694  0.1034
 5879TIP3    H139052   2.780   3.599  14.197 -0.2614 -0.5415  2.8769
 5879TIP3    H239053   2.695   3.702  14.269 -1.3738  1.6677 -1.2869
 5880TIP3   OH239054   0.865   2.237   2.991  0.1288  0.0292  0.1338
 5880TIP3    H139055   0.942   2.279   2.954 -0.0756  0.1248 -0.1995
 5880TIP3    H239056   0.875   2.144   2.970  0.0048  0.0859 -0.1900
 5881TIP3   OH239057   1.640   1.846  11.279  0.0534  0.1275 -0.2378
 5881TIP3    H139058   1.624   1.853  11.185  0.7802 -0.2231 -0.4001
 5881TIP3    H239059   1.661   1.754  11.293 -0.7787  0.0222  0.3966
 5882TIP3   OH239060   1.811   1.403  12.143  0.2054  0.1861 -0.7275
 5882TIP3    H139061   1.744   1.443  12.088  0.9208  0.6480 -1.2748
 5882TIP3    H239062   1.871   1.361  12.082  0.2966 -0.4211 -0.2302
 5883TIP3   OH239063   4.052   3.951   6.515 -0.2936 -0.6361  0.4503
 5883TIP3    H139064   4.013   3.881   6.567  0.3101 -2.3757 -1.3323
 5883TIP3    H239065   4.145   3.946   6.534 -0.3837  0.6039  1.3274
 5884TIP3   OH239066   6.329   4.130   6.654 -0.0039  0.3179  0.4120
 5884TIP3    H139067   6.271   4.054   6.666 -0.7839  0.4131 -2.1301
 5884TIP3    H239068   6.270   4.205   6.661  0.2490  0.5388  0.1495
 5885TIP3   OH239069   6.079   3.810  15.851  0.0860  0.2455 -0.1449
 5885TIP3    H139070   6.127   3.728  15.856 -1.2808 -0.5437  0.5883
 5885TIP3    H239071   6.042   3.811  15.762 -0.1934 -0.1183 -0.0351
 5886TIP3   OH239072   5.310   6.789   2.460  0.2872  0.1519 -0.1829
 5886TIP3    H139073   5.383   6.825   2.409 -0.5912  0.5057 -1.2353
 5886TIP3    H239074   5.253   6.864   2.477 -0.5052 -0.3519 -0.5562
 5887TIP3   OH239075   5.758   5.129   1.853  0.1081 -0.0041  0.7712
 5887TIP3    H139076   5.755   5.100   1.761 -0.2854 -3.7294  1.7696
 5887TIP3    H239077   5.711   5.212   1.854 -0.7507 -0.3332 -2.2626
 5888TIP3   OH239078   0.100   6.655   5.203 -0.4842  0.2934  0.2623
 5888TIP3    H139079   0.035   6.590   5.176 -1.1271  0.4605  1.3544
 5888TIP3    H239080   0.065   6.738   5.171 -0.7779  0.3752  0.7936
 5889TIP3   OH239081   6.171   1.364  13.486 -0.4850  0.6682  0.0565
 5889TIP3    H139082   6.117   1.365  13.407  1.2503  3.2976 -1.2384
 5889TIP3    H239083   6.116   1.404  13.553 -0.6350  2.2158 -0.9328
 5890TIP3   OH239084   2.127   6.761  15.046  0.2232  0.3269 -0.0150
 5890TIP3    H139085   2.049   6.711  15.070  0.5786 -0.2487 -0.0456
 5890TIP3    H239086   2.104   6.852  15.068 -0.7239  0.2788 -0.6965
 5891TIP3   OH239087   0.850   3.765   2.959 -0.2118  0.3744  0.1907
 5891TIP3    H139088   0.925   3.739   2.905 -1.0832  0.4457 -1.1050
 5891TIP3    H239089   0.851   3.861   2.957 -0.7887  0.3757 -0.5125
 5892TIP3   OH239090   0.079   5.628   5.123  0.4849  0.1016 -0.0944
 5892TIP3    H139091   0.118   5.701   5.075  0.0473 -1.5568 -3.1720
 5892TIP3    H239092   0.151   5.565   5.134 -0.0494 -0.7073 -1.0944
 5893TIP3   OH239093   3.717   0.474   4.953 -0.7870  0.0602 -0.0363
 5893TIP3    H139094   3.747   0.467   5.043  0.1822 -2.6880 -0.4529
 5893TIP3    H239095   3.797   0.462   4.900 -1.5267  0.2672 -1.2412
 5894TIP3   OH239096   2.328   5.585  15.617 -0.0351  0.1141 -0.1642
 5894TIP3    H139097   2.252   5.532  15.641  0.1654  0.3636  1.1039
 5894TIP3    H239098   2.402   5.542  15.662  0.2522  0.9950  0.2298
 5895TIP3   OH239099   3.140   5.077  15.231 -0.5383 -0.4071  0.0873
 5895TIP3    H139100   3.056   5.122  15.218  0.2427  0.6651 -1.5833
 5895TIP3    H239101   3.142   5.056  15.324 -1.3956  2.1671  0.7712
 5896TIP3   OH239102   5.528   5.309  15.441 -0.2959  0.1870  0.1791
 5896TIP3    H139103   5.550   5.402  15.428 -1.1368  0.3869  0.1058
 5896TIP3    H239104   5.471   5.288  15.367  0.2786 -0.5304 -0.0691
 5897TIP3   OH239105   6.284   4.640   3.777 -0.4088  0.0443  0.4011
 5897TIP3    H139106   6.272   4.733   3.799  0.6138  0.2967 -0.0405
 5897TIP3    H239107   6.244   4.631   3.691  0.3306  0.3139  0.0169
 5898TIP3   OH239108   5.694   3.077  13.870 -0.4062 -0.2320  0.0691
 5898TIP3    H139109   5.764   3.012  13.860  0.5982  0.6347  1.1611
 5898TIP3    H239110   5.698   3.101  13.963  0.2898  2.5018 -0.5895
 5899TIP3   OH239111   3.097   1.335  16.844  0.0540 -0.2540  0.3096
 5899TIP3    H139112   3.012   1.335  16.889 -1.9018  1.0031 -3.0437
 5899TIP3    H239113   3.140   1.415  16.873 -0.3184 -0.3848  1.2601
 5900TIP3   OH239114   6.512   2.962   2.864 -0.6088  0.1027 -0.3217
 5900TIP3    H139115   6.462   2.926   2.791 -0.7097 -2.0233  0.7143
 5900TIP3    H239116   6.447   2.988   2.928 -0.4922  1.2394 -0.6440
 5901TIP3   OH239117   2.611   2.073   3.627  0.1264 -0.0900 -0.1008
 5901TIP3    H139118   2.555   2.074   3.704 -1.1575 -0.3048 -1.0073
 5901TIP3    H239119   2.676   2.005   3.646 -0.8272 -0.9047  0.3418
 5902TIP3   OH239120   4.987   0.779  14.398  0.2592  0.1999  0.4355
 5902TIP3    H139121   4.944   0.696  14.376  0.2942  0.5703 -1.2346
 5902TIP3    H239122   4.932   0.846  14.356  0.8334  0.9269  0.8143
 5903TIP3   OH239123   2.480   3.252  12.993  0.0634  0.0676 -0.5694
 5903TIP3    H139124   2.461   3.334  12.948 -1.5933 -1.6225 -3.1933
 5903TIP3    H239125   2.452   3.267  13.083 -2.5311  1.6475 -1.5460
 5904TIP3   OH239126   5.465   4.712  14.188  0.2662  0.2244  0.2625
 5904TIP3    H139127   5.444   4.752  14.273  1.4446  2.7254 -0.5414
 5904TIP3    H239128   5.558   4.690  14.194  0.2917  0.1715 -0.2897
 5905TIP3   OH239129   4.885   2.047   0.476  0.4980  0.0511  0.1728
 5905TIP3    H139130   4.917   2.107   0.410 -0.0698  0.3206  0.1408
 5905TIP3    H239131   4.964   2.018   0.522  0.6200  3.4914  2.5112
 5906TIP3   OH239132   2.146   6.675   0.652 -0.2401  0.4964  0.5482
 5906TIP3    H139133   2.077   6.610   0.638  0.3374 -0.3026  1.3083
 5906TIP3    H239134   2.183   6.691   0.566 -0.3419 -0.2399  0.3667
 5907TIP3   OH239135   5.982   4.086  16.297 -0.1566 -0.0907 -0.2909
 5907TIP3    H139136   5.962   4.175  16.268 -0.6429 -0.0058  0.2921
 5907TIP3    H239137   5.985   4.035  16.216 -0.7169  0.2942 -0.5613
 5908TIP3   OH239138   2.740   1.450  11.344  0.3197 -0.5621 -0.0203
 5908TIP3    H139139   2.786   1.392  11.404 -2.0742  0.6525  3.3089
 5908TIP3    H239140   2.781   1.535  11.356 -0.6781 -0.1421  0.6104
 5909TIP3   OH239141   2.542   6.176   3.809  0.0349 -0.7308  0.4208
 5909TIP3    H139142   2.535   6.269   3.792  1.2184 -0.7423 -0.2658
 5909TIP3    H239143   2.602   6.143   3.742  0.3824 -1.8109  1.2153
 5910TIP3   OH239144   4.484   1.398   4.907  0.5337  0.2332  0.5646
 5910TIP3    H139145   4.483   1.410   5.002  2.1961 -0.7037  0.7428
 5910TIP3    H239146   4.449   1.310   4.894 -2.8302  1.5284 -0.0038
 5911TIP3   OH239147   5.403   6.084   2.314 -0.0001  0.2121  0.3318
 5911TIP3    H139148   5.318   6.039   2.310 -0.1249  0.5098 -3.1071
 5911TIP3    H239149   5.466   6.017   2.288  0.4925  0.6595  0.3707
 5912TIP3   OH239150   4.172   4.229   0.427  0.0184  0.0051  0.4629
 5912TIP3    H139151   4.175   4.257   0.519 -2.0279  1.7418  0.0764
 5912TIP3    H239152   4.097   4.276   0.390  0.6013 -0.8885 -2.0378
 5913TIP3   OH239153   1.060   2.750  12.817 -0.0415  0.5252  0.1080
 5913TIP3    H139154   1.030   2.839  12.804 -0.2271  0.5175  0.4668
 5913TIP3    H239155   1.071   2.741  12.912  1.0429  0.5118  0.0034
 5914TIP3   OH239156   3.596   4.547   3.382  0.1451  0.3223  0.4622
 5914TIP3    H139157   3.599   4.539   3.287  1.9230  1.3020  0.4112
 5914TIP3    H239158   3.502   4.550   3.402 -0.2728 -0.2890 -1.1988
 5915TIP3   OH239159   2.850   2.287  12.233  0.2652 -0.2912 -0.0687
 5915TIP3    H139160   2.858   2.263  12.141  0.9487  0.9274 -0.3368
 5915TIP3    H239161   2.837   2.203  12.278 -3.1812 -0.7160 -1.5494
 5916TIP3   OH239162   1.360   5.550  16.913  0.1261 -0.5088 -0.0926
 5916TIP3    H139163   1.309   5.626  16.943 -0.2678 -0.6535 -0.3830
 5916TIP3    H239164   1.448   5.565  16.948 -0.1428 -0.3179  0.5281
 5917TIP3   OH239165   0.659   2.307  11.398 -0.3141  0.3868  0.2269
 5917TIP3    H139166   0.637   2.232  11.453  0.1283  1.2666  1.6446
 5917TIP3    H239167   0.577   2.355  11.391 -0.2932  0.4451  0.3832
 5918TIP3   OH239168   0.993   0.752  12.850 -0.3470 -0.0431 -0.1684
 5918TIP3    H139169   1.016   0.774  12.759 -0.7390  1.5018  0.0785
 5918TIP3    H239170   1.067   0.785  12.901  0.0124 -1.1763  0.0719
 5919TIP3   OH239171   5.834   0.372   3.996  0.1370 -0.1235 -0.2131
 5919TIP3    H139172   5.830   0.278   3.979 -0.7017 -0.0435 -0.4804
 5919TIP3    H239173   5.855   0.411   3.911  0.7500 -0.0798 -0.0490
 5920TIP3   OH239174   2.583   4.122  15.279  0.2800 -1.2306  0.8878
 5920TIP3    H139175   2.558   4.132  15.371 -1.3909  0.3570  0.3125
 5920TIP3    H239176   2.534   4.045  15.250 -0.1341 -1.0212  1.0228
 5921TIP3   OH239177   2.482   6.520  12.619  0.3479 -0.6851 -0.0558
 5921TIP3    H139178   2.494   6.444  12.563  2.0316  0.6782 -1.6880
 5921TIP3    H239179   2.513   6.493  12.705 -3.3974 -3.2142  0.7443
 5922TIP3   OH239180   6.722   5.437  14.060  0.5226  0.0800 -0.2566
 5922TIP3    H139181   6.811   5.406  14.080  1.6037  1.1443 -2.9487
 5922TIP3    H239182   6.683   5.365  14.010  2.1085  1.6815 -4.2189
 5923TIP3   OH239183   1.228   3.563  14.299 -0.4268  0.1625 -0.2166
 5923TIP3    H139184   1.142   3.545  14.260 -0.9290 -0.2492  1.0304
 5923TIP3    H239185   1.274   3.615  14.233 -1.3961 -0.1484 -1.1676
 5924TIP3   OH239186   0.971   6.748   5.599  0.5898 -0.3207 -0.1970
 5924TIP3    H139187   1.006   6.660   5.609  0.6997 -0.2181  0.3850
 5924TIP3    H239188   1.016   6.783   5.521  0.1270 -0.9664 -0.7598
 5925TIP3   OH239189   2.378   5.129  15.727  0.1244 -0.5014 -0.1958
 5925TIP3    H139190   2.414   5.181  15.798 -0.2499 -1.3660  0.6575
 5925TIP3    H239191   2.454   5.092  15.682  0.3429 -0.5733  0.2372
 5926TIP3   OH239192   3.367   1.991   1.869  0.3742 -0.2298 -0.0891
 5926TIP3    H139193   3.299   1.983   1.803  0.8169  2.2764 -0.9715
 5926TIP3    H239194   3.322   2.024   1.947 -0.1740 -3.3284  1.0242
 5927TIP3   OH239195   3.549   5.330  14.277  0.1400  0.5651  0.2103
 5927TIP3    H139196   3.569   5.254  14.331  0.2981 -1.6346 -2.7099
 5927TIP3    H239197   3.609   5.398  14.308  1.3015 -1.0501  1.6940
 5928TIP3   OH239198   1.438   0.711   1.661 -0.0053 -0.3375  0.6833
 5928TIP3    H139199   1.355   0.667   1.644 -0.2449 -0.3746  1.8194
 5928TIP3    H239200   1.464   0.678   1.748 -0.2276  1.8014  1.6193
 5929TIP3   OH239201   4.657   0.528   5.818  0.1029 -0.5661  0.0639
 5929TIP3    H139202   4.670   0.614   5.856  0.2472 -1.5735  2.4993
 5929TIP3    H239203   4.744   0.489   5.814 -0.2020 -1.4178  1.1747
 5930TIP3   OH239204   6.021   2.982  12.894 -0.1143  0.3685  0.1554
 5930TIP3    H139205   6.066   3.022  12.969  0.3821 -0.3109  0.2290
 5930TIP3    H239206   5.931   3.014  12.900 -0.0323  0.4819  0.9279
 5931TIP3   OH239207   6.422   5.991  12.041 -0.3838  0.2483 -0.7567
 5931TIP3    H139208   6.399   6.084  12.046 -0.6078  0.1407  1.4062
 5931TIP3    H239209   6.481   5.985  11.966 -0.1542  2.1853 -0.7949
 5932TIP3   OH239210   5.846   1.125  16.360 -0.1694  0.5973 -0.5419
 5932TIP3    H139211   5.855   1.040  16.403 -0.4025  0.7283 -0.2348
 5932TIP3    H239212   5.899   1.117  16.280  0.8068  0.5756  0.0878
 5933TIP3   OH239213   2.281   1.995   4.982 -0.6386 -0.5273 -0.1690
 5933TIP3    H139214   2.294   2.006   4.888  0.2219 -0.0239  0.0066
 5933TIP3    H239215   2.189   1.968   4.991 -0.6219 -0.9436 -1.1755
 5934TIP3   OH239216   3.369   6.195   2.860  0.4525 -0.2278  0.1979
 5934TIP3    H139217   3.371   6.153   2.774 -0.5844  0.1645 -0.0311
 5934TIP3    H239218   3.400   6.127   2.920  1.4723 -0.4098 -0.5052
 5935TIP3   OH239219   3.354   0.453   6.011  0.0990 -0.5984  0.5978
 5935TIP3    H139220   3.447   0.434   5.998  0.1894  0.8441 -1.3764
 5935TIP3    H239221   3.352   0.544   6.041 -0.6964 -0.0915 -0.8747
 5936TIP3   OH239222   5.307   2.180  12.877 -0.1194 -0.1421 -0.4636
 5936TIP3    H139223   5.301   2.088  12.902  2.1994 -0.2378 -0.0092
 5936TIP3    H239224   5.304   2.229  12.959 -0.5996  0.1541 -0.6479
 5937TIP3   OH239225   2.785   0.922   1.054 -0.0282 -0.4342 -0.3281
 5937TIP3    H139226   2.708   0.961   1.094 -1.4899 -2.9978 -0.4338
 5937TIP3    H239227   2.810   0.851   1.113  2.0066  0.0189 -0.5435
 5938TIP3   OH239228   6.266   4.010  16.320  0.7329  0.0645 -0.1947
 5938TIP3    H139229   6.261   3.965  16.404 -0.4872  1.3580  0.4667
 5938TIP3    H239230   6.175   4.027  16.296  1.1067  0.7187 -1.2220
 5939TIP3   OH239231   4.233   2.136   5.204  0.1630  0.4912 -0.3350
 5939TIP3    H139232   4.238   2.129   5.108 -0.1005  0.6636 -0.3648
 5939TIP3    H239233   4.323   2.146   5.232  0.3687 -0.8434 -0.4556
 5940TIP3   OH239234   4.930   4.898   1.467  0.6920 -0.2192  0.4295
 5940TIP3    H139235   4.963   4.845   1.394 -1.1357 -1.7493  0.6193
 5940TIP3    H239236   4.936   4.841   1.543  0.2265  0.4449  0.9790
 5941TIP3   OH239237   2.900   5.724  11.262  0.5270 -0.4911 -0.2735
 5941TIP3    H139238   2.923   5.815  11.248  1.0101 -0.2883  1.5357
 5941TIP3    H239239   2.845   5.725  11.341  0.0114 -1.6957 -0.5902
 5942TIP3   OH239240   2.451   0.618   3.025 -0.0803 -0.0037 -0.0407
 5942TIP3    H139241   2.364   0.580   3.033 -0.1944  0.4746  1.3207
 5942TIP3    H239242   2.440   0.693   2.966 -0.3936 -0.4605 -0.5701
 5943TIP3   OH239243   3.740   0.955  11.451 -0.5593  0.5870  0.1274
 5943TIP3    H139244   3.767   1.002  11.530  0.6384  0.7166 -0.3406
 5943TIP3    H239245   3.725   0.865  11.481  3.7552 -0.4272 -0.0701
 5944TIP3   OH239246   5.870   1.762   5.672 -0.0734 -0.4519  0.1666
 5944TIP3    H139247   5.933   1.831   5.651  0.9807 -1.3858  0.1555
 5944TIP3    H239248   5.800   1.807   5.718 -0.2076  0.8959 -1.2690
 5945TIP3   OH239249   1.170   1.177  12.059  0.5634  0.4406 -0.2935
 5945TIP3    H139250   1.103   1.126  12.014  0.8326  0.0272 -0.2275
 5945TIP3    H239251   1.232   1.200  11.990  0.8820 -0.0401 -0.1709
 5946TIP3   OH239252   6.254   1.000   5.637  0.0475 -0.2039 -0.3031
 5946TIP3    H139253   6.313   0.944   5.587 -0.2755  0.0788 -1.0178
 5946TIP3    H239254   6.228   1.069   5.575 -2.7358 -1.4800 -0.7280
 5947TIP3   OH239255   5.019   4.521  12.369  0.0024 -0.3502  0.0077
 5947TIP3    H139256   4.961   4.584  12.411  0.5837 -0.1226  0.4789
 5947TIP3    H239257   5.054   4.469  12.441  3.3825  1.9833  0.2759
 5948TIP3   OH239258   4.782   1.006   3.909 -0.2900  0.9870 -0.0135
 5948TIP3    H139259   4.875   0.986   3.902  0.1771  2.4082  1.4520
 5948TIP3    H239260   4.746   0.934   3.962  0.5656  1.7957  1.7716
 5949TIP3   OH239261   0.825   4.542  16.520 -0.2186  0.1177  0.2116
 5949TIP3    H139262   0.859   4.495  16.596  1.1472  1.8963  0.7780
 5949TIP3    H239263   0.800   4.628  16.555  0.1212  0.8475 -1.2882
 5950TIP3   OH239264   1.667   1.381   3.461  0.5986 -0.0243 -0.1451
 5950TIP3    H139265   1.655   1.467   3.501 -1.8007  0.0275 -0.8743
 5950TIP3    H239266   1.752   1.388   3.416  0.0585  2.2704 -0.9596
 5951TIP3   OH239267   6.496   0.309  16.464 -0.5506 -0.9429  0.8005
 5951TIP3    H139268   6.568   0.250  16.443  0.1273  0.6114 -1.7344
 5951TIP3    H239269   6.534   0.371  16.527  0.6038  0.2129 -0.9481
 5952TIP3   OH239270   4.328   1.827  13.694  0.3233 -0.5915  0.4543
 5952TIP3    H139271   4.329   1.839  13.599  0.3201 -0.1946  0.5010
 5952TIP3    H239272   4.370   1.743  13.708  0.5566 -0.5344  0.1140
 5953TIP3   OH239273   4.512   5.306  13.316  0.0690 -0.7643 -0.4525
 5953TIP3    H139274   4.430   5.326  13.271  0.1033 -0.6779 -0.4785
 5953TIP3    H239275   4.548   5.392  13.338  0.7753 -0.7525 -1.5762
 5954TIP3   OH239276   4.233   3.217   4.354 -0.1769  0.3613 -0.0494
 5954TIP3    H139277   4.287   3.206   4.276  1.8961 -1.4485  1.4992
 5954TIP3    H239278   4.156   3.162   4.339  1.2778 -1.8147  0.0072
 5955TIP3   OH239279   2.181   3.783  14.592  0.2701 -0.0457  0.5320
 5955TIP3    H139280   2.268   3.818  14.570  0.5920 -0.3002  1.3702
 5955TIP3    H239281   2.141   3.851  14.647 -0.2038  0.2224 -0.1295
 5956TIP3   OH239282   6.379   3.387  11.472 -0.2647 -0.4479  0.4513
 5956TIP3    H139283   6.314   3.398  11.541  0.5881  0.8111  1.0986
 5956TIP3    H239284   6.329   3.389  11.391 -1.0872  0.0489  0.9618
 5957TIP3   OH239285   1.852   5.598  14.459 -0.1966 -0.1959  0.3739
 5957TIP3    H139286   1.844   5.620  14.551 -0.5238 -2.0502  0.8387
 5957TIP3    H239287   1.788   5.528  14.445  0.2459 -0.3466 -1.1194
 5958TIP3   OH239288   1.908   3.860   3.600  0.0546  0.7465 -0.1463
 5958TIP3    H139289   1.898   3.955   3.592 -3.2058  0.5250 -0.2346
 5958TIP3    H239290   1.840   3.824   3.542  1.3200 -1.6565 -0.2483
 5959TIP3   OH239291   2.832   3.073  15.907  0.0902 -0.2363  0.0720
 5959TIP3    H139292   2.867   3.022  15.834  0.9576 -0.5739  0.7034
 5959TIP3    H239293   2.811   3.159  15.869 -1.6874 -1.1237 -1.0766
 5960TIP3   OH239294   1.189   1.692   3.939 -0.0053 -0.3297 -0.3690
 5960TIP3    H139295   1.192   1.668   4.031 -0.8494 -1.6303 -0.6591
 5960TIP3    H239296   1.097   1.712   3.922  0.1081 -0.2946 -0.9784
 5961TIP3   OH239297   0.938   2.162   1.618  0.0452  0.8449 -0.4010
 5961TIP3    H139298   0.968   2.233   1.562  2.7429 -0.5005 -0.8229
 5961TIP3    H239299   0.980   2.084   1.583 -1.0769 -0.6399  1.3422
 5962TIP3   OH239300   4.606   5.773  15.822  0.3230 -0.1567 -0.0787
 5962TIP3    H139301   4.640   5.758  15.911  1.8767 -2.2744 -0.9445
 5962TIP3    H239302   4.641   5.858  15.797  0.8879 -0.0899  0.8955
 5963TIP3   OH239303   6.439   4.423   5.035 -0.6653 -0.3692 -0.1796
 5963TIP3    H139304   6.363   4.398   5.087  0.6521 -1.2018  1.4367
 5963TIP3    H239305   6.486   4.486   5.089 -0.1879  0.1314 -1.1520
 5964TIP3   OH239306   4.694   6.071   3.898  0.3649 -0.1402 -0.2800
 5964TIP3    H139307   4.759   6.042   3.963 -0.2095 -0.0115  0.3650
 5964TIP3    H239308   4.728   6.038   3.815  0.9950 -0.5204  0.1115
 5965TIP3   OH239309   4.004   4.232  13.767 -0.2816  0.1712  0.0050
 5965TIP3    H139310   3.993   4.190  13.853  1.0544  0.7134  0.4817
 5965TIP3    H239311   3.916   4.237  13.731 -0.5594 -2.6405  0.1068
 5966TIP3   OH239312   5.589   6.580   1.370  0.0981 -0.6286  0.1240
 5966TIP3    H139313   5.599   6.490   1.401 -0.0707 -0.5040  0.5470
 5966TIP3    H239314   5.668   6.625   1.398  0.3483 -0.7311 -0.4056
 5967TIP3   OH239315   1.565   1.245   4.403  0.6389  0.4491 -0.7410
 5967TIP3    H139316   1.621   1.175   4.368 -0.0114 -0.3541 -0.2101
 5967TIP3    H239317   1.626   1.299   4.454  0.9193 -0.5554  0.0373
 5968TIP3   OH239318   5.562   0.758   0.078  0.4414  0.0298  0.0927
 5968TIP3    H139319   5.596   0.846   0.093 -0.0524  0.2828 -0.2419
 5968TIP3    H239320   5.639   0.701   0.088  0.1007  0.0200  4.3498
 5969TIP3   OH239321   5.045   3.205   4.233 -0.6863  0.3794 -0.5116
 5969TIP3    H139322   5.053   3.125   4.284 -1.8397 -0.0803 -1.0065
 5969TIP3    H239323   5.091   3.271   4.285  0.8094 -0.7110 -0.3923
 5970TIP3   OH239324   0.466   6.608  15.003  0.2390  0.1927  0.3425
 5970TIP3    H139325   0.395   6.615  15.068 -0.4544 -2.1013 -0.1063
 5970TIP3    H239326   0.543   6.643  15.049 -0.7359  0.8937  1.5308
 5971TIP3   OH239327   0.315   4.362  15.336  0.2273  0.0941  0.3753
 5971TIP3    H139328   0.376   4.289  15.328  0.7322  0.5958 -0.3931
 5971TIP3    H239329   0.280   4.374  15.248 -1.1437 -0.3150  0.8373
 5972TIP3   OH239330   2.308   2.214  13.230  0.0808 -0.8232  0.0306
 5972TIP3    H139331   2.291   2.228  13.136  0.8728  0.7141  0.0779
 5972TIP3    H239332   2.317   2.119  13.239  1.3513 -0.9289 -1.7237
 5973TIP3   OH239333   6.431   3.252   1.552 -0.3928  0.1533  0.2104
 5973TIP3    H139334   6.411   3.334   1.506 -0.1844  1.6548  2.6263
 5973TIP3    H239335   6.353   3.198   1.539 -1.5492  1.6700  0.5166
 5974TIP3   OH239336   0.404   4.346   5.166 -0.0644 -0.5039 -0.3638
 5974TIP3    H139337   0.313   4.366   5.190  0.2824  1.1373 -0.2844
 5974TIP3    H239338   0.453   4.424   5.192  1.0324 -0.4588 -2.3647
 5975TIP3   OH239339   3.531   4.585   2.364  0.1626 -0.3900  0.0435
 5975TIP3    H139340   3.492   4.670   2.344 -0.7223 -0.1590  2.3800
 5975TIP3    H239341   3.623   4.594   2.341 -0.1347  0.8373 -0.7160
 5976TIP3   OH239342   2.796   3.340  15.357  0.0964  0.2989 -0.1686
 5976TIP3    H139343   2.875   3.373  15.314  0.0937 -0.7949 -1.0716
 5976TIP3    H239344   2.818   3.250  15.383  0.1453  0.9675  2.3408
 5977TIP3   OH239345   4.017   5.044  15.469  0.0980  0.1127 -0.3528
 5977TIP3    H139346   4.085   5.108  15.454  0.6266 -0.0874  1.0343
 5977TIP3    H239347   3.947   5.092  15.513 -0.9047  0.4286 -2.2031
 5978TIP3   OH239348   5.765   5.864   1.338 -0.1701 -0.0914  0.2499
 5978TIP3    H139349   5.778   5.923   1.264  0.3451 -0.7806 -0.2245
 5978TIP3    H239350   5.670   5.855   1.345 -0.2268 -0.0356 -0.3490
 5979TIP3   OH239351   6.779   6.011   2.915  0.2129 -0.3291  0.9836
 5979TIP3    H139352   6.836   5.973   2.847  2.8622  3.1986  0.9690
 5979TIP3    H239353   6.801   5.963   2.994 -0.6968 -2.4613  0.0325
 5980TIP3   OH239354   6.624   6.373  16.550  0.4801 -0.7110 -0.7710
 5980TIP3    H139355   6.555   6.360  16.484 -1.1694 -0.5014  0.8311
 5980TIP3    H239356   6.634   6.467  16.556  0.6891 -0.7333 -0.7760
 5981TIP3   OH239357   5.156   2.769   4.159  0.0574  0.0777 -0.1410
 5981TIP3    H139358   5.085   2.767   4.224 -1.0071  3.4318 -0.9590
 5981TIP3    H239359   5.231   2.803   4.207  0.2135 -0.5358  0.0492
 5982TIP3   OH239360   5.376   0.576   2.383  0.0058 -0.2450 -0.8527
 5982TIP3    H139361   5.454   0.630   2.394 -1.2218  1.4563  0.0580
 5982TIP3    H239362   5.370   0.560   2.289  0.4270  1.2325 -1.1586
 5983TIP3   OH239363   6.671   1.106   0.426  0.0850 -0.1318 -0.2600
 5983TIP3    H139364   6.682   1.013   0.405 -0.1633 -0.0824 -0.6210
 5983TIP3    H239365   6.676   1.150   0.341  2.1113  0.3781  0.0686
 5984TIP3   OH239366   1.650   3.595   3.936  0.0272  0.4281 -0.2534
 5984TIP3    H139367   1.724   3.535   3.932 -0.7996 -0.5861 -0.8023
 5984TIP3    H239368   1.586   3.551   3.992 -0.3137  1.1238 -0.0838
 5985TIP3   OH239369   1.700   4.221   0.060 -0.0099  0.3844  0.6104
 5985TIP3    H139370   1.611   4.188   0.068 -0.0671  0.7739  1.9821
 5985TIP3    H239371   1.730   4.229   0.151  0.4703  2.7799  0.3239
 5986TIP3   OH239372   1.703   3.992   1.730  0.0113  0.8317 -0.3298
 5986TIP3    H139373   1.650   4.038   1.664 -0.5203  1.1564  0.3074
 5986TIP3    H239374   1.662   3.906   1.736  1.3150  0.0489 -1.8902
 5987TIP3   OH239375   5.334   4.379   1.496 -0.4176  0.7689  0.1814
 5987TIP3    H139376   5.363   4.397   1.586 -0.8046  0.5249  0.3607
 5987TIP3    H239377   5.395   4.427   1.441  0.3453  0.2404  0.5427
 5988TIP3   OH239378   3.666   4.028   5.452  0.0008  0.9287 -0.3735
 5988TIP3    H139379   3.722   4.078   5.511  0.5697 -0.0933 -0.0214
 5988TIP3    H239380   3.679   3.936   5.478  1.6030  0.2537 -3.1411
 5989TIP3   OH239381   0.600   2.196   4.589 -0.0950 -0.3804  0.2079
 5989TIP3    H139382   0.556   2.261   4.533 -0.6303 -0.9511 -0.0549
 5989TIP3    H239383   0.537   2.124   4.595  0.7914 -1.2060 -0.1309
 5990TIP3   OH239384   2.517   0.594  15.458 -0.6046 -0.3870  0.1158
 5990TIP3    H139385   2.428   0.560  15.443  0.4594 -3.4452 -0.0692
 5990TIP3    H239386   2.561   0.523  15.505  2.5471 -0.1383 -2.1890
 5991TIP3   OH239387   2.037   3.947   0.037 -0.0529  0.0706 -0.5161
 5991TIP3    H139388   1.985   4.004   0.094  2.1009 -0.4636  2.2115
 5991TIP3    H239389   2.009   3.859   0.060  0.1006 -0.1301 -1.0901
 5992TIP3   OH239390   2.817   1.319  11.586  0.5769  0.1567 -0.1801
 5992TIP3    H139391   2.748   1.377  11.618  0.5659  1.4305 -2.2984
 5992TIP3    H239392   2.770   1.247  11.543  0.5545  0.4958 -0.7332
 5993TIP3   OH239393   1.260   2.512   2.041 -0.0598  1.0871 -0.3487
 5993TIP3    H139394   1.283   2.496   2.132 -0.3999  0.9218 -0.2893
 5993TIP3    H239395   1.178   2.561   2.045  0.3746  1.8450 -0.5521
 5994TIP3   OH239396   0.464   6.026  14.462  0.5174  0.6102 -0.1180
 5994TIP3    H139397   0.396   6.044  14.528  0.2510  5.6236 -1.3013
 5994TIP3    H239398   0.419   5.975  14.395 -1.2096  1.1430  0.5736
 5995TIP3   OH239399   2.514   6.151  14.080  0.3470 -0.2585  0.6024
 5995TIP3    H139400   2.559   6.103  14.011  0.6038 -0.5908  1.0027
 5995TIP3    H239401   2.427   6.169  14.043  0.2918 -0.9151  0.4057
 5996TIP3   OH239402   0.980   5.637   0.384 -0.1159 -0.2496 -0.2532
 5996TIP3    H139403   1.066   5.670   0.358  0.2721 -1.7517 -0.9958
 5996TIP3    H239404   0.919   5.704   0.357  0.6810  0.1091 -1.2341
 5997TIP3   OH239405   1.642   3.993  14.628 -0.5056 -0.1830  0.2877
 5997TIP3    H139406   1.564   3.959  14.672 -0.4621  0.0174  0.5270
 5997TIP3    H239407   1.699   3.917  14.618 -0.6641 -0.2988  0.2606
 5998TIP3   OH239408   0.836   1.347   1.412 -0.2043  0.1262  0.9997
 5998TIP3    H139409   0.776   1.349   1.338 -0.5777  0.2961  1.3018
 5998TIP3    H239410   0.802   1.413   1.472  1.2077  1.3775  0.4714
 5999TIP3   OH239411   4.442   1.324  14.322  0.2366 -0.0134 -0.5052
 5999TIP3    H139412   4.519   1.266  14.318  0.8633  0.6151  1.4493
 5999TIP3    H239413   4.478   1.411  14.336 -0.7906  0.5617 -1.3247
 6000TIP3   OH239414   1.673   0.896  15.826  0.5688 -0.0574 -0.3734
 6000TIP3    H139415   1.667   0.855  15.912  1.2008  0.3079 -0.1530
 6000TIP3    H239416   1.743   0.960  15.834 -0.7036  1.4280 -0.5764
 6001TIP3   OH239417   4.307   3.545  11.831 -0.3149 -0.3114  0.0505
 6001TIP3    H139418   4.318   3.451  11.817 -0.3477 -0.0527 -2.0001
 6001TIP3    H239419   4.389   3.584  11.801 -0.5405  0.3481  0.2787
 6002TIP3   OH239420   5.598   6.249   5.799 -0.2447 -0.1971  0.5169
 6002TIP3    H139421   5.604   6.297   5.881 -1.5396 -1.6449  1.4989
 6002TIP3    H239422   5.607   6.157   5.823 -0.1236 -0.6262 -1.0268
 6003TIP3   OH239423   6.436   5.255  13.127 -0.5415 -0.3176  0.3225
 6003TIP3    H139424   6.393   5.226  13.047 -0.4286  1.2943 -0.3490
 6003TIP3    H239425   6.427   5.350  13.127 -1.2414 -0.2988  2.6352
 6004TIP3   OH239426   2.049   2.471  13.720 -0.3461  0.9646 -0.3002
 6004TIP3    H139427   2.132   2.503  13.755 -0.4492  1.4904 -0.5291
 6004TIP3    H239428   2.059   2.478  13.625  0.2331 -1.1892 -0.4591
 6005TIP3   OH239429   1.856   5.867  16.048  0.0447 -0.2628 -0.0930
 6005TIP3    H139430   1.857   5.790  16.104 -1.3257 -0.4123 -0.2292
 6005TIP3    H239431   1.843   5.940  16.107 -2.6687 -0.5264 -0.2256
 6006TIP3   OH239432   4.256   3.624   0.216 -0.3160 -0.1270  0.0148
 6006TIP3    H139433   4.201   3.702   0.214 -0.1686 -0.0241 -0.0669
 6006TIP3    H239434   4.197   3.553   0.242 -0.7082 -0.2055 -1.0566
 6007TIP3   OH239435   6.203   0.711  17.013 -0.1368  0.2315 -0.2164
 6007TIP3    H139436   6.195   0.674  16.925  0.0982 -0.7242  0.1484
 6007TIP3    H239437   6.253   0.646  17.062  0.1662  0.9838  0.4972
 6008TIP3   OH239438   4.191   4.779  14.407  0.1468 -0.7543  0.2314
 6008TIP3    H139439   4.116   4.723  14.386 -0.3051 -0.0706 -0.0218
 6008TIP3    H239440   4.262   4.718  14.428 -0.7336 -1.4039  1.3743
 6009TIP3   OH239441   0.156   4.821  14.445 -0.0101 -0.1067  0.4530
 6009TIP3    H139442   0.139   4.727  14.439  2.0005 -0.4042 -2.1492
 6009TIP3    H239443   0.219   4.829  14.517  0.1154 -0.8042  0.4300
 6010TIP3   OH239444   5.393   3.074   3.907  0.5376  0.1436 -0.1853
 6010TIP3    H139445   5.379   2.980   3.915 -0.3946  0.4420  3.0303
 6010TIP3    H239446   5.464   3.093   3.968  0.4711  1.5717 -0.5134
 6011TIP3   OH239447   3.519   1.544   1.812  0.5791 -0.7654 -0.4860
 6011TIP3    H139448   3.460   1.471   1.834  0.5447 -1.0515 -1.4676
 6011TIP3    H239449   3.487   1.618   1.863 -0.8058 -0.8502 -1.1928
 6012TIP3   OH239450   5.632   6.675   2.620  0.1966 -0.6172 -0.3432
 6012TIP3    H139451   5.669   6.755   2.583  1.8609 -1.9270 -1.6794
 6012TIP3    H239452   5.702   6.640   2.675 -0.4524 -1.2511  0.0918
 6013TIP3   OH239453   6.783   4.097   0.782 -0.4714 -0.3625 -0.3414
 6013TIP3    H139454   6.817   4.013   0.750  2.0782  0.6161 -0.4258
 6013TIP3    H239455   6.777   4.086   0.876  3.2121  0.3141  0.1174
 6014TIP3   OH239456   4.991   6.720  14.197 -0.1391  0.2625  0.0741
 6014TIP3    H139457   5.060   6.756  14.141  0.3020  2.5614  1.9247
 6014TIP3    H239458   5.028   6.639  14.231 -0.3705 -1.1466 -2.7265
 6015TIP3   OH239459   1.529   3.991  12.142 -0.3175  0.6586  0.6809
 6015TIP3    H139460   1.595   3.979  12.210  1.1788  1.5291 -0.5247
 6015TIP3    H239461   1.474   3.913  12.147  1.8542 -0.9745  0.6473
 6016TIP3   OH239462   5.238   6.421   2.768 -0.1283 -0.0088  0.2612
 6016TIP3    H139463   5.293   6.406   2.845 -1.1564  0.4856  1.1195
 6016TIP3    H239464   5.292   6.474   2.709  1.4662 -2.1865 -0.3450
 6017TIP3   OH239465   5.818   2.219  16.778 -0.0669  1.1201 -0.2676
 6017TIP3    H139466   5.759   2.162  16.827  2.4825  0.5214  2.3908
 6017TIP3    H239467   5.877   2.160  16.732  0.6045  1.6412 -0.0991
 6018TIP3   OH239468   5.319   6.092   1.931  0.5614 -0.8220  0.5894
 6018TIP3    H139469   5.279   6.177   1.951 -1.0063 -1.5018  0.4804
 6018TIP3    H239470   5.391   6.084   1.993  0.1408  0.1839  1.2260
 6019TIP3   OH239471   6.310   2.023  12.851 -0.3137  0.5570 -0.4441
 6019TIP3    H139472   6.298   1.935  12.886 -2.4763  0.0880 -2.1590
 6019TIP3    H239473   6.336   2.075  12.927  0.2155 -1.3673  0.7796
 6020TIP3   OH239474   1.598   1.634  13.708 -0.2177  0.0733  0.8029
 6020TIP3    H139475   1.635   1.545  13.714 -0.3433 -0.0997 -0.5399
 6020TIP3    H239476   1.659   1.681  13.650 -0.6266  0.5993  0.7937
 6021TIP3   OH239477   6.398   5.789   1.086 -0.3780 -0.0266 -0.3618
 6021TIP3    H139478   6.325   5.842   1.052 -0.6068  0.1325  0.3536
 6021TIP3    H239479   6.404   5.815   1.178  3.1089  2.9161 -1.1840
 6022TIP3   OH239480   3.652   1.656   2.967  0.2083  0.7049 -0.7023
 6022TIP3    H139481   3.720   1.679   2.902  1.8932 -0.6880  0.4624
 6022TIP3    H239482   3.681   1.572   3.002 -0.8923  1.1797  1.5233
 6023TIP3   OH239483   6.412   1.101  12.541 -0.4998  0.2624 -0.0193
 6023TIP3    H139484   6.465   1.021  12.539  0.4661  0.8885 -0.2639
 6023TIP3    H239485   6.434   1.146  12.459 -1.8622  0.2683 -0.4082
 6024TIP3   OH239486   3.940   2.189  15.410 -0.1695 -0.3586  0.0523
 6024TIP3    H139487   3.947   2.112  15.354 -2.4416  0.4510 -1.5110
 6024TIP3    H239488   3.850   2.187  15.443  0.2594  0.7254  1.3918
 6025TIP3   OH239489   2.793   3.386  16.881 -0.0516  0.2331  0.7220
 6025TIP3    H139490   2.837   3.362  16.800 -0.4243 -0.4568  0.7239
 6025TIP3    H239491   2.707   3.417  16.854 -0.0579  0.3097  0.8288
 6026TIP3   OH239492   3.503   0.866  15.181  0.5796 -0.2522  0.3961
 6026TIP3    H139493   3.589   0.842  15.215  0.1725 -2.1278  0.2067
 6026TIP3    H239494   3.441   0.813  15.232 -0.5061  1.1595  0.6349
 6027TIP3   OH239495   2.961   0.945  12.327 -0.2017  0.1635 -0.4407
 6027TIP3    H139496   3.028   0.981  12.385 -0.8613  1.2520 -0.3298
 6027TIP3    H239497   2.878   0.962  12.371 -0.6100 -0.5043 -0.9220
 6028TIP3   OH239498   3.585   4.850   1.098 -0.2966  0.1278 -0.5481
 6028TIP3    H139499   3.522   4.923   1.101  0.0040  0.3608  1.7119
 6028TIP3    H239500   3.670   4.892   1.109  0.0217 -0.4195 -0.9114
 6029TIP3   OH239501   1.930   1.410  12.609  0.1940  0.2583 -0.1723
 6029TIP3    H139502   1.981   1.330  12.623  0.1882  0.5225  1.4622
 6029TIP3    H239503   1.848   1.395  12.656 -0.8477  0.2627 -1.9033
 6030TIP3   OH239504   6.053   0.966   1.636 -0.2579 -0.1209 -0.0646
 6030TIP3    H139505   6.049   0.870   1.637  1.8028 -0.2431  0.5362
 6030TIP3    H239506   6.143   0.986   1.610 -0.8297  1.6878 -0.8153
 6031TIP3   OH239507   4.437   6.166   5.295  0.5834 -0.2308 -0.1267
 6031TIP3    H139508   4.366   6.128   5.243  1.9053 -0.7334 -1.6475
 6031TIP3    H239509   4.396   6.189   5.378 -1.9688  1.8292 -1.7664
 6032TIP3   OH239510   5.478   6.473   4.006 -0.9285 -0.3000  0.3818
 6032TIP3    H139511   5.440   6.386   4.010  0.2379 -0.9254 -1.2505
 6032TIP3    H239512   5.571   6.459   4.023 -0.6781  0.5827 -0.1776
 6033TIP3   OH239513   6.132   1.223  12.342 -0.3481  0.2346  0.0577
 6033TIP3    H139514   6.221   1.241  12.312  0.0659  0.6243  1.4192
 6033TIP3    H239515   6.107   1.303  12.388 -1.8861  0.6011 -1.3353
 6034TIP3   OH239516   0.641   5.403  14.504 -0.5174 -0.3928 -0.0424
 6034TIP3    H139517   0.567   5.441  14.456 -0.2879 -1.7972 -1.5861
 6034TIP3    H239518   0.680   5.478  14.549 -1.6535  0.7346 -0.8337
 6035TIP3   OH239519   4.445   4.666  16.061  0.4626  0.0863 -0.4239
 6035TIP3    H139520   4.531   4.706  16.073  0.1564  0.4777  0.5114
 6035TIP3    H239521   4.384   4.739  16.054  0.1743 -0.1917 -0.9136
 6036TIP3   OH239522   2.410   2.790   2.952 -0.0696  0.0736  0.4113
 6036TIP3    H139523   2.370   2.851   2.890  1.1133 -1.4438 -2.0460
 6036TIP3    H239524   2.504   2.807   2.945  0.3484 -2.3070 -0.8293
 6037TIP3   OH239525   4.692   3.154   3.726  0.3935 -0.4848 -0.0003
 6037TIP3    H139526   4.779   3.181   3.753  0.0249  1.7727 -0.8097
 6037TIP3    H239527   4.704   3.066   3.690  1.7973 -1.3533  2.3918
 6038TIP3   OH239528   1.056   4.040   1.684 -0.2775 -0.5958  0.5546
 6038TIP3    H139529   1.151   4.040   1.691 -0.1157  1.4769 -0.8422
 6038TIP3    H239530   1.025   4.049   1.774  0.8311 -1.1127  0.9998
 6039TIP3   OH239531   1.923   5.459  16.558  0.1223  0.4584  0.1807
 6039TIP3    H139532   1.978   5.523  16.512 -0.5273 -0.8239 -2.6040
 6039TIP3    H239533   1.863   5.427  16.491 -1.6614 -0.8080  2.2571
 6040TIP3   OH239534   3.575   4.884  16.369 -0.0456  0.0470  0.3214
 6040TIP3    H139535   3.550   4.875  16.277 -0.6273  1.1757  0.3593
 6040TIP3    H239536   3.642   4.952  16.369  0.3388 -0.3221  0.6805
 6041TIP3   OH239537   4.661   1.581  14.556  0.0701 -0.7706  0.0321
 6041TIP3    H139538   4.659   1.586  14.651 -0.4578  0.1320 -0.0148
 6041TIP3    H239539   4.573   1.605  14.528 -0.0156 -1.8189 -0.6685
 6042TIP3   OH239540   3.076   0.002   4.951  0.0503  0.4571  0.4217
 6042TIP3    H139541   3.110   0.039   4.869  0.9096  0.3402  0.7132
 6042TIP3    H239542   3.023  -0.073   4.924  1.8481 -0.7406  0.0523
 6043TIP3   OH239543   4.776   3.980   3.268 -0.4201 -0.3284 -0.0490
 6043TIP3    H139544   4.697   4.014   3.309 -0.0925  0.1109  0.2294
 6043TIP3    H239545   4.832   3.955   3.341  0.3890  0.9622 -0.1933
 6044TIP3   OH239546   0.579   1.752   3.197 -0.1967  0.0918  0.3353
 6044TIP3    H139547   0.600   1.845   3.210  0.7602  0.0532 -0.7197
 6044TIP3    H239548   0.660   1.706   3.219  0.3692 -0.2188 -2.0970
 6045TIP3   OH239549   5.364   3.581   4.383  0.1391  0.2578  0.0235
 6045TIP3    H139550   5.294   3.519   4.362 -1.3168  1.6338  0.6484
 6045TIP3    H239551   5.394   3.613   4.298 -0.1342 -0.1657 -0.2389
 6046TIP3   OH239552   2.567   3.433   2.382 -0.4863 -0.0704  0.3274
 6046TIP3    H139553   2.496   3.374   2.405 -0.9299  0.5780  0.6695
 6046TIP3    H239554   2.524   3.504   2.334  0.0530 -0.0833 -0.1898
 6047TIP3   OH239555   1.963   5.434  11.569  0.0871 -0.0365  0.0825
 6047TIP3    H139556   2.013   5.352  11.573 -1.7106 -1.2603 -0.8856
 6047TIP3    H239557   1.901   5.428  11.642 -1.8140 -0.8607 -1.4866
 6048TIP3   OH239558   1.849   4.710  14.621 -0.7197  0.4770  0.1027
 6048TIP3    H139559   1.938   4.727  14.587 -0.9082 -0.5739 -1.0135
 6048TIP3    H239560   1.848   4.751  14.707  1.9071 -2.0154  1.5189
 6049TIP3   OH239561   5.601   3.209  11.656 -0.4447 -0.1145 -0.3947
 6049TIP3    H139562   5.599   3.239  11.565  1.6131 -0.9843 -0.7748
 6049TIP3    H239563   5.578   3.116  11.651 -1.2271  0.0494  0.0918
 6050TIP3   OH239564   3.469   6.193  13.479 -0.1203 -0.0202 -0.2952
 6050TIP3    H139565   3.462   6.268  13.421 -3.7138  0.8625  1.0286
 6050TIP3    H239566   3.490   6.231  13.564  1.5954 -0.9461 -0.2689
 6051TIP3   OH239567   3.488   4.325  11.235  0.2919 -0.1936 -0.0262
 6051TIP3    H139568   3.444   4.407  11.261  2.1533  1.4587 -1.7519
 6051TIP3    H239569   3.576   4.333  11.271  0.3793 -1.6743  0.1382
 6052TIP3   OH239570   6.319   0.235   3.440 -0.1987 -0.1979 -0.3492
 6052TIP3    H139571   6.371   0.214   3.517  0.1846 -1.1405 -0.8584
 6052TIP3    H239572   6.232   0.255   3.475 -0.0871 -0.8373  0.3055
 6053TIP3   OH239573   4.989   1.022  17.035  0.3752 -0.3258  0.1095
 6053TIP3    H139574   4.989   0.957  17.105 -0.3270 -0.1781  0.2494
 6053TIP3    H239575   4.900   1.021  17.000  0.9351 -1.0584 -1.4062
 6054TIP3   OH239576   4.567   2.651  13.456 -0.3941 -0.0747 -0.3029
 6054TIP3    H139577   4.583   2.570  13.407  1.3555  0.0527 -0.0048
 6054TIP3    H239578   4.540   2.622  13.543  0.6567 -0.3490 -0.0625
 6055TIP3   OH239579   2.850   3.574  12.688  0.1866  0.6298 -0.2062
 6055TIP3    H139580   2.907   3.538  12.620  1.1960  1.2549  0.2904
 6055TIP3    H239581   2.765   3.584  12.645  0.4542 -0.2537 -0.9765
 6056TIP3   OH239582   5.683   1.576  12.860  0.0197 -0.5156  0.3832
 6056TIP3    H139583   5.674   1.514  12.788  1.2375  0.2013 -0.4193
 6056TIP3    H239584   5.736   1.647  12.824  1.7487 -0.7223  2.3411
 6057TIP3   OH239585   0.331   3.232   4.831  0.5158 -0.1015  0.2202
 6057TIP3    H139586   0.330   3.137   4.841  1.0260  0.0045  1.4404
 6057TIP3    H239587   0.362   3.265   4.915  0.3999  1.1486 -0.2030
 6058TIP3   OH239588   5.904   1.668   3.147 -0.2053 -0.5402 -0.4425
 6058TIP3    H139589   5.904   1.629   3.060 -0.3743 -0.6690 -0.3852
 6058TIP3    H239590   5.973   1.734   3.144 -1.6353  1.0121 -1.3928
 6059TIP3   OH239591   5.567   4.382   6.550  0.0438 -0.1396  0.9681
 6059TIP3    H139592   5.546   4.289   6.536 -0.3644 -0.0450  0.9492
 6059TIP3    H239593   5.522   4.428   6.479 -0.2970  0.1384  1.3672
 6060TIP3   OH239594   4.347   4.393  14.708  0.2631  0.1722  0.3373
 6060TIP3    H139595   4.380   4.306  14.684 -0.8194 -0.1685  0.0207
 6060TIP3    H239596   4.367   4.448  14.633  1.0699  0.2293  0.5927
 6061TIP3   OH239597   4.293   4.908  16.028 -0.3597 -0.7195  0.1819
 6061TIP3    H139598   4.226   4.914  16.096  0.0229  0.9607  0.4671
 6061TIP3    H239599   4.244   4.899  15.947 -0.9412  0.2550  0.4116
 6062TIP3   OH239600   1.405   4.552   6.459  0.3754  0.2461  0.0203
 6062TIP3    H139601   1.411   4.458   6.447  1.1547  0.2940  0.0435
 6062TIP3    H239602   1.348   4.563   6.535 -0.6068 -0.1664 -0.6224
 6063TIP3   OH239603   6.403   4.743   0.540  0.1196 -0.1440  0.2295
 6063TIP3    H139604   6.359   4.823   0.511  0.9722 -0.0023 -0.7454
 6063TIP3    H239605   6.347   4.709   0.609 -1.1377  0.4057 -0.4764
 6064TIP3   OH239606   6.424   1.562  16.099  0.1989 -0.4354 -0.0511
 6064TIP3    H139607   6.331   1.548  16.077  0.4546 -0.8803 -0.9160
 6064TIP3    H239608   6.455   1.476  16.126  0.6682 -0.5925 -1.0289
 6065TIP3   OH239609   2.490   2.124   2.045 -0.7963 -0.1668  0.1847
 6065TIP3    H139610   2.553   2.088   2.107  0.4264  0.7681 -0.4798
 6065TIP3    H239611   2.455   2.047   1.999  0.4512 -0.6538  0.0189
 6066TIP3   OH239612   0.520   3.059  15.923  0.0752 -0.2614  0.2815
 6066TIP3    H139613   0.475   3.144  15.922 -2.0447 -1.2949 -1.3166
 6066TIP3    H239614   0.606   3.077  15.885 -0.7216  1.0271 -1.0541
 6067TIP3   OH239615   3.779   1.400  14.153 -0.5830  0.0126  0.7394
 6067TIP3    H139616   3.807   1.320  14.198 -0.1232  0.2372  0.8678
 6067TIP3    H239617   3.693   1.379  14.117 -0.2912 -0.6823  0.4147
 6068TIP3   OH239618   2.428   6.055  12.089  0.0123 -0.1744  0.5256
 6068TIP3    H139619   2.468   6.125  12.037  0.5712  1.0633  2.5091
 6068TIP3    H239620   2.364   6.015  12.030 -0.7529  2.3848 -0.5246
 6069TIP3   OH239621   1.086   0.021   5.842 -0.1646  0.1505  0.4825
 6069TIP3    H139622   1.008   0.024   5.897  0.5768  0.7120  1.5238
 6069TIP3    H239623   1.052   0.011   5.753 -1.3847 -0.5358  1.0085
 6070TIP3   OH239624   4.167   2.936  15.919  0.1591 -0.5394  0.4090
 6070TIP3    H139625   4.216   3.014  15.891 -0.3739 -0.6147 -0.8066
 6070TIP3    H239626   4.141   2.894  15.837  0.6052 -2.1175  1.0448
 6071TIP3   OH239627   5.402   2.276  15.452 -0.2493  0.1870  0.1996
 6071TIP3    H139628   5.422   2.308  15.540  2.6688 -1.3983  0.2484
 6071TIP3    H239629   5.421   2.350  15.395  0.9399  0.3009  0.7134
 6072TIP3   OH239630   0.572   0.156   2.813  0.1612 -0.6513  0.3742
 6072TIP3    H139631   0.483   0.139   2.842 -0.0344  1.6960  1.3918
 6072TIP3    H239632   0.627   0.124   2.885 -0.0337  0.2203  0.9310
 6073TIP3   OH239633   0.178   1.351  15.396 -0.3885  0.4296 -0.0528
 6073TIP3    H139634   0.148   1.302  15.472 -1.7734  1.0566 -0.1653
 6073TIP3    H239635   0.273   1.352  15.404 -0.2160 -2.7595 -0.3747
 6074TIP3   OH239636   2.456   6.346  12.219 -0.2218 -0.0173 -0.0718
 6074TIP3    H139637   2.517   6.408  12.257 -0.0676  0.2534 -0.7448
 6074TIP3    H239638   2.492   6.327  12.132 -0.0429 -1.3638  0.2725
 6075TIP3   OH239639   0.904   5.452  11.899 -0.5402  0.2733 -0.2502
 6075TIP3    H139640   0.916   5.480  11.808  0.2014  1.0455  0.0772
 6075TIP3    H239641   0.981   5.483  11.945 -1.7370  1.5113  1.0243
 6076TIP3   OH239642   3.750   4.592   0.990  0.1656  0.5859 -0.1893
 6076TIP3    H139643   3.797   4.649   1.051 -0.3795  0.2311  0.5598
 6076TIP3    H239644   3.703   4.653   0.933 -3.0545  0.9839  2.6036
 6077TIP3   OH239645   3.905   0.462  11.582 -0.1622  0.0857  0.1175
 6077TIP3    H139646   3.999   0.444  11.586 -0.4891 -1.7672 -0.0384
 6077TIP3    H239647   3.898   0.552  11.615  1.5217 -0.2150  1.4881
 6078TIP3   OH239648   1.236   1.374   2.930  0.3135  0.4357  0.2910
 6078TIP3    H139649   1.268   1.418   2.852  1.2436 -1.5955 -0.5515
 6078TIP3    H239650   1.237   1.441   2.998  4.3824  1.0993 -0.1669
 6079TIP3   OH239651   6.611   1.483  15.674 -0.1838  0.6136 -0.0466
 6079TIP3    H139652   6.631   1.418  15.741  0.6826 -0.0779 -0.9398
 6079TIP3    H239653   6.527   1.521  15.701 -0.4629 -0.5199  0.7513
 6080TIP3   OH239654   6.345   0.763   4.333  0.2956 -0.3201  0.4754
 6080TIP3    H139655   6.370   0.843   4.287 -0.6724 -0.3756 -0.1762
 6080TIP3    H239656   6.428   0.719   4.353  0.8091  0.5756  0.3660
 6081TIP3   OH239657   3.879   1.131  14.223  0.3171  0.8439 -0.6117
 6081TIP3    H139658   3.943   1.106  14.156  0.1488 -0.9171 -0.1745
 6081TIP3    H239659   3.801   1.079  14.203  0.2354  0.3289  0.8773
 6082TIP3   OH239660   6.467   1.919  15.671 -0.3700 -0.1126  0.5697
 6082TIP3    H139661   6.483   2.004  15.630 -0.3250 -0.2022  0.4051
 6082TIP3    H239662   6.554   1.885  15.690 -0.3919  0.5552  2.0178
 6083TIP3   OH239663   1.599   3.265  12.482  0.2784 -0.2487 -0.2032
 6083TIP3    H139664   1.683   3.238  12.445  0.8117 -0.5529  1.1685
 6083TIP3    H239665   1.582   3.201  12.552 -0.5429  0.4631  0.2676
 6084TIP3   OH239666   2.912   1.258   0.729 -0.1669  0.0327  0.1376
 6084TIP3    H139667   2.859   1.267   0.808  1.4876  1.0969  1.2187
 6084TIP3    H239668   2.906   1.166   0.705 -1.5926 -0.0746  0.8379
 6085TIP3   OH239669   6.228   2.033   2.118 -0.4311 -0.3480 -0.0323
 6085TIP3    H139670   6.275   1.989   2.188 -1.7693 -1.6330  0.0977
 6085TIP3    H239671   6.137   2.008   2.130 -0.8227  0.1414 -1.6780
 6086TIP3   OH239672   4.136   1.330  12.212  0.0761  0.4456 -0.2531
 6086TIP3    H139673   4.051   1.351  12.252 -0.7664 -0.4735 -1.4966
 6086TIP3    H239674   4.140   1.385  12.135  0.2574 -0.0647 -0.6127
 6087TIP3   OH239675   4.213   0.717   4.398 -0.5078 -0.2797  0.6863
 6087TIP3    H139676   4.191   0.626   4.417  0.5149 -0.8373 -0.6308
 6087TIP3    H239677   4.307   0.717   4.382 -0.8793  0.3944 -2.2438
 6088TIP3   OH239678   3.270   2.699  16.110  0.4125  0.4269  0.0375
 6088TIP3    H139679   3.253   2.759  16.037  1.0287  1.5595  0.8048
 6088TIP3    H239680   3.300   2.619  16.068 -0.2690  0.6881 -1.0017
 6089TIP3   OH239681   4.968   3.737   5.989  0.2203  0.0445 -0.0622
 6089TIP3    H139682   5.015   3.691   6.058 -0.4160  0.7916  0.9075
 6089TIP3    H239683   4.988   3.830   6.003 -1.5362  0.3963  0.4373
 6090TIP3   OH239684   5.863   1.090   2.197 -0.3961  0.3499 -0.0565
 6090TIP3    H139685   5.916   1.060   2.271  0.9796 -0.0738 -1.1714
 6090TIP3    H239686   5.833   1.010   2.154  0.1773  0.5586 -0.8814
 6091TIP3   OH239687   5.306   6.754  15.618 -0.3014  0.2571  0.2636
 6091TIP3    H139688   5.230   6.724  15.667 -0.5044 -0.8441 -0.6836
 6091TIP3    H239689   5.378   6.752  15.681 -0.4837 -1.4817  0.4688
 6092TIP3   OH239690   2.393   3.579   2.210  0.1188  0.0111  0.3240
 6092TIP3    H139691   2.333   3.510   2.180  0.2934 -0.1679  0.3860
 6092TIP3    H239692   2.335   3.650   2.238 -0.0752 -0.2827  0.6802
 6093TIP3   OH239693   2.168   5.825  15.728 -0.1292 -0.1059 -0.1510
 6093TIP3    H139694   2.259   5.825  15.699 -0.2000  1.2282 -0.4215
 6093TIP3    H239695   2.117   5.841  15.649 -0.6303 -1.1530 -0.0552
 6094TIP3   OH239696   4.138   2.649  13.831 -0.0341 -0.0898  0.2103
 6094TIP3    H139697   4.159   2.592  13.905 -0.4500  0.1301  0.5004
 6094TIP3    H239698   4.066   2.703  13.862 -3.0127 -2.6285 -1.5753
 6095TIP3   OH239699   1.439   5.550   2.779  0.3607  0.3541 -0.0718
 6095TIP3    H139700   1.491   5.577   2.704  0.3791  0.2749 -0.0873
 6095TIP3    H239701   1.446   5.455   2.781 -1.3532  0.1802 -1.2089
 6096TIP3   OH239702   4.788   5.898   3.204  0.2872  0.0485 -0.3163
 6096TIP3    H139703   4.757   5.978   3.248 -1.2980 -0.6152 -0.1703
 6096TIP3    H239704   4.716   5.873   3.146  1.5922 -0.1510 -1.9202
 6097TIP3   OH239705   6.730   2.526   5.544 -0.3880  0.3682  0.3575
 6097TIP3    H139706   6.785   2.602   5.523  0.8259 -0.8778 -1.2624
 6097TIP3    H239707   6.677   2.512   5.465  1.3877 -2.0459 -0.5323
 6098TIP3   OH239708   0.861   3.961  10.886  0.1182  0.1561 -0.1823
 6098TIP3    H139709   0.908   3.993  10.963 -1.0898  0.7334  0.3341
 6098TIP3    H239710   0.829   4.040  10.843 -1.6903 -0.2563  0.3287
 6099TIP3   OH239711   5.717   6.419   4.162 -0.3811 -0.0113 -1.1004
 6099TIP3    H139712   5.801   6.465   4.165  0.8444 -2.1584  0.6827
 6099TIP3    H239713   5.734   6.339   4.112 -1.3640 -0.4706 -0.7429
 6100TIP3   OH239714   4.442   3.260   0.288  0.3848  0.1681 -0.4775
 6100TIP3    H139715   4.369   3.311   0.323 -0.8126 -0.2724 -2.2194
 6100TIP3    H239716   4.426   3.171   0.319  1.1974  0.3784  0.6162
 6101TIP3   OH239717   3.345   4.129   2.015  0.1455 -0.0015  0.5881
 6101TIP3    H139718   3.319   4.221   2.013  0.2056  0.0034 -0.0750
 6101TIP3    H239719   3.383   4.117   2.102 -0.1961  0.5061  0.8139
 6102TIP3   OH239720   2.105   1.319  14.053  0.4348 -0.2844  0.3220
 6102TIP3    H139721   2.043   1.310  14.125  1.5436 -0.3575  1.2834
 6102TIP3    H239722   2.188   1.286  14.087  0.9729 -0.3875 -1.0059
 6103TIP3   OH239723   2.198   3.029  14.413 -0.6809 -0.0303 -0.4868
 6103TIP3    H139724   2.153   2.946  14.429 -1.4456  0.4605 -0.0768
 6103TIP3    H239725   2.286   3.015  14.449 -0.9336 -0.5197 -0.0462
 6104TIP3   OH239726   0.749   5.496  13.171  0.0051  0.0386 -0.4035
 6104TIP3    H139727   0.821   5.555  13.147 -0.2759  0.1985 -0.8560
 6104TIP3    H239728   0.670   5.544  13.147 -0.2284 -0.5028 -0.7174
 6105TIP3   OH239729   0.013   2.739  12.988 -0.0696  0.1919 -0.1891
 6105TIP3    H139730  -0.033   2.759  13.070  0.7357 -1.8708  0.8323
 6105TIP3    H239731   0.102   2.771  13.002 -0.0653  0.3019 -0.4676
 6106TIP3   OH239732   0.415   0.785  15.280 -0.0286  0.2615  0.1485
 6106TIP3    H139733   0.487   0.849  15.279 -0.8548  1.2781  1.3597
 6106TIP3    H239734   0.352   0.820  15.217  0.0353 -0.0032 -0.0618
 6107TIP3   OH239735   4.473   1.592  13.782  0.5739  0.3182  0.0201
 6107TIP3    H139736   4.553   1.607  13.832 -0.8522  0.8737  2.2505
 6107TIP3    H239737   4.494   1.518  13.725  2.1331 -0.6578  1.7609
 6108TIP3   OH239738   2.874   6.161   3.912  0.3349  0.0763  0.0443
 6108TIP3    H139739   2.820   6.086   3.888 -3.7993  3.0789 -1.2717
 6108TIP3    H239740   2.910   6.192   3.829 -0.1048  0.9437  0.1660
 6109TIP3   OH239741   1.304   3.914  13.874  0.0337 -0.5004 -0.2448
 6109TIP3    H139742   1.345   3.959  13.948  0.2428 -0.7382 -0.2145
 6109TIP3    H239743   1.377   3.873  13.827 -0.2348 -1.5622  0.2320
 6110TIP3   OH239744   5.058   0.453  14.491 -0.4218  0.3450 -0.2765
 6110TIP3    H139745   4.995   0.440  14.561  0.8350 -0.0719  0.8113
 6110TIP3    H239746   5.133   0.497  14.532  0.3840  0.0070 -1.3096
 6111TIP3   OH239747   0.198   1.627  14.212 -0.3888  0.2366  0.1865
 6111TIP3    H139748   0.203   1.718  14.182 -1.8850  0.2219 -0.1829
 6111TIP3    H239749   0.141   1.583  14.148 -2.0030 -0.2732  1.8694
 6112TIP3   OH239750   1.770   1.637   5.077  0.4435  0.1340  0.5401
 6112TIP3    H139751   1.787   1.549   5.044  1.2698 -0.0065  1.2953
 6112TIP3    H239752   1.737   1.685   5.001 -0.5785 -0.9653  0.2478
 6113TIP3   OH239753   5.996   2.137  12.849  0.1702 -0.6229 -1.0692
 6113TIP3    H139754   5.945   2.058  12.868  0.8402 -0.5178  1.5572
 6113TIP3    H239755   5.940   2.209  12.878  0.8882 -0.3763 -0.2513
 6114TIP3   OH239756   5.776   3.157  13.289  0.0474  0.3965  0.1745
 6114TIP3    H139757   5.793   3.235  13.236 -0.9160  1.3080  1.1641
 6114TIP3    H239758   5.850   3.153  13.350 -0.6053  1.4162  1.0870
 6115TIP3   OH239759   0.260   6.147   4.031  0.6192 -0.5163  0.2673
 6115TIP3    H139760   0.326   6.216   4.020  0.7776 -0.8903 -1.5247
 6115TIP3    H239761   0.179   6.195   4.048  0.9082  0.0694  0.0303
 6116TIP3   OH239762   1.564   3.297  16.898 -0.2823  0.1084  0.4039
 6116TIP3    H139763   1.614   3.319  16.977  0.8792  1.8344 -0.7495
 6116TIP3    H239764   1.485   3.350  16.904 -1.4917 -1.7063  1.6220
 6117TIP3   OH239765   3.792   6.223   2.638 -0.0090  0.2079  0.5342
 6117TIP3    H139766   3.856   6.165   2.597 -0.6766 -1.5724  1.8726
 6117TIP3    H239767   3.710   6.203   2.593  0.0099  1.1549  0.0613
 6118TIP3   OH239768   1.796   3.940   4.299  0.3881 -0.2151 -0.5562
 6118TIP3    H139769   1.873   3.969   4.250 -0.0076 -2.1052 -2.4261
 6118TIP3    H239770   1.830   3.876   4.361  0.7067  1.2143  0.7891
 6119TIP3   OH239771   0.366   1.012   0.339 -0.3594 -0.0981  0.0002
 6119TIP3    H139772   0.298   1.033   0.276 -1.0016 -2.3061 -0.1129
 6119TIP3    H239773   0.446   1.007   0.288 -0.6425 -0.5202 -0.4038
 6120TIP3   OH239774   5.616   5.779  13.517  0.5909 -0.0590  0.5171
 6120TIP3    H139775   5.637   5.733  13.599  0.3141 -1.2201 -0.0515
 6120TIP3    H239776   5.522   5.763  13.504  0.8980 -1.0440 -0.7131
 6121TIP3   OH239777   6.233   3.969  15.309  0.2377  0.1517 -0.2705
 6121TIP3    H139778   6.145   4.007  15.315  1.2533  2.5015  1.9552
 6121TIP3    H239779   6.235   3.904  15.379  1.0862  2.2786  1.8335
 6122TIP3   OH239780   2.034   4.732   2.873  0.2380  0.4797 -0.1953
 6122TIP3    H139781   1.938   4.735   2.866 -0.0546  0.7230  2.8725
 6122TIP3    H239782   2.062   4.822   2.858 -0.2931  0.9355  1.3308
 6123TIP3   OH239783   3.767   2.975   2.986 -0.5699  0.0050 -0.7779
 6123TIP3    H139784   3.749   2.937   2.900 -0.1477 -0.9021 -0.4805
 6123TIP3    H239785   3.808   2.903   3.036 -1.4258  0.3076  0.3990
 6124TIP3   OH239786   6.399   3.964   5.052  0.7838 -0.0502  0.2945
 6124TIP3    H139787   6.387   3.871   5.032  1.1342 -0.4413  1.7816
 6124TIP3    H239788   6.451   3.965   5.132  1.6160  1.4543 -0.2238
 6125TIP3   OH239789   6.092   5.127   1.499  0.1976 -0.0356 -0.2224
 6125TIP3    H139790   6.112   5.035   1.486 -2.9861 -0.9724  0.7317
 6125TIP3    H239791   6.069   5.159   1.411  0.5928 -0.3184 -0.4323
 6126TIP3   OH239792   3.107   3.841  15.854 -0.5090 -0.1702  0.1149
 6126TIP3    H139793   3.141   3.788  15.926 -0.7110 -0.7381 -0.1978
 6126TIP3    H239794   3.182   3.857  15.798 -0.7803 -1.6497 -0.7144
 6127TIP3   OH239795   5.266   4.500   2.964 -0.6894 -0.4001  0.0096
 6127TIP3    H139796   5.293   4.415   2.931 -1.1695 -0.9528  0.9837
 6127TIP3    H239797   5.289   4.562   2.895  1.5358 -1.0249  0.1135
 6128TIP3   OH239798   3.601   0.905   0.748  0.1020 -0.2865  0.2118
 6128TIP3    H139799   3.571   0.981   0.798 -2.5508 -0.4174 -0.9623
 6128TIP3    H239800   3.524   0.848   0.743  0.6123 -0.9107 -2.7574
 6129TIP3   OH239801   0.420   1.845  13.221 -0.4167 -0.4293  0.2998
 6129TIP3    H139802   0.488   1.861  13.286 -0.4172  0.1475  0.1606
 6129TIP3    H239803   0.427   1.752  13.201  0.5418 -0.3117  0.0546
 6130TIP3   OH239804   3.892   4.161   1.366  0.0888 -0.3723  0.4932
 6130TIP3    H139805   3.830   4.232   1.384  0.2189 -0.1156 -0.0467
 6130TIP3    H239806   3.975   4.205   1.350  0.1100 -0.6146 -0.1340
 6131TIP3   OH239807   5.789   2.589   4.835 -0.5004 -0.4725 -0.1227
 6131TIP3    H139808   5.789   2.683   4.851  2.4673 -0.1482 -1.2856
 6131TIP3    H239809   5.774   2.581   4.741 -0.5142 -1.1295 -0.0678
 6132TIP3   OH239810   1.759   4.311   3.446 -0.3015  0.2467 -0.0043
 6132TIP3    H139811   1.753   4.239   3.508 -2.2517 -0.0294 -0.4252
 6132TIP3    H239812   1.689   4.294   3.383  0.9956  1.0298 -1.7472
 6133TIP3   OH239813   4.729   2.048  12.519 -0.1893 -0.0257 -0.1501
 6133TIP3    H139814   4.821   2.041  12.544 -0.4999 -1.1491  0.7761
 6133TIP3    H239815   4.687   2.091  12.594 -0.0505  2.9431 -1.6060
 6134TIP3   OH239816   1.248   3.274  13.668  0.4277  0.2809  0.4379
 6134TIP3    H139817   1.326   3.226  13.639  0.1773  0.3016 -0.2776
 6134TIP3    H239818   1.268   3.298  13.759  0.5085 -1.2761  0.8636
 6135TIP3   OH239819   4.468   1.613  14.373  0.6463  0.4931  0.3479
 6135TIP3    H139820   4.404   1.675  14.337  0.5554  0.1793 -0.0257
 6135TIP3    H239821   4.538   1.611  14.309  0.2520 -0.4536 -0.0696
 6136TIP3   OH239822   3.304   6.124  13.260 -0.8584  0.2705  0.3580
 6136TIP3    H139823   3.358   6.116  13.338  1.2381 -0.5885 -1.0869
 6136TIP3    H239824   3.261   6.039  13.251  1.1775 -0.7222 -0.9009
 6137TIP3   OH239825   6.531   0.480   0.111 -0.3464 -0.4970 -0.1965
 6137TIP3    H139826   6.512   0.406   0.168 -1.5517  0.2049  0.3673
 6137TIP3    H239827   6.626   0.476   0.097 -0.6576 -3.6126 -2.3046
 6138TIP3   OH239828   4.307   5.983  11.172 -0.1385  0.1382  0.1355
 6138TIP3    H139829   4.230   6.040  11.178 -0.3874 -0.1373 -0.3982
 6138TIP3    H239830   4.367   6.017  11.239 -0.8559  0.1449  0.7902
 6139TIP3   OH239831   0.059   5.733  15.000 -0.4635  0.6081  0.3524
 6139TIP3    H139832   0.104   5.807  14.958 -1.0771  1.3165  0.9040
 6139TIP3    H239833  -0.033   5.761  15.003 -0.8880 -0.6338 -0.3877
 6140TIP3   OH239834   5.477   2.360   0.490  0.1010 -0.3232  0.5399
 6140TIP3    H139835   5.518   2.385   0.407  0.1653  1.5816  1.0873
 6140TIP3    H239836   5.543   2.307   0.534  0.1952 -1.0694 -0.4490
 6141TIP3   OH239837   4.464   3.040  14.304 -0.2955 -1.2758  0.3097
 6141TIP3    H139838   4.493   3.129  14.320 -1.1947 -0.7668 -0.7059
 6141TIP3    H239839   4.502   2.988  14.375 -2.0918  0.3688  2.6367
 6142TIP3   OH239840   6.092   3.008  13.714  0.2529  0.1435 -0.4196
 6142TIP3    H139841   6.061   2.943  13.777 -0.6996 -0.3478 -1.3543
 6142TIP3    H239842   6.113   3.085  13.767  2.5282 -1.2612  0.8529
 6143TIP3   OH239843   0.810   1.097   4.811  0.0895 -0.5428  0.1200
 6143TIP3    H139844   0.881   1.067   4.754 -0.1231 -0.7628 -0.0301
 6143TIP3    H239845   0.855   1.142   4.883  0.3263  0.5924 -0.7049
 6144TIP3   OH239846   0.226   4.409   4.276  0.3078 -0.5086  0.3837
 6144TIP3    H139847   0.146   4.365   4.302  0.0965  1.2647  3.1083
 6144TIP3    H239848   0.295   4.364   4.325  0.7927 -0.9275 -0.6438
 6145TIP3   OH239849   4.696   6.386  16.530 -0.0619 -0.5491 -0.3206
 6145TIP3    H139850   4.791   6.381  16.537  0.1341  1.1792 -1.2469
 6145TIP3    H239851   4.664   6.304  16.569  1.7435 -0.7022  0.9359
 6146TIP3   OH239852   4.542   1.882   1.600 -0.1522 -0.8263 -0.2442
 6146TIP3    H139853   4.614   1.837   1.556 -0.4934  0.6985 -2.5600
 6146TIP3    H239854   4.583   1.925   1.675  1.3557 -0.1183 -1.4238
 6147TIP3   OH239855   6.530   3.720  16.907  0.2147  0.3428  0.0293
 6147TIP3    H139856   6.509   3.628  16.891 -2.4316  0.6705  1.0182
 6147TIP3    H239857   6.562   3.722  16.998  3.3647  0.0839 -0.9466
 6148TIP3   OH239858   2.735   3.014   5.411 -0.2364  0.8956 -0.1330
 6148TIP3    H139859   2.788   2.936   5.395  0.2266  0.8915  1.3201
 6148TIP3    H239860   2.685   3.025   5.330 -0.2883 -0.8861 -0.3985
 6149TIP3   OH239861   6.269   0.629  13.720  0.1545 -0.1282  0.4378
 6149TIP3    H139862   6.266   0.713  13.675  0.1749 -0.7715 -0.8356
 6149TIP3    H239863   6.338   0.580  13.675  0.6332 -0.5775  1.6191
 6150TIP3   OH239864   1.617   2.975  16.782  0.0490  0.2231 -0.0961
 6150TIP3    H139865   1.630   3.066  16.755  0.3978  0.7243  1.6200
 6150TIP3    H239866   1.529   2.953  16.752 -0.0150  1.1112 -0.5844
 6151TIP3   OH239867   3.081   6.038  10.459  0.0118 -0.0095 -0.4465
 6151TIP3    H139868   3.130   6.120  10.451 -0.2320  0.1623 -0.2033
 6151TIP3    H239869   3.140   5.980  10.508  0.1086  0.0839 -0.4521
 6152TIP3   OH239870   5.998   3.990  16.566  0.4571 -0.6775  0.1458
 6152TIP3    H139871   5.928   3.932  16.595 -0.3823 -0.1447 -0.7833
 6152TIP3    H239872   5.963   4.034  16.489  1.2338  0.7479  0.5769
 6153TIP3   OH239873   1.924   3.057  11.677 -0.1316 -0.5497 -0.5424
 6153TIP3    H139874   1.835   3.086  11.656  0.1769  1.6695  0.9430
 6153TIP3    H239875   1.926   3.051  11.772  1.6066  0.4777 -0.4869
 6154TIP3   OH239876   5.554   4.508   3.951  0.1752  0.0133 -0.6134
 6154TIP3    H139877   5.482   4.516   4.013 -0.2823  1.5397 -1.3050
 6154TIP3    H239878   5.561   4.594   3.910  2.7503  0.0922 -0.1977
 6155TIP3   OH239879   2.199   3.889  15.375  0.1534 -1.0287 -0.4298
 6155TIP3    H139880   2.288   3.916  15.352  0.4126 -0.2050  1.3995
 6155TIP3    H239881   2.144   3.962  15.348  0.0888 -1.3236 -1.1036
 6156TIP3   OH239882   5.845   5.963  13.527 -0.2283  0.1501  0.0223
 6156TIP3    H139883   5.754   5.934  13.518  0.0283 -1.2422  1.4615
 6156TIP3    H239884   5.876   5.972  13.437 -1.4066 -0.6259 -0.4904
 6157TIP3   OH239885   0.322   2.207  13.651  0.2637 -0.0886  0.2184
 6157TIP3    H139886   0.258   2.276  13.635 -1.9030 -1.9401  0.3713
 6157TIP3    H239887   0.407   2.250  13.641 -0.9567  2.7018  0.9338
 6158TIP3   OH239888   5.376   2.882  15.702 -0.2794 -0.3389  0.4398
 6158TIP3    H139889   5.372   2.951  15.636 -0.4558 -2.5896 -2.0836
 6158TIP3    H239890   5.287   2.848  15.708  0.3198 -2.3197 -0.7574
 6159TIP3   OH239891   0.972   3.181   1.875 -0.1282 -0.4749 -0.0223
 6159TIP3    H139892   1.042   3.120   1.899  0.0881 -0.0507  0.4482
 6159TIP3    H239893   1.003   3.266   1.907 -1.3946 -0.4704  1.2927
 6160TIP3   OH239894   5.220   3.609  13.456  0.1429 -0.4743 -0.4485
 6160TIP3    H139895   5.266   3.687  13.488  0.1201  0.2971 -2.2283
 6160TIP3    H239896   5.225   3.547  13.530  0.3253  1.1129  0.9228
 6161TIP3   OH239897   5.946   5.684   0.202  0.2803 -0.6003  0.6574
 6161TIP3    H139898   5.899   5.627   0.141 -0.5183  1.6161 -0.9039
 6161TIP3    H239899   5.958   5.630   0.280 -2.0979 -2.2910 -0.0285
 6162TIP3   OH239900   3.998   1.618  11.436 -0.0156  0.2444  0.2626
 6162TIP3    H139901   3.908   1.649  11.427 -0.4655 -1.1753 -0.5464
 6162TIP3    H239902   4.052   1.697  11.434 -1.3119  1.2253  2.0980
 6163TIP3   OH239903   0.620   5.437   1.425  0.3649  0.1721 -0.5991
 6163TIP3    H139904   0.650   5.347   1.429 -0.8103 -0.2468 -0.8251
 6163TIP3    H239905   0.525   5.431   1.412  0.3435  1.4331 -1.2615
 6164TIP3   OH239906   4.644   4.050   4.443  0.2307 -0.0982 -0.2024
 6164TIP3    H139907   4.726   4.005   4.423  0.2647 -0.7921  1.4381
 6164TIP3    H239908   4.591   3.986   4.491 -0.5621  0.9192  0.3234
 6165TIP3   OH239909   2.504   3.939  12.499 -0.1293  0.2790  0.3236
 6165TIP3    H139910   2.409   3.925  12.499  0.1732 -2.6443 -1.3790
 6165TIP3    H239911   2.518   4.004  12.430 -0.8012 -0.7101 -0.7861
 6166TIP3   OH239912   0.852   0.487   1.494  0.3829  0.0116 -1.1136
 6166TIP3    H139913   0.842   0.412   1.552 -0.2356  0.3332 -0.7869
 6166TIP3    H239914   0.945   0.508   1.495  0.2850  0.4788  0.3656
 6167TIP3   OH239915   4.073   5.937  12.703  0.2477  0.4048 -0.3557
 6167TIP3    H139916   4.007   5.870  12.714 -0.2797  0.9532 -0.1010
 6167TIP3    H239917   4.096   5.934  12.610  0.0073  0.0831 -0.4070
 6168TIP3   OH239918   2.838   6.605   2.361  0.2855  0.2799 -0.2293
 6168TIP3    H139919   2.897   6.531   2.348  0.7516  0.4010  1.0228
 6168TIP3    H239920   2.780   6.604   2.285  1.6786 -0.0531 -1.3401
 6169TIP3   OH239921   4.782   5.306  16.795 -0.2700  0.1670 -0.6701
 6169TIP3    H139922   4.793   5.264  16.880  0.8797 -0.5381 -1.1476
 6169TIP3    H239923   4.834   5.253  16.734  0.0688  1.4596 -1.5528
 6170TIP3   OH239924   5.232   3.473  12.955  0.3924 -0.0950 -0.3340
 6170TIP3    H139925   5.146   3.432  12.943  1.1618 -1.2888 -2.3459
 6170TIP3    H239926   5.260   3.495  12.866  2.3048 -0.0336  0.2492
 6171TIP3   OH239927   3.452   0.080   3.884  0.2099 -0.3349  0.5588
 6171TIP3    H139928   3.476   0.074   3.976 -1.0028  0.7097  0.9876
 6171TIP3    H239929   3.459   0.174   3.864 -0.6328 -0.3904 -0.0698
 6172TIP3   OH239930   0.548   5.037   0.083  0.0099 -0.1245 -0.2603
 6172TIP3    H139931   0.519   5.128   0.082 -0.0345 -0.1332  0.1767
 6172TIP3    H239932   0.501   4.996   0.010  1.2539  0.5735 -1.4903
 6173TIP3   OH239933   2.138   2.195  15.719  0.0736 -0.7988  0.3298
 6173TIP3    H139934   2.080   2.144  15.776  0.0066 -0.8320  0.2334
 6173TIP3    H239935   2.088   2.275  15.701  0.1030 -0.7794  0.3359
 6174TIP3   OH239936   5.874   0.158   6.242 -0.0823  0.1327 -0.2030
 6174TIP3    H139937   5.888   0.075   6.287 -0.2204  0.0071 -0.3916
 6174TIP3    H239938   5.921   0.149   6.159 -0.3720  0.1173 -0.3673
 6175TIP3   OH239939   2.110   0.206   1.169 -0.6243 -0.0475 -0.3292
 6175TIP3    H139940   2.157   0.130   1.204 -0.8004 -0.6277 -1.3166
 6175TIP3    H239941   2.080   0.178   1.083  0.0941  1.4549 -1.1053
 6176TIP3   OH239942   2.051   0.032  16.936 -0.1098 -0.8656 -0.2830
 6176TIP3    H139943   2.094   0.018  16.851  0.4884  0.1541 -0.1690
 6176TIP3    H239944   1.981  -0.033  16.938  0.9050 -2.0367 -0.8404
 6177TIP3   OH239945   3.876   5.608   1.235 -0.1977  0.4143 -0.5640
 6177TIP3    H139946   3.815   5.550   1.189 -1.9025  0.0670  1.9585
 6177TIP3    H239947   3.914   5.662   1.166 -3.3444  0.6376 -2.2961
 6178TIP3   OH239948   5.841   0.561   4.964 -0.6366 -0.3032  0.2550
 6178TIP3    H139949   5.813   0.653   4.959  0.1270  0.0071  1.2601
 6178TIP3    H239950   5.780   0.514   4.907 -0.5557  0.9270 -0.9014
 6179TIP3   OH239951   5.193   2.082  10.490 -0.0036  0.5902  0.6912
 6179TIP3    H139952   5.157   2.007  10.537  0.5692 -0.2014 -0.1032
 6179TIP3    H239953   5.216   2.145  10.558  1.1227 -0.6729  1.5043
 6180TIP3   OH239954   4.087   6.332  16.249  0.1602 -0.0314 -0.7774
 6180TIP3    H139955   4.128   6.307  16.332  0.7636  1.0080 -0.7439
 6180TIP3    H239956   4.126   6.416  16.227  1.2805 -1.0548 -2.9954
 6181TIP3   OH239957   0.881   2.585  12.704 -0.0141  0.4401  0.1477
 6181TIP3    H139958   0.834   2.558  12.782  0.4341 -1.0313 -0.0688
 6181TIP3    H239959   0.929   2.664  12.731 -1.4191  1.1033  0.7701
 6182TIP3   OH239960   0.444   6.755   4.861 -0.0008  0.0629  0.1543
 6182TIP3    H139961   0.427   6.849   4.851  2.6557  0.4585 -1.6028
 6182TIP3    H239962   0.403   6.716   4.784  2.4621  0.4199 -1.4571
 6183TIP3   OH239963   1.286   4.555   2.388 -0.1487 -0.3711  0.5828
 6183TIP3    H139964   1.242   4.608   2.321  0.6140 -1.2947 -0.6960
 6183TIP3    H239965   1.375   4.590   2.390 -0.0127 -0.7213  0.6850
 6184TIP3   OH239966   4.444   3.363  13.325  0.0744 -0.3186  0.4617
 6184TIP3    H139967   4.388   3.309  13.381 -0.2818 -1.3360 -0.8414
 6184TIP3    H239968   4.527   3.315  13.320 -0.4229 -1.0643 -1.1409
 6185TIP3   OH239969   2.496   0.312  11.346 -0.5724  0.0889  0.2170
 6185TIP3    H139970   2.522   0.280  11.260  0.9987  0.1507  0.6434
 6185TIP3    H239971   2.569   0.367  11.374 -0.6411 -0.6675  1.9857
 6186TIP3   OH239972   6.136   1.567   1.226 -0.1723 -0.2216  0.6294
 6186TIP3    H139973   6.129   1.535   1.137  0.1521  0.3911  0.3740
 6186TIP3    H239974   6.200   1.510   1.268 -0.9213 -1.0131  0.7110
 6187TIP3   OH239975   3.005   3.239   0.239  0.1281  0.0090 -0.1361
 6187TIP3    H139976   2.918   3.216   0.207  0.5881  0.3947 -1.7675
 6187TIP3    H239977   3.022   3.325   0.200  0.8870  0.3398  0.8904
 6188TIP3   OH239978   4.758   3.298   0.059  0.0423 -0.0278 -0.2017
 6188TIP3    H139979   4.764   3.346   0.141 -1.1372  0.0320 -0.1380
 6188TIP3    H239980   4.777   3.362  -0.009  2.7650 -0.4429  0.0593
 6189TIP3   OH239981   1.133   2.869   0.847 -0.1651 -0.3999  0.0974
 6189TIP3    H139982   1.067   2.815   0.804 -0.5216 -0.0600  0.2089
 6189TIP3    H239983   1.085   2.914   0.916  0.2768 -0.4820  0.4652
 6190TIP3   OH239984   5.148   0.298   1.122  0.1223 -0.1386  0.5296
 6190TIP3    H139985   5.159   0.247   1.042 -2.1899 -1.6932  1.0921
 6190TIP3    H239986   5.160   0.389   1.095 -1.5677 -0.5319 -1.8248
 6191TIP3   OH239987   5.314   6.003   0.181  0.2234  0.2596  0.6337
 6191TIP3    H139988   5.390   6.039   0.134 -0.9876  1.1428 -0.7519
 6191TIP3    H239989   5.240   6.054   0.148 -1.2814 -1.9802  0.3337
 6192TIP3   OH239990   6.686   4.771   2.748  0.2713 -0.4820 -0.4881
 6192TIP3    H139991   6.610   4.766   2.807 -1.0092 -0.4972 -2.0829
 6192TIP3    H239992   6.720   4.860   2.759  1.2017 -1.0254  1.5827
 6193TIP3   OH239993   6.703   5.733  11.618 -0.3738  0.3785 -0.3378
 6193TIP3    H139994   6.779   5.689  11.581 -1.5389 -1.4980 -0.6568
 6193TIP3    H239995   6.705   5.710  11.711 -2.5074 -3.0694 -0.9180
 6194TIP3   OH239996   3.057   0.595   0.940  0.1481 -0.2052 -0.0951
 6194TIP3    H139997   3.038   0.518   0.886 -0.4171 -1.1844  1.4418
 6194TIP3    H239998   3.053   0.668   0.879  0.8153 -1.3841 -1.6300
 6195TIP3   OH239999   0.118   2.320   5.469  0.0650  0.4673  0.4001
 6195TIP3    H140000   0.050   2.387   5.466 -0.0624  0.3083 -0.9661
 6195TIP3    H240001   0.181   2.352   5.534 -0.9505  0.9541  1.1818
 6196TIP3   OH240002   2.326   4.235  14.279 -0.1544  0.0342  0.3937
 6196TIP3    H140003   2.402   4.186  14.311 -0.6372  0.8257  3.0333
 6196TIP3    H240004   2.303   4.293  14.352 -2.1382  1.2016 -1.0537
 6197TIP3   OH240005   4.394   2.752   0.372 -0.4622  0.0693  0.0131
 6197TIP3    H140006   4.307   2.764   0.410 -0.3428  1.5466 -0.1119
 6197TIP3    H240007   4.387   2.790   0.284  0.5059  0.9410  0.2921
 6198TIP3   OH240008   6.137   5.914   0.235 -0.4256 -0.0858 -0.5050
 6198TIP3    H140009   6.048   5.880   0.225 -0.4186 -0.6964  1.1733
 6198TIP3    H240010   6.188   5.841   0.269  0.4215  0.6134 -0.2186
 6199TIP3   OH240011   2.762   2.283  11.159  0.0330  1.3112  0.4977
 6199TIP3    H140012   2.694   2.335  11.115  0.7560  1.1300 -0.8548
 6199TIP3    H240013   2.717   2.202  11.185 -0.0097  0.6765 -1.4429
 6200TIP3   OH240014   1.310   5.169   5.862 -0.1259  0.3871  0.2864
 6200TIP3    H140015   1.369   5.245   5.862  2.7335 -1.6140  1.8570
 6200TIP3    H240016   1.252   5.184   5.937 -1.2102  2.0380 -0.8130
 6201TIP3   OH240017   5.989   1.040   2.445  0.4260  0.2574 -0.3402
 6201TIP3    H140018   6.033   0.958   2.422 -0.3612 -0.4540  0.6095
 6201TIP3    H240019   5.914   1.014   2.497 -0.1365  1.5658 -0.4443
 6202TIP3   OH240020   6.638   1.855   6.662 -0.4916 -0.3265 -0.5395
 6202TIP3    H140021   6.720   1.811   6.686 -0.8138 -0.6635 -0.0630
 6202TIP3    H240022   6.571   1.788   6.668 -0.8186 -0.0411 -0.8979
 6203TIP3   OH240023   5.201   1.911   1.500 -0.1173 -0.0140 -0.2817
 6203TIP3    H140024   5.285   1.905   1.455  1.5066  1.5628  2.2428
 6203TIP3    H240025   5.199   1.834   1.556  0.2904  0.5763  0.5714
 6204TIP3   OH240026   0.322   1.646   4.128 -0.3305 -0.5007  0.6466
 6204TIP3    H140027   0.298   1.723   4.077 -1.1036 -0.9784  0.2704
 6204TIP3    H240028   0.392   1.676   4.186 -0.5247  0.4422  0.4040
 6205TIP3   OH240029   5.223   3.319  15.350  0.1020 -0.2394  0.0105
 6205TIP3    H140030   5.146   3.319  15.408  0.2708  0.7258  0.2577
 6205TIP3    H240031   5.273   3.243  15.377 -1.0828 -1.2643 -0.5924
 6206TIP3   OH240032   2.257   0.497  15.445  0.1378  0.0341 -0.1684
 6206TIP3    H140033   2.229   0.405  15.450 -2.6182  0.4083 -4.0583
 6206TIP3    H240034   2.185   0.541  15.399  1.5747  4.1086  1.0783
 6207TIP3   OH240035   0.466   5.484   0.876 -0.4693 -0.4165 -0.0181
 6207TIP3    H140036   0.398   5.532   0.828 -1.1036 -1.2309  0.0472
 6207TIP3    H240037   0.426   5.461   0.959  0.6922  1.1550  1.0383
 6208TIP3   OH240038   1.267   6.220   2.655  0.1770  0.3559  0.2549
 6208TIP3    H140039   1.182   6.259   2.634  0.6706  1.2582 -0.1067
 6208TIP3    H240040   1.264   6.207   2.750  0.3537  2.1967  0.5544
 6209TIP3   OH240041   0.167   4.544   2.398 -0.0008 -0.0615  0.0304
 6209TIP3    H140042   0.188   4.621   2.451 -1.1687  0.1596  0.1954
 6209TIP3    H240043   0.072   4.547   2.387  0.0379 -0.9924 -0.7224
 6210TIP3   OH240044   3.876   5.608   4.923  0.2072 -0.2983  0.3273
 6210TIP3    H140045   3.794   5.561   4.940 -0.5740  1.4893  1.8356
 6210TIP3    H240046   3.911   5.627   5.011  2.0751 -0.7102 -0.2818
 6211TIP3   OH240047   1.727   2.472   2.748 -0.0725 -0.4526  0.1627
 6211TIP3    H140048   1.758   2.411   2.681 -0.0628 -0.0281 -0.2299
 6211TIP3    H240049   1.646   2.507   2.712  0.8965  1.2028 -0.5221
 6212TIP3   OH240050   4.412   3.811   2.112 -0.5480  0.0779 -0.4808
 6212TIP3    H140051   4.404   3.903   2.134 -0.2923  1.3197 -4.6944
 6212TIP3    H240052   4.486   3.807   2.051 -1.8919 -2.4840 -2.1639
 6213TIP3   OH240053   3.049   6.068  13.085 -0.0822 -0.1568  0.4439
 6213TIP3    H140054   2.963   6.108  13.071  0.1727  0.2538  0.0449
 6213TIP3    H240055   3.063   6.012  13.009 -0.3334 -0.8412  0.8857
 6214TIP3   OH240056   5.422   0.325  13.249  0.0958 -0.8463 -0.0069
 6214TIP3    H140057   5.396   0.407  13.291  1.2297 -0.4065 -0.1169
 6214TIP3    H240058   5.444   0.267  13.322 -0.7917 -1.0926  0.0734
 6215TIP3   OH240059   5.658   3.485   2.871  0.2616  0.4046 -0.7444
 6215TIP3    H140060   5.702   3.526   2.796 -1.1306  1.8399 -0.8200
 6215TIP3    H240061   5.730   3.460   2.929  1.3778 -0.6941 -2.4987
 6216TIP3   OH240062   2.519   6.152   0.693 -0.3836 -0.0444  0.5122
 6216TIP3    H140063   2.523   6.109   0.607 -0.1373  0.0346  0.4842
 6216TIP3    H240064   2.607   6.141   0.729 -0.4202  0.1298  0.6531
 6217TIP3   OH240065   5.038   2.463  16.189  0.4280  0.5332 -0.1757
 6217TIP3    H140066   4.983   2.450  16.266  0.6352  0.5772 -0.0180
 6217TIP3    H240067   5.108   2.399  16.199  1.0559  1.2734  0.2327
 6218TIP3   OH240068   4.533   5.166   2.121 -0.0729 -0.2402  0.6080
 6218TIP3    H140069   4.607   5.140   2.067 -0.0405 -1.8771  1.3748
 6218TIP3    H240070   4.572   5.215   2.194  0.2204 -0.8128  0.8361
 6219TIP3   OH240071   6.420   5.760  11.852 -0.1462 -0.3333  0.2650
 6219TIP3    H140072   6.462   5.761  11.938  1.4551 -0.1209 -0.4755
 6219TIP3    H240073   6.493   5.748  11.791 -1.1150  0.6681 -1.1326
 6220TIP3   OH240074   0.680   2.181  16.707  0.1931  0.6443  0.1937
 6220TIP3    H140075   0.592   2.165  16.673  0.5239  1.0287 -0.8501
 6220TIP3    H240076   0.731   2.105  16.678  0.2590  0.5108  0.6463
 6221TIP3   OH240077   6.251   3.515  14.655 -0.5007 -0.0604  0.2646
 6221TIP3    H140078   6.160   3.542  14.664 -0.6443 -0.0176 -1.1102
 6221TIP3    H240079   6.301   3.591  14.683 -0.8898  0.1375  0.4311
 6222TIP3   OH240080   3.600   0.629   2.712 -0.6497 -0.3005  0.2670
 6222TIP3    H140081   3.523   0.643   2.656  0.0006 -0.1323 -0.5943
 6222TIP3    H240082   3.667   0.594   2.654  0.2499  0.4889  0.7917
 6223TIP3   OH240083   5.270   3.879  15.255 -0.2011  0.4912 -0.3263
 6223TIP3    H140084   5.299   3.956  15.303 -0.3691  0.3590 -0.0112
 6223TIP3    H240085   5.340   3.815  15.269 -0.3328  0.3919 -0.1012
 6224TIP3   OH240086   3.720   2.744   4.555  0.1643  0.0649  0.8966
 6224TIP3    H140087   3.705   2.797   4.476 -2.4302 -2.0322 -0.1819
 6224TIP3    H240088   3.795   2.689   4.533 -0.2023 -0.1209  0.0688
 6225TIP3   OH240089   3.297   2.255  14.629 -0.3023 -0.1370 -0.0999
 6225TIP3    H140090   3.322   2.248  14.537  2.0508 -0.3338  0.4739
 6225TIP3    H240091   3.380   2.268  14.675 -1.2169 -1.5922  2.1554
 6226TIP3   OH240092   5.747   1.165   3.268  0.2911  0.1038 -0.2580
 6226TIP3    H140093   5.808   1.232   3.238  1.0060 -0.4439 -0.0607
 6226TIP3    H240094   5.795   1.119   3.337 -1.1227  1.0180  1.4164
 6227TIP3   OH240095   3.150   0.711   5.718 -0.1049 -0.1608 -0.1639
 6227TIP3    H140096   3.162   0.702   5.813 -0.4446 -1.2516 -0.2091
 6227TIP3    H240097   3.232   0.678   5.680 -1.4445 -3.8133 -0.3396
 6228TIP3   OH240098   5.685   3.458   1.956  0.0052  0.0688  0.4358
 6228TIP3    H140099   5.742   3.397   2.002 -0.7154 -0.0301  1.2185
 6228TIP3    H240100   5.744   3.526   1.923  0.7399 -0.7136  0.0764
 6229TIP3   OH240101   5.067   5.803  14.410  0.2811 -0.1773  0.2117
 6229TIP3    H140102   5.032   5.891  14.396 -2.3290 -0.8832  1.4763
 6229TIP3    H240103   5.049   5.785  14.502  1.7596 -1.6417  0.2561
 6230TIP3   OH240104   1.453   2.314  11.305  0.0952  0.2515  0.5281
 6230TIP3    H140105   1.513   2.387  11.325  0.4473 -0.4913  2.3417
 6230TIP3    H240106   1.392   2.312  11.379 -1.0260 -0.2058 -0.3754
 6231TIP3   OH240107   4.559   6.609  14.589  0.0384  0.2584  0.6690
 6231TIP3    H140108   4.470   6.634  14.564  0.5031  0.8121 -0.4959
 6231TIP3    H240109   4.613   6.681  14.559  1.0117 -0.5650  0.4121
 6232TIP3   OH240110   3.542   6.571  15.947 -0.3734  0.9504 -0.1417
 6232TIP3    H140111   3.450   6.595  15.947 -0.2532  1.4665 -1.2578
 6232TIP3    H240112   3.543   6.480  15.916 -0.5286  0.8142  0.2477
 6233TIP3   OH240113   4.518   5.067  14.716 -0.5171  0.3548  0.2983
 6233TIP3    H140114   4.463   5.065  14.638  0.2354  1.2568 -0.2883
 6233TIP3    H240115   4.513   4.979  14.752 -0.0011 -0.4196 -1.4164
 6234TIP3   OH240116   5.509   2.094  14.846  0.1053  0.3469  0.4566
 6234TIP3    H140117   5.509   2.028  14.915 -0.0549 -2.1859 -1.7541
 6234TIP3    H240118   5.569   2.059  14.779 -0.5417  2.0966 -1.1437
 6235TIP3   OH240119   2.158   4.655   5.477  0.1112  0.3664 -0.2540
 6235TIP3    H140120   2.237   4.689   5.434  1.0195 -0.2376  0.8809
 6235TIP3    H240121   2.128   4.727   5.531  1.5235 -0.2645  1.4634
 6236TIP3   OH240122   3.490   4.749  10.603 -0.4398  0.1001 -0.5330
 6236TIP3    H140123   3.544   4.827  10.612 -2.0171  1.3364 -1.1605
 6236TIP3    H240124   3.410   4.770  10.651 -0.1304 -1.9637  1.0171
 6237TIP3   OH240125   1.448   4.532  12.280 -0.0833 -0.1492 -0.0200
 6237TIP3    H140126   1.494   4.593  12.222 -1.9702  1.3317 -0.0928
 6237TIP3    H240127   1.483   4.446  12.258  2.4549  0.8331 -0.1675
 6238TIP3   OH240128   6.364   0.167  11.618  0.3034 -0.3378  0.3435
 6238TIP3    H140129   6.303   0.203  11.554  0.9348 -3.0951 -2.0257
 6238TIP3    H240130   6.433   0.233  11.625 -0.9222  1.0478 -0.0044
 6239TIP3   OH240131   1.243   3.319  13.936 -0.4918 -0.1368 -0.2351
 6239TIP3    H140132   1.306   3.353  13.999 -1.5936  0.4538  0.5788
 6239TIP3    H240133   1.196   3.396  13.904 -1.6281 -0.6612  0.0986
 6240TIP3   OH240134   3.431   3.302   0.306 -0.7312 -0.1431  0.2520
 6240TIP3    H140135   3.391   3.327   0.223 -1.5943  0.8542  0.9513
 6240TIP3    H240136   3.360   3.261   0.356 -0.7888  1.2201  1.3294
 6241TIP3   OH240137   4.272   3.189   5.232  0.3331  0.8367 -0.2448
 6241TIP3    H140138   4.336   3.118   5.241 -2.1932 -1.8703 -1.8704
 6241TIP3    H240139   4.260   3.197   5.137 -2.2514  0.6686  0.0053
 6242TIP3   OH240140   2.713   4.190  11.744  0.4572 -0.1286  0.0079
 6242TIP3    H140141   2.730   4.248  11.670 -0.8713  0.6400  0.2883
 6242TIP3    H240142   2.633   4.144  11.721  0.7721 -0.8854  0.3869
 6243TIP3   OH240143   1.379   3.273  17.179  0.0127 -0.3882 -0.5157
 6243TIP3    H140144   1.461   3.307  17.214 -0.2976  2.0261 -1.8545
 6243TIP3    H240145   1.397   3.181  17.158  1.7942 -0.3922  0.8590
 6244TIP3   OH240146   4.719   0.341   3.154  0.4615  0.6156 -0.1974
 6244TIP3    H140147   4.709   0.375   3.065  0.7350 -1.5068 -1.1016
 6244TIP3    H240148   4.637   0.295   3.172  1.7024 -2.0418 -0.8416
 6245TIP3   OH240149   3.888   1.205   1.722 -0.4385  0.1839 -0.0582
 6245TIP3    H140150   3.852   1.216   1.810 -0.1439  0.1535  0.0669
 6245TIP3    H240151   3.978   1.237   1.729 -0.2189 -0.4038 -0.1990
 6246TIP3   OH240152   6.037   1.233  13.775 -0.0974 -0.7421  0.1093
 6246TIP3    H140153   5.972   1.199  13.837  0.8311  1.2518  2.3027
 6246TIP3    H240154   6.121   1.222  13.820  0.4620  2.2092 -0.0576
 6247TIP3   OH240155   6.221   3.805  16.549  0.4768  0.6105  0.1823
 6247TIP3    H140156   6.154   3.871  16.569 -0.0558 -0.1238  0.9172
 6247TIP3    H240157   6.194   3.728  16.599  0.8133 -0.3276 -1.0189
 6248TIP3   OH240158   6.720   2.156  14.850  0.0972  1.1372 -0.0688
 6248TIP3    H140159   6.678   2.196  14.926 -0.6279  1.1088 -0.4518
 6248TIP3    H240160   6.771   2.084  14.886 -0.7062  0.7593  0.3365
 6249TIP3   OH240161   5.204   0.080   4.837  0.5126  0.3214 -0.3774
 6249TIP3    H140162   5.168   0.080   4.925  0.2886  0.1601 -0.4676
 6249TIP3    H240163   5.241   0.167   4.826  0.2053  0.4678 -0.2623
 6250TIP3   OH240164   1.488   0.461  14.829  0.3071  0.8420  0.4806
 6250TIP3    H140165   1.417   0.463  14.893 -0.2555  2.8016 -0.1146
 6250TIP3    H240166   1.444   0.471  14.744  1.2588  2.3786  0.1238
 6251TIP3   OH240167   4.294   0.686   0.133  0.2009  0.2009 -0.0353
 6251TIP3    H140168   4.308   0.743   0.210  0.4570  0.6526 -0.4106
 6251TIP3    H240169   4.265   0.603   0.170 -0.6238  0.7121  0.5008
 6252TIP3   OH240170   1.805   2.229  14.974  0.0501 -0.1289 -0.2500
 6252TIP3    H140171   1.777   2.230  14.883 -2.1173 -0.4081  0.3398
 6252TIP3    H240172   1.725   2.208  15.023  1.2403 -0.3928  1.6815
 6253TIP3   OH240173   5.471   1.349  11.625  0.1234 -0.4209  0.3325
 6253TIP3    H140174   5.552   1.393  11.599 -0.2054  0.4978  0.8387
 6253TIP3    H240175   5.403   1.395  11.576 -0.2870  0.0416  1.3161
 6254TIP3   OH240176   3.589   2.019  11.137  0.1530  1.1324  0.3235
 6254TIP3    H140177   3.612   1.978  11.053 -3.1901 -2.4692  0.8625
 6254TIP3    H240178   3.527   2.089  11.114  0.6435  1.3713 -0.2847
 6255TIP3   OH240179   1.872   0.864   3.788  0.4034 -0.2422  0.0523
 6255TIP3    H140180   1.814   0.888   3.715 -1.3227 -1.6792  0.8577
 6255TIP3    H240181   1.941   0.931   3.787 -2.2195  2.7129  0.1402
 6256TIP3   OH240182   1.113   0.290  14.269 -0.4222  0.4255  0.3704
 6256TIP3    H140183   1.044   0.341  14.227 -1.3680 -0.6365  0.5988
 6256TIP3    H240184   1.169   0.262  14.196 -0.6647  0.6282  0.1028
 6257TIP3   OH240185   4.102   2.146  12.612  0.0509  0.1036 -0.5025
 6257TIP3    H140186   4.015   2.151  12.573 -1.4967  0.6335  2.6721
 6257TIP3    H240187   4.116   2.052  12.627 -0.6482  0.1169  0.2869
 6258TIP3   OH240188   4.047   6.185  11.155 -0.1001 -0.2807 -0.0402
 6258TIP3    H140189   4.037   6.093  11.181  0.1853 -0.2591  0.1529
 6258TIP3    H240190   4.001   6.234  11.224  0.2930 -0.2463  0.2033
 6259TIP3   OH240191   0.716   3.308  16.994  0.7288  0.4966 -0.2786
 6259TIP3    H140192   0.802   3.349  17.007  2.2218 -2.0910 -1.1332
 6259TIP3    H240193   0.682   3.296  17.082  1.1165  1.7726  0.0661
 6260TIP3   OH240194   2.164   4.020   0.458 -0.0120  0.5012  0.2705
 6260TIP3    H140195   2.189   3.990   0.371  0.7294  2.4165 -0.2402
 6260TIP3    H240196   2.180   3.946   0.515 -2.8357 -1.6960 -1.5008
 6261TIP3   OH240197   1.860   1.386  14.587 -0.0343 -0.1378 -0.1330
 6261TIP3    H140198   1.826   1.307  14.629  0.6877 -0.0134  0.7214
 6261TIP3    H240199   1.822   1.458  14.638  0.3935  0.0310 -0.0471
 6262TIP3   OH240200   2.028   2.973   3.274 -0.1131 -0.0427  0.7050
 6262TIP3    H140201   1.974   3.014   3.208  0.7103  0.2357  0.1866
 6262TIP3    H240202   1.976   2.899   3.307 -1.5101  1.2486  1.4874
 6263TIP3   OH240203   1.206   2.022   3.232  0.0400  0.1419  0.5717
 6263TIP3    H140204   1.240   2.028   3.321  2.0634 -1.2667 -0.0314
 6263TIP3    H240205   1.283   1.998   3.179 -1.0143  1.3036 -1.6122
 6264TIP3   OH240206   2.793   2.251   1.623 -0.1696 -0.2132 -0.0338
 6264TIP3    H140207   2.704   2.230   1.596 -0.7981  2.7047 -0.5430
 6264TIP3    H240208   2.788   2.260   1.718 -0.6837  0.9337 -0.1571
 6265TIP3   OH240209   3.323   6.192  16.578  0.2944 -0.1304  0.4153
 6265TIP3    H140210   3.325   6.258  16.648  0.5523 -0.4256  0.6892
 6265TIP3    H240211   3.232   6.192  16.548 -0.0403 -0.6225  1.3603
 6266TIP3   OH240212   4.680   4.536   5.931 -0.4291 -0.3144 -0.4120
 6266TIP3    H140213   4.654   4.575   6.015  0.3578  0.7067 -0.6116
 6266TIP3    H240214   4.630   4.455   5.925 -0.4645 -0.4359  1.0747
 6267TIP3   OH240215   0.867   1.082   1.457 -0.2567 -0.1447 -0.2522
 6267TIP3    H140216   0.839   1.174   1.455  0.3955  0.1418  1.6082
 6267TIP3    H240217   0.812   1.042   1.525  0.4411 -0.7686 -0.0427
 6268TIP3   OH240218   3.203   2.568  12.330  0.1333 -0.2538 -0.2796
 6268TIP3    H140219   3.209   2.543  12.237 -0.4035 -1.1333 -0.0825
 6268TIP3    H240220   3.112   2.554  12.353 -1.0311  4.5404 -0.8804
 6269TIP3   OH240221   3.578   0.829  14.793 -0.5861  0.3780  0.1477
 6269TIP3    H140222   3.531   0.755  14.832 -1.4401  0.7163 -0.2242
 6269TIP3    H240223   3.564   0.902  14.853 -0.9022  0.5897 -0.1786
 6270TIP3   OH240224   0.012   0.624  14.245 -0.2979 -0.1676  0.2846
 6270TIP3    H140225   0.063   0.564  14.191  0.2694 -0.7455  1.4106
 6270TIP3    H240226  -0.065   0.646  14.192  0.5602 -0.1685 -1.0001
 6271TIP3   OH240227   6.196   6.704   5.547 -0.3144  0.5242 -0.1562
 6271TIP3    H140228   6.189   6.609   5.546  0.4259  0.4728 -0.5557
 6271TIP3    H240229   6.205   6.729   5.455  0.8274  0.8701  0.0355
 6272TIP3   OH240230   4.403   3.218  12.325  0.2074  0.7834  0.2484
 6272TIP3    H140231   4.421   3.306  12.357  2.4195  1.1224 -1.6554
 6272TIP3    H240232   4.476   3.198  12.266 -1.6734 -1.2099 -1.6265
 6273TIP3   OH240233   2.809   3.956   4.622 -0.1299  0.0742 -0.6466
 6273TIP3    H140234   2.777   4.027   4.566  1.2542  0.6991 -0.6917
 6273TIP3    H240235   2.863   4.000   4.687  0.8915 -0.9420 -0.7764
 6274TIP3   OH240236   0.223   1.236  13.287 -0.0345 -0.5339  0.3892
 6274TIP3    H140237   0.225   1.151  13.331 -0.2170 -0.8709 -0.2447
 6274TIP3    H240238   0.149   1.231  13.227 -0.0239  0.0621  0.3141
 6275TIP3   OH240239   6.465   1.291   3.055  0.4493  0.0461 -0.2701
 6275TIP3    H140240   6.455   1.217   3.115  2.1535  0.0824  0.1055
 6275TIP3    H240241   6.499   1.362   3.109 -0.0843  0.7656 -0.8605
 6276TIP3   OH240242   4.252   5.620   1.930  0.4090 -0.1501 -0.3526
 6276TIP3    H140243   4.260   5.650   1.840  0.9969  2.1534  0.4027
 6276TIP3    H240244   4.233   5.526   1.922 -2.1206  0.4165 -2.9214
 6277TIP3   OH240245   0.633   2.917   3.351  0.2486  0.5585 -0.5160
 6277TIP3    H140246   0.641   2.896   3.444 -0.2479 -0.6128 -0.7207
 6277TIP3    H240247   0.540   2.905   3.332  0.5015 -0.1527 -1.3713
 6278TIP3   OH240248   0.225   3.102  15.722  0.5519 -0.6359  0.0905
 6278TIP3    H140249   0.222   3.029  15.784 -0.3316  0.5273  1.4446
 6278TIP3    H240250   0.254   3.177  15.773 -0.9780  0.5486 -0.6928
 6279TIP3   OH240251   2.494   0.007   1.963 -0.2010 -0.4130 -0.6454
 6279TIP3    H140252   2.590   0.003   1.965 -0.1845  0.0055  0.0333
 6279TIP3    H240253   2.467  -0.070   1.915  0.4818 -0.5798 -0.7700
 6280TIP3   OH240254   3.604   2.492   5.520  0.5639  0.8190  0.2966
 6280TIP3    H140255   3.624   2.400   5.505  0.3844  1.0468 -1.5254
 6280TIP3    H240256   3.517   2.504   5.482 -0.1494  1.3767  2.0293
 6281TIP3   OH240257   3.614   2.009  10.697  0.5398 -0.0688  0.1417
 6281TIP3    H140258   3.658   2.084  10.658  1.0895 -0.3498  0.2135
 6281TIP3    H240259   3.658   1.997  10.781  0.3233 -0.3501  0.2137
 6282TIP3   OH240260   2.190   1.525  13.881 -0.5434  0.2722 -0.4050
 6282TIP3    H140261   2.159   1.596  13.938 -1.4832 -0.4064 -0.0619
 6282TIP3    H240262   2.141   1.448  13.909 -1.3495 -0.0015 -2.4131
 6283TIP3   OH240263   1.051   3.139  14.577 -0.3736 -0.1927  0.0327
 6283TIP3    H140264   1.092   3.140  14.491  2.5798  0.1486  1.2794
 6283TIP3    H240265   1.004   3.223  14.583 -1.2006 -0.5280 -1.4520
 6284TIP3   OH240266   4.119   2.405   6.034  0.4042 -0.5918 -0.2658
 6284TIP3    H140267   4.068   2.451   6.101 -1.0215  0.6856 -2.1341
 6284TIP3    H240268   4.161   2.474   5.984  0.9893 -1.4930 -1.0539
 6285TIP3   OH240269   0.374   2.172   4.910  0.4210 -0.8204  0.4048
 6285TIP3    H140270   0.367   2.195   4.818  1.5115  0.9456  0.7192
 6285TIP3    H240271   0.287   2.139   4.933  0.2190 -1.6085 -1.2975
 6286TIP3   OH240272   1.985   4.544  14.373  0.5418 -0.6538  0.3016
 6286TIP3    H140273   1.920   4.497  14.321 -1.0487  2.2556 -0.5864
 6286TIP3    H240274   1.950   4.542  14.462  0.9762 -1.8873  0.4551
 6287TIP3   OH240275   0.306   3.855  10.893 -0.2207  0.7324  0.4457
 6287TIP3    H140276   0.393   3.891  10.874 -0.3554  1.4344  1.1663
 6287TIP3    H240277   0.303   3.774  10.841  1.3576  0.0228  1.4007
 6288TIP3   OH240278   3.952   6.348   0.398 -0.0815 -0.2141  0.6594
 6288TIP3    H140279   4.001   6.317   0.474 -0.5892 -1.8604  0.3559
 6288TIP3    H240280   3.900   6.421   0.431  1.4091  0.5735  1.3350
 6289TIP3   OH240281   5.065   5.953  14.072 -0.4035  0.7209 -0.9668
 6289TIP3    H140282   5.154   5.932  14.099  0.0175  0.9884 -2.0576
 6289TIP3    H240283   5.018   5.971  14.153  0.9009  1.9493 -0.4450
 6290TIP3   OH240284   4.994   6.655   4.590 -0.2035  0.1114 -0.4778
 6290TIP3    H140285   4.989   6.657   4.495 -0.6079 -0.2035 -0.4654
 6290TIP3    H240286   4.989   6.562   4.613 -5.0421  0.2690  0.0660
 6291TIP3   OH240287   6.519   4.342  13.806 -0.0953  0.2001  0.0184
 6291TIP3    H140288   6.496   4.286  13.880 -1.9667 -1.5097 -1.7373
 6291TIP3    H240289   6.481   4.427  13.827 -0.2343 -0.1429  1.2056
 6292TIP3   OH240290   5.089   4.550  15.903  0.0220  0.4776  0.1851
 6292TIP3    H140291   5.004   4.528  15.942 -0.3601  0.9307 -0.3755
 6292TIP3    H240292   5.080   4.641  15.875  1.5075  1.3841  2.3191
 6293TIP3   OH240293   5.115   5.763   4.871  0.1250  0.2858  0.1927
 6293TIP3    H140294   5.182   5.748   4.938 -1.1643 -2.5030  0.9969
 6293TIP3    H240295   5.131   5.853   4.841  2.5636  0.6204  2.1572
 6294TIP3   OH240296   5.343   4.415  15.951 -0.3584  0.7356 -0.1824
 6294TIP3    H140297   5.394   4.490  15.983  0.5863  0.5371 -1.1828
 6294TIP3    H240298   5.254   4.449  15.945 -0.2760  1.2450  1.0991
 6295TIP3   OH240299   2.187   3.346  14.075 -0.1182  0.1651  0.7590
 6295TIP3    H140300   2.250   3.413  14.102 -1.6169  0.8642  2.7783
 6295TIP3    H240301   2.222   3.264  14.111 -0.9867  0.7667  3.1588
 6296TIP3   OH240302   0.209   2.835   3.455  0.0817  0.1086  0.0728
 6296TIP3    H140303   0.279   2.844   3.520 -0.1307 -0.2852  0.3619
 6296TIP3    H240304   0.162   2.756   3.481 -3.0631  2.4827  2.3806
 6297TIP3   OH240305   2.594   1.767  15.196 -0.3592 -0.1168  0.3596
 6297TIP3    H140306   2.644   1.810  15.265  0.4709  2.6615 -1.7711
 6297TIP3    H240307   2.509   1.749  15.236  0.6693 -0.3550  2.6139
 6298TIP3   OH240308   1.561   1.298   0.338 -0.2988  0.2467 -0.1384
 6298TIP3    H140309   1.543   1.275   0.247 -1.1685 -0.5111  0.2099
 6298TIP3    H240310   1.595   1.387   0.334  0.4924 -0.0789 -1.2777
 6299TIP3   OH240311   4.514   4.872   3.588 -0.1513 -0.0506 -0.1852
 6299TIP3    H140312   4.562   4.917   3.658  1.0077  1.8069 -2.0743
 6299TIP3    H240313   4.458   4.810   3.634  0.0777  1.5297  2.4275
 6300TIP3   OH240314   5.354   6.588   3.790  0.1248  0.1572  0.3373
 6300TIP3    H140315   5.339   6.673   3.830 -0.1609  0.1574  0.2369
 6300TIP3    H240316   5.403   6.538   3.855 -0.1831  0.2151  0.6114
 6301TIP3   OH240317   2.557   5.236   2.080 -0.4965 -0.1429  0.2617
 6301TIP3    H140318   2.597   5.160   2.037 -0.8819 -0.5776  0.6592
 6301TIP3    H240319   2.512   5.282   2.009 -2.0244 -1.4362  0.3311
 6302TIP3   OH240320   1.507   6.340  12.334 -0.1617  0.7961 -0.1229
 6302TIP3    H140321   1.439   6.312  12.394 -0.9568 -0.6459 -1.6218
 6302TIP3    H240322   1.532   6.261  12.286  1.3180  1.6435 -0.8424
 6303TIP3   OH240323   0.678   1.464  16.213 -0.2594  0.2443 -0.1329
 6303TIP3    H140324   0.644   1.397  16.273 -0.5126  0.3348 -0.1734
 6303TIP3    H240325   0.742   1.512  16.265 -1.0447  0.8264  0.3202
 6304TIP3   OH240326   2.913   0.149  17.210 -0.1754 -0.1294  0.5325
 6304TIP3    H140327   2.950   0.237  17.195 -0.8437  0.3929  1.7987
 6304TIP3    H240328   2.821   0.165  17.231 -0.2546 -1.1149  0.9875
 6305TIP3   OH240329   5.669   4.182   0.395 -0.2718  0.4695 -0.1336
 6305TIP3    H140330   5.703   4.271   0.384  1.8646 -0.2691 -0.0683
 6305TIP3    H240331   5.742   4.125   0.369 -0.6938 -1.2724  2.1232
 6306TIP3   OH240332   4.807   6.731  11.684  0.2750  0.2124 -0.0913
 6306TIP3    H140333   4.794   6.640  11.710  0.5124 -0.1320 -1.1062
 6306TIP3    H240334   4.769   6.736  11.596  2.2188  0.5059 -0.9713
 6307TIP3   OH240335   3.262   5.950   1.722 -0.3152 -0.0451 -0.1637
 6307TIP3    H140336   3.195   6.001   1.677  0.6565  1.3756 -0.0554
 6307TIP3    H240337   3.283   5.878   1.662 -1.1504  0.1224 -0.6593
 6308TIP3   OH240338   4.720   4.925   0.910  0.3414  0.1432  0.7681
 6308TIP3    H140339   4.627   4.923   0.930 -0.0325  1.0424 -0.7661
 6308TIP3    H240340   4.730   4.995   0.846  1.4516 -2.3793 -2.0653
 6309TIP3   OH240341   6.533   2.067  14.389  0.3761  0.4834  0.1755
 6309TIP3    H140342   6.575   2.077  14.303 -2.2468 -1.4523 -1.4671
 6309TIP3    H240343   6.584   1.998  14.432 -0.0707 -0.6768 -1.0958
 6310TIP3   OH240344   0.186   0.201  11.168  0.5516 -0.1968  0.6043
 6310TIP3    H140345   0.273   0.192  11.128  0.4028  0.8408  0.0193
 6310TIP3    H240346   0.194   0.279  11.224 -0.0536  0.0094  0.4037
 6311TIP3   OH240347   1.290   4.981  16.912 -0.1130 -0.1398  0.1984
 6311TIP3    H140348   1.337   5.061  16.888 -0.8528  0.4078  0.5317
 6311TIP3    H240349   1.358   4.923  16.948  0.0450  1.4400  2.6921
 6312TIP3   OH240350   3.802   5.514  14.420 -0.0988 -0.3859  0.3386
 6312TIP3    H140351   3.719   5.562  14.422 -0.8584 -1.4700 -2.1314
 6312TIP3    H240352   3.844   5.541  14.339  1.3396 -0.9236  0.8670
 6313TIP3   OH240353   5.102   0.223  10.524 -0.6342 -0.4179  0.4864
 6313TIP3    H140354   5.182   0.274  10.533 -0.6484 -0.4038  0.5322
 6313TIP3    H240355   5.050   0.246  10.601 -2.0154  1.9268 -1.0142
 6314TIP3   OH240356   5.277   3.322   4.313 -0.3561 -0.4029 -0.9372
 6314TIP3    H140357   5.295   3.300   4.405 -1.3725  0.0937 -0.5984
 6314TIP3    H240358   5.297   3.241   4.265 -0.2344 -0.8122 -0.2157
 6315TIP3   OH240359   2.904   4.071   2.983  0.3944 -0.9011  0.4007
 6315TIP3    H140360   2.936   4.075   2.892 -0.1540  0.8118  0.2457
 6315TIP3    H240361   2.854   3.989   2.987  3.3846 -2.9288  0.2358
 6316TIP3   OH240362   3.763   1.742  13.434 -0.2753  0.1118 -0.3444
 6316TIP3    H140363   3.767   1.655  13.473 -0.6909  0.1813 -0.1434
 6316TIP3    H240364   3.685   1.782  13.472 -0.1806  0.5114 -0.5634
 6317TIP3   OH240365   1.165   5.255   0.917 -0.8009 -0.0202  0.4526
 6317TIP3    H140366   1.160   5.192   0.990 -1.4746 -1.5922 -0.8769
 6317TIP3    H240367   1.083   5.304   0.921 -2.1624 -2.0241 -0.8165
 6318TIP3   OH240368   3.041   6.591  16.417 -0.2336  0.1495  0.2264
 6318TIP3    H140369   3.069   6.590  16.326  0.8299  0.2064  0.5439
 6318TIP3    H240370   3.060   6.680  16.446 -3.0663  1.0162 -0.2233
 6319TIP3   OH240371   3.114   4.013   1.314  0.5938  0.9749  0.2198
 6319TIP3    H140372   3.192   3.957   1.309  0.0858  0.1668  0.9557
 6319TIP3    H240373   3.098   4.024   1.408 -0.6090  0.4864  0.0952
 6320TIP3   OH240374   1.840   2.428  11.272  0.0679  0.2872 -0.0922
 6320TIP3    H140375   1.802   2.365  11.333  0.2736  1.1282  0.9516
 6320TIP3    H240376   1.908   2.473  11.323 -2.1337  3.5189  0.3141
 6321TIP3   OH240377   6.190   5.218   1.984 -0.3727 -0.1673  0.0977
 6321TIP3    H140378   6.118   5.245   2.040  0.1589  1.2188  0.1516
 6321TIP3    H240379   6.151   5.213   1.896 -0.6527  0.1139  0.2021
 6322TIP3   OH240380   2.231   6.714  14.775  0.3649 -0.4841  0.3029
 6322TIP3    H140381   2.164   6.721  14.843 -0.0841  1.4649 -0.3011
 6322TIP3    H240382   2.182   6.701  14.694  0.7624 -0.1280 -0.0006
 6323TIP3   OH240383   4.910   2.650  10.558 -0.1951 -0.1339  0.0423
 6323TIP3    H140384   4.906   2.595  10.479  2.1641 -0.5514  0.1450
 6323TIP3    H240385   4.999   2.638  10.591 -0.7055  1.0945  2.0330
 6324TIP3   OH240386   2.594   2.240   0.096  0.5712  0.4466  0.7442
 6324TIP3    H140387   2.619   2.274   0.010  2.1387 -2.5475 -0.1295
 6324TIP3    H240388   2.573   2.317   0.147  1.3152  2.4725 -1.7943
 6325TIP3   OH240389   3.652   5.603   3.873 -0.2649 -0.0605 -0.9433
 6325TIP3    H140390   3.647   5.576   3.965  1.2967  0.4624 -0.6860
 6325TIP3    H240391   3.731   5.656   3.867  0.4561 -1.2557 -2.8932
 6326TIP3   OH240392   0.840   3.557  16.677 -0.1278  0.1069  0.5265
 6326TIP3    H140393   0.909   3.497  16.706 -0.0817  0.0048  0.2128
 6326TIP3    H240394   0.831   3.619  16.749 -0.8758 -0.8579  1.2856
 6327TIP3   OH240395   3.155   0.045  11.398  0.2077  0.0454  0.3605
 6327TIP3    H140396   3.113  -0.001  11.325 -2.8350 -0.6317  2.3155
 6327TIP3    H240397   3.193  -0.024  11.451  0.9841  0.3778  0.2427
 6328TIP3   OH240398   1.208   4.785   5.555  0.5163 -0.2047  0.1522
 6328TIP3    H140399   1.269   4.758   5.486  0.1700 -0.4297 -0.0677
 6328TIP3    H240400   1.209   4.713   5.617  0.2437 -0.3490 -0.0067
 6329TIP3   OH240401   5.545   3.816   4.697 -0.3190 -0.3152  0.5771
 6329TIP3    H140402   5.482   3.750   4.668  0.7573 -0.4203 -1.7606
 6329TIP3    H240403   5.629   3.783   4.666  0.6123  0.8005  1.8569
 6330TIP3   OH240404   2.830   3.477  14.975  0.0633  0.8535  0.5639
 6330TIP3    H140405   2.892   3.542  15.006  1.6041 -0.4154  0.2822
 6330TIP3    H240406   2.843   3.475  14.880 -1.5867  1.7161  0.2990
 6331TIP3   OH240407   2.218   4.395   5.464  0.9636  0.1719  0.2196
 6331TIP3    H140408   2.190   4.481   5.496 -2.3636  0.1331 -2.0254
 6331TIP3    H240409   2.173   4.333   5.520  0.8920 -0.0260 -0.0537
 6332TIP3   OH240410   4.833   2.584  15.308  0.2723  0.2020  0.3392
 6332TIP3    H140411   4.802   2.528  15.238  1.3700 -3.1571  2.2902
 6332TIP3    H240412   4.759   2.640  15.329 -1.6780 -1.9230 -0.4588
 6333TIP3   OH240413   5.233   1.520   5.230 -0.0521 -0.3776  0.1674
 6333TIP3    H140414   5.288   1.443   5.231  2.0512  0.9684 -1.7499
 6333TIP3    H240415   5.263   1.570   5.154 -2.9122  1.2052 -0.0708
 6334TIP3   OH240416   0.962   2.296  13.049  0.1262  0.3525 -0.1092
 6334TIP3    H140417   1.038   2.316  12.994 -0.9396  0.4815 -1.5959
 6334TIP3    H240418   0.968   2.201  13.064 -0.6051 -0.0804 -2.1622
 6335TIP3   OH240419   1.026   6.399  11.538 -0.2315 -0.2475 -0.2944
 6335TIP3    H140420   0.970   6.475  11.554  1.0872  0.9619 -1.1783
 6335TIP3    H240421   1.107   6.435  11.501  0.3044 -2.1119 -1.0997
 6336TIP3   OH240422   2.779   4.975  16.400  0.6636  0.3976 -0.5279
 6336TIP3    H140423   2.853   4.937  16.352 -0.6001 -1.6997 -0.9330
 6336TIP3    H240424   2.705   4.967  16.340 -0.3225  0.5423  0.6353
 6337TIP3   OH240425   5.584   6.386  12.890  0.3820 -0.3712 -0.0992
 6337TIP3    H140426   5.496   6.409  12.918 -0.1553 -0.7769 -1.3949
 6337TIP3    H240427   5.574   6.302  12.845  1.1300  0.4293 -1.8314
 6338TIP3   OH240428   2.111   2.618  11.129  0.5473  0.1368 -0.2305
 6338TIP3    H140429   2.033   2.673  11.125  0.0027 -0.4501  1.5245
 6338TIP3    H240430   2.125   2.603  11.222  3.9487  1.8551 -0.2923
 6339TIP3   OH240431   0.617   0.407  12.081 -0.2531  0.3359 -0.4877
 6339TIP3    H140432   0.542   0.409  12.021 -1.8617  0.2067  1.4199
 6339TIP3    H240433   0.670   0.482  12.054 -1.7392  1.2178 -1.0992
 6340TIP3   OH240434   5.445   2.256   0.006 -0.4138  0.0898 -0.3023
 6340TIP3    H140435   5.451   2.264  -0.089 -1.4413 -0.9368 -0.4736
 6340TIP3    H240436   5.353   2.236   0.024  0.0571 -1.3270  0.7580
 6341TIP3   OH240437   0.397   0.387   5.243  0.1706  0.3378  0.2414
 6341TIP3    H140438   0.409   0.295   5.220 -1.2832  0.7958 -2.9615
 6341TIP3    H240439   0.314   0.412   5.200  0.3169  3.0479  1.2988
 6342TIP3   OH240440   6.046   3.526  13.872 -0.3448 -0.6975  0.1917
 6342TIP3    H140441   5.992   3.535  13.950 -1.1613 -0.0931 -0.4272
 6342TIP3    H240442   6.064   3.616  13.844 -0.3138 -0.9033 -0.4834
 6343TIP3   OH240443   0.737   1.047  11.643 -0.2771 -0.2181 -0.4627
 6343TIP3    H140444   0.796   0.996  11.588 -1.1768 -0.8778 -0.8369
 6343TIP3    H240445   0.676   1.088  11.581 -0.2760  0.3868 -0.0764
 6344TIP3   OH240446   4.580   6.106   5.730 -0.9279  0.7669 -0.1795
 6344TIP3    H140447   4.503   6.150   5.766 -1.5270  0.5910 -1.2041
 6344TIP3    H240448   4.552   6.016   5.717  0.1093  0.1829  1.3522
 6345TIP3   OH240449   4.601   3.398  11.029 -0.4455 -0.2848 -0.1764
 6345TIP3    H140450   4.688   3.424  11.058 -0.8661  0.8906  0.0553
 6345TIP3    H240451   4.589   3.310  11.066  0.3414 -0.1486  0.4209
 6346TIP3   OH240452   1.309   6.122  11.030  0.1278  0.1332  0.6705
 6346TIP3    H140453   1.227   6.163  11.002 -0.9762 -1.4620  1.4233
 6346TIP3    H240454   1.372   6.144  10.961 -1.0619  0.9718 -0.1813
 6347TIP3   OH240455   0.956   6.499   5.768 -0.6304 -0.2557  0.4200
 6347TIP3    H140456   0.974   6.504   5.861 -0.9658 -2.3379  0.6468
 6347TIP3    H240457   0.862   6.516   5.761 -0.2394  2.1820  0.1534
 6348TIP3   OH240458   4.944   2.393  14.081  0.4899  0.4144 -0.0969
 6348TIP3    H140459   4.906   2.359  14.000 -1.0203 -0.4304  0.9245
 6348TIP3    H240460   4.960   2.315  14.135 -0.4594  1.0885  1.2199
 6349TIP3   OH240461   4.189   3.753  14.758  0.2424 -0.3094  0.3096
 6349TIP3    H140462   4.124   3.805  14.711 -0.3051 -1.0931  0.1854
 6349TIP3    H240463   4.144   3.722  14.836  0.2301 -1.4545 -0.1368
 6350TIP3   OH240464   1.845   1.219   1.735 -0.1441  0.0367  0.6031
 6350TIP3    H140465   1.792   1.148   1.698  0.8440 -0.1868 -0.4405
 6350TIP3    H240466   1.785   1.293   1.741 -0.6520 -0.2805 -0.3265
 6351TIP3   OH240467   3.233   1.467   1.382 -0.0883  0.2956  0.1723
 6351TIP3    H140468   3.140   1.488   1.395  0.2512  2.6214 -0.6634
 6351TIP3    H240469   3.276   1.502   1.460  0.2652  0.8930 -0.2827
 6352TIP3   OH240470   0.704   6.248  16.859  0.0929 -0.2819 -0.4974
 6352TIP3    H140471   0.721   6.158  16.889  1.2764  0.3614  0.9058
 6352TIP3    H240472   0.753   6.255  16.777  0.7470 -0.6555 -0.1508
 6353TIP3   OH240473   4.056   2.727  11.229  0.1862 -0.7060  0.0288
 6353TIP3    H140474   4.145   2.734  11.194  0.0253 -2.0892 -0.7444
 6353TIP3    H240475   4.010   2.802  11.190  0.7671 -0.5342 -0.3505
 6354TIP3   OH240476   5.270   4.035   5.616 -0.6522 -0.0233  0.1349
 6354TIP3    H140477   5.202   4.028   5.682  0.0568 -0.5506  0.8257
 6354TIP3    H240478   5.329   3.961   5.633 -1.5042 -1.4068 -2.3299
 6355TIP3   OH240479   1.119   6.740  14.919 -0.3401 -0.1187 -0.2395
 6355TIP3    H140480   1.145   6.652  14.945  0.1362 -0.1149 -0.6852
 6355TIP3    H240481   1.181   6.764  14.850 -0.4768  0.5578 -0.1340
 6356TIP3   OH240482   3.770   1.301   0.007 -0.5050  0.0696  0.0161
 6356TIP3    H140483   3.823   1.298   0.086  0.1372  0.4258 -0.3885
 6356TIP3    H240484   3.817   1.363  -0.051 -1.6739  0.8465 -0.1265
 6357TIP3   OH240485   4.411   2.710  15.502  0.0594 -0.5980  0.0014
 6357TIP3    H140486   4.403   2.715  15.597 -0.0427  0.1177 -0.0399
 6357TIP3    H240487   4.505   2.718  15.485 -0.0002  0.1961  0.0004
 6358TIP3   OH240488   6.773   0.109   5.167  0.2345 -0.1097  0.1402
 6358TIP3    H140489   6.733   0.133   5.251  0.4153 -0.7964  0.4248
 6358TIP3    H240490   6.823   0.187   5.142 -1.5042  0.8814 -0.3841
 6359TIP3   OH240491   5.076   1.513   0.885 -0.2580  0.5584 -0.9885
 6359TIP3    H140492   5.139   1.452   0.926 -0.3675  1.2737  0.2709
 6359TIP3    H240493   5.070   1.482   0.794  0.2230 -0.8855 -0.5668
 6360TIP3   OH240494   1.632   3.870  14.245  0.1935 -0.7087 -0.2336
 6360TIP3    H140495   1.713   3.854  14.197 -0.2099  0.4143 -1.3606
 6360TIP3    H240496   1.653   3.938  14.309 -0.0483  0.2877 -1.1769
 6361TIP3   OH240497   4.969   3.211   5.196  0.6636  0.6869 -0.1200
 6361TIP3    H140498   4.966   3.247   5.107  0.4830  0.2129 -0.3079
 6361TIP3    H240499   4.969   3.288   5.253 -0.9781  0.9781 -0.4768
 6362TIP3   OH240500   2.386   1.004   3.216  0.0751 -0.4210 -0.6111
 6362TIP3    H140501   2.361   1.040   3.131 -0.8996 -1.2523 -0.6906
 6362TIP3    H240502   2.358   0.912   3.213  3.3490 -1.5156 -0.7632
 6363TIP3   OH240503   3.495   6.509   2.463 -0.1120  0.1986 -0.1476
 6363TIP3    H140504   3.469   6.538   2.550 -2.7948  0.5325 -0.9749
 6363TIP3    H240505   3.438   6.435   2.444  1.7710 -1.1554 -0.9055
 6364TIP3   OH240506   1.068   6.443  11.958  0.2937  0.5962 -0.0123
 6364TIP3    H140507   1.074   6.374  11.892  0.2570  0.2202  0.3730
 6364TIP3    H240508   1.142   6.500  11.940  0.4333  0.3538 -0.2205
 6365TIP3   OH240509   4.431   2.916  15.323  0.0790  0.2220 -0.1518
 6365TIP3    H140510   4.429   2.854  15.395  0.2697 -3.0511 -2.7187
 6365TIP3    H240511   4.340   2.922  15.293  0.2653  0.0566 -0.7735
 6366TIP3   OH240512   3.585   5.353  13.581  0.1058 -0.3457  0.4060
 6366TIP3    H140513   3.649   5.421  13.604 -0.7167  1.1273 -1.3601
 6366TIP3    H240514   3.566   5.309  13.664  1.1579  1.1759  1.5200
 6367TIP3   OH240515   5.975   3.452  16.224 -0.2115 -0.6486 -0.5017
 6367TIP3    H140516   5.896   3.412  16.260  1.1125 -0.7295  2.6650
 6367TIP3    H240517   5.982   3.536  16.269  0.0063  0.7345 -2.9422
 6368TIP3   OH240518   4.448   4.546  14.499 -0.1893  0.8465  0.1071
 6368TIP3    H140519   4.529   4.496  14.502 -0.2857  0.6754 -0.1808
 6368TIP3    H240520   4.413   4.532  14.411 -0.1918  1.4549  0.0037
 6369TIP3   OH240521   3.528   6.743   0.389 -0.1777 -0.0415  0.3716
 6369TIP3    H140522   3.508   6.665   0.440 -0.7893 -0.3548 -0.3260
 6369TIP3    H240523   3.562   6.805   0.453 -1.1549 -0.3314  1.2132
 6370TIP3   OH240524   4.502   2.968  16.178  0.0616 -0.1343 -0.0025
 6370TIP3    H140525   4.435   3.030  16.208  0.2233 -0.6449  1.5512
 6370TIP3    H240526   4.553   2.949  16.257  2.1088  0.2937 -1.1446
 6371TIP3   OH240527   6.619   5.083  13.643  0.9835 -0.2535 -0.2247
 6371TIP3    H140528   6.701   5.071  13.596  0.9772  0.9247 -0.5776
 6371TIP3    H240529   6.635   5.160  13.698  0.0792  0.0625 -0.3920
 6372TIP3   OH240530   1.944   1.199   0.108 -0.1807  0.1131 -0.1618
 6372TIP3    H140531   2.037   1.193   0.088 -0.1005 -2.4280  0.5831
 6372TIP3    H240532   1.900   1.194   0.023  0.3343 -0.5770 -0.3911
 6373TIP3   OH240533   4.479   3.267   3.898 -0.0916 -0.3242  0.1114
 6373TIP3    H140534   4.554   3.233   3.849 -0.3108 -0.9980  0.2245
 6373TIP3    H240535   4.405   3.258   3.838  0.3266  3.0613 -1.1317
 6374TIP3   OH240536   5.948   4.946   3.712 -0.1056  0.3414 -0.2709
 6374TIP3    H140537   5.919   4.996   3.789 -1.4149 -1.0817  0.2159
 6374TIP3    H240538   5.875   4.886   3.694  0.3489  0.3820 -2.4078
 6375TIP3   OH240539   5.728   4.495   3.307 -0.3312 -0.4603 -0.2647
 6375TIP3    H140540   5.698   4.415   3.266  0.5222 -2.1873  2.2433
 6375TIP3    H240541   5.656   4.557   3.295 -1.5397 -1.9667 -1.1608
 6376TIP3   OH240542   3.982   1.646  15.211  0.3745 -0.2398 -0.5826
 6376TIP3    H140543   3.991   1.583  15.283  0.3574  1.5698  1.0722
 6376TIP3    H240544   4.069   1.648  15.171 -0.6760 -4.8103 -3.9063
 6377TIP3   OH240545   1.885   2.376   2.163  0.1416  0.6286 -0.0915
 6377TIP3    H140546   1.850   2.432   2.232 -1.6307  0.1567 -0.5669
 6377TIP3    H240547   1.957   2.426   2.126  0.5518  1.2645  1.5013
 6378TIP3   OH240548   0.382   1.980   6.428  0.0255  0.3758  0.4160
 6378TIP3    H140549   0.397   2.073   6.417 -1.9101  0.7256  0.5178
 6378TIP3    H240550   0.289   1.967   6.410  0.7439 -1.9845 -2.4901
 6379TIP3   OH240551   5.881   1.648  13.851 -0.1134  0.4299  0.3145
 6379TIP3    H140552   5.821   1.594  13.902  1.4647  0.6535  2.5157
 6379TIP3    H240553   5.843   1.736  13.855 -0.9698  0.1233 -0.5385
 6380TIP3   OH240554   1.493   3.114   0.248 -0.2315  0.0578  0.3807
 6380TIP3    H140555   1.438   3.065   0.309  1.2126 -1.1638  0.7540
 6380TIP3    H240556   1.583   3.091   0.271  0.4573  1.5746 -0.5618
 6381TIP3   OH240557   5.264   4.647  12.611  0.3804 -0.5980 -0.5475
 6381TIP3    H140558   5.221   4.725  12.575 -1.7525 -2.4674 -2.3362
 6381TIP3    H240559   5.214   4.627  12.690  1.1821  0.0258  0.1367
 6382TIP3   OH240560   1.859   0.673  16.333 -0.2464 -0.0958 -0.4835
 6382TIP3    H140561   1.919   0.607  16.298 -1.6801 -1.0047 -1.3373
 6382TIP3    H240562   1.882   0.753  16.285  1.2643 -0.0165  0.3029
 6383TIP3   OH240563   0.681   6.355  15.331  0.1419 -0.5359 -0.1807
 6383TIP3    H140564   0.609   6.342  15.393 -0.1826 -0.3745 -0.5214
 6383TIP3    H240565   0.640   6.349  15.245  0.5993 -0.8035 -0.3834
 6384TIP3   OH240566   3.235   4.943   5.182 -0.1347 -0.0927 -0.0916
 6384TIP3    H140567   3.292   4.988   5.120  0.2037 -0.2068  0.1343
 6384TIP3    H240568   3.291   4.877   5.223  0.3076  1.4838  2.0080
 6385TIP3   OH240569   0.965   5.784  16.006  0.3049  1.2890  0.2022
 6385TIP3    H140570   0.912   5.739  15.940  0.8402  2.1757 -0.8500
 6385TIP3    H240571   1.048   5.801  15.963  1.9989 -1.1264  2.1759
 6386TIP3   OH240572   4.223   0.636   4.821 -0.6399 -0.7749 -0.0768
 6386TIP3    H140573   4.128   0.641   4.826 -0.6964  0.9358 -1.5826
 6386TIP3    H240574   4.255   0.687   4.896 -0.8223 -2.9669  1.5730
 6387TIP3   OH240575   0.718   4.514   4.634 -0.0181 -0.1967 -0.3008
 6387TIP3    H140576   0.678   4.487   4.717  0.6543 -0.2746  0.0065
 6387TIP3    H240577   0.650   4.564   4.590 -1.0193 -1.6898 -0.5202
 6388TIP3   OH240578   1.131   1.402  12.483  0.5025  0.7949  0.6177
 6388TIP3    H140579   1.220   1.369  12.495  0.0767  0.0918  2.1093
 6388TIP3    H240580   1.076   1.337  12.526 -0.7599  1.1272 -0.4393
 6389TIP3   OH240581   4.827   0.849  12.848  0.2670  0.3762 -0.2698
 6389TIP3    H140582   4.741   0.862  12.808  0.5541 -0.4374 -1.1966
 6389TIP3    H240583   4.863   0.937  12.857 -0.3856  0.6746 -0.5083
 6390TIP3   OH240584   6.362   2.745  10.431  0.3066 -0.1557 -0.3618
 6390TIP3    H140585   6.360   2.814  10.364  0.1165 -0.0990 -0.2980
 6390TIP3    H240586   6.291   2.686  10.407  0.9935 -0.7780 -0.8864
 6391TIP3   OH240587   2.312   6.404   1.438 -0.1681  0.0097  0.2742
 6391TIP3    H140588   2.315   6.344   1.513  0.8941 -0.4768 -0.1411
 6391TIP3    H240589   2.350   6.486   1.472 -0.3837  0.0288  0.4725
 6392TIP3   OH240590   1.045   2.093  14.942 -0.0987  0.1558  0.0562
 6392TIP3    H140591   1.055   2.066  15.034 -0.8187 -2.0408 -0.4406
 6392TIP3    H240592   0.953   2.116  14.934  0.2221  1.5330  0.1398
 6393TIP3   OH240593   4.670   2.769  11.567 -0.7077 -0.0693 -0.0595
 6393TIP3    H140594   4.738   2.733  11.511 -0.3113  0.7317 -0.1068
 6393TIP3    H240595   4.717   2.806  11.642 -1.0533  0.7682 -0.2405
 6394TIP3   OH240596   2.580   6.167   4.612  0.6728 -0.3582 -0.6095
 6394TIP3    H140597   2.589   6.261   4.598  0.4974 -0.4450 -1.3486
 6394TIP3    H240598   2.646   6.128   4.555  0.4855 -0.7000 -0.5946
 6395TIP3   OH240599   0.653   6.659   5.062  0.1099 -0.1938 -0.0625
 6395TIP3    H140600   0.608   6.603   5.126 -1.6064  0.4716 -0.6165
 6395TIP3    H240601   0.586   6.679   4.996  1.5714 -0.1116 -1.5994
 6396TIP3   OH240602   4.925   3.149  14.766  0.1584  0.2035 -0.2282
 6396TIP3    H140603   4.834   3.140  14.741 -0.7063 -0.9229  2.7864
 6396TIP3    H240604   4.939   3.244  14.773  0.2896  0.5691 -3.7416
 6397TIP3   OH240605   1.501   5.688   1.939 -0.2755 -0.0302 -0.3149
 6397TIP3    H140606   1.474   5.779   1.927  2.7483  0.9461 -0.6181
 6397TIP3    H240607   1.471   5.665   2.027 -2.1315  0.8030 -0.6904
 6398TIP3   OH240608   0.003   5.570   6.735  0.0255 -0.0313 -0.1129
 6398TIP3    H140609   0.044   5.510   6.673  1.3896 -0.2283  0.9211
 6398TIP3    H240610   0.039   5.656   6.712 -1.2090  0.2752 -0.9979
 6399TIP3   OH240611   4.824   3.728   6.484 -0.2423 -0.3765 -0.1351
 6399TIP3    H140612   4.873   3.699   6.561  0.9098  0.7822 -0.4123
 6399TIP3    H240613   4.875   3.697   6.410 -1.0805 -1.0332 -0.4556
 6400TIP3   OH240614   3.919   5.816  17.204  0.1179  0.1134 -0.0510
 6400TIP3    H140615   3.984   5.872  17.161  1.4359  0.7390  2.4948
 6400TIP3    H240616   3.853   5.877  17.238 -0.9441 -0.3663 -1.1966
 6401TIP3   OH240617   6.460   4.332   0.061  0.0112  0.1886 -0.3567
 6401TIP3    H140618   6.379   4.348   0.109 -0.1823  0.2806 -0.7122
 6401TIP3    H240619   6.475   4.413   0.013 -0.4213 -0.3121 -1.3623
 6402TIP3   OH240620   6.053   0.899  14.120 -0.0748  0.0530 -0.5193
 6402TIP3    H140621   6.064   0.890  14.214 -0.2690 -1.1461 -0.5877
 6402TIP3    H240622   6.105   0.976  14.096 -0.3754  0.6175  0.6118
 6403TIP3   OH240623   4.780   0.523  16.006 -0.1018 -0.4830  0.0726
 6403TIP3    H140624   4.826   0.561  15.931  1.8049 -0.2843  1.2701
 6403TIP3    H240625   4.716   0.590  16.030  1.2956  0.8015  0.4141
 6404TIP3   OH240626   6.358   5.057   1.112  0.2637  0.1915  0.6706
 6404TIP3    H140627   6.418   4.984   1.126 -0.2145 -0.3404 -0.0102
 6404TIP3    H240628   6.380   5.120   1.181 -0.8789 -1.5918  2.7944
 6405TIP3   OH240629   4.578   2.788  11.256  0.3582  0.3488 -0.2463
 6405TIP3    H140630   4.597   2.725  11.326  1.5513  0.0696 -0.8128
 6405TIP3    H240631   4.634   2.761  11.183 -1.5790  0.0176 -1.6950
 6406TIP3   OH240632   3.021   0.976   5.332 -0.4205  0.1433 -0.2583
 6406TIP3    H140633   2.993   0.936   5.414  0.4899  2.1353  1.1124
 6406TIP3    H240634   3.110   0.944   5.320 -0.3749  0.2461 -0.1950
 6407TIP3   OH240635   1.840   6.679   2.495  0.2720 -0.0585  0.1264
 6407TIP3    H140636   1.933   6.667   2.474 -0.3461 -1.1092 -2.3401
 6407TIP3    H240637   1.819   6.604   2.551  0.5136 -0.8844 -0.8500
 6408TIP3   OH240638   6.567   1.548  14.517  0.0355  0.4446 -0.0071
 6408TIP3    H140639   6.653   1.557  14.558 -0.1462 -0.6876  0.6647
 6408TIP3    H240640   6.586   1.544  14.423  0.5049  2.3862 -0.0384
 6409TIP3   OH240641   1.204   4.669   5.154  1.0554  0.0758  0.2449
 6409TIP3    H140642   1.202   4.577   5.126 -0.2657 -0.1262  0.9192
 6409TIP3    H240643   1.116   4.701   5.135  0.9523  0.6876  1.6522
 6410TIP3   OH240644   1.841   4.719   2.467 -0.0537  0.0417  0.3395
 6410TIP3    H140645   1.896   4.796   2.474  2.2314 -1.5159  0.6014
 6410TIP3    H240646   1.823   4.710   2.373 -0.4891  0.9718  0.3300
 6411TIP3   OH240647   3.391   2.312   4.596  0.1539 -0.0959  0.0571
 6411TIP3    H140648   3.462   2.250   4.583 -0.6259 -0.8456 -0.6929
 6411TIP3    H240649   3.371   2.306   4.689  2.4007  1.6280  0.7637
 6412TIP3   OH240650   1.825   5.240   4.249 -1.0095 -0.3585 -0.0554
 6412TIP3    H140651   1.869   5.159   4.272 -0.9410 -0.4143 -0.3835
 6412TIP3    H240652   1.768   5.217   4.175 -2.9370 -0.7085  1.4653
 6413TIP3   OH240653   5.939   4.586   5.679  0.4656  0.2121  0.4728
 6413TIP3    H140654   6.000   4.519   5.709  0.6880  0.6198  0.9617
 6413TIP3    H240655   5.854   4.558   5.713  0.6500  0.4601  1.1668
 6414TIP3   OH240656   6.171   1.087   1.300  0.0208  0.4443 -0.4551
 6414TIP3    H140657   6.250   1.048   1.338 -1.3283 -1.7227  0.2625
 6414TIP3    H240658   6.151   1.032   1.224 -0.9649  0.7797 -0.4492
 6415TIP3   OH240659   4.443   6.766  16.078 -0.0255 -0.2555 -0.3928
 6415TIP3    H140660   4.455   6.701  16.009  0.1000 -0.6719  0.0214
 6415TIP3    H240661   4.460   6.719  16.160  1.8845  0.7252 -0.1639
 6416TIP3   OH240662   5.157   6.690   6.238  0.2895  0.5154  0.2439
 6416TIP3    H140663   5.079   6.657   6.194 -0.2309 -1.1318  2.2422
 6416TIP3    H240664   5.125   6.760   6.294 -0.2929 -1.6637  2.8214
 6417TIP3   OH240665   3.538   3.779   1.462 -0.0280  0.0073 -0.3152
 6417TIP3    H140666   3.457   3.829   1.477 -1.5705 -2.2810 -0.5736
 6417TIP3    H240667   3.608   3.841   1.483 -1.8420  1.5741  1.6008
 6418TIP3   OH240668   1.387   6.253   3.912 -0.5628 -0.5486 -0.0254
 6418TIP3    H140669   1.389   6.242   3.817 -0.6412 -1.9218  0.1095
 6418TIP3    H240670   1.324   6.188   3.943  0.6835 -1.2827  1.0907
 6419TIP3   OH240671   6.134   2.898   5.281 -0.0011  0.3047 -0.5086
 6419TIP3    H140672   6.150   2.820   5.335 -0.7951 -0.1708 -0.9489
 6419TIP3    H240673   6.171   2.970   5.333 -1.5926  0.0032  1.1625
 6420TIP3   OH240674   0.462   2.321  11.714  0.6711  0.6267  0.2109
 6420TIP3    H140675   0.401   2.383  11.754 -1.6273 -0.6497 -1.0789
 6420TIP3    H240676   0.509   2.282  11.788 -1.4003  0.3825  1.4660
 6421TIP3   OH240677   6.316   4.113  15.671 -0.4610  0.1321 -0.2316
 6421TIP3    H140678   6.290   4.132  15.760 -2.0355 -0.9098 -0.4361
 6421TIP3    H240679   6.365   4.031  15.677  0.7366  0.8242 -0.1661
 6422TIP3   OH240680   0.355   1.412  13.035 -0.5104 -0.4832 -0.1866
 6422TIP3    H140681   0.392   1.421  12.947  0.9932 -0.0661  0.4477
 6422TIP3    H240682   0.320   1.323  13.039  0.7458 -1.0154 -0.7319
 6423TIP3   OH240683   0.982   4.484   5.109 -0.0805 -0.3412  0.3695
 6423TIP3    H140684   0.917   4.434   5.061  0.7814 -0.1814 -1.0071
 6423TIP3    H240685   1.027   4.420   5.163 -2.6939 -0.1775  2.9972
 6424TIP3   OH240686   1.216   5.802  16.790  0.2365 -0.2940 -0.1141
 6424TIP3    H140687   1.200   5.792  16.884  0.1417 -1.8693 -0.2627
 6424TIP3    H240688   1.139   5.765  16.748  0.2206  0.5124 -0.8215
 6425TIP3   OH240689   6.496   2.888  12.632 -0.4415  0.6928  0.3634
 6425TIP3    H140690   6.463   2.810  12.588  1.5862 -0.0257  0.0018
 6425TIP3    H240691   6.527   2.944  12.561 -1.8916  1.8790  0.6202
 6426TIP3   OH240692   4.834   2.624   4.599  0.0763 -0.1154  0.4064
 6426TIP3    H140693   4.782   2.606   4.520 -1.4631  0.6688  1.1956
 6426TIP3    H240694   4.773   2.609   4.671  1.5561 -1.1389  1.4942
 6427TIP3   OH240695   1.008   4.825   1.412  0.1606  0.0815 -0.0131
 6427TIP3    H140696   0.912   4.828   1.411  0.0837 -1.4497 -0.3377
 6427TIP3    H240697   1.032   4.812   1.320  0.5368 -1.6560  0.2917
 6428TIP3   OH240698   4.626   3.631   2.832  0.1777 -0.4216  0.3553
 6428TIP3    H140699   4.539   3.655   2.865 -0.4037 -1.9526 -0.0028
 6428TIP3    H240700   4.633   3.677   2.748 -0.6904 -1.0088 -0.0571
 6429TIP3   OH240701   2.030   2.437   6.582  0.4772  0.3487 -0.1532
 6429TIP3    H140702   2.084   2.493   6.526  1.4492  0.8967  1.2605
 6429TIP3    H240703   2.046   2.470   6.670 -0.3153 -1.0588  0.5473
 6430TIP3   OH240704   4.385   0.746   4.023  0.4776 -0.3590  0.1720
 6430TIP3    H140705   4.475   0.717   4.012  0.2764 -0.5213 -1.1549
 6430TIP3    H240706   4.379   0.828   3.973 -0.0404 -0.2021  0.4775
 6431TIP3   OH240707   2.106   3.661   0.372  0.5219  0.4989  0.0858
 6431TIP3    H140708   2.026   3.701   0.405 -0.2987 -1.3233  0.4566
 6431TIP3    H240709   2.079   3.618   0.290  0.6902 -1.4813  1.0153
 6432TIP3   OH240710   3.622   4.309   1.783 -0.7161 -0.0120 -0.1728
 6432TIP3    H140711   3.647   4.287   1.873  1.2806 -1.2505 -0.9444
 6432TIP3    H240712   3.697   4.279   1.730 -1.6944  0.9714 -2.2117
 6433TIP3   OH240713   1.358   6.442  13.295  0.1329  0.6197 -0.5255
 6433TIP3    H140714   1.409   6.397  13.363  1.1727 -0.2135 -1.7865
 6433TIP3    H240715   1.353   6.533  13.325 -1.6775 -0.1659  1.8967
 6434TIP3   OH240716   3.735   5.591  16.708 -0.0311  0.1240 -0.3418
 6434TIP3    H140717   3.669   5.619  16.646  0.8235 -0.7959 -1.7272
 6434TIP3    H240718   3.818   5.600  16.661  0.4914 -2.3395 -0.0414
 6435TIP3   OH240719   1.330   6.678   2.705  0.1503 -0.5816 -0.4720
 6435TIP3    H140720   1.257   6.726   2.745  0.5782 -0.6751  0.4619
 6435TIP3    H240721   1.338   6.599   2.760  0.8201 -0.6664 -0.6893
 6436TIP3   OH240722   6.040   2.463  12.266 -0.0697  0.6200 -0.4760
 6436TIP3    H140723   6.077   2.524  12.331  2.0076  0.3069 -1.2686
 6436TIP3    H240724   6.058   2.506  12.182 -2.6632  0.9918 -0.9010
 6437TIP3   OH240725   1.296   0.951   2.185 -0.3708 -0.0758 -0.0416
 6437TIP3    H140726   1.256   1.033   2.157 -1.4388 -0.5879 -0.0659
 6437TIP3    H240727   1.390   0.966   2.175 -0.4195  1.7718  1.6720
 6438TIP3   OH240728   4.533   4.313  15.880 -0.9799 -0.0580 -0.2328
 6438TIP3    H140729   4.569   4.245  15.937 -2.3139 -1.1221 -0.5937
 6438TIP3    H240730   4.607   4.344  15.828  0.0540  0.2174  1.3467
 6439TIP3   OH240731   0.070   2.849  12.284  0.2286 -1.0162  0.4385
 6439TIP3    H140732   0.119   2.929  12.263 -1.2272 -0.4521 -1.0740
 6439TIP3    H240733   0.041   2.861  12.374 -2.2233  1.4890 -0.5373
 6440TIP3   OH240734   0.514   2.667  13.258  0.2260 -0.2014  0.1549
 6440TIP3    H140735   0.538   2.700  13.172  1.8043  0.5410  0.8390
 6440TIP3    H240736   0.459   2.735  13.296 -0.2527 -0.4119 -0.1511
 6441TIP3   OH240737   4.518   1.987   3.782  0.2315  0.0171 -0.5179
 6441TIP3    H140738   4.547   1.914   3.728  0.7142 -1.4535  1.5842
 6441TIP3    H240739   4.425   1.969   3.799  0.4852 -0.4760  0.4610
 6442TIP3   OH240740   6.307   0.910  16.858  0.9876 -0.2534 -0.3141
 6442TIP3    H140741   6.351   0.860  16.790  0.0087 -1.5034 -0.0729
 6442TIP3    H240742   6.297   0.848  16.930 -1.2714 -0.0670 -0.4110
 6443TIP3   OH240743   3.558   5.899  15.436  0.1457  0.1658  0.2896
 6443TIP3    H140744   3.570   5.934  15.525 -0.5603  0.0442  0.4381
 6443TIP3    H240745   3.634   5.930  15.388  0.1625  0.8578  0.7462
 6444TIP3   OH240746   0.861   3.393  12.701  0.1537  0.1584 -0.2858
 6444TIP3    H140747   0.897   3.312  12.665 -1.1623  0.1635 -1.7076
 6444TIP3    H240748   0.913   3.463  12.660 -2.8929  0.3381 -4.5680
 6445TIP3   OH240749   2.777   1.796  16.174 -0.5639 -0.2407  0.9548
 6445TIP3    H140750   2.733   1.817  16.092 -3.2095 -1.3655  1.9756
 6445TIP3    H240751   2.754   1.869  16.232  0.6843  0.1837  0.9460
 6446TIP3   OH240752   0.387   2.815   6.634 -0.0261  0.0417 -0.4620
 6446TIP3    H140753   0.450   2.879   6.668 -1.0821  0.4398  0.7970
 6446TIP3    H240754   0.440   2.756   6.580  1.9479 -1.0951  2.4472
 6447TIP3   OH240755   0.966   5.421   1.197  0.1609  0.1244  0.1314
 6447TIP3    H140756   1.001   5.333   1.183 -0.1635 -0.1161  0.7626
 6447TIP3    H240757   0.959   5.428   1.293 -0.6120  0.5199  0.0482
 6448TIP3   OH240758   4.722   4.553  17.042  0.1994  0.3654 -0.2654
 6448TIP3    H140759   4.651   4.489  17.046  1.4834 -1.1333 -0.7323
 6448TIP3    H240760   4.783   4.525  17.111  0.4029  1.5751  0.0645
 6449TIP3   OH240761   2.463   3.787   0.643  0.6992 -0.0089  0.5693
 6449TIP3    H140762   2.537   3.809   0.587  1.5533  1.2937  2.1267
 6449TIP3    H240763   2.502   3.742   0.717 -0.2437 -0.5142  0.7714
 6450TIP3   OH240764   5.121   1.161  11.423  0.1688 -0.7072 -0.0599
 6450TIP3    H140765   5.161   1.161  11.336 -0.6867 -1.0872 -0.4652
 6450TIP3    H240766   5.046   1.220  11.414  1.1703  0.7797  0.9570
 6451TIP3   OH240767   4.312   3.231  16.520  0.0297 -0.2357  0.2138
 6451TIP3    H140768   4.334   3.244  16.428 -0.0494  2.2481  0.5018
 6451TIP3    H240769   4.231   3.280  16.533  1.1377  1.2304  2.0520
 6452TIP3   OH240770   1.579   2.579  11.394  0.6035  0.1796 -0.4295
 6452TIP3    H140771   1.535   2.659  11.423  0.6593  0.7621 -1.8749
 6452TIP3    H240772   1.626   2.548  11.472 -0.3129  0.9347  0.4489
 6453TIP3   OH240773   5.769   0.795  11.192  0.0277  0.2599 -0.1579
 6453TIP3    H140774   5.739   0.732  11.126  1.5728  0.1856 -0.8370
 6453TIP3    H240775   5.699   0.860  11.196 -0.1274  0.2590 -1.8871
 6454TIP3   OH240776   1.686   1.461   0.626  0.7806 -0.2786 -0.3839
 6454TIP3    H140777   1.774   1.426   0.641  0.5085 -0.9011 -0.2327
 6454TIP3    H240778   1.690   1.498   0.537  0.8966 -1.2539 -0.8013
 6455TIP3   OH240779   5.993   3.788  10.608  0.8047 -0.1127 -0.4703
 6455TIP3    H140780   5.999   3.846  10.684  0.9949  0.9645 -1.2879
 6455TIP3    H240781   5.969   3.845  10.535  2.0583 -0.8591 -1.5247
 6456TIP3   OH240782   4.397   0.908  13.508 -0.3632  0.1732 -0.0815
 6456TIP3    H140783   4.343   0.983  13.481  1.2256  0.9697 -1.2336
 6456TIP3    H240784   4.391   0.848  13.434 -0.6091 -0.2652  0.2938
 6457TIP3   OH240785   2.124   5.479   4.361  0.3028  0.3676 -0.3868
 6457TIP3    H140786   2.056   5.543   4.342  0.3308  0.9492  1.2817
 6457TIP3    H240787   2.078   5.407   4.404  0.3607 -0.4909 -1.7168
 6458TIP3   OH240788   4.994   4.110  16.068  0.1384  0.2247  0.3011
 6458TIP3    H140789   5.068   4.059  16.100 -1.4148 -1.9798  0.6430
 6458TIP3    H240790   4.990   4.186  16.125  2.6610  0.9210 -0.3325
 6459TIP3   OH240791   0.615   1.320  14.022  0.5677 -0.4144 -0.7193
 6459TIP3    H140792   0.658   1.385  14.077 -0.0595  2.1135 -2.9953
 6459TIP3    H240793   0.657   1.237  14.045  0.4519  0.4567  3.3181
 6460TIP3   OH240794   5.199   0.432   5.434 -0.2280  0.6773  0.8486
 6460TIP3    H140795   5.184   0.523   5.408  1.2831  0.8415  0.4711
 6460TIP3    H240796   5.277   0.436   5.489 -0.5402 -0.3229  1.3827
 6461TIP3   OH240797   5.288   2.201  12.161 -0.2546  0.4371 -0.4271
 6461TIP3    H140798   5.225   2.268  12.189  1.0838  1.6342 -0.2219
 6461TIP3    H240799   5.322   2.233  12.078  0.3774 -0.0123 -0.3421
 6462TIP3   OH240800   5.095   0.761  12.715 -0.0407  0.4209  0.1854
 6462TIP3    H140801   5.184   0.777  12.683  0.2687 -1.0723  0.2593
 6462TIP3    H240802   5.097   0.672  12.750 -1.2616  0.7888  1.2745
 6463TIP3   OH240803   1.940   4.328   2.518 -0.1303 -0.0331  0.3259
 6463TIP3    H140804   1.988   4.399   2.561  0.2409  0.0490 -0.2050
 6463TIP3    H240805   1.877   4.299   2.583 -0.5221  1.0093  0.4399
 6464TIP3   OH240806   3.297   2.226   4.878 -0.5661  0.3801  0.5257
 6464TIP3    H140807   3.367   2.291   4.884 -0.4819  0.3965 -0.5225
 6464TIP3    H240808   3.343   2.142   4.877 -0.6674  0.2859  1.7083
 6465TIP3   OH240809   3.163   4.694   4.204  0.3167 -0.3452 -0.0733
 6465TIP3    H140810   3.101   4.632   4.165  0.5413 -1.2342  0.9459
 6465TIP3    H240811   3.111   4.742   4.269 -0.1304  1.3364 -1.5869
 6466TIP3   OH240812   2.701   1.229   1.936  0.1474 -0.3849 -0.4327
 6466TIP3    H140813   2.639   1.208   1.865 -0.3151 -0.1015 -0.1152
 6466TIP3    H240814   2.762   1.292   1.897 -0.7619  0.6238 -0.2728
 6467TIP3   OH240815   1.654   1.184  10.111  0.2625 -0.4317  0.2526
 6467TIP3    H140816   1.644   1.275  10.141 -0.0232  0.1432 -1.4899
 6467TIP3    H240817   1.736   1.155  10.152  0.6859  0.8176  0.3567
 6468TIP3   OH240818   4.687   0.589   5.454 -0.2703 -0.1203 -0.1314
 6468TIP3    H140819   4.711   0.538   5.376 -0.7813 -0.8060  0.1424
 6468TIP3    H240820   4.769   0.598   5.503 -0.4778 -2.3984  0.7734
 6469TIP3   OH240821   1.838   4.272  11.522 -0.2804 -0.0824 -0.3677
 6469TIP3    H140822   1.856   4.187  11.564 -1.6832 -0.7924 -1.1372
 6469TIP3    H240823   1.923   4.315  11.520  0.6541 -1.8347 -0.7449
 6470TIP3   OH240824   5.409   2.527   3.631 -0.3496  0.4279  0.7178
 6470TIP3    H140825   5.331   2.580   3.646 -1.4744 -0.8831 -0.2207
 6470TIP3    H240826   5.379   2.454   3.577  1.2435 -0.8966  1.5097
 6471TIP3   OH240827   4.180   1.582   1.435  0.4515 -0.1244 -0.5880
 6471TIP3    H140828   4.108   1.548   1.488 -0.7828  0.4941 -1.8205
 6471TIP3    H240829   4.170   1.677   1.437  1.5891  0.0051 -0.3066
 6472TIP3   OH240830   0.205   2.275  16.199 -0.2013  0.4301 -0.2491
 6472TIP3    H140831   0.172   2.342  16.258 -2.6709  0.0082 -1.0346
 6472TIP3    H240832   0.237   2.206  16.257 -0.0322  1.1617  0.5573
 6473TIP3   OH240833   4.188   0.675  10.458  0.2291  0.4156  0.0793
 6473TIP3    H140834   4.104   0.664  10.502 -0.8049 -0.1814 -1.9104
 6473TIP3    H240835   4.189   0.607  10.391  2.3928  0.3146  0.1500
 6474TIP3   OH240836   4.560   4.331   4.077 -0.2772 -0.2213 -0.0682
 6474TIP3    H140837   4.472   4.369   4.073 -0.1513  0.0032 -0.9257
 6474TIP3    H240838   4.572   4.307   4.169 -2.4780 -3.1626 -0.3840
 6475TIP3   OH240839   5.980   6.478  16.614 -0.3180 -0.2966  0.0562
 6475TIP3    H140840   5.944   6.418  16.680 -0.8443  0.2104  0.2462
 6475TIP3    H240841   5.964   6.565  16.651  1.8437 -0.0507  0.5225
 6476TIP3   OH240842   4.202   6.598   1.687  0.0615 -0.0100  0.1817
 6476TIP3    H140843   4.109   6.583   1.674 -0.2651  1.7970  0.2805
 6476TIP3    H240844   4.209   6.689   1.714  1.9194  0.0852 -0.4701
 6477TIP3   OH240845   5.863   2.882  10.361  0.3251  0.0259 -0.3114
 6477TIP3    H140846   5.902   2.968  10.347  1.1096 -0.1683  0.5710
 6477TIP3    H240847   5.779   2.886  10.316  0.8377  0.8716 -1.2295
 6478TIP3   OH240848   4.478   2.267   4.540 -0.0300 -0.1050  0.3466
 6478TIP3    H140849   4.397   2.218   4.550  0.4641 -0.6543  2.2432
 6478TIP3    H240850   4.524   2.224   4.468 -1.2837  0.0681 -0.5891
 6479TIP3   OH240851   5.618   1.366   2.878 -0.1152 -0.6655  0.2530
 6479TIP3    H140852   5.603   1.456   2.905 -1.5868 -0.7792 -0.1053
 6479TIP3    H240853   5.669   1.373   2.797 -2.0414 -0.0245 -0.9782
 6480TIP3   OH240854   0.433   5.300  14.679 -0.4286  0.0199  0.1906
 6480TIP3    H140855   0.520   5.308  14.640 -0.9488  1.1571 -0.8096
 6480TIP3    H240856   0.425   5.207  14.701  0.9273 -0.1481  0.0659
 6481TIP3   OH240857   2.447   5.610  16.993 -0.2338 -0.0868  0.1877
 6481TIP3    H140858   2.398   5.602  17.074 -0.7495 -1.2288 -0.2118
 6481TIP3    H240859   2.391   5.569  16.927  1.3503 -1.7243 -0.2281
 6482TIP3   OH240860   4.851   0.877  16.296  0.1578 -0.1278 -0.3961
 6482TIP3    H140861   4.871   0.796  16.344 -0.5311 -1.5128 -2.3020
 6482TIP3    H240862   4.849   0.850  16.204  0.8674  2.2896 -1.1940
 6483TIP3   OH240863   3.784   4.008   1.945  0.0739  0.4188  0.0687
 6483TIP3    H140864   3.809   3.916   1.947 -0.8574  0.0701 -1.6375
 6483TIP3    H240865   3.791   4.038   2.036 -1.4986 -1.8683  1.0312
 6484TIP3   OH240866   0.844   6.787  15.498  0.0123 -0.1467 -0.1716
 6484TIP3    H140867   0.811   6.776  15.409  0.7644  0.6465 -0.5530
 6484TIP3    H240868   0.765   6.788  15.552 -0.3967 -3.3411 -0.4635
 6485TIP3   OH240869   1.162   2.418  12.255 -0.9449 -0.3905  0.2644
 6485TIP3    H140870   1.169   2.508  12.288  0.1063 -0.1137 -0.6716
 6485TIP3    H240871   1.131   2.368  12.331 -1.3445  0.7175  0.8598
 6486TIP3   OH240872   3.829   1.855  12.130 -0.4687  0.6320  0.3726
 6486TIP3    H140873   3.742   1.886  12.153  0.0897  4.3563 -1.6173
 6486TIP3    H240874   3.839   1.879  12.038  2.7231  0.5378  0.5749
 6487TIP3   OH240875   6.144   3.462   3.734 -0.3115 -0.0351 -0.3632
 6487TIP3    H140876   6.112   3.389   3.681 -2.0753  0.2375  0.2691
 6487TIP3    H240877   6.067   3.494   3.781  0.3823  2.2983 -0.6676
 6488TIP3   OH240878   0.547   5.781   2.914  0.6325  0.7456  0.1544
 6488TIP3    H140879   0.482   5.849   2.932  0.9257  0.8194  0.9947
 6488TIP3    H240880   0.631   5.822   2.933  0.9206  0.6133 -0.8056
 6489TIP3   OH240881   1.019   3.982  16.092 -0.2405  0.4863  0.0148
 6489TIP3    H140882   0.937   3.962  16.138 -0.1008  0.4910  0.2694
 6489TIP3    H240883   0.993   4.003  16.003 -0.2950 -2.4559 -0.7642
 6490TIP3   OH240884   0.177   4.735   0.570 -0.2922  0.4696 -0.6607
 6490TIP3    H140885   0.247   4.795   0.544  0.3246  0.3976  0.7384
 6490TIP3    H240886   0.139   4.705   0.487 -0.0309  2.0889 -1.4097
 6491TIP3   OH240887   4.940   5.777   1.785 -0.8397 -0.5587  0.2968
 6491TIP3    H140888   4.903   5.861   1.757 -0.9168 -0.0997  1.6979
 6491TIP3    H240889   4.883   5.748   1.856  0.5336 -0.6224  1.4328
 6492TIP3   OH240890   5.804   0.616   1.955 -0.6706  0.1573 -0.0883
 6492TIP3    H140891   5.728   0.602   1.899 -1.9017  1.3288  1.2227
 6492TIP3    H240892   5.794   0.553   2.026 -1.0144  1.0225  0.6488
 6493TIP3   OH240893   4.117   1.719  17.150 -0.4559  0.1160 -0.0101
 6493TIP3    H140894   4.151   1.781  17.215  0.3338  0.0345 -0.3259
 6493TIP3    H240895   4.022   1.727  17.156 -0.3735  0.8619  0.4257
 6494TIP3   OH240896   4.751   1.927   2.120 -0.1096  0.0183 -0.4910
 6494TIP3    H140897   4.837   1.963   2.142 -0.6152  0.6634  0.4849
 6494TIP3    H240898   4.697   1.946   2.197 -0.3728 -2.9991  0.1727
 6495TIP3   OH240899   2.387   2.666  12.666 -0.0444  0.4445  0.4395
 6495TIP3    H140900   2.452   2.736  12.670  0.9927 -0.4965  0.7860
 6495TIP3    H240901   2.437   2.588  12.642 -1.5063  0.2073 -2.2334
 6496TIP3   OH240902   0.745   6.484   3.424  0.1027  0.1806  0.0303
 6496TIP3    H140903   0.662   6.475   3.377 -0.6947  1.9167  1.0170
 6496TIP3    H240904   0.751   6.406   3.478 -1.8165  0.8393  1.2947
 6497TIP3   OH240905   1.988   4.411   0.074  0.1839 -0.0996  0.1966
 6497TIP3    H140906   1.898   4.418   0.043  0.4493  2.8237 -0.1424
 6497TIP3    H240907   1.982   4.353   0.150 -1.7774 -0.8696 -0.4823
 6498TIP3   OH240908   0.217   5.439   3.556  0.0947 -0.4095 -0.1347
 6498TIP3    H140909   0.311   5.458   3.547  0.0041 -0.2901 -0.8933
 6498TIP3    H240910   0.191   5.408   3.470 -0.7881  0.5487 -0.2190
 6499TIP3   OH240911   6.118   6.443  13.760 -0.5909 -0.3288  0.2663
 6499TIP3    H140912   6.137   6.455  13.853 -0.8263  0.0569  0.2684
 6499TIP3    H240913   6.032   6.485  13.748 -0.4905 -0.2410 -0.1513
 6500TIP3   OH240914   4.700   4.782  14.353 -0.1092 -0.4300  1.2699
 6500TIP3    H140915   4.641   4.778  14.428 -0.7360  1.6162  0.9466
 6500TIP3    H240916   4.648   4.823  14.283  1.6074  1.3286  0.9355
 6501TIP3   OH240917   4.727   5.695   3.980 -0.1705  0.1761  1.1544
 6501TIP3    H140918   4.745   5.601   3.970  0.4548  0.4548 -0.9282
 6501TIP3    H240919   4.642   5.699   4.023 -0.5158 -1.3745  0.6878
 6502TIP3   OH240920   2.828   6.288  12.654 -0.1039  0.5618 -0.6215
 6502TIP3    H140921   2.914   6.257  12.682 -0.7289 -0.1454  0.5719
 6502TIP3    H240922   2.844   6.378  12.624  0.8974  0.7682  0.4491
 6503TIP3   OH240923   1.724   5.878  11.258 -0.3888 -0.3148 -0.1620
 6503TIP3    H140924   1.650   5.899  11.201 -1.5437  0.4704  1.5681
 6503TIP3    H240925   1.690   5.815  11.321  0.4420 -0.0402  0.5882
 6504TIP3   OH240926   1.216   2.448  14.311  0.0328  0.3086 -0.1126
 6504TIP3    H140927   1.261   2.368  14.337 -0.1635 -0.0625 -0.8784
 6504TIP3    H240928   1.186   2.487  14.393 -0.8341 -0.9646  0.2015
 6505TIP3   OH240929   3.677   0.422  16.932 -0.0093 -0.0464 -0.1895
 6505TIP3    H140930   3.770   0.400  16.920  0.9660  1.8130  2.9059
 6505TIP3    H240931   3.637   0.342  16.965  0.1920 -1.1406 -2.4039
 6506TIP3   OH240932   4.080   1.597  13.066  0.5133  0.6083 -0.2238
 6506TIP3    H140933   4.173   1.595  13.088  0.4843  1.1695 -0.0552
 6506TIP3    H240934   4.039   1.646  13.137 -0.2957 -1.8220  1.0995
 6507TIP3   OH240935   5.198   5.422  12.520  0.6378 -0.5096  0.0604
 6507TIP3    H140936   5.276   5.439  12.465  1.4293  0.2269  1.3602
 6507TIP3    H240937   5.136   5.491  12.495  1.1745  0.1085  0.3932
 6508TIP3   OH240938   1.700   0.595   1.339  0.6013  0.1990  0.2406
 6508TIP3    H140939   1.695   0.632   1.251 -1.4042 -1.9505 -0.6633
 6508TIP3    H240940   1.737   0.508   1.327  1.2850  0.2474  1.7117
 6509TIP3   OH240941   4.276   1.756  16.067 -0.3775  0.3321  0.2889
 6509TIP3    H140942   4.263   1.703  15.988  2.1616  0.6716 -0.4559
 6509TIP3    H240943   4.246   1.844  16.042 -0.5759  0.2034  0.0689
 6510TIP3   OH240944   4.102   5.120  14.733  0.5063  0.0283 -0.2113
 6510TIP3    H140945   4.109   5.209  14.697 -0.4145  0.3027  0.2441
 6510TIP3    H240946   4.174   5.071  14.692  0.5082  0.7647 -1.1129
 6511TIP3   OH240947   3.316   4.079   3.664  0.0335 -0.1445  0.2379
 6511TIP3    H140948   3.268   4.001   3.693  0.3989 -0.6885 -0.5730
 6511TIP3    H240949   3.292   4.089   3.572  0.2023  0.5505  0.2650
 6512TIP3   OH240950   4.318   0.939   3.147 -0.9865  0.1868 -0.3247
 6512TIP3    H140951   4.397   0.958   3.197 -1.7052  1.2903  0.4212
 6512TIP3    H240952   4.316   0.843   3.142  0.7626  0.1395 -0.9864
 6513TIP3   OH240953   0.362   1.785  12.571 -0.0986 -0.2183 -0.6316
 6513TIP3    H140954   0.282   1.810  12.618  0.6899  0.7643  0.2268
 6513TIP3    H240955   0.333   1.766  12.482 -1.0004  2.1056 -0.8816
 6514TIP3   OH240956   6.401   4.663  14.341 -0.1952 -0.4577  0.3402
 6514TIP3    H140957   6.443   4.626  14.419  0.9003  2.2793  1.1872
 6514TIP3    H240958   6.322   4.706  14.374 -0.0147  0.2600 -0.1392
 6515TIP3   OH240959   3.889   3.841  10.595  0.2738 -0.2000  0.0468
 6515TIP3    H140960   3.807   3.891  10.597 -0.0735 -0.6782 -1.2446
 6515TIP3    H240961   3.946   3.892  10.538  1.0716  0.3674  1.2963
 6516TIP3   OH240962   4.570   4.766  16.895 -0.0099  0.0459 -0.0995
 6516TIP3    H140963   4.496   4.705  16.888  1.0978 -1.2290 -1.1162
 6516TIP3    H240964   4.641   4.715  16.933  0.8138  0.8295 -0.5377
 6517TIP3   OH240965   3.194   2.439  12.079 -0.2901  0.4805 -0.4138
 6517TIP3    H140966   3.276   2.450  12.032 -0.4471 -0.5225 -0.9669
 6517TIP3    H240967   3.157   2.358  12.044 -0.7820  0.0981  0.9014
 6518TIP3   OH240968   3.743   2.245   3.569  0.1069  0.0916  0.5436
 6518TIP3    H140969   3.803   2.228   3.641  0.3708  1.2562  0.6184
 6518TIP3    H240970   3.685   2.169   3.567  0.9874 -0.6053  1.0716
 6519TIP3   OH240971   0.899   2.709   5.622 -0.2334 -0.4879  0.1500
 6519TIP3    H140972   0.971   2.664   5.667  1.1481  1.2372 -0.2412
 6519TIP3    H240973   0.872   2.778   5.683 -0.4357 -0.0837 -0.3956
 6520TIP3   OH240974   0.566   0.247   4.936  0.0604  0.4397 -0.0821
 6520TIP3    H140975   0.622   0.256   4.859 -0.5777  1.0407 -0.4877
 6520TIP3    H240976   0.528   0.334   4.948  0.3622  0.4250  1.0824
 6521TIP3   OH240977   2.371   3.593  13.817 -0.6791  0.0452  0.7160
 6521TIP3    H140978   2.456   3.566  13.850 -1.3420 -2.6110  0.5143
 6521TIP3    H240979   2.380   3.592  13.722 -1.1168 -1.0347  0.6733
 6522TIP3   OH240980   2.266   6.140  13.998  0.5517  0.5758  0.5458
 6522TIP3    H140981   2.253   6.160  13.905  1.0429 -2.6809 -0.3631
 6522TIP3    H240982   2.182   6.160  14.039  0.3171  2.0579 -0.5740
 6523TIP3   OH240983   0.706   2.817   2.591 -0.5536 -0.1361  0.0170
 6523TIP3    H140984   0.668   2.732   2.571 -2.4135  0.7506 -0.4355
 6523TIP3    H240985   0.706   2.864   2.508 -1.0099  0.8396  0.5485
 6524TIP3   OH240986   6.611   2.989  16.144  0.5889  0.2125  0.5396
 6524TIP3    H140987   6.635   3.049  16.215 -2.0416  2.9037 -0.6038
 6524TIP3    H240988   6.632   3.037  16.064  0.2438 -1.2616 -0.4793
 6525TIP3   OH240989   1.303   4.022   0.312  0.1819 -0.0741  0.2900
 6525TIP3    H140990   1.312   4.067   0.396 -2.1100  0.6724  0.2233
 6525TIP3    H240991   1.387   3.979   0.297  0.7479  0.0693  2.7810
 6526TIP3   OH240992   0.867   5.111   0.893  0.1887 -0.0434 -0.7832
 6526TIP3    H140993   0.927   5.085   0.823  1.9891 -0.3899  0.7922
 6526TIP3    H240994   0.891   5.201   0.913 -0.0996 -0.0507 -0.3950
 6527TIP3   OH240995   5.750   6.394  14.552 -0.0489 -0.2616 -0.4286
 6527TIP3    H140996   5.842   6.390  14.526 -0.2757 -3.1447 -1.1840
 6527TIP3    H240997   5.750   6.373  14.645  0.0022 -1.8243 -0.7577
 6528TIP3   OH240998   2.851   3.254  16.269  0.3849  0.2047 -0.3264
 6528TIP3    H140999   2.895   3.326  16.225  0.4783  0.4991  0.2456
 6528TIP3    H241000   2.881   3.259  16.360 -0.3785  0.0601 -0.0606
 6529TIP3   OH241001   6.744   6.257   0.741 -0.4177 -0.4738 -0.3115
 6529TIP3    H141002   6.650   6.263   0.723 -0.2001  0.7107 -1.2490
 6529TIP3    H241003   6.750   6.225   0.831 -1.7422  0.3119  0.0837
 6530TIP3   OH241004   6.774   4.891   0.057 -0.0391 -0.5225 -0.7450
 6530TIP3    H141005   6.868   4.904   0.043 -0.0198 -0.7340 -0.8129
 6530TIP3    H241006   6.768   4.848   0.142 -0.0617 -0.7050 -0.8385
 6531TIP3   OH241007   1.510   1.190   1.472 -0.4680  0.4200 -0.0609
 6531TIP3    H141008   1.434   1.138   1.500  0.2128  0.1363  1.3396
 6531TIP3    H241009   1.585   1.137   1.496  0.2235  0.2339 -2.3566
 6532TIP3   OH241010   4.207   3.535  14.569 -0.8105 -0.4294 -0.3409
 6532TIP3    H141011   4.130   3.544  14.513 -2.1669 -1.1351  1.3331
 6532TIP3    H241012   4.187   3.588  14.646 -0.3870 -1.9369  0.8543
 6533TIP3   OH241013   4.488   6.535   3.351 -0.5744 -0.3387 -0.2432
 6533TIP3    H141014   4.413   6.483   3.322  0.0586 -1.0584 -0.6082
 6533TIP3    H241015   4.551   6.471   3.384  0.3097  0.1559 -0.9187
 6534TIP3   OH241016   1.540   3.562  13.355  0.2968 -0.1631  0.5859
 6534TIP3    H141017   1.609   3.555  13.289 -0.0317 -2.3001  0.4039
 6534TIP3    H241018   1.474   3.618  13.315  1.5677  1.3396  0.4841
 6535TIP3   OH241019   6.012   0.005  12.845 -0.0719 -0.4808 -0.0146
 6535TIP3    H141020   5.931  -0.018  12.890 -0.1107 -0.4374 -0.0607
 6535TIP3    H241021   5.984   0.025  12.755 -0.3282  1.6654  0.4872
 6536TIP3   OH241022   2.084   3.354  14.795  0.1724 -0.0912 -0.6010
 6536TIP3    H141023   2.123   3.268  14.810 -0.9963 -0.5443 -0.0300
 6536TIP3    H241024   2.158   3.414  14.793  0.8583 -0.7642  1.5903
 6537TIP3   OH241025   0.076   1.332   4.281 -0.0791 -0.2742 -0.1370
 6537TIP3    H141026   0.064   1.421   4.248  0.0527 -0.4948 -0.7968
 6537TIP3    H241027   0.128   1.288   4.214 -0.5632 -0.9921 -0.0535
 6538TIP3   OH241028   0.644   2.457  16.641  0.5906 -0.1947 -0.2450
 6538TIP3    H141029   0.677   2.377  16.683 -0.4396  0.2563  1.5250
 6538TIP3    H241030   0.695   2.527  16.680 -0.0329  0.1983 -0.1198
 6539TIP3   OH241031   3.517   2.340  12.632 -0.1539 -0.2076 -0.3126
 6539TIP3    H141032   3.563   2.367  12.712 -0.3744 -1.1585  0.1453
 6539TIP3    H241033   3.551   2.253  12.613 -0.0824  0.0229 -1.2866
 6540TIP3   OH241034   5.293   1.197  10.936 -0.1580 -0.6964 -0.1044
 6540TIP3    H141035   5.227   1.194  10.866  0.6942 -1.4873 -0.9111
 6540TIP3    H241036   5.340   1.113  10.928  1.3163  0.0755  0.0613
 6541TIP3   OH241037   6.588   5.191   4.314 -0.4263 -0.4238 -0.1850
 6541TIP3    H141038   6.626   5.103   4.309  0.4841 -0.0464 -0.1184
 6541TIP3    H241039   6.610   5.231   4.229  0.7516  0.3533  0.4628
 6542TIP3   OH241040   5.033   6.427  12.300  0.7206 -0.7306 -0.4145
 6542TIP3    H141041   4.982   6.507  12.285  3.3569  1.1956  0.0684
 6542TIP3    H241042   5.045   6.425  12.395 -0.5577 -2.6375 -0.2293
 6543TIP3   OH241043   1.947   1.963   4.131  0.4675  0.1102  0.7675
 6543TIP3    H141044   1.942   1.867   4.134 -0.1084  0.1254  0.5175
 6543TIP3    H241045   1.858   1.991   4.112  0.9236  0.6186 -0.7982
 6544TIP3   OH241046   0.392   6.609   5.415 -0.6005  0.0280  0.0573
 6544TIP3    H141047   0.404   6.616   5.320  0.7352 -2.2232 -0.0015
 6544TIP3    H241048   0.401   6.699   5.446  2.4055  0.4675 -1.6396
 6545TIP3   OH241049   1.830   6.106   3.269  0.3967 -0.4931  0.2385
 6545TIP3    H141050   1.878   6.138   3.345 -0.0158 -0.1148  0.3469
 6545TIP3    H241051   1.768   6.042   3.306  0.6359 -0.7830  0.1359
 6546TIP3   OH241052   4.859   4.231  12.477 -0.3356 -0.3088 -0.0196
 6546TIP3    H141053   4.786   4.292  12.486  0.4023  0.4148  1.4507
 6546TIP3    H241054   4.935   4.280  12.508  0.6569 -1.2899 -0.8164
 6547TIP3   OH241055   4.277   0.410   1.036 -0.0146  0.1053 -0.3063
 6547TIP3    H141056   4.267   0.485   0.978 -0.2793 -0.5041 -1.0612
 6547TIP3    H241057   4.245   0.335   0.985 -0.7202 -0.3731  0.7807
 6548TIP3   OH241058   0.408   6.712   2.693 -0.5005 -0.1550  0.1055
 6548TIP3    H141059   0.389   6.755   2.610  0.4732  1.7179  0.7927
 6548TIP3    H241060   0.388   6.620   2.678 -2.3521  0.4548 -1.5578
 6549TIP3   OH241061   2.892   2.227   0.083 -0.5083 -0.5989  0.6605
 6549TIP3    H141062   2.947   2.243   0.159 -1.6549 -0.1742  1.4322
 6549TIP3    H241063   2.803   2.243   0.114 -0.8744  1.9419 -1.3424
 6550TIP3   OH241064   4.978   3.309   0.957  0.3214  0.2043  0.3732
 6550TIP3    H141065   4.935   3.359   0.888  1.8628  1.5532  0.3117
 6550TIP3    H241066   5.018   3.376   1.013 -2.0350 -0.6942  3.4747
 6551TIP3   OH241067   5.439   1.342   4.268 -0.1870  0.5651 -0.7030
 6551TIP3    H141068   5.444   1.420   4.212  0.2920 -0.3211 -1.9512
 6551TIP3    H241069   5.412   1.375   4.353 -0.8834  1.9845 -1.4376
 6552TIP3   OH241070   4.815   3.810   1.038  0.4115  0.1358  0.2124
 6552TIP3    H141071   4.782   3.899   1.036  2.7759  1.1076  1.1184
 6552TIP3    H241072   4.736   3.755   1.045 -1.1514  2.0334 -1.3435
 6553TIP3   OH241073   5.619   3.968   2.186  0.1552  0.0815  0.2735
 6553TIP3    H141074   5.646   4.059   2.170  1.1603 -0.1498  0.6055
 6553TIP3    H241075   5.533   3.976   2.226 -0.6101  0.8142 -1.4284
 6554TIP3   OH241076   3.972   2.592   4.462 -0.3553  0.4453  0.7412
 6554TIP3    H141077   3.895   2.536   4.469 -2.6037  3.2353  0.1500
 6554TIP3    H241078   4.000   2.582   4.371 -1.7270  1.3524  0.1747
 6555TIP3   OH241079   1.525   0.732   4.290 -0.0354 -0.3515  0.2614
 6555TIP3    H141080   1.474   0.809   4.316  0.1493  1.5584 -4.1453
 6555TIP3    H241081   1.615   0.764   4.284 -0.2102 -0.1848 -3.4199
 6556TIP3   OH241082   3.924   4.229   4.456  0.6829 -0.0702  0.2550
 6556TIP3    H141083   3.854   4.293   4.467  0.2950 -0.0839 -1.7742
 6556TIP3    H241084   3.884   4.157   4.408  2.3422  0.5170 -2.1910
 6557TIP3   OH241085   0.717   4.819  11.802 -0.0146  0.0287  0.3513
 6557TIP3    H141086   0.750   4.748  11.748 -1.4743  0.2055 -0.8373
 6557TIP3    H241087   0.792   4.877  11.814  0.1468  0.5568 -2.4619
 6558TIP3   OH241088   5.302   0.726   3.940  0.1480  0.2353 -0.1264
 6558TIP3    H141089   5.333   0.789   3.875 -0.8408  0.1146 -0.7353
 6558TIP3    H241090   5.375   0.717   4.002  0.5453  1.4649 -0.3999
 6559TIP3   OH241091   0.998   3.248   6.548  0.3269 -0.2884  0.1256
 6559TIP3    H141092   0.966   3.338   6.541  0.1270 -0.3284  0.4595
 6559TIP3    H241093   1.022   3.223   6.459  1.3164  0.4297  0.1814
 6560TIP3   OH241094   0.225   2.295  16.998 -0.1069  0.4299  0.0093
 6560TIP3    H141095   0.138   2.266  16.970 -0.3852 -0.4825  1.7023
 6560TIP3    H241096   0.279   2.289  16.919 -1.8298  2.2965 -1.4222
 6561TIP3   OH241097   2.947   6.460   2.112  0.2456 -0.0468 -0.3775
 6561TIP3    H141098   2.906   6.414   2.185  0.6235  0.9057  0.4656
 6561TIP3    H241099   2.920   6.412   2.034 -0.3074 -0.9841  0.3769
 6562TIP3   OH241100   5.493   3.385  12.308  0.6651 -0.3039 -0.2519
 6562TIP3    H141101   5.586   3.400  12.325  1.0784 -0.2152 -2.3290
 6562TIP3    H241102   5.461   3.468  12.273 -0.6901  0.2646  2.1415
 6563TIP3   OH241103   3.169   3.486   4.983 -0.3578 -0.0619  0.3760
 6563TIP3    H141104   3.209   3.551   4.926  0.2392  1.0737  2.0037
 6563TIP3    H241105   3.110   3.537   5.039 -0.4498 -1.0337  1.1887
 6564TIP3   OH241106   6.592   1.239   1.823  0.4172  0.4301  0.2097
 6564TIP3    H141107   6.648   1.217   1.749 -0.2294 -0.6586  0.0303
 6564TIP3    H241108   6.627   1.323   1.854  2.6539 -0.5764  0.6231
 6565TIP3   OH241109   5.191   4.124  14.113  0.1907  0.4119 -0.6286
 6565TIP3    H141110   5.135   4.140  14.037 -2.0592  0.0084  0.8504
 6565TIP3    H241111   5.170   4.034  14.138  0.6046  0.6652  0.6818
 6566TIP3   OH241112   2.792   2.947  13.511 -0.0755  0.5041  0.3305
 6566TIP3    H141113   2.751   3.022  13.467 -1.6314 -0.0126  0.8437
 6566TIP3    H241114   2.727   2.877  13.505  1.4638 -0.9327 -0.3948
 6567TIP3   OH241115   3.168   3.085  15.766 -0.1703 -0.2925  0.2892
 6567TIP3    H141116   3.149   3.157  15.826  0.6615  1.3445 -1.3357
 6567TIP3    H241117   3.082   3.052  15.740 -0.5540 -0.0971  1.2659
 6568TIP3   OH241118   0.922   5.833   3.131  0.3645 -0.4098  0.1161
 6568TIP3    H141119   0.906   5.756   3.185 -0.4705  0.0199  0.5036
 6568TIP3    H241120   1.015   5.829   3.110  0.0684 -2.3020 -1.0935
 6569TIP3   OH241121   4.983   6.174   3.483 -0.9953 -0.2547 -0.2887
 6569TIP3    H141122   4.948   6.227   3.556  0.9908 -0.9266  1.2282
 6569TIP3    H241123   5.004   6.090   3.523  2.0987  0.0311 -1.0955
 6570TIP3   OH241124   4.094   5.192  16.663  0.0449  0.3422  0.0289
 6570TIP3    H141125   4.122   5.272  16.707  0.7697 -0.0090  0.2069
 6570TIP3    H241126   4.014   5.166  16.710  0.4367  0.3399  0.7036
 6571TIP3   OH241127   2.740   2.700   5.860  0.4474 -0.3199 -0.3768
 6571TIP3    H141128   2.759   2.681   5.952  1.5473  1.7384 -0.1162
 6571TIP3    H241129   2.777   2.627   5.812  0.3949 -1.1329  0.7737
 6572TIP3   OH241130   3.655   5.464  13.093  0.2643 -0.0179 -0.4013
 6572TIP3    H141131   3.699   5.505  13.168  0.9302 -0.4343 -0.5543
 6572TIP3    H241132   3.630   5.377  13.125 -2.5621  0.9979  0.4362
 6573TIP3   OH241133   6.514   4.901   2.543 -0.0623  0.0718 -0.1850
 6573TIP3    H141134   6.586   4.842   2.563  1.5307  1.6712 -0.9990
 6573TIP3    H241135   6.494   4.885   2.451 -1.4706 -1.0547  0.2719
 6574TIP3   OH241136   2.062   4.206   3.072  0.1973  0.0889 -0.2224
 6574TIP3    H141137   1.982   4.161   3.047 -0.5093  1.4339 -0.4605
 6574TIP3    H241138   2.033   4.280   3.125  1.4557 -0.8142  1.8715
 6575TIP3   OH241139   6.726   5.246   1.638 -0.0289 -0.6458  0.4539
 6575TIP3    H141140   6.737   5.219   1.547  0.2578  0.2290  0.2225
 6575TIP3    H241141   6.815   5.262   1.669 -0.1391 -0.7620  0.8429
 6576TIP3   OH241142   0.792   3.182  13.580  0.1756  0.1509  0.5381
 6576TIP3    H141143   0.881   3.173  13.616  0.8804  1.0073 -0.9239
 6576TIP3    H241144   0.792   3.128  13.501 -0.4538  0.5502  0.2577
 6577TIP3   OH241145   3.888   2.003  11.892 -0.4006  0.2467  0.1457
 6577TIP3    H141146   3.899   2.097  11.908 -0.5298  0.2295  0.3371
 6577TIP3    H241147   3.969   1.977  11.849 -0.3980  0.4639  0.0147
 6578TIP3   OH241148   6.561   6.341   4.199  0.1946 -0.3133  0.3347
 6578TIP3    H141149   6.470   6.325   4.226  0.1881  0.6937  0.9495
 6578TIP3    H241150   6.613   6.284   4.257 -0.0384 -0.9036 -0.0297
 6579TIP3   OH241151   4.039   4.860  13.747  0.0729  0.4313  0.3334
 6579TIP3    H141152   4.059   4.767  13.737 -1.9418  0.0622 -0.6896
 6579TIP3    H241153   3.943   4.865  13.743  0.1612  2.6240 -0.3514
 6580TIP3   OH241154   5.649   5.276   4.962 -0.9385  0.2045  0.5531
 6580TIP3    H141155   5.736   5.236   4.952 -1.4570 -0.6847 -0.6138
 6580TIP3    H241156   5.662   5.343   5.029  0.7170  0.2847  0.2134
 6581TIP3   OH241157   4.465   3.357  14.814 -0.0600 -0.2050 -0.3441
 6581TIP3    H141158   4.446   3.400  14.731  1.4277  0.9139 -0.1478
 6581TIP3    H241159   4.521   3.418  14.861  1.6522 -2.1008  0.2236
 6582TIP3   OH241160   5.258   6.479  16.012  0.3142  0.3345  0.7969
 6582TIP3    H141161   5.345   6.515  16.029  1.5891 -1.1228 -2.0138
 6582TIP3    H241162   5.216   6.542  15.953  0.7541 -0.4867 -0.4222
 6583TIP3   OH241163   0.437   5.886   0.229  0.2800  0.5638 -0.3373
 6583TIP3    H141164   0.434   5.815   0.294  0.2491  1.1903  0.3528
 6583TIP3    H241165   0.351   5.881   0.185 -0.5868  1.5248  1.1801
 6584TIP3   OH241166   6.542   2.772  12.867  0.4581 -0.2521 -0.1868
 6584TIP3    H141167   6.628   2.787  12.907  1.6765 -2.9337 -1.5768
 6584TIP3    H241168   6.546   2.819  12.784  0.7904 -0.8403 -0.5025
 6585TIP3   OH241169   2.015   4.447  16.147  0.3557  0.1535 -0.5096
 6585TIP3    H141170   2.070   4.463  16.070 -0.4633  0.4392 -1.0489
 6585TIP3    H241171   1.938   4.401  16.113 -0.0539  0.3479  0.1215
 6586TIP3   OH241172   3.232   0.193  16.014  0.4303 -0.0544 -0.2384
 6586TIP3    H141173   3.246   0.177  16.107  0.8114  1.5334  0.0165
 6586TIP3    H241174   3.320   0.212  15.979 -0.0332  2.5668 -0.1971
 6587TIP3   OH241175   3.217   5.798  15.565  0.4348  0.2169 -0.3915
 6587TIP3    H141176   3.157   5.727  15.585  0.4978 -0.3923 -2.2002
 6587TIP3    H241177   3.165   5.878  15.577  0.3822 -0.0662  1.7009
 6588TIP3   OH241178   3.871   4.738   1.223 -0.5765  0.4674  0.1295
 6588TIP3    H141179   3.967   4.735   1.218 -0.5737 -2.3728  0.7448
 6588TIP3    H241180   3.852   4.829   1.247  2.0514  0.7442  1.5486
 6589TIP3   OH241181   5.866   2.600  13.798  0.2156  0.3786  0.2520
 6589TIP3    H141182   5.931   2.532  13.815  0.2445  0.8105  2.1478
 6589TIP3    H241183   5.826   2.616  13.883 -1.1571  1.3591 -0.5409
 6590TIP3   OH241184   0.884   6.765   1.918 -0.3462  0.5015 -0.5469
 6590TIP3    H141185   0.847   6.853   1.924 -1.2254  0.0368  1.7726
 6590TIP3    H241186   0.898   6.738   2.009  0.0521 -1.7016 -1.1958
 6591TIP3   OH241187   4.662   4.059   1.446 -0.4402  1.1277  0.1204
 6591TIP3    H141188   4.616   3.977   1.426 -0.8023  1.7820 -1.9110
 6591TIP3    H241189   4.611   4.098   1.517 -0.6697 -0.0361  0.6298
 6592TIP3   OH241190   0.669   5.549  12.826 -0.8248 -0.0758  0.0409
 6592TIP3    H141191   0.661   5.584  12.915 -1.6628  1.1583 -0.4908
 6592TIP3    H241192   0.609   5.474  12.824 -2.6526  1.3175 -0.1289
 6593TIP3   OH241193   3.725   3.923  15.432 -0.2230 -0.0191 -0.1014
 6593TIP3    H141194   3.744   3.972  15.512  3.3111  1.0933 -1.4566
 6593TIP3    H241195   3.711   3.989  15.365 -0.5808 -0.9307 -0.9525
 6594TIP3   OH241196   1.399   3.340   0.730  0.3097  0.0295  0.5217
 6594TIP3    H141197   1.420   3.252   0.697  1.6813 -0.7665  3.2636
 6594TIP3    H241198   1.377   3.326   0.822 -0.0346  2.5248  0.8737
 6595TIP3   OH241199   1.940   6.774  15.322  0.7428 -0.4891 -0.0146
 6595TIP3    H141200   1.975   6.847  15.272 -0.7871  1.7983  2.0422
 6595TIP3    H241201   2.011   6.750  15.382  0.7021  0.4093  0.3977
 6596TIP3   OH241202   6.390   3.575  10.515  0.3851 -0.3503 -0.0009
 6596TIP3    H141203   6.415   3.490  10.480 -0.0376  0.3608 -2.1982
 6596TIP3    H241204   6.470   3.611  10.552  1.0295 -0.9234 -0.8058
 6597TIP3   OH241205   6.145   0.883  14.824  0.7046  0.4476 -0.1403
 6597TIP3    H141206   6.151   0.789  14.808  1.4510  0.4290  0.1830
 6597TIP3    H241207   6.054   0.905  14.808  0.4738 -0.3770  0.0070
 6598TIP3   OH241208   6.242   1.817   4.064  0.0058  0.0743  0.2254
 6598TIP3    H141209   6.267   1.893   4.012 -0.1523  0.4611  0.7150
 6598TIP3    H241210   6.146   1.813   4.056  0.0450 -0.3232 -0.1363
 6599TIP3   OH241211   4.344   1.895  14.156  0.0300 -0.0413  0.4824
 6599TIP3    H141212   4.353   1.864  14.246  0.7803  1.0123  0.7893
 6599TIP3    H241213   4.327   1.989  14.165 -0.6124 -0.0575 -0.4613
 6600TIP3   OH241214   0.522   5.193  12.259  0.2573 -0.2810 -0.7043
 6600TIP3    H141215   0.531   5.146  12.342 -1.2832 -1.1815 -1.0133
 6600TIP3    H241216   0.612   5.217  12.236  0.6918  0.3507  1.4035
 6601TIP3   OH241217   2.458   2.995  17.205  0.2312 -0.7388  1.1641
 6601TIP3    H141218   2.511   3.074  17.193 -1.4291  0.3942  0.8940
 6601TIP3    H241219   2.368   3.025  17.193 -0.4885 -2.5748  1.6563
 6602TIP3   OH241220   5.081   0.119   0.262 -0.0433 -0.2044 -0.1505
 6602TIP3    H141221   4.990   0.091   0.255 -0.1080  0.1937 -1.2518
 6602TIP3    H241222   5.077   0.215   0.257  0.4391 -0.1921 -0.3758
 6603TIP3   OH241223   0.501   5.409   0.447  0.2176 -0.5276  0.8066
 6603TIP3    H141224   0.558   5.340   0.412 -0.0067 -0.3340  0.0429
 6603TIP3    H241225   0.559   5.461   0.502  0.9795  0.0861 -0.5194
 6604TIP3   OH241226   3.325   6.172   0.948  0.1681  0.0844  0.0306
 6604TIP3    H141227   3.294   6.150   0.861  0.2222  0.2920 -0.0410
 6604TIP3    H241228   3.410   6.127   0.955  0.0146 -0.2008  0.1002
 6605TIP3   OH241229   3.549   4.286  12.958 -0.7523 -0.0464  0.0013
 6605TIP3    H141230   3.472   4.279  13.014 -0.6290  1.7747  0.4611
 6605TIP3    H241231   3.549   4.205  12.907 -3.0478 -0.0455 -0.1086
 6606TIP3   OH241232   1.898   4.844   5.260 -0.2906 -0.2372 -0.3195
 6606TIP3    H141233   1.880   4.860   5.353 -0.3130  0.1310 -0.3855
 6606TIP3    H241234   1.969   4.905   5.239 -0.3357 -0.2697 -0.5623
 6607TIP3   OH241235   2.192   5.961   4.692  0.3891  0.0360 -0.2445
 6607TIP3    H141236   2.256   5.999   4.752 -1.1793 -1.3158  2.4960
 6607TIP3    H241237   2.141   6.036   4.662  0.2601  0.6483  1.3884
 6608TIP3   OH241238   0.525   4.975   5.337  0.0582  0.0018 -0.0129
 6608TIP3    H141239   0.530   5.028   5.257  0.1823  2.2369  1.3849
 6608TIP3    H241240   0.615   4.972   5.369 -0.1066 -0.2454  0.4311
 6609TIP3   OH241241   6.323   6.303   4.885 -0.6308 -0.5356  0.6199
 6609TIP3    H141242   6.243   6.306   4.938 -0.4015  0.7657  0.9269
 6609TIP3    H241243   6.301   6.353   4.806 -0.2250 -0.4599  0.5557
 6610TIP3   OH241244   3.333   6.628   3.505  1.2719  0.0038  0.0369
 6610TIP3    H141245   3.259   6.598   3.452  0.3061  1.7511  0.3166
 6610TIP3    H241246   3.407   6.631   3.445  0.8264 -0.6350 -0.5467
 6611TIP3   OH241247   5.058   2.058  11.231  0.7988 -0.2638 -0.3862
 6611TIP3    H141248   5.115   2.086  11.302  0.2980 -1.1771  0.4088
 6611TIP3    H241249   4.978   2.109  11.243  1.1899  0.5397 -1.1057
 6612TIP3   OH241250   5.889   4.530   0.116  0.1468 -0.2434  0.3372
 6612TIP3    H141251   5.975   4.567   0.132 -0.8603  1.4167  2.5246
 6612TIP3    H241252   5.865   4.562   0.029  0.9874  0.8867  0.4935
 6613TIP3   OH241253   1.929   1.436  13.824 -0.3737  0.0814  0.0282
 6613TIP3    H141254   1.902   1.475  13.907 -1.3231 -0.6444  0.0771
 6613TIP3    H241255   1.937   1.510  13.764  2.5145  0.9338  1.2694
 6614TIP3   OH241256   5.656   2.746   1.606  0.5240  0.1776  0.3124
 6614TIP3    H141257   5.619   2.757   1.519  0.9150  1.9456  0.3361
 6614TIP3    H241258   5.704   2.663   1.602 -2.2489 -1.5174 -0.1093
 6615TIP3   OH241259   5.848   3.089  14.817  0.3428 -0.2462  0.0205
 6615TIP3    H141260   5.942   3.091  14.837  0.0280 -0.6486  1.6622
 6615TIP3    H241261   5.808   3.141  14.887 -0.6720 -0.1006 -0.6500
 6616TIP3   OH241262   3.500   1.027   5.631 -0.0947 -0.5686  0.1087
 6616TIP3    H141263   3.574   1.031   5.571 -0.2812 -1.6137 -0.1987
 6616TIP3    H241264   3.423   1.022   5.574 -0.5408  1.8294  0.3941
 6617TIP3   OH241265   0.148   0.097  10.449  0.6112  0.3776 -0.2369
 6617TIP3    H141266   0.223   0.080  10.391  0.0739  0.5242 -0.9807
 6617TIP3    H241267   0.140   0.017  10.501  0.1780 -0.3568 -1.4013
 6618TIP3   OH241268   2.528   5.668  14.355 -0.1404  0.0851 -0.2110
 6618TIP3    H141269   2.604   5.724  14.369 -1.0670  1.0240  1.2844
 6618TIP3    H241270   2.460   5.727  14.325 -0.7011 -0.4967 -0.1024
 6619TIP3   OH241271   3.869   4.603  12.213  0.0658  0.0724 -0.1151
 6619TIP3    H141272   3.928   4.583  12.140 -0.8848 -0.6790 -0.6881
 6619TIP3    H241273   3.814   4.674  12.181 -1.4597 -1.3541 -0.7643
 6620TIP3   OH241274   1.929   0.117   1.642 -0.2689  0.4258 -0.2559
 6620TIP3    H141275   1.919   0.023   1.658 -1.9859  0.9388  2.2474
 6620TIP3    H241276   1.936   0.124   1.547  2.9509 -2.4122 -0.4305
 6621TIP3   OH241277   2.069   4.817   0.770 -0.0856 -0.2912 -0.5752
 6621TIP3    H141278   2.128   4.789   0.700 -0.5126 -2.2770 -0.2143
 6621TIP3    H241279   1.997   4.860   0.725 -0.2665 -1.3753 -1.3764
 6622TIP3   OH241280   3.589   2.285   1.557 -0.2479  0.0631  0.4644
 6622TIP3    H141281   3.552   2.201   1.584 -0.3222 -0.2635 -0.6256
 6622TIP3    H241282   3.531   2.351   1.596  1.0580 -0.2699  3.2628
 6623TIP3   OH241283   5.660   1.851   5.833  0.2593 -0.0603  0.1686
 6623TIP3    H141284   5.615   1.900   5.902 -0.7244 -3.6998  2.3511
 6623TIP3    H241285   5.597   1.846   5.762 -0.1076  0.6539  0.4299
 6624TIP3   OH241286   6.294   0.107  13.540 -0.1075  0.2324  0.2769
 6624TIP3    H141287   6.246   0.028  13.515  0.9018  0.4498 -2.7312
 6624TIP3    H241288   6.375   0.074  13.580 -1.3315 -0.1424  2.6133
 6625TIP3   OH241289   1.604   1.835  16.434 -0.0942 -0.5022  0.3457
 6625TIP3    H141290   1.636   1.844  16.344 -0.5840  0.8633  0.2764
 6625TIP3    H241291   1.669   1.779  16.477 -1.1254 -3.2646 -1.4516
 6626TIP3   OH241292   5.905   0.536  17.031  0.3121 -0.2021  1.1511
 6626TIP3    H141293   5.816   0.551  17.002  0.6082 -1.6721 -0.7009
 6626TIP3    H241294   5.925   0.610  17.087 -1.3178  1.3074 -0.1698
 6627TIP3   OH241295   1.655   2.224   1.614 -0.0335  0.1571  0.2016
 6627TIP3    H141296   1.579   2.192   1.565  1.1535 -1.1650 -0.8636
 6627TIP3    H241297   1.632   2.208   1.706 -1.0583 -0.1748 -0.0936
 6628TIP3   OH241298   2.634   5.982  17.069 -0.5468  0.7686  0.0878
 6628TIP3    H141299   2.629   6.070  17.106  2.2984  1.1393 -0.2336
 6628TIP3    H241300   2.593   5.990  16.983 -2.5535  1.1220  1.0162
 6629TIP3   OH241301   5.338   3.617   5.235  0.5430 -0.4609  0.3036
 6629TIP3    H141302   5.348   3.539   5.289  0.4588 -0.7139 -0.0445
 6629TIP3    H241303   5.390   3.684   5.280  0.7346 -0.7547  0.5235
 6630TIP3   OH241304   1.067   2.007  12.757  0.2479  0.2621  0.3715
 6630TIP3    H141305   0.999   2.072  12.737  1.3244  1.3286  0.0567
 6630TIP3    H241306   1.019   1.925  12.770 -0.9549  0.5362 -1.8632
 6631TIP3   OH241307   4.306   4.318   6.190  0.2540 -0.7030 -0.2648
 6631TIP3    H141308   4.329   4.411   6.199 -0.0439 -0.6224 -0.3223
 6631TIP3    H241309   4.237   4.317   6.123 -1.2356 -0.7298  1.2207
 6632TIP3   OH241310   0.541   4.777  11.353  0.2662  0.1594 -0.6964
 6632TIP3    H141311   0.544   4.681  11.352  0.0112  0.1362  0.0981
 6632TIP3    H241312   0.591   4.803  11.275 -0.3050 -0.6249 -1.3455
 6633TIP3   OH241313   1.356   6.406   0.460  0.0905  0.1063 -0.3353
 6633TIP3    H141314   1.278   6.440   0.504 -0.6088 -0.8046 -0.8386
 6633TIP3    H241315   1.382   6.331   0.514  0.2654  0.0520 -0.4956
 6634TIP3   OH241316   2.675   1.386   0.504  0.1410  0.2693 -0.1953
 6634TIP3    H141317   2.734   1.421   0.571  1.2727 -1.8165 -0.0299
 6634TIP3    H241318   2.725   1.389   0.423  0.4737 -1.3578 -0.0861
 6635TIP3   OH241319   0.369   1.441  16.530 -0.2384  0.2038  0.2671
 6635TIP3    H141320   0.431   1.486  16.587  1.6067 -0.8515 -0.8055
 6635TIP3    H241321   0.310   1.510  16.500  1.3577  1.5874  0.1369
 6636TIP3   OH241322   4.728   2.667   5.004  0.5484  0.3653  0.0829
 6636TIP3    H141323   4.766   2.754   4.995 -0.5564  0.9518  0.9045
 6636TIP3    H241324   4.653   2.679   5.062  1.1556 -1.3495  1.3024
 6637TIP3   OH241325   4.523   4.788   0.365  0.1683  0.4252  0.0169
 6637TIP3    H141326   4.445   4.740   0.395  0.6827 -1.2295 -1.1211
 6637TIP3    H241327   4.580   4.790   0.441 -0.2502  0.0303  0.3542
 6638TIP3   OH241328   5.524   6.094  12.853 -0.0016  0.5502 -0.0970
 6638TIP3    H141329   5.521   6.059  12.942 -1.4614 -1.0655 -0.7063
 6638TIP3    H241330   5.576   6.030  12.804  0.8243  1.4424 -0.4215
 6639TIP3   OH241331   3.538   4.850   0.042 -0.4066  0.0869  0.0616
 6639TIP3    H141332   3.569   4.905  -0.030  2.0394  0.6149  1.4009
 6639TIP3    H241333   3.470   4.901   0.084  1.5065  2.0355  1.0156
 6640TIP3   OH241334   1.831   4.269  15.704  0.2426 -0.2715 -0.5298
 6640TIP3    H141335   1.826   4.175  15.685 -1.1865 -0.3583  0.1477
 6640TIP3    H241336   1.761   4.308  15.652  2.3782  0.8417 -2.8144
 6641TIP3   OH241337   1.018   5.152  13.094 -0.1207  0.5341 -0.8497
 6641TIP3    H141338   0.975   5.170  13.010 -1.9468 -1.9210 -0.5747
 6641TIP3    H241339   0.952   5.174  13.160 -0.1011 -0.9460 -0.2833
 6642TIP3   OH241340   5.462   4.234  15.773 -0.4138  0.0527 -0.1485
 6642TIP3    H141341   5.504   4.280  15.701 -4.0302 -0.6832 -3.0176
 6642TIP3    H241342   5.432   4.303  15.832  1.2326  0.7615 -0.0935
 6643TIP3   OH241343   4.778   5.613  16.784  0.4491 -0.4184 -0.3351
 6643TIP3    H141344   4.742   5.536  16.738  1.4239  0.9295 -3.6400
 6643TIP3    H241345   4.706   5.676  16.785 -1.1326 -1.9245  4.4478
 6644TIP3   OH241346   3.146   4.009  13.767  0.0722 -0.0188  0.1915
 6644TIP3    H141347   3.225   4.057  13.744 -0.1744 -0.1912 -1.1269
 6644TIP3    H241348   3.098   4.068  13.825  0.7663  0.4294  0.3286
 6645TIP3   OH241349   5.757   3.952  12.746  0.3187  0.3462  0.0938
 6645TIP3    H141350   5.739   3.935  12.654  0.4087 -2.4685  0.5030
 6645TIP3    H241351   5.673   3.935  12.790  0.7912 -0.5064  0.7104
 6646TIP3   OH241352   3.239   2.465  16.475 -0.4697  0.3713 -0.1121
 6646TIP3    H141353   3.184   2.469  16.553 -0.2375  0.3668  0.0516
 6646TIP3    H241354   3.196   2.524  16.412 -0.4776  0.6270  0.1300
 6647TIP3   OH241355   2.396   6.653   1.204 -0.5563 -0.2487 -0.5607
 6647TIP3    H141356   2.302   6.636   1.198 -0.5712 -0.1197 -0.6874
 6647TIP3    H241357   2.432   6.624   1.120 -0.5604  0.2065 -0.7205
 6648TIP3   OH241358   4.080   0.069   4.055 -0.0691  0.3849 -0.1749
 6648TIP3    H141359   4.118   0.104   3.975 -1.6970  1.4075 -0.5430
 6648TIP3    H241360   3.990   0.100   4.054 -0.4798 -0.6591  1.4278
 6649TIP3   OH241361   4.978   3.225   1.646  0.4812  0.0065  0.0132
 6649TIP3    H141362   5.034   3.302   1.655 -0.3111  0.7173 -0.8576
 6649TIP3    H241363   5.024   3.156   1.693  2.3235  0.4449 -1.0523
 6650TIP3   OH241364   3.367   3.176   1.555 -0.1463  0.0251  0.0666
 6650TIP3    H141365   3.452   3.207   1.523 -0.1480 -0.4550 -0.4304
 6650TIP3    H241366   3.341   3.109   1.491  0.2013 -1.5367  1.4813
 6651TIP3   OH241367   4.648   1.066   1.025  0.4113 -0.1428  0.4759
 6651TIP3    H141368   4.661   1.090   1.117  0.9852 -0.2558  0.4262
 6651TIP3    H241369   4.732   1.031   0.997  0.0853 -0.6026  0.0523
 6652TIP3   OH241370   1.390   1.397   3.252 -0.5483 -0.1964 -0.0462
 6652TIP3    H141371   1.403   1.489   3.275 -0.7687 -0.6207  1.9296
 6652TIP3    H241372   1.473   1.369   3.216 -0.9026  1.1231 -2.0452
 6653TIP3   OH241373   5.318   2.705  15.155 -0.6428 -0.0636 -0.8090
 6653TIP3    H141374   5.296   2.765  15.227 -2.1917 -2.2545  0.6910
 6653TIP3    H241375   5.291   2.619  15.187  1.8945 -1.6884 -2.6545
 6654TIP3   OH241376   1.946   6.166  12.258 -0.4147 -0.1024  0.1738
 6654TIP3    H141377   2.037   6.195  12.250 -0.1850 -1.1336 -1.4634
 6654TIP3    H241378   1.946   6.079  12.219 -2.0757 -0.2061  0.3610
 6655TIP3   OH241379   0.345   1.423   3.917  0.3577 -1.2011  0.1616
 6655TIP3    H141380   0.399   1.466   3.851 -1.2078 -0.4585 -0.6748
 6655TIP3    H241381   0.338   1.487   3.988  0.3993 -1.2114  0.1750
 6656TIP3   OH241382   1.669   5.944   2.409 -0.2917 -0.0434 -0.4280
 6656TIP3    H141383   1.734   5.920   2.475  0.4566  0.6187 -0.9172
 6656TIP3    H241384   1.686   5.886   2.335 -2.1000 -1.8593  0.4534
 6657TIP3   OH241385   0.315   4.286  11.901 -0.2684  0.1222 -0.0682
 6657TIP3    H141386   0.244   4.269  11.962 -0.0263 -0.0446  0.1683
 6657TIP3    H241387   0.352   4.370  11.929  1.7753 -1.3297  1.9048
 6658TIP3   OH241388   1.848   4.864   4.511  0.4286  0.2133 -0.6829
 6658TIP3    H141389   1.934   4.865   4.555  0.5172  0.2096 -0.8557
 6658TIP3    H241390   1.809   4.781   4.539 -0.9756  1.7072  2.1769
 6659TIP3   OH241391   4.928   3.664   3.229  0.0340 -0.1206 -0.1470
 6659TIP3    H141392   4.976   3.582   3.238  1.5912  0.7883  0.2224
 6659TIP3    H241393   4.949   3.713   3.308 -2.3318 -0.0393  0.5069
 6660TIP3   OH241394   2.970   1.602   4.127 -0.4853  0.5456 -0.1794
 6660TIP3    H141395   2.889   1.602   4.076 -0.5232 -0.8856 -0.1576
 6660TIP3    H241396   2.956   1.536   4.194  0.6431  0.3985 -0.0667
 6661TIP3   OH241397   1.552   2.388   6.765  1.4182 -0.1918 -0.1302
 6661TIP3    H141398   1.619   2.430   6.710  0.7327  1.9163  0.5244
 6661TIP3    H241399   1.597   2.374   6.849  1.9380 -1.7484 -0.6428
 6662TIP3   OH241400   2.230   0.033  13.280 -0.2439 -0.0657 -0.1595
 6662TIP3    H141401   2.279   0.053  13.201 -0.5046  3.3464  0.3825
 6662TIP3    H241402   2.138   0.035  13.253 -0.3143  0.6238  0.1089
 6663TIP3   OH241403   4.782   4.087  11.206 -0.3060 -0.2213  0.2052
 6663TIP3    H141404   4.762   4.143  11.130 -0.9345  1.0652  1.2809
 6663TIP3    H241405   4.709   4.101  11.266  0.5991 -0.5495  1.4193
 6664TIP3   OH241406   5.241   2.143   0.790 -0.7027  0.2279  0.4635
 6664TIP3    H141407   5.289   2.225   0.790 -1.3978  0.6775  1.8778
 6664TIP3    H241408   5.307   2.076   0.774 -0.2793  1.0929 -1.7830
 6665TIP3   OH241409   6.712   2.583  13.429 -0.0572 -0.7890  0.0609
 6665TIP3    H141410   6.689   2.638  13.354  1.0821  2.4315  1.8762
 6665TIP3    H241411   6.787   2.532  13.399 -0.4580 -0.5940 -1.3734
 6666TIP3   OH241412   3.387   2.694   1.632 -0.1688  0.0551 -0.2303
 6666TIP3    H141413   3.454   2.760   1.615  0.4539 -0.6529 -0.6123
 6666TIP3    H241414   3.304   2.735   1.607 -0.1662  1.6502  2.0518
 6667TIP3   OH241415   4.131   4.975  16.519  0.4646  0.4256  0.0924
 6667TIP3    H141416   4.121   5.066  16.546 -0.6992  0.3420  0.0006
 6667TIP3    H241417   4.071   4.926  16.576  1.8655 -0.4344  0.8796
 6668TIP3   OH241418   3.252   0.230   2.789 -0.4535 -0.3884  0.4965
 6668TIP3    H141419   3.259   0.134   2.786 -2.4571 -0.5394 -1.1334
 6668TIP3    H241420   3.223   0.255   2.702 -0.4994  1.6704  1.0507
 6669TIP3   OH241421   2.360   4.608  14.556 -0.8713 -0.3008  0.1197
 6669TIP3    H141422   2.423   4.615  14.485  0.7085 -0.1296  1.4832
 6669TIP3    H241423   2.400   4.654  14.629 -2.3768 -0.5853  1.1862
 6670TIP3   OH241424   6.328   2.068  12.529 -0.1163 -0.1510  0.0335
 6670TIP3    H141425   6.339   1.980  12.564  1.7649  0.4122  1.0314
 6670TIP3    H241426   6.333   2.057  12.434 -0.8366 -1.2035  0.1007
 6671TIP3   OH241427   5.319   2.192   1.196 -0.3720 -0.3866  0.3081
 6671TIP3    H141428   5.331   2.185   1.291  1.8184  2.7779  0.4281
 6671TIP3    H241429   5.381   2.130   1.159 -1.5597 -1.9755  0.8767
 6672TIP3   OH241430   5.382   1.184  14.880 -0.1814 -0.4292  0.6876
 6672TIP3    H141431   5.374   1.169  14.974 -2.0563  0.5316  0.7161
 6672TIP3    H241432   5.314   1.130  14.840 -0.5514  0.4919  0.0303
 6673TIP3   OH241433   5.243   5.358   5.772  0.5240  0.4988  0.2699
 6673TIP3    H141434   5.240   5.288   5.707 -1.8505 -0.6409  1.4940
 6673TIP3    H241435   5.276   5.317   5.852 -1.9557  0.3904  1.3242
 6674TIP3   OH241436   5.705   6.429   3.413 -0.0037  0.7295  0.2086
 6674TIP3    H141437   5.640   6.408   3.346  0.0261 -0.6272  0.5808
 6674TIP3    H241438   5.780   6.463   3.364 -0.2384  0.3932 -0.3920
 6675TIP3   OH241439   5.770   0.365  16.111  0.6128 -0.2813 -0.2066
 6675TIP3    H141440   5.770   0.350  16.206 -0.2468 -2.1493 -0.4402
 6675TIP3    H241441   5.679   0.351  16.085  1.0695 -1.1048 -1.4658
 6676TIP3   OH241442   0.233   1.235  12.407 -0.0515  0.1043  0.3937
 6676TIP3    H141443   0.155   1.237  12.352 -0.2505 -0.2083  0.6579
 6676TIP3    H241444   0.203   1.195  12.489  0.4459 -0.2675  0.4004
 6677TIP3   OH241445   4.797   0.023   5.010 -0.1104 -0.4296 -0.0307
 6677TIP3    H141446   4.731   0.064   5.066  0.3973  1.1530 -0.5327
 6677TIP3    H241447   4.874   0.016   5.066 -0.2114 -0.7617  0.0696
 6678TIP3   OH241448   4.460   4.327  15.575  0.5304 -0.1517  0.3588
 6678TIP3    H141449   4.484   4.349  15.664  1.2097  2.5055 -0.3939
 6678TIP3    H241450   4.444   4.411  15.533  1.9879 -1.1757 -2.5111
 6679TIP3   OH241451   5.892   6.154   2.298  0.0542 -0.1163 -0.0753
 6679TIP3    H141452   5.904   6.249   2.309  1.0964  0.1037 -2.4491
 6679TIP3    H241453   5.923   6.116   2.380  1.5401  1.5030  0.1766
 6680TIP3   OH241454   2.298   4.160  16.285  0.0465 -0.3850 -0.1259
 6680TIP3    H141455   2.326   4.085  16.232 -0.8423  1.0054 -2.7459
 6680TIP3    H241456   2.348   4.233  16.251 -1.4538  0.7983  0.1040
 6681TIP3   OH241457   2.002   1.945   4.859  0.1852 -0.3737 -0.4394
 6681TIP3    H141458   2.044   1.907   4.782  2.1181 -1.7594  1.1755
 6681TIP3    H241459   1.993   2.038   4.839  0.0164 -0.7888 -2.5458
 6682TIP3   OH241460   5.085   0.106  16.138 -0.1294  0.6484  0.4490
 6682TIP3    H141461   5.099   0.187  16.185 -1.1381  0.0312  1.8827
 6682TIP3    H241462   4.996   0.113  16.104 -0.3977 -0.0400  0.9899
 6683TIP3   OH241463   1.766   3.202  16.301 -0.5742 -0.0955  0.3919
 6683TIP3    H141464   1.828   3.137  16.333 -0.1847  1.3735  2.8074
 6683TIP3    H241465   1.785   3.209  16.207  1.3059 -1.3546  0.6236
 6684TIP3   OH241466   5.952   5.419  15.744  0.4205  0.3965  0.2564
 6684TIP3    H141467   5.868   5.442  15.704 -0.1863 -0.0876  1.2089
 6684TIP3    H241468   5.989   5.353  15.685  0.1690  0.6660 -0.2087
 6685TIP3   OH241469   6.601   5.395  13.709  0.1630  0.2197 -0.2438
 6685TIP3    H141470   6.687   5.409  13.749  0.1703 -0.8867  0.1596
 6685TIP3    H241471   6.539   5.405  13.781 -0.1090  1.4757 -0.6222
 6686TIP3   OH241472   2.746   2.641   5.401 -0.1069  0.2571  0.1384
 6686TIP3    H141473   2.820   2.634   5.341 -0.8641 -0.7799 -0.7071
 6686TIP3    H241474   2.738   2.553   5.439  0.7464  1.0239  2.2775
 6687TIP3   OH241475   6.571   6.182   5.749 -0.2702 -0.0263  0.4750
 6687TIP3    H141476   6.523   6.189   5.667  2.8332  0.2033 -1.5024
 6687TIP3    H241477   6.619   6.100   5.742  2.1174  1.2409  0.7426
 6688TIP3   OH241478   1.592   0.401  14.544  0.2068 -0.2433 -0.3028
 6688TIP3    H141479   1.675   0.404  14.498 -0.5193 -0.8839 -1.7070
 6688TIP3    H241480   1.606   0.338  14.615  0.5456 -1.3232 -1.3115
 6689TIP3   OH241481   6.619   3.676  15.826 -0.4379  0.3464  0.0100
 6689TIP3    H141482   6.594   3.764  15.854 -1.7880 -0.2145  0.6453
 6689TIP3    H241483   6.537   3.626  15.829  0.0857 -0.6474 -1.4602
 6690TIP3   OH241484   3.114   2.855  16.451  0.0434 -0.5371 -0.6261
 6690TIP3    H141485   3.168   2.814  16.518 -0.1377  0.5454  0.2083
 6690TIP3    H241486   3.028   2.863  16.491  0.0585  0.5687 -0.7778
 6691TIP3   OH241487   0.434   5.345   1.972  0.1814 -0.0671 -0.0805
 6691TIP3    H141488   0.344   5.325   1.946 -0.5735  0.3406  2.0199
 6691TIP3    H241489   0.473   5.384   1.893 -2.0745  1.5431 -0.5105
 6692TIP3   OH241490   2.914   3.882   1.504 -0.2408  0.4517 -0.0545
 6692TIP3    H141491   2.849   3.836   1.451 -1.2454  0.7571  0.8716
 6692TIP3    H241492   2.991   3.825   1.502 -1.2868 -1.0482  0.6821
 6693TIP3   OH241493   6.051   5.098  16.164  0.1250  0.5423  0.2162
 6693TIP3    H141494   6.052   5.176  16.109 -0.3533  0.5831  0.2595
 6693TIP3    H241495   5.974   5.049  16.136 -0.6713  1.0267  1.4678
 6694TIP3   OH241496   2.741   0.813   0.311 -0.4587  0.3398  0.8752
 6694TIP3    H141497   2.769   0.790   0.222  0.0762 -2.1618  1.6060
 6694TIP3    H241498   2.818   0.853   0.351 -0.1256 -0.1700  0.7490
 6695TIP3   OH241499   0.007   1.843   0.858  0.0720 -0.5032 -0.3503
 6695TIP3    H141500  -0.082   1.861   0.888  1.5533  2.4081  2.9715
 6695TIP3    H241501   0.046   1.792   0.930  2.2500  2.0750  0.4298
 6696TIP3   OH241502   0.024   4.816  11.793  0.0606 -0.0261  0.1353
 6696TIP3    H141503   0.014   4.777  11.880  1.1798 -1.8366 -0.4978
 6696TIP3    H241504   0.041   4.742  11.735 -0.0163  1.2032 -1.5379
 6697TIP3   OH241505   3.353   1.665   1.619  0.2451 -0.0711 -0.1644
 6697TIP3    H141506   3.437   1.665   1.666  0.1511  0.6953  0.0295
 6697TIP3    H241507   3.287   1.670   1.689 -0.1361 -3.3760 -0.1276
 6698TIP3   OH241508   0.389   4.412  14.447  0.1499 -0.1229 -0.2100
 6698TIP3    H141509   0.454   4.473  14.482  0.9933  0.1107 -2.0578
 6698TIP3    H241510   0.390   4.338  14.508  0.0861  1.0892  1.3267
 6699TIP3   OH241511   3.521   0.497  16.708 -0.5220 -0.0033 -0.0185
 6699TIP3    H141512   3.596   0.518  16.653 -0.9364  0.3723 -0.4518
 6699TIP3    H241513   3.552   0.427  16.765 -0.3410 -1.0134 -1.3139
 6700TIP3   OH241514   2.262   4.074   3.296 -0.1148 -0.0881  0.0904
 6700TIP3    H141515   2.239   4.153   3.247  0.8049  1.5184  2.0784
 6700TIP3    H241516   2.221   4.087   3.382  2.1203 -0.5515  1.2913
 6701TIP3   OH241517   4.652   3.431   0.278 -0.1991  0.0119 -0.1705
 6701TIP3    H141518   4.658   3.468   0.366 -1.7830  0.9174 -0.3972
 6701TIP3    H241519   4.561   3.402   0.270 -0.0734 -0.1006 -1.4919
 6702TIP3   OH241520   3.371   0.871   2.098  0.1617  0.3093 -0.1081
 6702TIP3    H141521   3.458   0.832   2.104 -0.6094 -1.3209  2.3526
 6702TIP3    H241522   3.325   0.818   2.033  0.7308  0.5834 -0.7339
 6703TIP3   OH241523   2.818   1.171  16.465 -0.1758  0.4790 -0.1885
 6703TIP3    H141524   2.873   1.220  16.526 -0.9161 -1.5300  2.2740
 6703TIP3    H241525   2.742   1.144  16.516 -0.2620 -2.4057 -1.5899
 6704TIP3   OH241526   3.669   2.321  16.541 -0.0808  0.6564  0.5299
 6704TIP3    H141527   3.661   2.348  16.449 -1.2241  0.2594  0.4923
 6704TIP3    H241528   3.735   2.380  16.577  1.0380  0.2317 -0.7575
 6705TIP3   OH241529   4.055   2.076  10.841  0.4321  0.1677  0.5716
 6705TIP3    H141530   4.027   1.993  10.802 -1.0237 -0.1546  2.2077
 6705TIP3    H241531   4.069   2.055  10.934 -2.1024  2.1732  1.5115
 6706TIP3   OH241532   4.309   1.440  15.269 -0.0394  0.2570  0.0367
 6706TIP3    H141533   4.292   1.443  15.175  2.0217  1.6505 -0.3600
 6706TIP3    H241534   4.223   1.435  15.309 -0.9861 -3.9591 -1.9369
 6707TIP3   OH241535   3.444   6.045  14.730 -0.6096  0.4674  0.2669
 6707TIP3    H141536   3.536   6.065  14.749 -0.7692  0.4748  1.0519
 6707TIP3    H241537   3.433   5.954  14.758 -0.6669  0.2323 -0.4891
 6708TIP3   OH241538   6.522   0.901  11.371  0.5064 -0.2413 -0.1221
 6708TIP3    H141539   6.517   0.963  11.298 -3.1062 -1.4977 -1.2030
 6708TIP3    H241540   6.512   0.815  11.329  1.5810 -1.2649  1.6183
 6709TIP3   OH241541   4.017   0.506  16.620 -0.1345  0.6695 -0.2669
 6709TIP3    H141542   4.089   0.487  16.681 -1.5793 -0.2575  1.2207
 6709TIP3    H241543   4.061   0.522  16.536  1.8508  0.8635  0.7411
 6710TIP3   OH241544   1.492   6.593   5.035 -0.5124 -0.1699 -0.1008
 6710TIP3    H141545   1.570   6.595   5.091  0.5738 -1.8811 -1.4476
 6710TIP3    H241546   1.437   6.664   5.068  0.7541 -0.1393  2.1237
 6711TIP3   OH241547   6.370   4.218   1.998  0.3229  0.7722 -0.3074
 6711TIP3    H141548   6.379   4.143   2.057 -2.5280  0.2636 -0.3829
 6711TIP3    H241549   6.375   4.295   2.054 -2.2875  0.2972  0.7000
 6712TIP3   OH241550   3.380   2.062   0.660  0.3367 -0.0858  0.1873
 6712TIP3    H141551   3.386   2.126   0.731 -0.2397 -0.2493  0.3910
 6712TIP3    H241552   3.369   2.115   0.581  2.1056  0.1484  0.0498
 6713TIP3   OH241553   4.769   5.707  12.145 -0.7623  0.7025 -0.2169
 6713TIP3    H141554   4.734   5.755  12.071 -1.9452  1.0350  0.5363
 6713TIP3    H241555   4.803   5.775  12.204  3.2896  0.3767 -1.8495
 6714TIP3   OH241556   0.320   1.711   2.774  0.4518  0.0324 -0.4737
 6714TIP3    H141557   0.388   1.748   2.717  1.1477 -0.3456  0.1009
 6714TIP3    H241558   0.329   1.617   2.764  0.6330 -0.0425  0.3115
 6715TIP3   OH241559   0.558   1.230  13.148 -0.1123  0.1609  0.3144
 6715TIP3    H141560   0.495   1.299  13.127 -0.1147  0.0683  0.0101
 6715TIP3    H241561   0.547   1.215  13.242 -0.9873 -0.2941  0.1474
 6716TIP3   OH241562   6.548   5.810   5.017 -0.2586  0.4554 -0.2835
 6716TIP3    H141563   6.592   5.727   5.001 -1.2480 -0.2348  0.4342
 6716TIP3    H241564   6.457   5.795   4.991 -0.3987  1.3878 -0.3804
 6717TIP3   OH241565   6.297   5.827   6.005 -0.3324  0.2737 -0.1623
 6717TIP3    H141566   6.241   5.861   6.074 -0.3034  0.4417 -0.2209
 6717TIP3    H241567   6.295   5.894   5.937 -1.6568 -0.6046 -1.0220
 6718TIP3   OH241568   3.483   1.615  13.955  0.3487 -0.2491 -0.3085
 6718TIP3    H141569   3.573   1.596  13.983  0.3786  1.2021  0.7084
 6718TIP3    H241570   3.479   1.710  13.952 -0.9019 -0.3063 -1.2897
 6719TIP3   OH241571   2.987   3.688   3.755  0.0798 -0.2690 -0.2349
 6719TIP3    H141572   3.028   3.759   3.707  0.4132  0.3078  0.8651
 6719TIP3    H241573   2.937   3.639   3.689 -0.1368  0.9623 -1.0071
 6720TIP3   OH241574   0.351   4.344   0.544 -0.2575  0.4044  0.1790
 6720TIP3    H141575   0.381   4.406   0.477  2.1818  1.0197  1.7506
 6720TIP3    H241576   0.391   4.261   0.519  0.8750  0.6932  0.9630
 6721TIP3   OH241577   2.354   4.358  11.683  0.0729 -0.4099 -0.0683
 6721TIP3    H141578   2.373   4.443  11.723  0.6067 -0.1926 -0.7492
 6721TIP3    H241579   2.327   4.302  11.755 -3.3110  1.1326  0.0148
 6722TIP3   OH241580   6.707   3.413  14.560 -0.6816 -0.0128 -0.6256
 6722TIP3    H141581   6.650   3.460  14.499  2.3473  2.6710 -1.7133
 6722TIP3    H241582   6.709   3.469  14.638  0.4195 -0.0179 -0.6315
 6723TIP3   OH241583   4.717   2.936  15.302 -0.0112  0.3016  0.3936
 6723TIP3    H141584   4.639   2.968  15.256  0.2758  0.4216 -0.0066
 6723TIP3    H241585   4.789   2.952  15.242  0.1375 -1.2047  0.1338
 6724TIP3   OH241586   5.283   2.630  12.717  0.0897 -0.5326  0.1319
 6724TIP3    H141587   5.306   2.723  12.707  0.5027 -0.5321  0.9566
 6724TIP3    H241588   5.268   2.599  12.628  1.5825 -0.0813 -0.3004
 6725TIP3   OH241589   5.822   2.345  12.923  0.4610  0.1721 -0.2951
 6725TIP3    H141590   5.735   2.328  12.889  2.0414  0.2723 -5.2438
 6725TIP3    H241591   5.818   2.435  12.955 -1.4011 -0.1459  0.4712
 6726TIP3   OH241592   2.067   0.245   0.728 -0.1211 -0.1616 -0.3705
 6726TIP3    H141593   2.001   0.289   0.782  0.6460 -1.2823  1.5431
 6726TIP3    H241594   2.059   0.152   0.750 -0.3076 -0.7955 -2.8154
 6727TIP3   OH241595   6.275   3.814  16.949  0.1604 -0.2624  0.3523
 6727TIP3    H141596   6.361   3.776  16.967  0.5067  0.9256  1.2944
 6727TIP3    H241597   6.294   3.896  16.903 -0.4938 -0.1500  0.2730
 6728TIP3   OH241598   4.657   2.199   2.865 -1.0001  0.0572  0.5734
 6728TIP3    H141599   4.731   2.260   2.863 -2.2208  1.5872 -0.5838
 6728TIP3    H241600   4.659   2.157   2.780 -0.6110 -1.0124  1.0943
 6729TIP3   OH241601   6.649   5.181  11.522  0.1331 -0.5391  0.0245
 6729TIP3    H141602   6.708   5.199  11.449  0.6476 -0.1878  0.5176
 6729TIP3    H241603   6.596   5.261  11.531  1.0169 -0.0231  0.9037
 6730TIP3   OH241604   0.205   3.548  14.528 -0.1589  0.5992 -0.1261
 6730TIP3    H141605   0.198   3.558  14.433 -0.8925  1.2837 -0.0061
 6730TIP3    H241606   0.145   3.476  14.548  0.2395  0.2385 -0.2153
 6731TIP3   OH241607   5.551   6.050   5.314 -0.8180 -0.0628 -0.2876
 6731TIP3    H141608   5.547   6.118   5.381  0.6171  1.3323 -1.5515
 6731TIP3    H241609   5.577   6.096   5.234 -0.6544 -1.9709 -1.3928
 6732TIP3   OH241610   0.393   4.973   6.125 -0.4159 -0.2048  0.3198
 6732TIP3    H141611   0.379   5.066   6.104  0.2909 -0.4935 -1.5758
 6732TIP3    H241612   0.378   4.927   6.043 -0.1057 -1.7165  1.0809
 6733TIP3   OH241613   5.752   5.758  16.819  0.8819  0.5387  0.3592
 6733TIP3    H141614   5.834   5.710  16.812 -0.4517 -2.0009  1.0478
 6733TIP3    H241615   5.746   5.782  16.911 -0.0802 -1.1955  0.7962
 6734TIP3   OH241616   1.384   6.690  14.084  0.4236  0.1873 -0.1339
 6734TIP3    H141617   1.331   6.769  14.078  1.0679  0.5999 -0.4361
 6734TIP3    H241618   1.463   6.709  14.033 -0.3354 -1.4035 -2.0109
 6735TIP3   OH241619   5.244   2.390   2.805 -0.2332  0.8196  1.0032
 6735TIP3    H141620   5.204   2.352   2.883 -1.0274  0.8553  0.6258
 6735TIP3    H241621   5.177   2.380   2.737 -0.0339  1.9092  0.6296
 6736TIP3   OH241622   3.519   4.067   4.470  0.3461  0.4406 -0.5715
 6736TIP3    H141623   3.484   4.086   4.557  1.2708  0.2825 -0.1533
 6736TIP3    H241624   3.535   3.973   4.470 -0.5177  0.2744 -1.2521
 6737TIP3   OH241625   4.783   5.628   1.125 -0.1158 -0.3121 -0.5864
 6737TIP3    H141626   4.714   5.572   1.161 -0.2262  0.2039  0.0365
 6737TIP3    H241627   4.760   5.638   1.032  0.4647 -2.0995 -0.9603
 6738TIP3   OH241628   3.412   2.190  14.383 -0.0520 -0.0271  0.9441
 6738TIP3    H141629   3.392   2.215  14.293  0.8972  0.5280  0.8814
 6738TIP3    H241630   3.345   2.124  14.404 -1.1862  0.8834  0.3496
 6739TIP3   OH241631   4.975   4.593   5.439  0.0639 -0.1780  0.2467
 6739TIP3    H141632   5.041   4.541   5.392  1.0008  0.1586  1.1475
 6739TIP3    H241633   5.026   4.644   5.502 -1.0866  0.0041  1.0427
 6740TIP3   OH241634   5.609   5.551  11.388 -0.0868  0.5190 -0.0971
 6740TIP3    H141635   5.642   5.570  11.476  0.8355 -0.7871 -0.1393
 6740TIP3    H241636   5.537   5.614  11.376  0.6432  1.6294  1.0398
 6741TIP3   OH241637   3.040   6.453  16.761 -0.5295  0.1024 -0.7953
 6741TIP3    H141638   2.978   6.430  16.692  0.4566 -0.1277 -1.6229
 6741TIP3    H241639   3.007   6.536  16.797 -1.2060  0.0762 -1.3494
 6742TIP3   OH241640   4.789   4.121   3.519  0.0270  0.2271  0.0309
 6742TIP3    H141641   4.784   4.094   3.611 -2.0044 -0.3184 -0.1954
 6742TIP3    H241642   4.855   4.190   3.518  1.6770 -1.2280  1.5166
 6743TIP3   OH241643   6.012   6.385   6.862  0.0028  0.2064 -0.1008
 6743TIP3    H141644   6.104   6.409   6.875 -0.4142  0.4839  3.1560
 6743TIP3    H241645   5.986   6.431   6.783  2.7125 -0.0884 -1.2703
 6744TIP3   OH241646   1.050   2.346   4.784  0.4890 -0.0402 -0.7744
 6744TIP3    H141647   1.088   2.425   4.746  1.5755 -0.0779  0.2070
 6744TIP3    H241648   0.993   2.311   4.715  0.9317  0.9332 -1.6494
 6745TIP3   OH241649   3.070   1.419   2.123 -0.1585  0.2761 -0.2990
 6745TIP3    H141650   3.094   1.452   2.209  1.0571 -0.5040 -0.3128
 6745TIP3    H241651   3.152   1.386   2.086 -0.7268  0.2333 -1.5978
 6746TIP3   OH241652   1.606   1.025  14.227  0.0190  0.1040 -0.0606
 6746TIP3    H141653   1.609   1.118  14.203 -0.3445 -0.0816 -0.8577
 6746TIP3    H241654   1.566   1.025  14.314 -0.0324  0.6950 -0.0762
 6747TIP3   OH241655   3.363   1.487   5.080 -0.1167  0.2189  0.4779
 6747TIP3    H141656   3.303   1.413   5.087  1.7541 -1.4136  0.2856
 6747TIP3    H241657   3.450   1.448   5.085  0.9917  2.6120  2.2543
 6748TIP3   OH241658   2.425   0.559  10.979  0.4027 -0.0152 -0.2201
 6748TIP3    H141659   2.383   0.483  11.019  0.4151  0.0641 -0.0520
 6748TIP3    H241660   2.398   0.557  10.888  1.8313 -1.2437 -0.6625
 6749TIP3   OH241661   5.516   2.681   2.787 -0.3297 -0.0976  0.2648
 6749TIP3    H141662   5.451   2.704   2.853 -1.2431  0.4093 -0.7791
 6749TIP3    H241663   5.498   2.739   2.714  2.0945  0.9264  0.3712
 6750TIP3   OH241664   0.903   5.050   6.515 -0.3479  0.3172 -0.0101
 6750TIP3    H141665   0.931   5.141   6.523  0.1640  0.1525  0.1080
 6750TIP3    H241666   0.807   5.054   6.510 -0.3283  0.8548  0.0490
 6751TIP3   OH241667   2.663   4.039   2.625 -0.8371  0.8300 -0.1271
 6751TIP3    H141668   2.674   3.997   2.539 -0.1908 -0.5414  0.5983
 6751TIP3    H241669   2.581   4.002   2.658  0.0838 -0.4498  0.8109
 6752TIP3   OH241670   5.059   6.358  13.394  0.0079  0.3206  0.6196
 6752TIP3    H141671   5.035   6.350  13.487 -0.9689 -3.0304  0.2209
 6752TIP3    H241672   4.977   6.340  13.347  0.5910  1.4994 -0.9197
 6753TIP3   OH241673   0.824   3.652  13.371  0.1365  0.7095 -0.0412
 6753TIP3    H141674   0.762   3.585  13.402 -1.6175  2.0401 -0.5245
 6753TIP3    H241675   0.901   3.640  13.427 -0.7633 -0.6297  1.0005
 6754TIP3   OH241676   5.941   4.485   2.147  0.5453  0.3611 -0.4549
 6754TIP3    H141677   5.957   4.493   2.241 -2.0738 -0.3972  0.1576
 6754TIP3    H241678   5.992   4.409   2.120 -0.9171 -1.2317  1.0419
 6755TIP3   OH241679   1.384   0.517   4.381 -0.9112 -0.1916 -0.1258
 6755TIP3    H141680   1.306   0.498   4.329 -1.0913  2.0080 -0.7514
 6755TIP3    H241681   1.436   0.576   4.327  1.6700 -2.2057 -0.0633
 6756TIP3   OH241682   5.398   3.506   1.421  0.1668 -0.5583 -0.2521
 6756TIP3    H141683   5.445   3.425   1.400 -1.6156 -1.8019  0.3470
 6756TIP3    H241684   5.425   3.528   1.510  1.7327  0.3430 -0.9102
 6757TIP3   OH241685   1.622   5.856  12.104 -1.0551  0.1481  0.1483
 6757TIP3    H141686   1.593   5.864  12.013 -1.1554 -0.9048  0.0707
 6757TIP3    H241687   1.706   5.811  12.098  0.0169  2.0355  0.4590
 6758TIP3   OH241688   4.944   6.447   0.428 -0.1884  0.0900  0.0448
 6758TIP3    H141689   4.992   6.529   0.438  0.1645  0.2665 -2.4904
 6758TIP3    H241690   4.962   6.419   0.338 -0.9652 -2.3540  0.5663
 6759TIP3   OH241691   1.448   5.802  15.079  0.1560  0.2904  0.2203
 6759TIP3    H141692   1.522   5.856  15.050  0.3727 -0.4998 -0.7667
 6759TIP3    H241693   1.402   5.780  14.998 -0.2962 -0.4781  0.6737
 6760TIP3   OH241694   4.180   0.189   2.714  0.4485  0.0801 -0.1631
 6760TIP3    H141695   4.261   0.206   2.762 -0.1002 -1.0403  1.2503
 6760TIP3    H241696   4.202   0.117   2.654  0.8616  0.7717 -0.8569
 6761TIP3   OH241697   1.276   1.444   5.572  0.2899 -0.1447 -0.0464
 6761TIP3    H141698   1.290   1.495   5.652  1.2963 -0.5209  0.0235
 6761TIP3    H241699   1.362   1.438   5.531  0.1940 -1.7939 -0.0510
 6762TIP3   OH241700   4.434   3.264   3.453  0.3716 -0.0582  0.0372
 6762TIP3    H141701   4.355   3.255   3.506  0.6404  0.1549  0.4811
 6762TIP3    H241702   4.402   3.288   3.366 -0.1293 -1.3936 -0.1752
 6763TIP3   OH241703   6.474   3.839   0.920 -0.0230  0.1060 -0.5995
 6763TIP3    H141704   6.429   3.765   0.959  0.8095  0.2560  0.7049
 6763TIP3    H241705   6.516   3.804   0.841  1.5697 -1.2070  0.7576
 6764TIP3   OH241706   4.033   5.725  16.903 -0.4454 -0.0567  0.5488
 6764TIP3    H141707   4.067   5.785  16.837  0.0614  0.4473  1.2477
 6764TIP3    H241708   3.948   5.697  16.868 -0.3610  0.4948 -0.1344
 6765TIP3   OH241709   6.507   1.231   4.674 -0.0734 -0.5671  0.1481
 6765TIP3    H141710   6.574   1.287   4.634 -0.8227  0.3169  0.1089
 6765TIP3    H241711   6.555   1.181   4.740  1.3451 -2.5115 -2.1555
 6766TIP3   OH241712   2.000   3.841   1.085  0.1316 -0.3333  0.0890
 6766TIP3    H141713   2.004   3.886   1.170  1.5069  2.6012 -1.3887
 6766TIP3    H241714   1.920   3.874   1.045  0.0915 -0.8127 -0.2286
 6767TIP3   OH241715   2.223   6.115  16.533  0.0347  0.1810 -0.0463
 6767TIP3    H141716   2.280   6.180  16.573  1.0212 -1.0617  0.6510
 6767TIP3    H241717   2.140   6.124  16.579  0.6073 -0.0059  1.0565
 6768TIP3   OH241718   4.590   0.861   5.393  0.2408 -0.2256 -0.3230
 6768TIP3    H141719   4.656   0.793   5.398 -0.4434 -0.8682  0.1136
 6768TIP3    H241720   4.568   0.882   5.484 -0.2453 -0.1183 -0.4579
 6769TIP3   OH241721   2.899   0.413  16.441  0.1954  0.2073 -0.5229
 6769TIP3    H141722   2.831   0.453  16.388  1.6971 -0.5295 -3.1788
 6769TIP3    H241723   2.854   0.384  16.520 -2.5714 -0.2887 -2.1497
 6770TIP3   OH241724   5.833   0.938  14.866  0.1755 -0.4740  0.1544
 6770TIP3    H141725   5.865   1.008  14.923  0.1305 -0.5575  0.2837
 6770TIP3    H241726   5.753   0.973  14.828  0.1569 -0.4519  0.2130
 6771TIP3   OH241727   1.262   0.874  14.769 -0.0565 -0.1836 -0.1776
 6771TIP3    H141728   1.245   0.829  14.686 -0.0359  0.9637 -0.8298
 6771TIP3    H241729   1.275   0.804  14.833 -1.2562 -1.0978 -0.8982
 6772TIP3   OH241730   4.245   4.076  14.036 -0.1493 -0.3474 -0.4954
 6772TIP3    H141731   4.322   4.118  13.998  2.0642 -3.4046  0.2691
 6772TIP3    H241732   4.220   4.133  14.109  2.2309  0.0754  0.0684
 6773TIP3   OH241733   2.419   4.266   4.301  0.2084 -0.0445  0.1567
 6773TIP3    H141734   2.371   4.184   4.316  0.9928 -0.6674 -0.6343
 6773TIP3    H241735   2.507   4.238   4.276  0.8437  1.0738  1.0523
 6774TIP3   OH241736   6.631   4.641   1.097  0.3192  0.1249 -0.0320
 6774TIP3    H141737   6.624   4.656   1.003 -1.3668  0.6668  0.1611
 6774TIP3    H241738   6.541   4.626   1.126  0.7100  0.7959  1.6315
 6775TIP3   OH241739   2.520   6.161  15.215  0.3645  0.5082  0.2036
 6775TIP3    H141740   2.477   6.078  15.238 -1.1732  1.6226  1.6011
 6775TIP3    H241741   2.609   6.152  15.247 -0.3408  0.0997  2.2120
 6776TIP3   OH241742   4.468   0.237   3.169  0.2430 -0.2462  0.0814
 6776TIP3    H141743   4.475   0.147   3.200  0.2792 -0.3652 -0.2640
 6776TIP3    H241744   4.383   0.240   3.124 -0.9704  0.5675  2.2700
 6777TIP3   OH241745   4.315   6.709  11.335 -0.4385  0.9310 -0.0963
 6777TIP3    H141746   4.246   6.701  11.270  0.0020 -0.8785 -0.3931
 6777TIP3    H241747   4.344   6.620  11.351  2.5632  1.6548 -0.7898
 6778TIP3   OH241748   4.252   4.734   0.356  0.1370 -0.2602  0.3739
 6778TIP3    H141749   4.236   4.827   0.345 -0.1518 -0.4132 -0.5589
 6778TIP3    H241750   4.254   4.699   0.267 -0.7911 -1.3130  0.7495
 6779TIP3   OH241751   4.513   4.937  15.458  0.2333 -0.4548 -0.2858
 6779TIP3    H141752   4.498   5.009  15.519  1.8614 -0.8345  0.6233
 6779TIP3    H241753   4.426   4.915  15.425 -0.4330  1.1274  0.3214
 6780TIP3   OH241754   5.672   0.024   3.359  0.6558 -0.4807 -0.0822
 6780TIP3    H141755   5.583   0.049   3.380  2.1678  2.4406  4.3014
 6780TIP3    H241756   5.699   0.084   3.290 -0.2968 -0.2847 -0.2891
 6781TIP3   OH241757   0.216   1.908   2.921 -0.1408  0.0132  0.1604
 6781TIP3    H141758   0.251   1.832   2.875  0.3742  0.9549 -1.0839
 6781TIP3    H241759   0.273   1.919   2.997 -0.3236 -0.9326  0.4434
 6782TIP3   OH241760   3.850   2.470   0.169  0.2848  0.2727 -0.0720
 6782TIP3    H141761   3.799   2.531   0.222  0.6483  2.2654 -1.8599
 6782TIP3    H241762   3.927   2.451   0.221 -0.0089  1.0760  0.6831
 6783TIP3   OH241763   2.440   1.362  15.828 -0.1678  0.3558  0.7043
 6783TIP3    H141764   2.416   1.446  15.790 -0.3685  0.4266  0.9875
 6783TIP3    H241765   2.466   1.382  15.918 -1.3682 -0.0362  1.1558
 6784TIP3   OH241766   6.521   2.211  13.656  0.6105 -0.2940  0.4571
 6784TIP3    H141767   6.505   2.137  13.597 -0.2055  0.5167 -0.3674
 6784TIP3    H241768   6.453   2.204  13.723 -1.0491  1.0769 -1.0069
 6785TIP3   OH241769   4.338   0.726  17.079 -0.4151  0.1135 -0.5467
 6785TIP3    H141770   4.430   0.749  17.071 -1.0736  2.4674 -2.2967
 6785TIP3    H241771   4.314   0.753  17.168  0.7113 -1.3459  0.2582
 6786TIP3   OH241772   6.586   6.267   2.585  0.7789 -0.0255  0.1243
 6786TIP3    H141773   6.523   6.338   2.573 -1.5463 -2.4079 -3.8607
 6786TIP3    H241774   6.555   6.220   2.663  1.1510  2.0211  1.5772
 6787TIP3   OH241775   5.707   5.337   1.142 -0.1051  0.1519 -0.0176
 6787TIP3    H141776   5.614   5.338   1.163  0.0979  1.7385  0.9148
 6787TIP3    H241777   5.750   5.302   1.220  0.1336 -0.1428 -0.2741
 6788TIP3   OH241778   6.531   1.891   0.956  0.4192 -0.2411 -0.7498
 6788TIP3    H141779   6.508   1.798   0.944  0.2780 -0.8422  3.0897
 6788TIP3    H241780   6.447   1.937   0.953  0.1231 -0.6831  0.2861
 6789TIP3   OH241781   0.314   2.876   5.075  0.2670  0.0569 -0.3190
 6789TIP3    H141782   0.250   2.946   5.066  1.2516  1.1975  1.1581
 6789TIP3    H241783   0.262   2.799   5.097 -0.6473  0.8315  0.2933
 6790TIP3   OH241784   5.770   1.134  16.017  0.2567 -0.2175  0.5182
 6790TIP3    H141785   5.770   1.052  16.066 -0.5013  0.0352  0.9595
 6790TIP3    H241786   5.849   1.130  15.963 -0.3994 -1.7848 -0.3784
 6791TIP3   OH241787   3.520   0.912  14.001 -0.0629  0.0571  0.7596
 6791TIP3    H141788   3.530   0.996  13.955  0.9197 -0.4509  0.0099
 6791TIP3    H241789   3.508   0.848  13.931  1.6786 -0.7645  1.1640
 6792TIP3   OH241790   1.278   4.418  15.653  0.1773  0.1838 -0.2193
 6792TIP3    H141791   1.333   4.496  15.652 -0.0814  0.3622 -1.3463
 6792TIP3    H241792   1.336   4.348  15.685  0.4945  0.7561  0.4825
 6793TIP3   OH241793   2.705   4.102  13.716  0.1274  0.1419 -0.0284
 6793TIP3    H141794   2.710   4.116  13.622 -1.6009  2.6293  0.1687
 6793TIP3    H241795   2.678   4.186  13.752  1.6098 -0.4739  2.8144
 6794TIP3   OH241796   3.272   3.179   2.963 -0.4000  0.2073  0.2449
 6794TIP3    H141797   3.261   3.124   2.885  1.2368 -2.4706  1.7666
 6794TIP3    H241798   3.343   3.239   2.940  0.7834 -1.2500 -0.0037
 6795TIP3   OH241799   0.374   6.232   5.741  0.3687  0.3637 -0.2347
 6795TIP3    H141800   0.400   6.324   5.732 -2.5675  1.1866 -1.4225
 6795TIP3    H241801   0.371   6.200   5.651 -2.6678  0.4142 -0.2257
 6796TIP3   OH241802   4.674   3.146   3.394 -0.2707 -0.5058  0.0360
 6796TIP3    H141803   4.734   3.188   3.455 -0.9396  2.4778 -1.1906
 6796TIP3    H241804   4.590   3.188   3.409 -1.0629 -1.5629 -1.1668
 6797TIP3   OH241805   4.605   3.324   2.476  0.1113  0.4736  0.3946
 6797TIP3    H141806   4.690   3.363   2.456  1.0207 -1.7261 -0.2220
 6797TIP3    H241807   4.557   3.326   2.393  0.0997  0.3669  0.3998
 6798TIP3   OH241808   2.341   2.212  11.338 -0.2088  0.8838 -0.0969
 6798TIP3    H141809   2.407   2.281  11.336 -0.0979  0.8400  1.2430
 6798TIP3    H241810   2.328   2.189  11.246  1.4272  1.0943 -0.4159
 6799TIP3   OH241811   0.803   6.157  16.615 -0.2071  0.2833  0.4415
 6799TIP3    H141812   0.875   6.124  16.561 -0.3953  0.8991 -0.2043
 6799TIP3    H241813   0.737   6.088  16.611 -0.2952  0.4010 -0.2793
 6800TIP3   OH241814   4.895   1.596  15.589 -0.0364  0.2761 -0.2317
 6800TIP3    H141815   4.981   1.593  15.547 -0.4606  2.2116 -1.3764
 6800TIP3    H241816   4.913   1.621  15.680  0.6937 -1.2147  0.0725
 6801TIP3   OH241817   1.991   5.313  12.644 -0.3698  0.3553  0.4095
 6801TIP3    H141818   1.973   5.378  12.712 -0.1280  3.3999 -2.2385
 6801TIP3    H241819   2.086   5.309  12.639 -0.3873  0.1769  0.2247
 6802TIP3   OH241820   6.203   5.228   2.785 -0.8056 -0.2392  0.4385
 6802TIP3    H141821   6.184   5.280   2.707  0.5020  0.1119  0.3258
 6802TIP3    H241822   6.285   5.182   2.764 -2.3880 -3.1978  0.1179
 6803TIP3   OH241823   0.759   6.147  11.072 -0.1789 -0.0334 -0.3016
 6803TIP3    H141824   0.820   6.076  11.092 -2.7987 -2.0965  1.1179
 6803TIP3    H241825   0.712   6.116  10.994 -0.1134  1.0258 -0.7774
 6804TIP3   OH241826   6.116   4.920   0.779 -0.1355  0.0933  0.9667
 6804TIP3    H141827   6.151   4.831   0.775  0.0636  0.0754 -4.5023
 6804TIP3    H241828   6.193   4.976   0.768 -0.6682  0.6406 -0.1152
 6805TIP3   OH241829   4.156   5.487  15.762  0.3229  0.4667  0.4784
 6805TIP3    H141830   4.242   5.528  15.749 -0.3503  1.4992 -0.8280
 6805TIP3    H241831   4.094   5.544  15.717 -1.0385 -0.4100  1.1671
 6806TIP3   OH241832   0.313   6.712   1.227 -0.0196  0.4157  0.2271
 6806TIP3    H141833   0.315   6.624   1.263 -1.4832  0.7302  1.1735
 6806TIP3    H241834   0.358   6.765   1.293  1.1097  0.3633 -0.4709
 6807TIP3   OH241835   3.991   2.298   5.259 -0.3680 -0.1771 -0.4403
 6807TIP3    H141836   3.988   2.203   5.247 -0.8014  0.0185 -2.1637
 6807TIP3    H241837   4.077   2.324   5.224  0.2791 -0.0490  1.1718
 6808TIP3   OH241838   4.967   6.332  16.509  0.3680  0.2456  0.5088
 6808TIP3    H141839   4.978   6.290  16.424  0.5951  0.6249  0.3470
 6808TIP3    H241840   5.046   6.386  16.520  0.7513 -0.4476  1.3377
 6809TIP3   OH241841   0.592   1.571   5.997 -0.4533  0.1101  0.5310
 6809TIP3    H141842   0.528   1.508   6.029 -1.0531  0.9915  1.1152
 6809TIP3    H241843   0.610   1.544   5.907 -2.0244  0.1277  0.1912
 6810TIP3   OH241844   3.957   4.673  16.338  0.2223  0.1367  0.0406
 6810TIP3    H141845   3.908   4.591  16.336 -1.0546  0.8892 -0.6077
 6810TIP3    H241846   4.014   4.665  16.415 -0.6098 -0.9353  0.5683
 6811TIP3   OH241847   3.793   5.692  15.968  0.1191 -0.5821 -0.1317
 6811TIP3    H141848   3.771   5.773  16.016  2.2191 -0.3319  0.5139
 6811TIP3    H241849   3.759   5.707  15.880 -2.0199 -0.1909  0.7098
 6812TIP3   OH241850   4.203   3.800   2.530 -0.3070 -0.0947  0.6249
 6812TIP3    H141851   4.191   3.888   2.496  0.7505 -0.5175 -0.9077
 6812TIP3    H241852   4.132   3.790   2.594  0.1592  2.2090  1.6019
 6813TIP3   OH241853   2.568   6.332   2.483 -0.0272  0.1225  0.3661
 6813TIP3    H141854   2.549   6.242   2.457 -2.2982  0.4887  0.5444
 6813TIP3    H241855   2.648   6.325   2.536  1.4863 -1.3576 -1.9424
 6814TIP3   OH241856   2.721   3.648  16.182  0.2082  0.0377 -0.2065
 6814TIP3    H141857   2.645   3.632  16.238 -0.7383 -0.8828 -1.6608
 6814TIP3    H241858   2.717   3.742  16.163  0.7698  0.4406  1.5214
 6815TIP3   OH241859   2.448   0.167  11.673 -0.7105  0.3582  0.0640
 6815TIP3    H141860   2.358   0.168  11.640  0.0549 -0.4309 -2.3296
 6815TIP3    H241861   2.496   0.118  11.606  0.7695 -3.0161  3.3066
 6816TIP3   OH241862   4.365   2.860   2.413  0.1807  0.3528 -0.0245
 6816TIP3    H141863   4.417   2.847   2.493 -1.5698  0.3884  1.1602
 6816TIP3    H241864   4.283   2.814   2.429  1.4043 -3.8494 -3.6971
 6817TIP3   OH241865   1.453   5.405   1.591  0.2387  0.0412 -0.6222
 6817TIP3    H141866   1.524   5.381   1.650 -0.2751 -1.7110 -0.6353
 6817TIP3    H241867   1.496   5.422   1.507  0.7873  0.6839 -0.2207
 6818TIP3   OH241868   2.089   0.828   4.484  0.2892 -0.1752  0.0312
 6818TIP3    H141869   2.050   0.871   4.407  0.3906  0.6691  0.4408
 6818TIP3    H241870   2.107   0.739   4.454 -0.1969 -0.0294 -0.7533
 6819TIP3   OH241871   5.279   5.163   3.029 -0.2591  0.3238  0.3812
 6819TIP3    H141872   5.240   5.250   3.017 -2.0092 -0.5136 -0.4581
 6819TIP3    H241873   5.282   5.151   3.124 -0.8995  0.9293  0.4849
 6820TIP3   OH241874   6.092   4.093  10.429 -0.1030 -0.4368 -0.0100
 6820TIP3    H141875   6.080   4.184  10.457  2.1634  0.4506 -1.6825
 6820TIP3    H241876   6.003   4.060  10.416 -0.9849  1.3834  1.0201
 6821TIP3   OH241877   6.046   1.162  14.224 -0.0678 -0.4415  0.2020
 6821TIP3    H141878   6.057   1.251  14.255  1.4411 -0.6537  0.3961
 6821TIP3    H241879   5.990   1.169  14.147  0.2128  0.7069  0.0923
 6822TIP3   OH241880   3.053   0.398  17.219  0.6210 -0.4353  0.2718
 6822TIP3    H141881   2.971   0.444  17.208 -0.1117 -1.4489  1.3062
 6822TIP3    H241882   3.119   0.458  17.183 -0.4319  0.8174  0.3567
 6823TIP3   OH241883   1.425   4.293   6.698  0.1415 -0.1268 -0.6384
 6823TIP3    H141884   1.487   4.224   6.720  1.3431  0.7134 -1.2577
 6823TIP3    H241885   1.441   4.312   6.606 -0.7280  0.4199 -0.6959
 6824TIP3   OH241886   0.414   2.088  15.632  0.2452  0.4073 -0.4786
 6824TIP3    H141887   0.353   2.139  15.685  0.0869  0.0378 -0.3087
 6824TIP3    H241888   0.359   2.044  15.567  0.4361  0.8586 -0.9571
 6825TIP3   OH241889   1.817   1.490  17.083 -0.5046  0.2490  0.2236
 6825TIP3    H141890   1.782   1.579  17.084  0.5279  0.6693  1.5139
 6825TIP3    H241891   1.861   1.482  16.998 -1.1322  0.7391 -0.1535
 6826TIP3   OH241892   2.214   1.716  16.844 -0.6642  0.4136  0.5069
 6826TIP3    H141893   2.255   1.803  16.842 -2.1090  1.1155 -0.0612
 6826TIP3    H241894   2.127   1.731  16.881 -0.2941 -1.1195  2.1456
 6827TIP3   OH241895   4.680   4.421  12.513  0.3821 -0.5171 -0.2223
 6827TIP3    H141896   4.611   4.485  12.500 -0.5964 -1.6212 -0.6488
 6827TIP3    H241897   4.761   4.470  12.500 -0.3022  0.8044  0.3080
 6828TIP3   OH241898   6.153   0.647  15.637  0.0318  0.1964 -0.5254
 6828TIP3    H141899   6.234   0.627  15.683 -0.6091 -0.3228  0.4032
 6828TIP3    H241900   6.107   0.563  15.631 -0.6453  0.5646 -0.6157
 6829TIP3   OH241901   0.738   4.678  14.794 -0.0511  0.1940 -0.7784
 6829TIP3    H141902   0.716   4.757  14.745  0.8152  0.8010 -0.2114
 6829TIP3    H241903   0.704   4.694  14.882 -1.0494 -0.6308 -0.9932
 6830TIP3   OH241904   0.066   1.482   3.822  0.0208  0.1173  0.0666
 6830TIP3    H141905   0.043   1.574   3.807  0.7197  0.2827 -0.0159
 6830TIP3    H241906   0.151   1.486   3.866  1.8588 -0.5569 -3.1342
 6831TIP3   OH241907   3.713   1.612  17.030  0.0682 -0.5830  0.4029
 6831TIP3    H141908   3.771   1.637  16.958 -0.0342 -0.2091  0.4479
 6831TIP3    H241909   3.751   1.654  17.107 -1.6595  1.8703  0.0383
 6832TIP3   OH241910   5.059   4.282   5.311  0.2259 -0.0037  0.2437
 6832TIP3    H141911   5.011   4.253   5.389  1.1075 -2.0928  0.0902
 6832TIP3    H241912   4.993   4.285   5.243 -0.2994  0.4633  0.7659
 6833TIP3   OH241913   4.985   0.258   0.586  0.1943 -0.4221 -0.1838
 6833TIP3    H141914   5.009   0.173   0.622 -0.4147 -1.0807 -1.2531
 6833TIP3    H241915   5.056   0.317   0.611  1.0896 -1.4674 -0.2110
 6834TIP3   OH241916   0.658   5.465  15.869 -0.1805 -0.1322  0.5973
 6834TIP3    H141917   0.634   5.399  15.935  0.3046  0.1050  1.0208
 6834TIP3    H241918   0.622   5.547  15.903 -1.4600 -0.2921 -0.3140
 6835TIP3   OH241919   0.263   2.110   0.006 -0.2787  0.1095 -0.2307
 6835TIP3    H141920   0.219   2.029  -0.023  0.2043 -0.1285 -0.3023
 6835TIP3    H241921   0.225   2.178  -0.049 -3.1290  0.5043  1.9748
 6836TIP3   OH241922   1.865   0.695  14.025  0.1502  0.4462 -0.7911
 6836TIP3    H141923   1.782   0.657  14.055  0.1545  0.4410 -0.7861
 6836TIP3    H241924   1.845   0.788  14.010 -0.0866  0.2709 -1.6416
 6837TIP3   OH241925   4.704   0.024   0.021 -0.5325 -0.2130  0.0759
 6837TIP3    H141926   4.760   0.032   0.098 -0.6021  0.8693  0.0230
 6837TIP3    H241927   4.647   0.100   0.024 -1.4990 -0.8948 -0.2911
 6838TIP3   OH241928   5.000   4.482  14.581 -0.2956 -0.3974 -0.3972
 6838TIP3    H141929   5.016   4.439  14.497  1.4633 -0.3649 -0.1095
 6838TIP3    H241930   5.012   4.575  14.562  1.6471 -0.4925  0.1733
 6839TIP3   OH241931   0.683   0.379  15.542  0.4370  0.4027 -0.2972
 6839TIP3    H141932   0.620   0.451  15.551  2.1661  2.0194 -0.5286
 6839TIP3    H241933   0.718   0.368  15.630 -1.3152 -1.7049  0.2381
 6840TIP3   OH241934   6.561   4.146   4.163 -0.5623  0.3265  1.0086
 6840TIP3    H141935   6.539   4.063   4.206 -0.9221  0.1552  0.4981
 6840TIP3    H241936   6.523   4.139   4.076  0.1066  0.7014  0.6793
 6841TIP3   OH241937   4.738   4.647  15.106  0.0889 -0.5764 -0.0001
 6841TIP3    H141938   4.684   4.726  15.118 -0.1608 -0.5564 -1.1504
 6841TIP3    H241939   4.807   4.656  15.172 -0.9734 -0.3143  1.1129
 6842TIP3   OH241940   5.576   2.273   2.347 -0.3735  0.7859 -0.5681
 6842TIP3    H141941   5.554   2.356   2.388 -0.6782  0.1670  0.5532
 6842TIP3    H241942   5.565   2.208   2.416 -0.9623 -0.3037 -1.6505
 6843TIP3   OH241943   1.190   0.198   4.889  0.4137  0.0872 -0.6073
 6843TIP3    H141944   1.248   0.171   4.960  0.0667 -0.4469 -0.5233
 6843TIP3    H241945   1.238   0.268   4.844  0.2153  1.1262  0.7572
 6844TIP3   OH241946   0.952   3.654   0.173  0.6376 -0.7382  0.3716
 6844TIP3    H141947   0.860   3.680   0.180  0.8575  0.4386 -0.7887
 6844TIP3    H241948   0.999   3.736   0.157  1.3298 -1.7467 -3.6530
 6845TIP3   OH241949   1.009   6.324  17.008 -0.2534  0.1588  0.0153
 6845TIP3    H141950   1.095   6.366  17.017 -0.6058  0.6405  1.3354
 6845TIP3    H241951   0.956   6.388  16.961  0.7802 -1.1791 -3.2101
 6846TIP3   OH241952   4.091   1.040   1.897  0.0446  0.3350  0.1748
 6846TIP3    H141953   4.040   1.098   1.953  0.5383 -1.2748  2.4229
 6846TIP3    H241954   4.180   1.077   1.898 -0.4896  1.8876 -1.9528
 6847TIP3   OH241955   2.674   3.656   5.448 -0.1043  0.0320  0.2027
 6847TIP3    H141956   2.747   3.717   5.450 -1.1791  1.4175  2.4950
 6847TIP3    H241957   2.684   3.608   5.366  1.9174  1.9131 -0.7510
 6848TIP3   OH241958   3.345   4.483  14.600 -0.2954 -0.5105 -0.6288
 6848TIP3    H141959   3.391   4.567  14.606  0.6940 -1.0238 -0.9529
 6848TIP3    H241960   3.337   4.467  14.507  2.2539 -2.2259 -0.6345
 6849TIP3   OH241961   5.333   4.278   2.784  0.3698 -0.4146  0.2121
 6849TIP3    H141962   5.392   4.211   2.751  1.6804  0.8421 -0.1155
 6849TIP3    H241963   5.256   4.230   2.815  0.6246 -1.9279 -1.3500
 6850TIP3   OH241964   0.763   2.123  14.849  1.0625  0.0984 -0.4082
 6850TIP3    H141965   0.787   2.040  14.807  1.4545 -0.7977  1.4709
 6850TIP3    H241966   0.672   2.110  14.877  1.5660 -0.3277  1.1887
 6851TIP3   OH241967   0.048   1.721   2.070  0.3627 -0.4203  0.4048
 6851TIP3    H141968   0.074   1.769   1.992  1.5727 -1.2918  0.2543
 6851TIP3    H241969  -0.020   1.775   2.110  1.7561  1.4591  0.3121
 6852TIP3   OH241970   5.995   5.798   4.755 -0.1209 -0.6925  0.3983
 6852TIP3    H141971   5.993   5.876   4.811 -1.7032 -1.1633  1.0607
 6852TIP3    H241972   5.963   5.728   4.812 -0.1739 -1.5147 -0.6259
 6853TIP3   OH241973   1.082   3.307  11.425  0.5590 -0.3563 -0.7270
 6853TIP3    H141974   0.993   3.273  11.422  0.1042  0.5764  1.0838
 6853TIP3    H241975   1.072   3.402  11.417  1.2145 -0.0936  1.2046
 6854TIP3   OH241976   2.255   6.408  11.507  0.0257  0.3302  0.2456
 6854TIP3    H141977   2.213   6.364  11.433  1.4677 -0.7508  0.0251
 6854TIP3    H241978   2.231   6.500  11.496  0.5221  0.2671 -1.8144
 6855TIP3   OH241979   3.890   4.190   1.721 -0.2552  0.1218  0.2632
 6855TIP3    H141980   3.874   4.132   1.796  3.1770 -1.7519 -0.2724
 6855TIP3    H241981   3.950   4.141   1.665  0.2361  2.9590 -1.9020
 6856TIP3   OH241982   3.716   6.421  12.841 -0.2523  0.1422  0.3207
 6856TIP3    H141983   3.776   6.495  12.831 -0.7391  0.4317 -0.5388
 6856TIP3    H241984   3.726   6.394  12.932  1.6452 -0.2001  0.0519
 6857TIP3   OH241985   0.743   0.951   2.087 -0.2201  0.4342  0.5424
 6857TIP3    H141986   0.682   0.947   2.014 -0.2362  1.6832  0.4594
 6857TIP3    H241987   0.818   0.898   2.060 -0.4849  0.3988 -0.1300
 6858TIP3   OH241988   0.497   2.491   0.185 -0.6086 -0.2012 -0.4889
 6858TIP3    H141989   0.507   2.405   0.224  1.0515  0.4357  0.5927
 6858TIP3    H241990   0.458   2.474   0.099 -2.8514 -1.7733  0.7411
 6859TIP3   OH241991   0.723   0.584  16.207 -0.6909 -0.3715  0.0566
 6859TIP3    H141992   0.642   0.536  16.224 -0.8082  0.2278  1.3794
 6859TIP3    H241993   0.726   0.650  16.277  0.6775 -0.0524 -0.2759
 6860TIP3   OH241994   4.167   6.090   0.334  0.2502 -0.0011  0.5440
 6860TIP3    H141995   4.213   6.007   0.344  0.6656  0.1071 -0.3999
 6860TIP3    H241996   4.227   6.155   0.372  0.6034  0.0563 -0.0998
 6861TIP3   OH241997   2.348   3.610  16.867  0.7042 -0.4341 -0.4429
 6861TIP3    H141998   2.406   3.612  16.943 -0.3091 -1.7768  0.3994
 6861TIP3    H241999   2.302   3.527  16.873 -1.6033  0.7251 -0.8490
 6862TIP3   OH242000   5.440   0.463  14.820 -0.4262  0.1248  0.3573
 6862TIP3    H142001   5.442   0.449  14.914  0.5881  0.9739  0.4718
 6862TIP3    H242002   5.347   0.478  14.800 -0.5616  0.6416  1.3222
 6863TIP3   OH242003   5.597   2.576  16.831  0.9431  0.0805  0.1222
 6863TIP3    H142004   5.557   2.618  16.907 -2.1032  1.1766 -1.8885
 6863TIP3    H242005   5.638   2.648  16.782 -0.0575 -0.0204 -0.9030
 6864TIP3   OH242006   0.557   1.879  16.267  0.3923 -0.0452 -0.4859
 6864TIP3    H142007   0.501   1.851  16.194 -1.0268 -1.0997  0.9403
 6864TIP3    H242008   0.644   1.845  16.245 -0.1846 -1.0393 -1.3019
 6865TIP3   OH242009   6.680   3.499  11.331 -0.0861  0.1081 -0.2124
 6865TIP3    H142010   6.703   3.410  11.360 -2.0080 -0.4990 -0.3761
 6865TIP3    H242011   6.716   3.556  11.399  0.0338 -0.9020  0.6041
 6866TIP3   OH242012   2.105   6.347  10.977  0.2564  0.1363  0.6490
 6866TIP3    H142013   2.143   6.325  11.062 -0.2896  1.1176  1.1594
 6866TIP3    H242014   2.178   6.383  10.926  0.7377 -1.0919  0.4456
 6867TIP3   OH242015   2.255   2.250  16.652 -0.0748 -0.7252 -0.8457
 6867TIP3    H142016   2.319   2.298  16.704 -1.1582  0.6772 -0.7375
 6867TIP3    H242017   2.304   2.221  16.575  0.6787  0.3889 -0.8102
 6868TIP3   OH242018   2.480   1.761  11.288 -0.3732 -0.2286 -0.6738
 6868TIP3    H142019   2.485   1.830  11.354 -1.0261  0.3413 -1.2014
 6868TIP3    H242020   2.413   1.792  11.226 -0.2080 -1.0314 -1.2686
 6869TIP3   OH242021   3.930   6.747   0.451  0.1667  0.2375  0.2799
 6869TIP3    H142022   3.913   6.827   0.501 -0.5941  0.0607  0.3095
 6869TIP3    H242023   3.866   6.684   0.485  1.1910 -0.5861  0.7342
 6870TIP3   OH242024   4.036   5.545  11.178  0.1393 -0.5949 -0.5977
 6870TIP3    H142025   4.122   5.580  11.199 -0.5036  0.2764  0.6984
 6870TIP3    H242026   4.042   5.522  11.085  2.4601 -2.6914 -0.0515
 6871TIP3   OH242027   2.091   3.544  13.857  0.3056 -0.4351  0.2937
 6871TIP3    H142028   2.182   3.543  13.826  0.3089 -0.7505  0.3100
 6871TIP3    H242029   2.039   3.569  13.781  0.5377  1.1314  0.6298
 6872TIP3   OH242030   5.713   6.103  10.661 -0.5068  0.1733  0.6098
 6872TIP3    H142031   5.703   6.048  10.584  1.6508 -0.5081  0.7290
 6872TIP3    H242032   5.698   6.192  10.629 -1.6647 -0.2725 -0.1187
 6873TIP3   OH242033   0.711   0.338   4.674  0.5474 -0.0433  0.4169
 6873TIP3    H142034   0.762   0.416   4.653  0.5531 -0.0116  0.5464
 6873TIP3    H242035   0.632   0.346   4.621  1.9453 -1.5533 -2.0599
 6874TIP3   OH242036   2.118   6.477   1.214  0.3824  0.0213  0.1086
 6874TIP3    H142037   2.063   6.401   1.197 -1.4865  1.4508 -0.5906
 6874TIP3    H242038   2.173   6.451   1.287 -1.0276 -1.6016  0.6599
 6875TIP3   OH242039   0.258   1.942  13.032  0.6396  0.4409 -0.3849
 6875TIP3    H142040   0.312   1.913  13.105  1.6971  4.0477  0.4696
 6875TIP3    H242041   0.316   1.937  12.956  0.0969 -1.6064 -0.7216
 6876TIP3   OH242042   2.220   0.053   1.854  0.9294  0.4793 -0.2691
 6876TIP3    H142043   2.222   0.024   1.763 -0.1572 -0.1168 -0.1243
 6876TIP3    H242044   2.259  -0.018   1.903  0.4087  0.2621 -0.1572
 6877TIP3   OH242045   2.382   0.351  10.725 -0.3402  0.0955 -0.0068
 6877TIP3    H142046   2.373   0.443  10.701 -0.4181 -0.2414 -1.3180
 6877TIP3    H242047   2.328   0.342  10.804 -0.8075  1.0429 -0.2054
 6878TIP3   OH242048   1.877   0.473   1.619 -0.0053 -0.5466  0.0873
 6878TIP3    H142049   1.870   0.568   1.628  2.0452 -0.4833  1.6207
 6878TIP3    H242050   1.933   0.460   1.542 -1.2978 -0.5872 -0.8798
 6879TIP3   OH242051   2.251   1.108   0.475 -0.8403 -0.1871  0.2801
 6879TIP3    H142052   2.311   1.136   0.544  0.1245 -0.6864 -0.3242
 6879TIP3    H242053   2.173   1.078   0.521  0.1882 -1.5249  1.2504
 6880TIP3   OH242054   4.434   0.313  13.369 -0.8585 -0.1803 -0.0383
 6880TIP3    H142055   4.342   0.312  13.396 -0.1971  0.2784  2.5507
 6880TIP3    H242056   4.449   0.402  13.338 -1.6348 -0.7030 -2.0508
 6881TIP3   OH242057   5.180   2.947   4.983 -0.1674  0.0007 -0.3345
 6881TIP3    H142058   5.127   2.929   5.061  2.4840 -0.3366  1.5160
 6881TIP3    H242059   5.227   3.027   5.003  0.6066 -0.1072 -1.5788
 6882TIP3   OH242060   6.501   6.607   3.202  0.6378 -0.0482  0.1582
 6882TIP3    H142061   6.415   6.647   3.189  1.0762  1.2747  1.1558
 6882TIP3    H242062   6.557   6.652   3.139  0.9173  0.1764  0.5667
 6883TIP3   OH242063   6.261   4.538   4.632  0.1526 -0.1571 -0.0638
 6883TIP3    H142064   6.313   4.467   4.669  0.4106 -0.6568 -1.3154
 6883TIP3    H242065   6.225   4.501   4.551  0.7013  1.2789 -1.0018
 6884TIP3   OH242066   4.970   6.585  17.202 -0.5335  0.1431  0.0766
 6884TIP3    H142067   4.985   6.611  17.111 -1.6271  0.1569 -0.1234
 6884TIP3    H242068   4.891   6.531  17.198  0.5143 -1.5234  0.7627
 6885TIP3   OH242069   1.026   2.755  15.427  0.1287 -0.0933 -0.2957
 6885TIP3    H142070   1.092   2.820  15.447 -0.6585  0.5749  0.2240
 6885TIP3    H242071   0.976   2.746  15.508 -0.2054 -0.8325 -0.5703
 6886TIP3   OH242072   1.145   3.310   5.830  0.0961 -0.0498 -0.1313
 6886TIP3    H142073   1.238   3.321   5.811 -0.2843  0.1091 -2.0591
 6886TIP3    H242074   1.126   3.220   5.806 -0.6014  0.4235 -1.4294
 6887TIP3   OH242075   2.920   6.711   1.675  0.3754 -0.1528 -0.1677
 6887TIP3    H142076   2.913   6.701   1.770 -0.7272 -0.7661 -0.2854
 6887TIP3    H242077   2.859   6.645   1.641  0.6355  0.1812 -1.2926
 6888TIP3   OH242078   3.056   2.450   3.825  0.0013 -0.3607  0.5963
 6888TIP3    H142079   3.078   2.400   3.904  0.4299  1.3837  1.6266
 6888TIP3    H242080   3.139   2.489   3.798 -0.5986  1.0675  0.7548
 6889TIP3   OH242081   3.229   2.705  16.651  0.3299 -0.5344 -0.0357
 6889TIP3    H142082   3.168   2.635  16.626 -0.4437 -0.2177  0.9268
 6889TIP3    H242083   3.313   2.661  16.660 -0.4857 -1.7453  2.3870
 6890TIP3   OH242084   2.508   3.494  11.624 -0.4335 -0.3193  0.1263
 6890TIP3    H142085   2.429   3.441  11.623 -0.0493 -0.8893 -0.5341
 6890TIP3    H242086   2.502   3.546  11.544  1.0410 -2.1615 -1.2636
 6891TIP3   OH242087   1.460   1.335   2.002 -0.0934 -0.1254  0.2151
 6891TIP3    H142088   1.400   1.408   2.010  0.4641  0.2280  1.5887
 6891TIP3    H242089   1.434   1.290   1.922  0.2396  2.1949 -1.2916
 6892TIP3   OH242090   6.730   0.552   5.013 -0.2496 -0.2627 -0.1235
 6892TIP3    H142091   6.759   0.546   4.922  2.4469  4.2985  0.1182
 6892TIP3    H242092   6.654   0.611   5.010 -1.3421 -1.5848  0.4955
 6893TIP3   OH242093   3.768   0.072  12.067 -0.3734 -0.1650  0.3924
 6893TIP3    H142094   3.811  -0.013  12.077 -0.1337  0.0926  1.6411
 6893TIP3    H242095   3.799   0.124  12.141 -0.6215  0.9763 -0.2813
 6894TIP3   OH242096   0.778   1.787  15.254  0.2101  0.0498  0.4882
 6894TIP3    H142097   0.747   1.780  15.345 -2.4748 -1.6808 -0.4446
 6894TIP3    H242098   0.702   1.763  15.201  2.1707 -0.6333 -2.2035
 6895TIP3   OH242099   6.696   0.513  15.149  0.2793 -0.2175  0.0167
 6895TIP3    H142100   6.636   0.582  15.121 -1.7550 -1.8392  0.0959
 6895TIP3    H242101   6.689   0.514  15.245  2.7456  1.4820  0.2951
 6896TIP3   OH242102   3.501   6.627  17.028 -0.0464  0.3760 -0.1447
 6896TIP3    H142103   3.561   6.670  16.967  0.9228  1.9875  1.7891
 6896TIP3    H242104   3.551   6.622  17.110 -1.8400 -0.1546  0.9777
 6897TIP3   OH242105   0.615   2.564  10.977 -0.0505 -0.1236  0.0331
 6897TIP3    H142106   0.655   2.495  11.031  0.6795 -0.7824 -1.3071
 6897TIP3    H242107   0.550   2.518  10.924 -0.0517  0.3513 -0.3825
 6898TIP3   OH242108   4.569   5.187  12.547  0.2334  0.5141 -0.1810
 6898TIP3    H142109   4.539   5.139  12.625  1.7212 -0.0130  0.0969
 6898TIP3    H242110   4.510   5.262  12.541 -0.2179  0.2981  1.1675
 6899TIP3   OH242111   6.350   1.596   0.056 -0.2858  0.3297 -0.1759
 6899TIP3    H142112   6.318   1.685   0.067 -0.9366  0.6399 -3.5123
 6899TIP3    H242113   6.271   1.543   0.044  0.1765 -0.2846 -0.5772
 6900TIP3   OH242114   5.453   0.147   1.534  0.2225 -0.5970 -0.4060
 6900TIP3    H142115   5.480   0.169   1.445 -0.5640  0.0645 -0.4974
 6900TIP3    H242116   5.363   0.178   1.540  0.9095  1.2571  1.2735
 6901TIP3   OH242117   1.253   5.072  14.963 -0.2976 -0.2959 -0.5628
 6901TIP3    H142118   1.340   5.054  14.999 -0.0867 -0.1904 -1.0074
 6901TIP3    H242119   1.203   4.993  14.979  0.3416 -0.9572 -1.6679
 6902TIP3   OH242120   3.683   0.041   1.639 -0.7720  0.4067  0.8713
 6902TIP3    H142121   3.697  -0.031   1.578  1.8167  0.5860  1.1521
 6902TIP3    H242122   3.606   0.014   1.690 -0.2392 -1.9050  0.5822
 6903TIP3   OH242123   2.415   1.436  10.276 -0.4863  0.3014  0.3271
 6903TIP3    H142124   2.332   1.415  10.320 -0.1867 -0.8856  0.3402
 6903TIP3    H242125   2.467   1.481  10.343  0.7397 -3.1926  1.9432
 6904TIP3   OH242126   0.331   0.248   3.240  0.2219  0.1802 -0.0021
 6904TIP3    H142127   0.320   0.312   3.170  0.2055  0.9244  0.6613
 6904TIP3    H242128   0.247   0.203   3.247  0.1744  0.2180 -0.3449
 6905TIP3   OH242129   4.631   6.491   5.023 -0.5552 -0.1155  0.0311
 6905TIP3    H142130   4.717   6.527   5.000 -0.6319 -0.0525 -0.1579
 6905TIP3    H242131   4.643   6.456   5.112 -0.8239  1.6098  0.7904
 6906TIP3   OH242132   3.340   4.700  15.579 -0.0694 -0.1148 -0.4935
 6906TIP3    H142133   3.381   4.738  15.501  0.9537 -0.8075 -0.3138
 6906TIP3    H242134   3.357   4.606  15.571  1.5333 -0.0485  1.3831
 6907TIP3   OH242135   1.684   0.565   3.928  0.1437  0.8981  0.0930
 6907TIP3    H142136   1.770   0.604   3.915  1.4658 -1.8613 -0.1074
 6907TIP3    H242137   1.694   0.511   4.006 -1.2591  0.1285 -0.2272
 6908TIP3   OH242138   5.451   1.788  13.444 -0.1214  0.0984  0.0437
 6908TIP3    H142139   5.375   1.754  13.398 -0.4680  0.1856  0.5506
 6908TIP3    H242140   5.513   1.715  13.446 -0.0970  0.0948 -0.5619
 6909TIP3   OH242141   0.774   0.872  15.252  0.3834  0.7704 -0.0156
 6909TIP3    H142142   0.764   0.936  15.182  3.4390  0.0576 -1.2641
 6909TIP3    H242143   0.844   0.906  15.307  0.6812 -0.5179  0.4540
 6910TIP3   OH242144   4.798   0.386   0.433 -0.0406  0.4687  0.1976
 6910TIP3    H142145   4.860   0.322   0.468 -0.4061  0.0064  0.0069
 6910TIP3    H242146   4.782   0.446   0.506  1.2256  1.0558  0.0156
 6911TIP3   OH242147   3.391   3.529  13.745 -0.1627 -0.3276  0.4581
 6911TIP3    H142148   3.323   3.467  13.770 -1.5710  0.5859 -0.9674
 6911TIP3    H242149   3.349   3.615  13.749  0.3866  0.1132 -2.0411
 6912TIP3   OH242150   0.123   4.051   2.094 -0.1082  0.1335  0.0789
 6912TIP3    H142151   0.041   4.035   2.141  0.4235 -0.5180  0.8117
 6912TIP3    H242152   0.133   3.976   2.037 -0.2457  0.4377 -0.3510
 6913TIP3   OH242153   6.614   5.716   0.474  0.2138  1.0862 -0.3704
 6913TIP3    H142154   6.558   5.688   0.401  0.3836  2.7407 -1.1695
 6913TIP3    H242155   6.569   5.792   0.511  0.9348  1.2222  0.2445
 6914TIP3   OH242156   2.479   2.520  16.505 -0.6439 -0.2802 -0.0015
 6914TIP3    H142157   2.430   2.567  16.437 -1.0127 -0.8945 -0.1742
 6914TIP3    H242158   2.492   2.584  16.575  0.2445  0.5321 -0.8841
 6915TIP3   OH242159   6.747   2.307   2.955 -0.8259  0.0298 -0.5046
 6915TIP3    H142160   6.826   2.359   2.968 -0.4163 -0.9153  1.0842
 6915TIP3    H242161   6.678   2.353   3.004 -0.4183 -0.9450  1.0699
 6916TIP3   OH242162   2.449   3.710  15.802 -0.0855  0.6114  0.2714
 6916TIP3    H142163   2.523   3.768  15.817  0.0568  0.8786 -1.3261
 6916TIP3    H242164   2.372   3.764  15.821  0.0905  0.7310  0.6570
 6917TIP3   OH242165   2.065   5.516   5.853 -0.5059 -0.0301 -0.0110
 6917TIP3    H142166   2.072   5.596   5.905  2.9318  0.2593 -0.6796
 6917TIP3    H242167   2.084   5.446   5.915 -1.2770 -0.1368  0.1091
 6918TIP3   OH242168   5.495   1.737   0.952 -0.0276  0.5647 -0.1130
 6918TIP3    H142169   5.431   1.666   0.939  1.4141 -0.6489 -0.8948
 6918TIP3    H242170   5.578   1.691   0.963  0.4978  1.9992  2.8353
 6919TIP3   OH242171   6.729   4.233   0.167 -0.1364  0.0613 -0.0237
 6919TIP3    H142172   6.671   4.290   0.117  2.8294  2.6439 -0.8485
 6919TIP3    H242173   6.701   4.243   0.257  0.3862  3.2273 -0.0919
 6920TIP3   OH242174   4.111   5.551  13.629  0.2865 -0.2795 -0.4076
 6920TIP3    H142175   4.095   5.646  13.625 -1.1749 -0.4735  0.0461
 6920TIP3    H242176   4.193   5.539  13.583  0.4925  1.2129 -0.5057
 6921TIP3   OH242177   0.710   4.220  13.046  0.7798 -0.0068 -0.6618
 6921TIP3    H142178   0.776   4.276  13.086  2.3620 -1.7099 -0.7767
 6921TIP3    H242179   0.748   4.132  13.047 -1.5930 -1.1169 -0.4990
 6922TIP3   OH242180   5.837   5.924   5.360 -0.3924  0.1436 -0.0850
 6922TIP3    H142181   5.752   5.963   5.340  0.4038  0.5788 -3.2204
 6922TIP3    H242182   5.896   5.998   5.367  0.0166 -0.2321  0.5079
 6923TIP3   OH242183   4.500   0.439   1.405 -1.0278 -0.0725  0.5164
 6923TIP3    H142184   4.429   0.494   1.439 -2.0614 -1.2816  0.4262
 6923TIP3    H242185   4.558   0.426   1.480 -1.5275 -0.0056  0.9228
 6924TIP3   OH242186   5.563   1.135  12.051  0.5482  0.0075  0.0803
 6924TIP3    H142187   5.586   1.226  12.030 -0.3297  0.1353 -0.3647
 6924TIP3    H242188   5.563   1.132  12.147 -0.0742  0.6463  0.1046
 6925TIP3   OH242189   0.992   4.060  11.655  0.1441 -0.7253  0.1203
 6925TIP3    H142190   0.942   4.107  11.588  2.1210 -0.1954 -1.0724
 6925TIP3    H242191   0.927   4.039  11.723 -1.5590  0.3615 -1.0767
 6926TIP3   OH242192   1.988   0.710   2.513 -1.1068 -0.8986 -0.0267
 6926TIP3    H142193   2.051   0.761   2.461 -1.5879 -0.5977 -0.3248
 6926TIP3    H242194   2.041   0.669   2.581 -1.0048  1.8570  1.6894
 6927TIP3   OH242195   1.965   5.074  16.390 -0.0999 -0.2049  0.4562
 6927TIP3    H142196   1.912   5.144  16.429 -0.3162  0.0954 -0.3512
 6927TIP3    H242197   1.975   5.010  16.460 -2.8092 -0.9993  0.2085
 6928TIP3   OH242198   1.054   5.056   2.533  0.2204 -0.4204 -0.3658
 6928TIP3    H142199   1.014   5.123   2.477  0.2042  0.7844  1.0167
 6928TIP3    H242200   1.068   4.981   2.475  2.2137  1.4683 -2.5805
 6929TIP3   OH242201   3.728   4.462  13.026 -1.3670  0.2335 -0.1461
 6929TIP3    H142202   3.650   4.417  12.994 -0.6410 -0.6808 -0.6823
 6929TIP3    H242203   3.794   4.393  13.035 -0.4705  1.0574 -0.2060
 6930TIP3   OH242204   1.781   3.325  15.252 -0.4745  0.3101 -0.2972
 6930TIP3    H142205   1.829   3.408  15.256  1.7464 -0.9060  3.0308
 6930TIP3    H242206   1.700   3.342  15.299 -0.2182  0.7118  0.0084
 6931TIP3   OH242207   5.131   0.565   4.427  1.0384  0.7726 -0.1958
 6931TIP3    H142208   5.040   0.537   4.413  0.3396  2.1744  1.1798
 6931TIP3    H242209   5.182   0.484   4.423  0.3123  0.2792 -4.5793
 6932TIP3   OH242210   1.577   2.647   3.947 -0.2223  0.0045  0.5872
 6932TIP3    H142211   1.628   2.610   4.019  1.0215 -0.4245 -0.4883
 6932TIP3    H242212   1.640   2.661   3.877 -1.3111  0.9219 -0.2454
 6933TIP3   OH242213   4.169   3.418   0.754  0.7136  0.5297 -0.1083
 6933TIP3    H142214   4.134   3.494   0.802 -0.4022 -0.3158  0.4593
 6933TIP3    H242215   4.162   3.346   0.816 -0.1388 -0.4531 -1.3009
 6934TIP3   OH242216   6.658   0.243   5.862  0.0113  0.4749 -0.0556
 6934TIP3    H142217   6.670   0.158   5.819  1.6983 -0.1019  1.4717
 6934TIP3    H242218   6.631   0.301   5.791 -0.6975 -1.2009 -1.2342
 6935TIP3   OH242219   2.915   0.335   2.986 -0.3031  0.2457  0.1008
 6935TIP3    H142220   2.872   0.259   2.949  0.3771 -0.3323  0.4786
 6935TIP3    H242221   2.907   0.403   2.919 -0.0301 -0.4601 -0.6587
 6936TIP3   OH242222   2.313   0.115   2.156  0.0669 -0.6268  0.5357
 6936TIP3    H142223   2.234   0.091   2.108  0.1490  1.4790 -0.7368
 6936TIP3    H242224   2.385   0.094   2.097  0.2367  0.7848  0.2079
 6937TIP3   OH242225   0.225   6.011  14.595  0.3549  0.3270 -0.5664
 6937TIP3    H142226   0.209   5.968  14.679 -1.0670 -0.7280 -1.3341
 6937TIP3    H242227   0.139   6.016  14.554  0.9423  1.3171 -1.7527
 6938TIP3   OH242228   6.782   4.566   4.852  0.2513  0.7337 -0.2637
 6938TIP3    H142229   6.713   4.632   4.858 -1.3861 -0.9459  0.6603
 6938TIP3    H242230   6.856   4.603   4.899 -0.4108  2.1380 -0.2845
 6939TIP3   OH242231   3.614   4.440   5.680  0.3183  0.0739  0.1163
 6939TIP3    H142232   3.709   4.452   5.687  0.1608  1.4114  0.2195
 6939TIP3    H242233   3.577   4.526   5.699 -0.9926 -0.7160  1.3480
 6940TIP3   OH242234   1.242   3.060   2.882  0.4427 -0.4829  0.3407
 6940TIP3    H142235   1.329   3.024   2.902 -0.1314 -1.3514  1.3867
 6940TIP3    H242236   1.260   3.134   2.825  1.9250 -0.3249  0.9467
 6941TIP3   OH242237   5.461   3.982   1.019  0.6305  0.0354  0.7034
 6941TIP3    H142238   5.438   3.949   1.106 -0.2237 -1.9217 -0.2035
 6941TIP3    H242239   5.446   3.907   0.961  0.8588  1.3957 -1.1735
 6942TIP3   OH242240   5.742   5.179  16.243  0.2923 -0.2319  0.2282
 6942TIP3    H142241   5.833   5.185  16.274 -0.0531 -0.6006  1.3521
 6942TIP3    H242242   5.749   5.138  16.157  1.1602 -0.7701  0.5427
 6943TIP3   OH242243   6.185   4.018   2.849  0.4224 -0.0324  0.5485
 6943TIP3    H142244   6.245   4.092   2.839 -0.5059  1.0495  2.3810
 6943TIP3    H242245   6.120   4.030   2.779  1.4971 -0.3867 -0.5342
 6944TIP3   OH242246   6.186   1.981  12.083  0.3338  0.3344 -0.2031
 6944TIP3    H142247   6.101   2.001  12.043 -0.0249 -1.3892 -0.3863
 6944TIP3    H242248   6.163   1.932  12.162  1.1575 -0.8738 -0.6836
 6945TIP3   OH242249   3.059   2.845   3.757  0.2073 -0.2839  0.1699
 6945TIP3    H142250   3.136   2.836   3.701  0.5222  1.4495  0.2862
 6945TIP3    H242251   3.013   2.921   3.722  0.1369  0.5201  1.9240
 6946TIP3   OH242252   5.848   3.628   4.141 -0.3244 -0.1544  0.7675
 6946TIP3    H142253   5.811   3.716   4.136 -1.3069 -0.6124 -1.0121
 6946TIP3    H242254   5.928   3.632   4.089 -0.0036 -0.1382  1.2653
 6947TIP3   OH242255   5.784   5.755   0.481 -0.1609 -0.1119  0.1492
 6947TIP3    H142256   5.788   5.850   0.473  1.7946 -0.2605 -1.0776
 6947TIP3    H242257   5.875   5.726   0.487 -0.6297 -2.0166 -0.9008
 6948TIP3   OH242258   0.893   2.914  11.827 -0.3616 -0.6068 -0.2856
 6948TIP3    H142259   0.816   2.879  11.783 -1.3896  0.2824  0.7310
 6948TIP3    H242260   0.966   2.896  11.767 -1.3339 -1.5461 -1.2249
 6949TIP3   OH242261   4.685   5.119   0.052  0.0752  0.8191 -0.1894
 6949TIP3    H142262   4.731   5.195   0.085  0.6194  0.2839  0.3130
 6949TIP3    H242263   4.610   5.108   0.112 -0.2412  1.1974 -0.5104
 6950TIP3   OH242264   5.021   0.270   4.983 -0.2887  0.5119  0.1859
 6950TIP3    H142265   4.984   0.252   5.069 -2.1398  0.4471 -0.5813
 6950TIP3    H242266   4.945   0.283   4.926  0.8599  2.7261 -0.9982
 6951TIP3   OH242267   5.491   6.504   5.520 -0.1025  0.0390  0.0067
 6951TIP3    H142268   5.527   6.416   5.514 -0.6089 -0.1298 -0.6837
 6951TIP3    H242269   5.464   6.525   5.431  1.0251  1.3409 -0.0690
 6952TIP3   OH242270   4.858   1.693   4.081 -0.1566 -0.7838 -0.1674
 6952TIP3    H142271   4.777   1.695   4.133  0.4198  1.4376  0.7674
 6952TIP3    H242272   4.837   1.743   4.002 -0.2162 -1.8193 -0.8287
 6953TIP3   OH242273   6.757   6.086  15.783 -0.5233  0.3954 -0.2081
 6953TIP3    H142274   6.710   6.162  15.748  0.9323  0.8159 -1.3795
 6953TIP3    H242275   6.793   6.043  15.706 -1.2989 -1.5093  0.4410
 6954TIP3   OH242276   2.809   0.608   4.857  0.4556  0.2777  0.3715
 6954TIP3    H142277   2.853   0.591   4.941  1.3071 -2.1241 -0.4857
 6954TIP3    H242278   2.865   0.566   4.792 -2.6158 -2.1846 -0.8847
 6955TIP3   OH242279   6.035   0.041   1.551 -0.2797  0.0424 -0.5641
 6955TIP3    H142280   6.007   0.133   1.547  0.8690  0.4063 -0.5494
 6955TIP3    H242281   6.053   0.025   1.644  1.0066  0.2851 -0.7491
 6956TIP3   OH242282   3.653   4.636  10.802  0.0667 -0.2599 -0.2778
 6956TIP3    H142283   3.599   4.667  10.729 -1.5259 -0.2709  0.8378
 6956TIP3    H242284   3.703   4.712  10.830  1.8120 -0.5858 -2.2363
 6957TIP3   OH242285   3.109   1.984  11.363 -0.4497 -0.4902  0.4950
 6957TIP3    H142286   3.117   2.075  11.333 -1.5140 -0.6606 -0.3647
 6957TIP3    H242287   3.198   1.949  11.357 -0.0362  0.4671  0.7801
 6958TIP3   OH242288   2.105   1.123  10.864  0.4677 -0.1917 -0.2377
 6958TIP3    H142289   2.147   1.156  10.943  1.8970  0.4924 -1.2246
 6958TIP3    H242290   2.037   1.186  10.843 -0.7454 -1.0117  1.0751
 6959TIP3   OH242291   1.486   5.241   4.182  0.0521  0.5250 -0.0460
 6959TIP3    H142292   1.549   5.170   4.166 -0.5145  0.2974 -1.3081
 6959TIP3    H242293   1.442   5.254   4.098 -1.6953  0.5861  0.8345
 6960TIP3   OH242294   3.800   0.541   2.490 -0.7136  0.0199  0.2618
 6960TIP3    H142295   3.862   0.610   2.464 -1.2405  0.1987 -0.5445
 6960TIP3    H242296   3.751   0.521   2.410 -0.7083 -1.1540  0.5372
 6961TIP3   OH242297   5.900   0.421   3.740  0.0070 -0.1337 -0.2853
 6961TIP3    H142298   5.968   0.473   3.697  1.2050 -0.8982  0.5943
 6961TIP3    H242299   5.885   0.347   3.681  1.4756 -1.0565  0.4363
 6962TIP3   OH242300   6.663   4.909  11.566  0.4856 -0.2413  0.0797
 6962TIP3    H142301   6.651   4.999  11.596 -1.6992 -1.3428  3.0009
 6962TIP3    H242302   6.695   4.862  11.643 -0.3264 -2.3130 -0.7780
 6963TIP3   OH242303   6.632   0.762   1.839  0.6673  0.2410 -0.0066
 6963TIP3    H142304   6.630   0.732   1.748  0.7671 -1.0227  0.3918
 6963TIP3    H242305   6.546   0.804   1.851  0.7956  0.7624 -0.7768
 6964TIP3   OH242306   5.720   6.404  13.543  0.3109  0.6605 -0.0785
 6964TIP3    H142307   5.764   6.383  13.625 -1.1568  0.9642  0.8291
 6964TIP3    H242308   5.638   6.446  13.570  0.0965  1.3759 -1.7138
 6965TIP3   OH242309   1.864   0.483  15.458 -0.3038  0.6571 -0.2518
 6965TIP3    H142310   1.837   0.392  15.447 -1.8687  1.2221 -1.4844
 6965TIP3    H242311   1.862   0.498  15.553 -1.3136 -0.2263 -0.1223
 6966TIP3   OH242312   2.512   2.308   1.344  0.0449  0.1642  0.8096
 6966TIP3    H142313   2.432   2.288   1.294  1.2536 -1.0504 -0.7272
 6966TIP3    H242314   2.549   2.223   1.365  0.8523  0.7204  1.6978
 6967TIP3   OH242315   2.545   5.701   1.389  0.3294  0.9771 -0.5741
 6967TIP3    H142316   2.580   5.788   1.410  2.6781 -0.1520  0.5392
 6967TIP3    H242317   2.481   5.684   1.459  1.0538  1.1753  0.1535
 6968TIP3   OH242318   0.002   3.931   4.137  0.0024  0.2839  0.2740
 6968TIP3    H142319  -0.053   3.981   4.077  0.3903 -1.1295 -1.3300
 6968TIP3    H242320   0.074   3.899   4.083  1.5528  0.7003  1.9537
 6969TIP3   OH242321   5.175   0.115  13.465  0.0015 -0.1765 -0.2622
 6969TIP3    H142322   5.138   0.158  13.542  2.1872  0.5877  0.4357
 6969TIP3    H242323   5.134   0.161  13.391 -0.0240  1.0496  0.4741
 6970TIP3   OH242324   5.740   3.105   2.724 -0.3146  0.6110  0.5493
 6970TIP3    H142325   5.803   3.094   2.795 -1.8947 -0.5574  1.8342
 6970TIP3    H242326   5.659   3.134   2.768 -0.9568  1.1645 -0.9346
 6971TIP3   OH242327   4.268   4.478   5.247 -0.1862 -0.3561  0.3592
 6971TIP3    H142328   4.326   4.534   5.195  0.2593 -0.2929  0.9084
 6971TIP3    H242329   4.233   4.536   5.314  0.8554 -0.8790  1.3923
 6972TIP3   OH242330   3.119   6.608  16.160 -0.1344  0.5118 -0.0855
 6972TIP3    H142331   3.145   6.594  16.069  0.5716  0.0326  0.1825
 6972TIP3    H242332   3.076   6.693  16.159 -1.9410 -0.3629 -1.2279
 6973TIP3   OH242333   3.318   3.798   1.255 -0.7562  0.4826  0.1230
 6973TIP3    H142334   3.356   3.720   1.214 -1.6148  0.5475 -0.8460
 6973TIP3    H242335   3.292   3.769   1.342 -0.0726 -0.0133  0.1729
 6974TIP3   OH242336   3.586   6.174   2.456  0.0849  0.0318  0.0739
 6974TIP3    H142337   3.531   6.214   2.388  1.0037 -0.7294 -1.1701
 6974TIP3    H242338   3.552   6.085   2.466 -2.4401  1.1748  3.3766
 6975TIP3   OH242339   0.045   5.177   3.536 -0.1832  0.1697  0.3772
 6975TIP3    H142340   0.122   5.233   3.549 -0.3829  0.3733  0.6940
 6975TIP3    H242341  -0.003   5.182   3.619 -1.3028  1.2053 -0.3047
 6976TIP3   OH242342   0.056   4.645  16.160 -0.1119  0.0960 -0.0914
 6976TIP3    H142343   0.057   4.550  16.158  1.3555  0.0225  1.5936
 6976TIP3    H242344  -0.013   4.667  16.223 -0.0782  0.1201 -0.0621
 6977TIP3   OH242345   2.724   4.824   3.275 -0.6330 -0.3164  0.3233
 6977TIP3    H142346   2.750   4.775   3.354 -0.1362 -1.5683 -0.5765
 6977TIP3    H242347   2.656   4.770   3.235  1.6823 -1.7241 -2.0589
 6978TIP3   OH242348   4.571   0.479  16.367  0.2863  0.1134 -0.3432
 6978TIP3    H142349   4.566   0.493  16.273  0.2743  0.5000 -0.2830
 6978TIP3    H242350   4.571   0.383  16.376  1.7537  0.0452 -0.8151
 6979TIP3   OH242351   4.327   4.294   5.003 -0.5524  0.4682  0.3929
 6979TIP3    H142352   4.322   4.318   5.095 -0.3994 -0.9631  0.7953
 6979TIP3    H242353   4.418   4.313   4.978 -0.7995  1.6001  0.2996
 6980TIP3   OH242354   1.478   2.451   5.628 -0.3088 -0.0312 -0.0309
 6980TIP3    H142355   1.412   2.419   5.689 -1.0273  0.7191 -0.4036
 6980TIP3    H242356   1.554   2.471   5.684  0.1190 -2.1567  0.2333
 6981TIP3   OH242357   0.569   3.692   1.092  0.4775  0.3036  0.2951
 6981TIP3    H142358   0.514   3.617   1.071  0.8777  0.7510 -2.9062
 6981TIP3    H242359   0.656   3.656   1.105  0.2315  0.0053  1.1580
 6982TIP3   OH242360   0.484   3.003   2.666  0.0951  0.6200  0.1388
 6982TIP3    H142361   0.450   3.019   2.755 -0.6661  1.0039 -0.2097
 6982TIP3    H242362   0.544   2.930   2.677  0.3035  0.9102  1.0390
 6983TIP3   OH242363   2.144   2.880   4.577  0.3621  0.1206 -0.3558
 6983TIP3    H142364   2.145   2.877   4.673  0.8785 -0.7612 -0.3765
 6983TIP3    H242365   2.072   2.939   4.555 -0.0515 -0.0256  0.5670
 6984TIP3   OH242366   5.646   4.369  13.088  0.1337  0.2585 -0.5179
 6984TIP3    H142367   5.696   4.451  13.093  2.0607 -0.7396 -1.8594
 6984TIP3    H242368   5.684   4.323  13.013  0.8179 -2.9469  1.6091
 6985TIP3   OH242369   5.457   2.581  13.324  0.0430 -0.6532  0.0729
 6985TIP3    H142370   5.401   2.646  13.281  0.5064 -0.0620  0.3375
 6985TIP3    H242371   5.400   2.539  13.389 -0.4282 -0.9554 -0.5256
 6986TIP3   OH242372   3.356   1.575  14.571  0.0522  0.6003  0.4167
 6986TIP3    H142373   3.277   1.525  14.552  1.1983 -0.4628 -1.9585
 6986TIP3    H242374   3.423   1.508  14.586  0.8003  1.4681  1.0175
 6987TIP3   OH242375   3.216   3.980   6.186 -0.2513 -0.2717  0.0642
 6987TIP3    H142376   3.126   3.963   6.158 -0.0760  0.8831 -1.2928
 6987TIP3    H242377   3.217   4.073   6.208  0.9561  0.0982 -1.3899
 6988TIP3   OH242378   6.605   1.809  11.166  0.0693  0.0423  0.2998
 6988TIP3    H142379   6.683   1.776  11.122  0.0882 -1.3756  1.3228
 6988TIP3    H242380   6.616   1.782  11.257 -2.7599 -2.4900  0.0286
 6989TIP3   OH242381   6.129   6.629   0.329 -0.6935 -0.1610 -0.1854
 6989TIP3    H142382   6.208   6.593   0.368 -0.1466  0.3717 -0.7856
 6989TIP3    H242383   6.058   6.591   0.380  0.0007  0.6786  1.4670
 6990TIP3   OH242384   5.768   6.732   1.534  0.0777 -0.0449 -0.0491
 6990TIP3    H142385   5.863   6.740   1.524 -0.0433  2.4857  0.2180
 6990TIP3    H242386   5.757   6.690   1.619  0.9589 -0.4712 -0.1356
 6991TIP3   OH242387   6.435   6.478  13.213  0.3036 -0.4988 -0.7597
 6991TIP3    H142388   6.436   6.561  13.261 -0.4313 -1.1070  0.3377
 6991TIP3    H242389   6.518   6.476  13.166 -0.0178  1.2439 -1.4945
 6992TIP3   OH242390   3.208   2.250   5.645  0.1765  0.0081 -0.5375
 6992TIP3    H142391   3.271   2.285   5.708 -1.6683  1.7380  0.4519
 6992TIP3    H242392   3.247   2.167   5.615  3.0161  1.1343 -0.2239
 6993TIP3   OH242393   2.206   5.099   2.488  0.2158 -0.1657  0.1845
 6993TIP3    H142394   2.206   5.005   2.476  1.4246 -0.4655  2.0856
 6993TIP3    H242395   2.297   5.126   2.475  0.1325  0.5313  0.9314
 6994TIP3   OH242396   3.156   2.911   5.326 -0.6177 -0.4870 -0.1294
 6994TIP3    H142397   3.136   2.996   5.366  0.1080 -0.2271 -0.3103
 6994TIP3    H242398   3.134   2.922   5.234  0.8166 -0.0223 -0.4424
 6995TIP3   OH242399   0.814   1.877   1.698  0.2877 -0.3336 -0.2426
 6995TIP3    H142400   0.734   1.915   1.735 -1.5245 -1.2620 -2.9437
 6995TIP3    H242401   0.819   1.912   1.609  2.3654 -1.1174 -0.4945
 6996TIP3   OH242402   3.280   0.512  15.162 -0.5011  0.2072  0.3675
 6996TIP3    H142403   3.279   0.596  15.208 -0.6375 -0.1324  0.9878
 6996TIP3    H242404   3.298   0.447  15.230 -2.3444 -0.4941  0.2473
 6997TIP3   OH242405   2.480   2.598   1.369 -0.2800  0.6328 -0.7307
 6997TIP3    H142406   2.564   2.617   1.411 -0.9734  1.5157  0.2793
 6997TIP3    H242407   2.490   2.508   1.338  0.8247  0.5092 -0.0870
 6998TIP3   OH242408   5.280   4.413   2.101  0.0321  0.0787 -0.4793
 6998TIP3    H142409   5.335   4.490   2.085 -1.7368  1.0289 -2.4765
 6998TIP3    H242410   5.218   4.442   2.169 -0.0990  0.1584 -0.6302
 6999TIP3   OH242411   3.711   3.922  14.500 -0.2266 -0.0694  0.3637
 6999TIP3    H142412   3.802   3.900  14.516  0.0324  1.0521  0.5056
 6999TIP3    H242413   3.684   3.971  14.577 -0.4216  1.1049 -0.4259
 7000TIP3   OH242414   6.127   5.608  14.832  0.1373 -0.4273  0.4072
 7000TIP3    H142415   6.113   5.543  14.764 -2.3108  0.2266  0.1953
 7000TIP3    H242416   6.203   5.658  14.802  0.9640 -2.0226 -0.2896
 7001TIP3   OH242417   1.474   2.651  16.881  0.0638 -0.5136  0.2580
 7001TIP3    H142418   1.506   2.592  16.949  1.2908  0.4907  0.6069
 7001TIP3    H242419   1.534   2.639  16.807  1.8903  1.9437  1.1919
 7002TIP3   OH242420   6.003   1.879   2.884  0.5161  0.6137  0.2844
 7002TIP3    H142421   6.085   1.878   2.836  0.6211 -0.4878  0.4626
 7002TIP3    H242422   6.016   1.945   2.953  0.7811  1.3487 -0.4518
 7003TIP3   OH242423   0.981   4.683  17.033 -0.4655  0.1120  0.7991
 7003TIP3    H142424   1.010   4.644  17.116  2.9569  2.0782  0.7074
 7003TIP3    H242425   1.041   4.648  16.968  0.0279  2.2669  0.0282
 7004TIP3   OH242426   5.750   0.743  15.838 -0.6684 -0.1152  0.7819
 7004TIP3    H142427   5.742   0.818  15.897 -1.8720 -1.3146  2.2371
 7004TIP3    H242428   5.751   0.781  15.750 -1.0388  1.5996  1.4782
 7005TIP3   OH242429   0.019   3.624  12.785 -0.4538  0.1831  0.0492
 7005TIP3    H142430   0.061   3.660  12.863 -0.5922 -1.4072  0.8843
 7005TIP3    H242431  -0.075   3.638  12.800 -0.6255 -1.8386  1.1034
 7006TIP3   OH242432   5.304   3.703  11.097  0.2607  0.0645  0.0546
 7006TIP3    H142433   5.384   3.652  11.103  0.2951 -0.0049 -0.8782
 7006TIP3    H242434   5.334   3.794  11.096  0.2633  0.0742  0.6633
 7007TIP3   OH242435   2.800   1.812  10.713 -0.1485 -0.2843  0.6274
 7007TIP3    H142436   2.733   1.868  10.674  0.3236  0.7179  1.2232
 7007TIP3    H242437   2.795   1.730  10.663 -0.5746  0.4221 -0.5122
 7008TIP3   OH242438   3.865   2.816  15.848 -0.5020 -0.3715  0.0895
 7008TIP3    H142439   3.909   2.890  15.890 -1.5117  0.3864 -0.1193
 7008TIP3    H242440   3.779   2.813  15.890 -1.2746 -0.0437 -1.4012
 7009TIP3   OH242441   3.939   2.120   1.501  0.7144 -0.5106 -0.5044
 7009TIP3    H142442   3.939   2.132   1.406 -0.4312  0.2619 -0.4284
 7009TIP3    H242443   3.939   2.209   1.536 -2.9247 -0.6220  0.1606
 7010TIP3   OH242444   4.024   0.858  14.884 -0.5556 -0.2438  0.2167
 7010TIP3    H142445   4.042   0.914  14.809 -1.3495 -0.2292  0.0312
 7010TIP3    H242446   4.106   0.810  14.898 -0.1911  0.2304 -0.2426
 7011TIP3   OH242447   2.098   4.467  11.923 -0.0766 -0.6308 -0.6012
 7011TIP3    H142448   2.133   4.380  11.904  0.3432 -0.0636 -2.6996
 7011TIP3    H242449   2.152   4.526  11.871  1.5429  1.2935  2.9234
 7012TIP3   OH242450   5.742   5.147   0.772 -0.2483 -0.1319  0.1053
 7012TIP3    H142451   5.794   5.086   0.826 -1.6744  0.4772  2.2860
 7012TIP3    H242452   5.774   5.233   0.796  1.4630  0.1401 -2.6674
 7013TIP3   OH242453   3.421   4.385   0.994  0.1169 -0.4176  0.2946
 7013TIP3    H142454   3.488   4.453   0.988 -2.0052  1.8074 -0.0373
 7013TIP3    H242455   3.402   4.379   1.088  1.0633 -1.3893  0.4372
 7014TIP3   OH242456   6.334   0.478   3.269 -0.1196  0.3499 -0.4300
 7014TIP3    H142457   6.334   0.460   3.175 -0.1086  0.5148 -0.4619
 7014TIP3    H242458   6.342   0.392   3.309 -0.5591  0.2429 -0.5714
 7015TIP3   OH242459   6.574   5.485   1.286  0.0671  0.1840 -0.1603
 7015TIP3    H142460   6.537   5.399   1.303 -0.5505  0.4249 -0.2553
 7015TIP3    H242461   6.621   5.475   1.203  2.7501 -0.8902  1.3505
 7016TIP3   OH242462   0.718   6.238  11.729  0.4633  0.1536  0.0315
 7016TIP3    H142463   0.729   6.144  11.717  1.4534  0.3458 -0.7507
 7016TIP3    H242464   0.773   6.259  11.805 -1.1373 -0.1430  1.3303
 7017TIP3   OH242465   2.211   5.094  15.026 -0.0713  0.1514 -0.5971
 7017TIP3    H142466   2.261   5.037  15.083  0.5974  0.6380 -0.6756
 7017TIP3    H242467   2.218   5.181  15.067 -0.3541  0.3312 -0.9246
 7018TIP3   OH242468   6.163   4.334  16.387 -0.5195 -0.7151 -0.0056
 7018TIP3    H142469   6.155   4.286  16.470 -0.4066 -0.0955  0.3735
 7018TIP3    H242470   6.080   4.321  16.343 -0.2824 -1.7506 -0.1842
 7019TIP3   OH242471   2.883   4.108  15.331 -0.3584 -0.2001  0.2747
 7019TIP3    H142472   2.805   4.105  15.275 -0.2376  0.4762  0.0697
 7019TIP3    H242473   2.861   4.052  15.406 -0.2554 -1.7353 -0.7802
 7020TIP3   OH242474   1.508   1.739   0.589 -0.2319  0.0861 -0.0000
 7020TIP3    H142475   1.549   1.784   0.515 -0.1672 -0.0034 -0.0188
 7020TIP3    H242476   1.537   1.648   0.581 -2.1772 -0.4927 -1.2857
 7021TIP3   OH242477   6.632   5.336  12.461 -0.4945  0.1122 -0.7108
 7021TIP3    H142478   6.604   5.354  12.551 -1.1186 -0.1217 -0.8538
 7021TIP3    H242479   6.663   5.420  12.428  0.8865 -0.0331  0.1140
 7022TIP3   OH242480   0.418   0.919   2.594  0.3567 -0.2233 -0.3777
 7022TIP3    H142481   0.373   0.877   2.521 -0.3878  1.0671 -0.6901
 7022TIP3    H242482   0.489   0.859   2.617 -0.1686 -1.2314 -1.3402
 7023TIP3   OH242483   3.085   6.569   4.716 -0.5294 -0.1462  0.0133
 7023TIP3    H142484   2.993   6.570   4.741 -0.2716 -2.3600  1.3334
 7023TIP3    H242485   3.086   6.531   4.628 -0.9142  0.6973 -0.3630
 7024TIP3   OH242486   4.944   4.423  12.714 -0.2103 -0.4792  0.2491
 7024TIP3    H142487   4.951   4.514  12.744 -0.7845  0.4111 -2.1051
 7024TIP3    H242488   5.034   4.400  12.688 -0.2074 -0.3009  0.0979
 7025TIP3   OH242489   5.963   3.330  15.342 -0.4591  0.1485 -0.8134
 7025TIP3    H142490   5.892   3.346  15.279  0.4520  2.2095 -1.4067
 7025TIP3    H242491   5.963   3.407  15.398  0.5258 -0.3971 -0.0371
 7026TIP3   OH242492   3.539   5.747   0.162  1.1546 -0.2033 -0.2514
 7026TIP3    H142493   3.542   5.696   0.243  0.5526  0.8666  0.4703
 7026TIP3    H242494   3.599   5.819   0.177  0.3115  0.5445 -0.3574
 7027TIP3   OH242495   3.174   5.681   4.994  0.2177 -0.5291  0.5803
 7027TIP3    H142496   3.128   5.637   4.922  0.2392  0.6496 -0.1744
 7027TIP3    H242497   3.213   5.609   5.045  0.1477 -1.3864 -0.5388
 7028TIP3   OH242498   5.686   4.778  16.223 -0.5347 -0.2537 -0.0679
 7028TIP3    H142499   5.752   4.836  16.186  0.0026  0.3554  1.7357
 7028TIP3    H242500   5.733   4.723  16.285 -1.5150 -0.6418  0.3667
 7029TIP3   OH242501   0.016   3.693  16.162 -0.0097 -0.0641  0.1383
 7029TIP3    H142502   0.036   3.727  16.249 -1.2341  1.1424 -0.0095
 7029TIP3    H242503  -0.063   3.640  16.174  0.5985 -1.0413 -0.0270
 7030TIP3   OH242504   0.395   5.543  12.007  0.3437  0.6483 -0.2080
 7030TIP3    H142505   0.404   5.448  12.005  0.2327  0.5405  2.1459
 7030TIP3    H242506   0.338   5.563  11.933 -0.9059 -1.2918  0.1585
 7031TIP3   OH242507   2.518   0.670   4.267  0.0499  0.4418 -0.1759
 7031TIP3    H142508   2.495   0.685   4.359  1.0394  0.8038  0.0189
 7031TIP3    H242509   2.570   0.746   4.243  0.6733 -0.1529 -0.7332
 7032TIP3   OH242510   6.319   0.055  10.757  0.1159 -0.1453  0.2494
 7032TIP3    H142511   6.394   0.101  10.794 -0.1530  0.0951  0.5106
 7032TIP3    H242512   6.244   0.091  10.805 -0.3136  0.6459 -0.9736
 7033TIP3   OH242513   3.285   6.312   5.251  0.2817 -0.4274 -0.4247
 7033TIP3    H142514   3.347   6.243   5.275 -0.6199 -0.9293  0.5448
 7033TIP3    H242515   3.228   6.270   5.186  0.9564  0.0477 -1.3484
 7034TIP3   OH242516   3.485   1.772   3.765  0.0360 -0.0542  0.1706
 7034TIP3    H142517   3.410   1.827   3.738 -0.8327 -1.3699 -0.1904
 7034TIP3    H242518   3.446   1.686   3.782  1.5191 -0.8297 -0.2431
 7035TIP3   OH242519   0.624   0.577  16.750  0.7791  0.0540  0.1029
 7035TIP3    H142520   0.693   0.576  16.684  1.8882 -4.9912  0.8661
 7035TIP3    H242521   0.581   0.492  16.740 -0.8695  0.2333  3.9520
 7036TIP3   OH242522   6.155   1.468   0.358 -0.3306  0.0316  0.2430
 7036TIP3    H142523   6.116   1.381   0.364 -0.4413 -0.0585 -1.3800
 7036TIP3    H242524   6.157   1.487   0.264 -0.9814  2.0829  0.6093
 7037TIP3   OH242525   1.547   4.423  12.600 -0.7095  0.0897  0.4461
 7037TIP3    H142526   1.575   4.332  12.586  1.3906  0.8491 -0.6692
 7037TIP3    H242527   1.578   4.444  12.688  0.9021  0.4150 -0.1722
 7038TIP3   OH242528   0.221   6.716  16.194 -0.0002  0.3157  0.4389
 7038TIP3    H142529   0.142   6.669  16.165  0.2307  0.6805 -0.8570
 7038TIP3    H242530   0.272   6.650  16.241 -0.0871 -0.5199 -0.5890
 7039TIP3   OH242531   3.709   2.307   6.227  0.3507  0.4616 -0.1225
 7039TIP3    H142532   3.678   2.277   6.312  0.4078 -2.8417 -1.1319
 7039TIP3    H242533   3.804   2.296   6.231  0.1614 -2.7678 -1.5025
 7040TIP3   OH242534   1.272   3.435   4.708 -0.2102 -0.4105  0.6908
 7040TIP3    H142535   1.313   3.399   4.787  0.2726 -0.8187  0.2514
 7040TIP3    H242536   1.188   3.389   4.702 -1.1448  1.0000  2.0432
 7041TIP3   OH242537   6.038   1.734  13.480  0.0802 -0.1639  0.2040
 7041TIP3    H142538   6.064   1.660  13.426  0.2958 -0.2414  0.4111
 7041TIP3    H242539   5.943   1.732  13.481  0.0357  0.4169 -0.9838
 7042TIP3   OH242540   0.227   5.025   5.187 -0.2644  0.3660  1.1417
 7042TIP3    H142541   0.316   5.061   5.193  0.0558 -0.4764  1.5779
 7042TIP3    H242542   0.227   4.951   5.247 -1.1481  0.1193  0.8477
 7043TIP3   OH242543   3.262   1.100  13.172  1.0167  0.2120  0.7575
 7043TIP3    H142544   3.323   1.066  13.238  1.0038 -1.9319 -0.2472
 7043TIP3    H242545   3.175   1.077  13.206  0.9162  0.5324  0.7251
 7044TIP3   OH242546   0.119   2.599   3.558 -0.0236  0.1089  0.4552
 7044TIP3    H142547   0.030   2.607   3.522 -0.4666  0.4006  1.5749
 7044TIP3    H242548   0.144   2.508   3.541 -0.8761 -0.2146  0.8867
 7045TIP3   OH242549   0.954   1.021   3.602 -0.1889 -0.1322  0.5826
 7045TIP3    H142550   0.864   1.017   3.633 -1.3094 -2.5921 -2.4935
 7045TIP3    H242551   0.992   1.096   3.648 -3.9527  1.3881  1.5654
 7046TIP3   OH242552   3.825   0.452  13.711  0.4344  0.0666 -0.5572
 7046TIP3    H142553   3.848   0.360  13.705  0.1562 -0.0521  0.0881
 7046TIP3    H242554   3.878   0.495  13.645 -1.5505 -0.9477 -2.9787
 7047TIP3   OH242555   6.595   1.095  17.022  0.2090  0.4852 -0.0029
 7047TIP3    H142556   6.551   1.106  16.938  1.5473  1.7839 -0.5565
 7047TIP3    H242557   6.545   1.150  17.083  0.9310  1.8199 -0.5899
 7048TIP3   OH242558   1.881   0.157  16.399 -0.0545  0.4863  0.1512
 7048TIP3    H142559   1.816   0.097  16.362  0.6830  1.2191 -2.5703
 7048TIP3    H242560   1.957   0.102  16.417 -0.1165  0.2433 -0.3111
 7049TIP3   OH242561   6.516   5.927   0.228 -0.1395 -0.2937 -0.6979
 7049TIP3    H142562   6.483   5.917   0.318 -0.9901 -1.6073 -1.1198
 7049TIP3    H242563   6.604   5.962   0.238  0.1356 -1.2948  0.7082
 7050TIP3   OH242564   3.243   4.343  16.648 -0.2903  0.1755 -1.1670
 7050TIP3    H142565   3.185   4.384  16.713  2.0913  1.7824  0.1022
 7050TIP3    H242566   3.286   4.273  16.696  0.9835  0.9307 -1.1738
 7051TIP3   OH242567   1.263   6.666   5.262 -0.8864  0.1529 -0.0485
 7051TIP3    H142568   1.344   6.669   5.312 -0.8477  1.6304 -0.1477
 7051TIP3    H242569   1.243   6.573   5.253 -0.2898 -0.1794  1.7051
 7052TIP3   OH242570   1.942   6.572   3.978  0.7860  0.1382 -0.3298
 7052TIP3    H142571   1.893   6.628   3.918  0.5419  0.2689 -0.0180
 7052TIP3    H242572   2.034   6.590   3.958  0.7093 -0.2404 -1.0436
 7053TIP3   OH242573   6.067   4.127   5.499 -0.1439 -0.2310 -0.0398
 7053TIP3    H142574   5.991   4.166   5.543 -0.7248 -2.0693  0.6836
 7053TIP3    H242575   6.032   4.047   5.459  1.4948 -1.3438  0.6726
 7054TIP3   OH242576   5.989   2.466  15.248 -0.3266  0.3424 -0.2562
 7054TIP3    H142577   6.032   2.390  15.288 -1.1319 -0.1922 -0.3856
 7054TIP3    H242578   5.949   2.513  15.322 -2.8486 -1.2952 -0.4569
 7055TIP3   OH242579   5.153   4.314  12.118 -0.4194 -0.1483  0.5780
 7055TIP3    H142580   5.121   4.394  12.160 -0.6318  0.8708 -1.3917
 7055TIP3    H242581   5.248   4.316  12.132 -0.1594  1.5344 -1.1131
 7056TIP3   OH242582   6.199   4.515  12.428 -0.1829 -0.2595 -0.5050
 7056TIP3    H142583   6.113   4.507  12.469  0.1510  0.2635  0.3207
 7056TIP3    H242584   6.204   4.606  12.400  0.8655  0.2510  1.2351
 7057TIP3   OH242585   1.191   0.603  10.605 -0.3163 -0.0315  0.5765
 7057TIP3    H142586   1.187   0.697  10.623 -1.1243  0.7642 -3.0193
 7057TIP3    H242587   1.272   0.593  10.554 -1.7816 -0.6361 -1.7638
 7058TIP3   OH242588   0.213   5.257   1.652  0.4273  0.4258  0.0118
 7058TIP3    H142589   0.255   5.241   1.737  0.6830  0.0734 -0.1790
 7058TIP3    H242590   0.242   5.184   1.597  0.2087  0.6183 -0.3596
 7059TIP3   OH242591   2.061   3.273   3.771 -0.2646  0.1765 -0.5304
 7059TIP3    H142592   2.141   3.288   3.720 -0.6942 -0.9247 -1.5975
 7059TIP3    H242593   2.086   3.205   3.834 -0.0845  0.5649 -0.1867
 7060TIP3   OH242594   1.888   1.360   5.055 -0.1871 -0.4123  0.1977
 7060TIP3    H142595   1.964   1.342   5.000 -0.3847  0.0285 -0.2344
 7060TIP3    H242596   1.815   1.319   5.009 -0.6421  1.3985 -0.8077
 7061TIP3   OH242597   4.994   3.985   5.034  0.2076  0.3940  0.6114
 7061TIP3    H142598   4.942   4.024   5.104  1.0917 -1.1055  2.1520
 7061TIP3    H242599   5.067   4.046   5.021 -0.8146  1.5075 -0.2127
 7062TIP3   OH242600   4.486   1.106  16.901  0.5690  0.1128 -0.2720
 7062TIP3    H142601   4.400   1.071  16.880  0.7717  0.1756 -1.2427
 7062TIP3    H242602   4.479   1.133  16.993  0.4488 -2.5729  0.5877
 7063TIP3   OH242603   4.175   4.005   1.647  0.0896  0.1609  0.2617
 7063TIP3    H142604   4.151   3.916   1.620  2.0832 -0.2841 -0.1933
 7063TIP3    H242605   4.158   4.006   1.742  0.6986 -0.9553  0.4038
 7064TIP3   OH242606   6.610   1.199  16.389  0.1218 -0.5983 -0.0705
 7064TIP3    H142607   6.656   1.158  16.462  1.1136 -0.4834 -0.6066
 7064TIP3    H242608   6.600   1.128  16.325  0.3080 -0.4214 -0.2953
 7065TIP3   OH242609   5.256   5.103  16.968 -0.3222  0.7754  0.2878
 7065TIP3    H142610   5.193   5.033  16.983  0.0368  0.5536  0.7548
 7065TIP3    H242611   5.231   5.172  17.030  1.0668 -0.0809  1.8750
 7066TIP3   OH242612   3.196   0.704   4.825 -0.3273  0.2764 -0.4877
 7066TIP3    H142613   3.241   0.623   4.850 -1.5104 -0.8675 -1.9287
 7066TIP3    H242614   3.132   0.719   4.895 -0.3872 -0.2456 -0.4313
 7067TIP3   OH242615   3.686   1.948  13.798 -0.7739  0.1883  0.1409
 7067TIP3    H142616   3.685   2.031  13.845 -1.2436  0.4299 -0.2768
 7067TIP3    H242617   3.777   1.921  13.798 -0.3593  1.4523 -0.9910
 7068TIP3   OH242618   4.244   6.567   3.785 -0.2240 -0.3809 -0.3078
 7068TIP3    H142619   4.156   6.546   3.752  0.6553 -0.5952 -2.7383
 7068TIP3    H242620   4.241   6.546   3.878 -1.9481 -3.0554 -0.8802
 7069TIP3   OH242621   4.968   4.758  15.766  0.5463 -0.1278  0.5420
 7069TIP3    H142622   4.963   4.741  15.672  1.6847 -0.1919  0.4826
 7069TIP3    H242623   4.919   4.840  15.778  0.6041  0.0132 -0.1372
 7070TIP3   OH242624   3.484   2.609  13.390 -0.0339 -0.0584  0.0197
 7070TIP3    H142625   3.539   2.615  13.469 -1.4146  0.6376  0.9665
 7070TIP3    H242626   3.395   2.617  13.423 -0.5822  3.5745 -1.8887
 7071TIP3   OH242627   4.459   1.100  10.875  0.5762  0.2440 -0.4475
 7071TIP3    H142628   4.518   1.175  10.877  1.4593 -0.4479  0.5848
 7071TIP3    H242629   4.506   1.035  10.822  0.6716 -0.2394  0.2204
 7072TIP3   OH242630   2.764   3.458  15.917 -0.2745 -0.4196 -0.2658
 7072TIP3    H142631   2.823   3.439  15.990 -0.7429  0.6159  0.3946
 7072TIP3    H242632   2.691   3.506  15.956  0.1496  1.4421 -1.6222
 7073TIP3   OH242633   2.087   6.098   1.714  0.1468  0.3242  0.0210
 7073TIP3    H142634   2.072   6.087   1.620 -1.9441 -0.1251  0.3575
 7073TIP3    H242635   2.120   6.013   1.742 -1.7146 -0.4412  0.0752
 7074TIP3   OH242636   3.898   4.823   4.261 -0.1015 -0.4199  0.2410
 7074TIP3    H142637   3.988   4.846   4.236 -0.9186  2.1284 -0.6750
 7074TIP3    H242638   3.869   4.897   4.315 -1.5876 -1.2948  0.6975
 7075TIP3   OH242639   5.807   1.291   1.982 -0.1415  0.0188  0.0145
 7075TIP3    H142640   5.780   1.382   1.993  0.6722  0.1074  1.6708
 7075TIP3    H242641   5.726   1.243   1.966 -0.6688  0.9217 -0.0733
 7076TIP3   OH242642   4.590   3.392   3.628 -0.1399  0.3749 -0.1671
 7076TIP3    H142643   4.523   3.354   3.571 -0.5845 -1.1886  1.2982
 7076TIP3    H242644   4.621   3.318   3.681  0.4332  1.6882  1.4415
 7077TIP3   OH242645   6.368   0.797  12.278  0.0176 -0.0517 -0.5115
 7077TIP3    H142646   6.324   0.770  12.197  1.0066 -0.8425 -0.8043
 7077TIP3    H242647   6.425   0.724  12.300  0.6479  0.6524  0.2479
 7078TIP3   OH242648   2.295   1.663  15.232 -0.4222 -0.1730  0.4299
 7078TIP3    H142649   2.304   1.683  15.138  0.0809 -1.1008  0.2743
 7078TIP3    H242650   2.265   1.573  15.234  5.8099 -2.7366  1.1331
 7079TIP3   OH242651   6.698   2.095   3.265 -0.1977 -0.1928  0.4801
 7079TIP3    H142652   6.752   2.018   3.278  1.1485  0.9000  1.8113
 7079TIP3    H242653   6.725   2.131   3.181  0.3668 -0.2814  0.6214
 7080TIP3   OH242654   3.162   5.234   3.097  0.0240  0.6008 -0.0814
 7080TIP3    H142655   3.085   5.286   3.119  0.6558  0.9594  1.3581
 7080TIP3    H242656   3.135   5.181   3.022 -1.9860 -0.0869  1.0639
 7081TIP3   OH242657   1.096   4.379  12.258 -0.3903  0.4208 -0.0165
 7081TIP3    H142658   1.161   4.309  12.254 -1.0440 -0.1303 -3.3398
 7081TIP3    H242659   1.130   4.447  12.199 -1.6142  1.2407  0.1921
 7082TIP3   OH242660   1.182   5.628  14.645  0.2872  0.5367 -0.2160
 7082TIP3    H142661   1.149   5.671  14.724  2.2241 -0.5471  1.2760
 7082TIP3    H242662   1.270   5.664  14.633  0.6860 -0.6064 -0.8596
 7083TIP3   OH242663   4.005   3.683  12.920 -0.2806 -0.0165 -0.2911
 7083TIP3    H142664   4.060   3.677  12.999  0.4017 -0.0676 -0.7664
 7083TIP3    H242665   4.014   3.774  12.892 -1.2575  0.2510  0.1982
 7084TIP3   OH242666   3.327   5.659   3.835  0.2821 -0.2507  0.0410
 7084TIP3    H142667   3.358   5.603   3.906  0.9053 -0.5027 -0.4144
 7084TIP3    H242668   3.260   5.608   3.791 -0.6492  0.2051  0.8951
 7085TIP3   OH242669   3.729   1.166  13.692 -0.3461 -0.2796 -0.0058
 7085TIP3    H142670   3.663   1.146  13.626  0.7193 -0.7090 -0.9671
 7085TIP3    H242671   3.680   1.168  13.775 -1.5388 -0.6708 -0.6820
 7086TIP3   OH242672   1.782   0.952   0.503 -0.0743  0.2400 -0.1360
 7086TIP3    H142673   1.707   1.009   0.486 -0.9760 -1.1768 -1.1212
 7086TIP3    H242674   1.815   0.928   0.416  3.8130  3.5487  0.0941
 7087TIP3   OH242675   5.402   3.813   3.716 -0.8292  0.6561  0.1457
 7087TIP3    H142676   5.436   3.743   3.659 -1.0418 -0.5171  1.4043
 7087TIP3    H242677   5.384   3.885   3.656 -0.8749 -0.4599 -1.2541
 7088TIP3   OH242678   2.040   3.328   6.609  0.4434  0.8792  0.4074
 7088TIP3    H142679   2.015   3.419   6.621 -3.1041 -0.2598  3.3125
 7088TIP3    H242680   2.057   3.295   6.697 -0.2012 -1.6893 -0.3332
 7089TIP3   OH242681   4.479   1.400   0.533  0.3294  0.0311 -0.0400
 7089TIP3    H142682   4.412   1.332   0.528  0.4188  0.0094 -1.0809
 7089TIP3    H242683   4.561   1.351   0.546  0.3637 -0.0540 -0.5509
 7090TIP3   OH242684   0.023   6.128  14.308  0.2428  0.3958 -0.0879
 7090TIP3    H142685   0.047   6.094  14.222 -0.0951 -0.3049  0.0883
 7090TIP3    H242686   0.050   6.220  14.306  1.6494 -0.0011 -0.3872
 7091TIP3   OH242687   2.372   2.995   1.203  0.4495  0.4605  0.3003
 7091TIP3    H142688   2.294   3.029   1.246  1.1604  0.6032  1.5362
 7091TIP3    H242689   2.350   2.904   1.183  0.0859  0.3978  0.9512
 7092TIP3   OH242690   3.964   0.819  15.275  0.4354  0.3774 -0.3609
 7092TIP3    H142691   3.901   0.821  15.203 -0.5915 -0.3206  0.4939
 7092TIP3    H242692   3.973   0.726  15.297 -1.8609  0.7060  2.5777
 7093TIP3   OH242693   4.733   1.211  15.021  0.0856 -0.7203 -0.1361
 7093TIP3    H142694   4.666   1.143  15.020 -0.8777  0.1988  0.0289
 7093TIP3    H242695   4.796   1.183  14.955 -0.6558 -1.4163 -0.5762
 7094TIP3   OH242696   6.087   0.735   4.950  0.0447 -0.2218 -0.1988
 7094TIP3    H142697   6.075   0.655   4.900  2.7491 -0.8082 -0.0769
 7094TIP3    H242698   5.999   0.770   4.962 -1.0185 -2.0928 -1.9933
 7095TIP3   OH242699   5.620   1.384  15.995  0.4349  0.1002 -0.4829
 7095TIP3    H142700   5.681   1.318  16.027  1.3768  2.4643  3.1151
 7095TIP3    H242701   5.674   1.446  15.946 -0.2440 -0.9904 -2.7522
 7096TIP3   OH242702   6.218   6.640   5.870 -0.3206  0.2270 -0.0707
 7096TIP3    H142703   6.147   6.596   5.916 -0.7194  1.7178  0.7927
 7096TIP3    H242704   6.193   6.637   5.778 -0.5487 -0.9293  0.0148
 7097TIP3   OH242705   3.671   3.328   1.702 -0.5097  0.1073  0.1470
 7097TIP3    H142706   3.673   3.271   1.779  1.2847 -0.3417 -0.1886
 7097TIP3    H242707   3.684   3.416   1.737  1.0189 -0.1658  0.3396
 7098TIP3   OH242708   3.194   0.622  12.846  0.5347 -0.3045  0.1046
 7098TIP3    H142709   3.254   0.659  12.911  0.8076  0.1377 -0.3874
 7098TIP3    H242710   3.220   0.663  12.763 -3.9345  4.5520  0.5344
 7099TIP3   OH242711   1.470   4.076  15.979  0.2195  0.2239 -0.5787
 7099TIP3    H142712   1.539   4.018  15.950  1.0170 -0.4185  2.2705
 7099TIP3    H242713   1.393   4.019  15.990 -0.1738  0.5243 -1.6424
 7100TIP3   OH242714   6.046   6.667  16.159  0.2955  0.1245 -0.4508
 7100TIP3    H142715   5.999   6.741  16.197 -0.0176  0.7387 -1.9715
 7100TIP3    H242716   6.130   6.703  16.132  0.3058 -0.1691 -0.8149
 7101TIP3   OH242717   4.090   5.849   1.981  0.2365  0.1681 -0.7762
 7101TIP3    H142718   4.156   5.780   1.973  2.0545  1.6691  0.2805
 7101TIP3    H242719   4.073   5.854   2.075 -0.6281  0.5080 -0.9444
 7102TIP3   OH242720   6.346   5.681   4.162  0.1018  0.5693  0.6041
 7102TIP3    H142721   6.282   5.642   4.221  0.1135 -0.2309  0.0952
 7102TIP3    H242722   6.421   5.621   4.164 -0.7144 -0.6521 -1.8469
 7103TIP3   OH242723   3.845   0.764   0.746  0.1559 -0.2598  0.3793
 7103TIP3    H142724   3.916   0.829   0.742  0.7272 -0.9400 -1.7137
 7103TIP3    H242725   3.765   0.817   0.751  0.6660  0.5954 -0.1422
 7104TIP3   OH242726   4.074   2.456   3.263  0.4687  0.1143 -0.0351
 7104TIP3    H142727   4.068   2.478   3.356 -1.6604  1.0438 -0.3265
 7104TIP3    H242728   4.024   2.375   3.255  1.1451 -0.2868 -0.3045
 7105TIP3   OH242729   1.932   2.609   3.609  0.1802  0.0286 -0.2054
 7105TIP3    H142730   2.019   2.645   3.626  0.4174  0.1206 -1.5001
 7105TIP3    H242731   1.899   2.659   3.534 -1.1001  0.1623  0.4185
 7106TIP3   OH242732   6.343   1.617  13.780  0.1151  0.3345 -0.1425
 7106TIP3    H142733   6.262   1.568  13.772 -0.0609  0.4888  0.6153
 7106TIP3    H242734   6.342   1.651  13.870  1.1346  0.1299 -0.0399
 7107TIP3   OH242735   1.765   3.917  11.209  0.1421  0.5661 -0.3381
 7107TIP3    H142736   1.681   3.961  11.199  0.1883  1.3035  1.9684
 7107TIP3    H242737   1.743   3.825  11.217 -0.4435  0.7328  0.0525
 7108TIP3   OH242738   1.766   1.932   1.582 -0.6544 -0.2484  0.5041
 7108TIP3    H142739   1.742   1.993   1.652 -0.6852 -0.3578  0.5897
 7108TIP3    H242740   1.689   1.876   1.571 -1.3945  1.0221 -0.9849
 7109TIP3   OH242741   4.458   5.573   1.162  0.5890 -0.0646  0.8324
 7109TIP3    H142742   4.380   5.543   1.113  0.7819  1.2141 -0.3210
 7109TIP3    H242743   4.459   5.667   1.149  1.4307  0.1368  2.2286
 7110TIP3   OH242744   2.901   2.747   0.788  0.0793 -0.1385 -0.1492
 7110TIP3    H142745   2.914   2.705   0.703 -1.0024 -0.5957 -0.0965
 7110TIP3    H242746   2.910   2.841   0.770 -2.2116 -0.0531 -1.2048
 7111TIP3   OH242747   4.384   1.898  12.862 -0.1488  0.4040 -0.5504
 7111TIP3    H142748   4.298   1.901  12.820 -1.1095  0.0343  1.2981
 7111TIP3    H242749   4.384   1.974  12.921  0.7584  0.3428 -0.4701
 7112TIP3   OH242750   5.932   1.449  15.504  0.6396 -0.3708 -0.4239
 7112TIP3    H142751   5.944   1.535  15.545  0.6981 -0.0997 -1.0007
 7112TIP3    H242752   5.939   1.466  15.410  1.8047 -1.1961 -0.4983
 7113TIP3   OH242753   0.359   3.405  15.613  0.5109 -0.8096  0.3461
 7113TIP3    H142754   0.352   3.491  15.571 -0.2429 -0.3328  1.3844
 7113TIP3    H242755   0.271   3.387  15.646  0.1348 -2.9402 -1.6019
 7114TIP3   OH242756   5.779   0.327  13.566  0.0581 -0.3632  0.0388
 7114TIP3    H142757   5.828   0.249  13.541 -0.2812 -0.3607 -0.6813
 7114TIP3    H242758   5.845   0.395  13.575  0.2060 -0.3791 -0.8357
 7115TIP3   OH242759   2.012   6.306  13.502 -0.1542 -0.2111  0.4926
 7115TIP3    H142760   2.074   6.361  13.453 -1.3804 -0.3979 -1.3840
 7115TIP3    H242761   2.007   6.225  13.452 -1.8036 -0.2474  0.6691
 7116TIP3   OH242762   6.271   2.300  16.334  0.3033  0.0171 -0.5538
 7116TIP3    H142763   6.210   2.359  16.379  2.1602  0.2922  1.8232
 7116TIP3    H242764   6.240   2.213  16.355 -0.5232  0.1268 -1.2614
 7117TIP3   OH242765   5.289   1.409  14.736 -0.2194 -0.3815  0.2763
 7117TIP3    H142766   5.218   1.387  14.675  0.5329 -1.2166 -0.3301
 7117TIP3    H242767   5.339   1.328  14.744  0.8018  0.2609  0.5157
 7118TIP3   OH242768   5.477   3.513   3.946  0.1931  0.1595 -0.3393
 7118TIP3    H142769   5.398   3.549   3.906  0.3078  0.6126 -0.1688
 7118TIP3    H242770   5.444   3.456   4.016  0.0236  1.3900  0.6175
 7119TIP3   OH242771   6.520   1.633   5.321 -0.5698 -0.5032 -0.1556
 7119TIP3    H142772   6.441   1.579   5.330 -1.8800  1.1068 -1.3164
 7119TIP3    H242773   6.550   1.616   5.232  0.0031 -0.5753  0.0487
 7120TIP3   OH242774   5.162   4.439   6.430  0.6136  0.0806  0.1836
 7120TIP3    H142775   5.077   4.461   6.468 -0.9826 -1.2470 -2.3547
 7120TIP3    H242776   5.169   4.344   6.440  0.7605 -0.1168 -1.5805
 7121TIP3   OH242777   6.542   4.028  12.420  0.0215  0.5406  0.0694
 7121TIP3    H142778   6.454   4.007  12.451 -0.2863  1.1199 -0.3916
 7121TIP3    H242779   6.598   4.017  12.497 -0.1926 -1.3271  0.0178
 7122TIP3   OH242780   3.141   3.491  13.107 -0.8308 -0.0252 -0.2169
 7122TIP3    H142781   3.195   3.427  13.153 -1.1133 -0.0175  0.1292
 7122TIP3    H242782   3.088   3.532  13.175 -0.0099  1.2264 -0.3003
 7123TIP3   OH242783   2.354   2.528   1.915  0.1981  0.0685  0.3909
 7123TIP3    H142784   2.427   2.587   1.932 -0.4903  0.6888  1.3182
 7123TIP3    H242785   2.339   2.534   1.821  1.1145  0.1986  0.2450
 7124TIP3   OH242786   5.632   5.443  11.127  0.2219 -0.0816 -0.1009
 7124TIP3    H142787   5.712   5.494  11.137  0.0859  0.1804 -0.3234
 7124TIP3    H242788   5.565   5.495  11.172  0.2804 -0.5594  0.5460
 7125TIP3   OH242789   3.603   6.560   1.998 -0.4277 -0.3829 -0.4332
 7125TIP3    H142790   3.563   6.611   2.069 -2.5720 -0.8331 -1.2432
 7125TIP3    H242791   3.659   6.623   1.952 -1.2729  0.6582 -0.0653
 7126TIP3   OH242792   6.631   6.294  16.820 -0.3103  0.1131  0.2596
 7126TIP3    H142793   6.647   6.308  16.727 -0.1544  0.0356  0.2741
 7126TIP3    H242794   6.539   6.270  16.826 -0.0174 -1.1347 -0.0090
 7127TIP3   OH242795   0.824   4.089   4.369 -0.6154  0.1024  0.2848
 7127TIP3    H142796   0.808   4.159   4.306  0.5046  1.7033  1.6916
 7127TIP3    H242797   0.755   4.099   4.434  0.3932  0.9021  1.2759
 7128TIP3   OH242798   3.778   3.018  13.658 -0.1162 -0.3466  0.4532
 7128TIP3    H142799   3.702   2.964  13.636 -0.6809  0.8215 -0.6146
 7128TIP3    H242800   3.753   3.062  13.739 -3.0549  4.1529 -2.4183
 7129TIP3   OH242801   4.753   6.397   5.844 -0.1035  0.5861 -0.1744
 7129TIP3    H142802   4.758   6.343   5.923 -0.1267 -0.0729 -0.6173
 7129TIP3    H242803   4.839   6.387   5.803 -0.5341 -0.1538 -0.9241
 7130TIP3   OH242804   2.386   3.270   3.802 -0.4805 -0.3689 -0.3869
 7130TIP3    H142805   2.472   3.230   3.820  0.5282 -0.0295 -3.7064
 7130TIP3    H242806   2.393   3.358   3.836  1.1607  0.1539 -1.9079
 7131TIP3   OH242807   6.479   0.183   5.365  0.0762  0.0861 -0.4919
 7131TIP3    H142808   6.389   0.175   5.335  0.5497 -1.4151 -1.6773
 7131TIP3    H242809   6.522   0.236   5.297  0.0351  1.0644  0.2291
 7132TIP3   OH242810   4.325   2.227  12.820 -0.0393  0.2505 -0.2418
 7132TIP3    H142811   4.278   2.289  12.763  1.3091  1.5884  0.0258
 7132TIP3    H242812   4.408   2.212  12.775 -0.1509 -1.0193 -0.0490
 7133TIP3   OH242813   1.838   4.553  13.179  0.3045  0.4169 -0.0541
 7133TIP3    H142814   1.844   4.566  13.273  1.3813  2.6913 -0.3587
 7133TIP3    H242815   1.924   4.579  13.146 -0.0043 -0.4666 -1.6591
 7134TIP3   OH242816   1.175   2.766  13.099  0.1797  0.3326  0.9151
 7134TIP3    H142817   1.221   2.682  13.100  1.0919  0.7968 -0.1456
 7134TIP3    H242818   1.222   2.821  13.162 -0.2070  0.1668  1.3559
 7135TIP3   OH242819   2.905   4.663  10.866  0.5253  0.1376 -0.3864
 7135TIP3    H142820   2.914   4.613  10.947  1.5833 -0.3384 -0.7858
 7135TIP3    H242821   2.947   4.609  10.799  0.6496  1.0307 -1.0474
 7136TIP3   OH242822   4.136   6.495   2.749 -0.1288 -0.1067  0.2304
 7136TIP3    H142823   4.061   6.440   2.771  0.3613 -0.1542  1.9221
 7136TIP3    H242824   4.099   6.569   2.701 -1.0936 -0.7316 -0.0027
 7137TIP3   OH242825   3.947   4.620   4.549  0.0433 -0.4579  0.4404
 7137TIP3    H142826   3.961   4.584   4.462 -1.3607 -0.3689  0.1533
 7137TIP3    H242827   3.948   4.544   4.607  3.7994 -0.2879  0.8024
 7138TIP3   OH242828   1.028   4.815  13.769  0.5162  0.2539 -0.3574
 7138TIP3    H142829   0.977   4.784  13.844  2.3742 -1.4325  0.3154
 7138TIP3    H242830   0.966   4.864  13.716 -1.5573 -0.9089  0.8558
 7139TIP3   OH242831   6.343   1.325  11.357 -0.0391  0.0044  0.0957
 7139TIP3    H142832   6.255   1.287  11.367  0.0130  0.1186  1.0663
 7139TIP3    H242833   6.382   1.275  11.285 -0.2909 -1.1974  0.7517
 7140TIP3   OH242834   3.737   5.863  14.282  0.7085 -0.6793 -0.2373
 7140TIP3    H142835   3.709   5.775  14.308  1.4240 -1.7552 -2.7950
 7140TIP3    H242836   3.673   5.890  14.217 -0.3236  1.3734  1.5219
 7141TIP3   OH242837   4.030   3.095   3.084  0.4059  0.0846 -0.4180
 7141TIP3    H142838   4.087   3.027   3.048  1.2385 -0.4602  1.7614
 7141TIP3    H242839   4.078   3.177   3.068  1.1916 -0.2366  0.2096
 7142TIP3   OH242840   1.556   1.588   0.863  0.4076 -0.5964  0.4848
 7142TIP3    H142841   1.607   1.558   0.788 -0.0287  0.7808 -0.4137
 7142TIP3    H242842   1.487   1.523   0.874 -0.8687  0.2677 -1.7616
 7143TIP3   OH242843   3.812   2.116  14.747  0.0601 -0.0450  0.1881
 7143TIP3    H142844   3.892   2.117  14.695 -0.7975  0.2410 -1.1797
 7143TIP3    H242845   3.842   2.110  14.838  1.7767  3.3509 -0.0046
 7144TIP3   OH242846   2.175   0.440   0.899 -0.0873  0.2097  0.3646
 7144TIP3    H142847   2.208   0.423   0.988  1.7681  1.7206  0.0317
 7144TIP3    H242848   2.112   0.511   0.909 -0.9164 -0.5442  0.6143
 7145TIP3   OH242849   1.788   4.481   4.355  0.0986 -0.1589  0.6960
 7145TIP3    H142850   1.804   4.386   4.357 -0.0503 -0.1954  0.3760
 7145TIP3    H242851   1.792   4.503   4.262  1.6050  0.4126  0.8793
 7146TIP3   OH242852   2.081   6.149  12.818  0.2363  0.9397 -0.0932
 7146TIP3    H142853   2.009   6.093  12.789 -0.8809  1.8694  0.7644
 7146TIP3    H242854   2.070   6.230  12.768  1.8921  0.4377 -1.3906
 7147TIP3   OH242855   3.683   2.958   7.039  0.0825  0.1678  0.0670
 7147TIP3    H142856   3.640   3.019   6.979  0.1705 -0.9482 -1.1654
 7147TIP3    H242857   3.706   3.012   7.115 -1.9268  1.1696  0.0424
 7148TIP3   OH242858   5.409   2.732  15.464  0.8236  0.1901 -0.4067
 7148TIP3    H142859   5.329   2.784  15.457  0.4922 -0.2992 -0.2663
 7148TIP3    H242860   5.442   2.752  15.552  1.5720  1.4053 -0.9340
 7149TIP3   OH242861   6.504   0.127   2.074  0.1309 -0.1748 -0.2489
 7149TIP3    H142862   6.427   0.149   2.126 -1.3371 -2.7061 -1.2043
 7149TIP3    H242863   6.559   0.076   2.134  1.2284  1.7360  0.4716
 7150TIP3   OH242864   3.220   5.685  16.036 -0.3771  0.1830  0.1488
 7150TIP3    H142865   3.294   5.630  16.061 -0.4331 -1.3152 -2.5805
 7150TIP3    H242866   3.143   5.640  16.072 -0.2198 -0.1227  0.1010
 7151TIP3   OH242867   2.571   3.308   5.267  0.3886 -0.8606 -0.5486
 7151TIP3    H142868   2.506   3.345   5.207 -0.3740 -1.7967 -0.3322
 7151TIP3    H242869   2.585   3.219   5.235  0.1038 -1.3196  0.5453
 7152TIP3   OH242870   0.941   1.071   3.301 -0.2504 -0.0488 -0.3521
 7152TIP3    H142871   1.002   1.026   3.242  0.5592  0.4855  0.0566
 7152TIP3    H242872   0.982   1.065   3.387 -1.1476 -0.3296  0.0701
 7153TIP3   OH242873   0.371   5.880  12.448 -0.2105  0.2424  0.2573
 7153TIP3    H142874   0.400   5.965  12.483  1.7912 -0.6503  0.9446
 7153TIP3    H242875   0.323   5.840  12.520  2.0481 -0.6920  1.3321
 7154TIP3   OH242876   5.054   2.376   2.605  0.8143 -0.3890 -0.1400
 7154TIP3    H142877   5.077   2.341   2.519  0.8932 -0.2867 -0.1601
 7154TIP3    H242878   4.992   2.447   2.587 -0.8312 -1.7276 -0.0042
 7155TIP3   OH242879   1.831   5.801  13.927  0.0312 -0.2386  0.6077
 7155TIP3    H142880   1.871   5.785  13.841  1.8837 -0.5979  1.4715
 7155TIP3    H242881   1.824   5.714  13.966  2.3810  0.1531  2.0906
 7156TIP3   OH242882   2.973   0.425   4.734  0.6960 -0.2874  0.3129
 7156TIP3    H142883   2.931   0.370   4.667  1.5060 -0.7718  0.1770
 7156TIP3    H242884   2.955   0.380   4.816 -0.4652  0.4118  0.4619
 7157TIP3   OH242885   3.147   5.944  15.913  0.2473 -0.0538  0.7141
 7157TIP3    H142886   3.210   5.994  15.964 -0.6173  1.4842  0.3128
 7157TIP3    H242887   3.163   5.853  15.938  2.8171  0.2486  0.3684
 7158TIP3   OH242888   2.774   1.899   3.116 -0.3911  0.1824 -0.4452
 7158TIP3    H142889   2.842   1.835   3.096  0.1550  0.6698 -0.2013
 7158TIP3    H242890   2.699   1.872   3.064  0.5689  0.6997 -2.1894
 7159TIP3   OH242891   4.381   4.555  16.918 -0.3434  0.3869  0.9653
 7159TIP3    H142892   4.418   4.467  16.926  0.4092  0.6178  0.2216
 7159TIP3    H242893   4.347   4.559  16.829  2.5000  1.8608 -0.1700
 7160TIP3   OH242894   6.746   2.946   0.090  0.4671  0.0963 -0.5802
 7160TIP3    H142895   6.796   2.866   0.072  0.1076 -0.1182 -0.6299
 7160TIP3    H242896   6.685   2.922   0.159  1.6038  0.8342  0.7152
 7161TIP3   OH242897   4.732   0.498  15.546 -0.4456  0.2395  0.0679
 7161TIP3    H142898   4.669   0.475  15.614  0.5125 -0.7231  0.6624
 7161TIP3    H242899   4.678   0.524  15.471 -1.5285  0.1665  0.8017
 7162TIP3   OH242900   1.085   5.222  12.358 -0.1540 -0.0981 -0.2226
 7162TIP3    H142901   1.033   5.301  12.344 -1.2999 -0.7038  0.5347
 7162TIP3    H242902   1.145   5.245  12.429 -0.0039  0.2975 -0.4683
 7163TIP3   OH242903   4.069   6.687  11.169 -0.6466 -0.7679  0.2826
 7163TIP3    H142904   4.087   6.687  11.075  1.5692  1.0410  0.6160
 7163TIP3    H242905   4.044   6.777  11.189  1.1273 -0.5437  1.7471
 7164TIP3   OH242906   0.471   6.630  15.457  0.6107 -0.1467 -0.0609
 7164TIP3    H142907   0.465   6.536  15.473 -0.1863 -0.3507 -1.4103
 7164TIP3    H242908   0.489   6.668  15.543  0.0387 -1.4523  0.6656
 7165TIP3   OH242909   5.763   3.563  16.054 -0.3781 -0.0476 -0.4227
 7165TIP3    H142910   5.832   3.510  16.093 -1.1906 -0.4003  0.5685
 7165TIP3    H242911   5.757   3.531  15.964  0.4490 -0.3042 -0.3993
 7166TIP3   OH242912   6.039   2.764   5.042  0.2932  0.1108 -0.2177
 7166TIP3    H142913   6.067   2.808   5.122  0.3216 -0.3541  0.0308
 7166TIP3    H242914   6.049   2.830   4.973  0.6199  0.3957  0.1024
 7167TIP3   OH242915   4.145   0.531   2.066  0.9536 -0.0353  0.3699
 7167TIP3    H142916   4.148   0.621   2.099  0.8627  1.6171 -3.5889
 7167TIP3    H242917   4.054   0.518   2.041  1.0056 -1.1644  0.7452
 7168TIP3   OH242918   0.629   5.418   5.580 -0.2373 -0.2883  0.4299
 7168TIP3    H142919   0.633   5.328   5.612 -1.0628 -0.2362  0.7191
 7168TIP3    H242920   0.535   5.439   5.579 -0.1615  0.1282 -0.8635
 7169TIP3   OH242921   0.575   5.786  15.404  0.0059 -0.8344 -0.3290
 7169TIP3    H142922   0.617   5.784  15.490 -1.2875  0.3442  0.3751
 7169TIP3    H242923   0.527   5.703  15.399 -1.9013  0.0844  1.1933
 7170TIP3   OH242924   5.560   2.702  12.832 -0.0558  0.4889  0.5109
 7170TIP3    H142925   5.516   2.755  12.898  1.2426 -0.3047  2.0744
 7170TIP3    H242926   5.513   2.619  12.832  1.2098 -0.2660  1.9961
 7171TIP3   OH242927   6.598   5.199  13.965 -0.0929 -0.3656 -0.4620
 7171TIP3    H142928   6.511   5.159  13.957  0.3736 -1.1119 -2.5672
 7171TIP3    H242929   6.655   5.128  13.994  0.0448 -0.2171 -0.3660
 7172TIP3   OH242930   2.096   1.453  12.136 -0.0134  0.3122 -0.2622
 7172TIP3    H142931   2.039   1.527  12.160  1.1708  1.0834  0.2509
 7172TIP3    H242932   2.113   1.466  12.043 -0.1146  0.4811 -0.2591
 7173TIP3   OH242933   6.264   0.004   6.346  0.3224 -0.3005  0.1228
 7173TIP3    H142934   6.333   0.006   6.279  0.0698  1.5640 -0.1197
 7173TIP3    H242935   6.256   0.094   6.377 -1.3132 -0.6501  0.8774
 7174TIP3   OH242936   0.032   5.496  15.910  0.1921  0.3925  0.0633
 7174TIP3    H142937  -0.023   5.493  15.832  0.7257  0.7777 -0.3362
 7174TIP3    H242938   0.045   5.589  15.927 -1.0997  0.3421  1.4764
 7175TIP3   OH242939   3.831   4.999   1.046  0.0890  0.4056  0.1427
 7175TIP3    H142940   3.798   4.923   0.997 -1.5659  1.3239 -0.2457
 7175TIP3    H242941   3.889   5.043   0.985 -0.9829  0.8484 -0.5996
 7176TIP3   OH242942   1.607   2.217  15.403 -0.5058 -0.4883 -0.0229
 7176TIP3    H142943   1.641   2.298  15.365  0.2617 -0.9379 -0.3361
 7176TIP3    H242944   1.514   2.217  15.382 -0.3685 -0.0361 -0.6544
 7177TIP3   OH242945   4.151   6.139   1.849  0.5049 -0.1948  0.0175
 7177TIP3    H142946   4.186   6.068   1.903 -0.5801 -0.0665  0.9266
 7177TIP3    H242947   4.149   6.215   1.906 -0.0725  0.1030 -0.3862
 7178TIP3   OH242948   2.787   6.765  13.643  0.2597  0.2011 -0.5497
 7178TIP3    H142949   2.718   6.802  13.589  0.9408  0.9814 -0.9119
 7178TIP3    H242950   2.745   6.693  13.690 -0.8465  0.7922 -0.6029
 7179TIP3   OH242951   2.208   0.702  14.469 -0.1714 -0.4382  0.0691
 7179TIP3    H142952   2.203   0.618  14.514 -0.7232 -0.2495  0.3672
 7179TIP3    H242953   2.142   0.697  14.400  0.4881 -0.6258 -0.5542
 7180TIP3   OH242954   5.435   4.046  11.386  0.0049 -0.0798  0.1624
 7180TIP3    H142955   5.396   3.976  11.439  2.2573 -0.4789  1.3748
 7180TIP3    H242956   5.427   4.014  11.296 -1.4377 -0.6136  0.4403
 7181TIP3   OH242957   5.069   3.872  11.943 -0.3097 -0.4079 -0.2531
 7181TIP3    H142958   5.041   3.781  11.947 -1.5735 -0.0315 -0.1462
 7181TIP3    H242959   5.006   3.914  11.885  0.0595  0.4710 -0.0362
 7182TIP3   OH242960   2.868   0.662   0.569  0.2027  0.4805  0.5651
 7182TIP3    H142961   2.951   0.614   0.567  0.4911  0.9863 -0.4819
 7182TIP3    H242962   2.887   0.743   0.521 -1.1202  0.2388 -0.3912
 7183TIP3   OH242963   3.997   1.991  12.306  0.0971  0.2392 -0.1208
 7183TIP3    H142964   3.954   2.044  12.374 -0.2479  0.9635 -0.8859
 7183TIP3    H242965   3.924   1.947  12.261  0.4452 -2.4533  1.6957
 7184TIP3   OH242966   1.200   1.609   3.061  0.4047 -0.5576  0.0477
 7184TIP3    H142967   1.175   1.700   3.043  0.4789 -0.7631 -1.1988
 7184TIP3    H242968   1.274   1.616   3.122  1.1137  0.2797 -0.8673
 7185TIP3   OH242969   4.806   5.446  15.826  0.2997  0.2711  0.0789
 7185TIP3    H142970   4.882   5.474  15.876 -0.5099  3.0398 -0.0430
 7185TIP3    H242971   4.731   5.476  15.878 -0.6167  0.1279 -1.1137
 7186TIP3   OH242972   6.162   5.700   3.744  0.2363 -0.2446 -0.1930
 7186TIP3    H142973   6.141   5.614   3.780 -1.5402 -1.1300 -3.0549
 7186TIP3    H242974   6.084   5.753   3.762  0.5704  0.2149 -0.0855
 7187TIP3   OH242975   1.859   0.191   3.428 -0.4711  0.3902 -1.0288
 7187TIP3    H142976   1.941   0.143   3.424 -0.3014 -0.0428  3.0542
 7187TIP3    H242977   1.882   0.276   3.465 -1.7722  0.4475 -0.2639
 7188TIP3   OH242978   6.342   2.795  16.943 -0.7451  0.1504  0.2487
 7188TIP3    H142979   6.344   2.744  17.024 -1.4923 -0.1037  0.1114
 7188TIP3    H242980   6.289   2.743  16.883  0.2173  0.0864 -0.5848
 7189TIP3   OH242981   5.903   1.642   1.739 -0.3403  0.6839  0.4122
 7189TIP3    H142982   5.899   1.668   1.831 -2.0363 -0.3570  0.6797
 7189TIP3    H242983   5.852   1.561   1.735 -0.4867  0.8215 -1.4765
 7190TIP3   OH242984   5.899   1.611  16.492  0.3579  0.7571  0.3162
 7190TIP3    H142985   5.851   1.692  16.473 -0.9413  0.7444  3.0267
 7190TIP3    H242986   5.844   1.542  16.456  1.5734  0.9925 -2.1947
 7191TIP3   OH242987   2.669   5.077   0.323 -0.0659  0.6120  0.2204
 7191TIP3    H142988   2.598   5.095   0.261  0.0872  0.3203 -0.0435
 7191TIP3    H242989   2.624   5.058   0.405 -0.2964  0.4394  0.0579
 7192TIP3   OH242990   2.873   6.312  11.792 -0.1085 -0.1793 -0.1901
 7192TIP3    H142991   2.891   6.307  11.698  1.7766  2.1714 -0.0536
 7192TIP3    H242992   2.942   6.260  11.833 -1.7411 -2.3969 -0.0573
 7193TIP3   OH242993   0.353   3.488   3.623  0.0222 -0.7263  0.0668
 7193TIP3    H142994   0.375   3.581   3.618 -0.6170 -0.4860  1.2661
 7193TIP3    H242995   0.274   3.485   3.678 -1.4385 -1.7709 -1.9658
 7194TIP3   OH242996   1.577   5.496  14.661 -0.6792  0.4117 -0.0048
 7194TIP3    H142997   1.659   5.534  14.693  0.1890 -1.5202  0.2023
 7194TIP3    H242998   1.535   5.461  14.739 -0.4241 -0.8985 -0.4312
 7195TIP3   OH242999   0.875   6.543  17.196  0.0969 -0.3948 -0.2545
 7195TIP3    H143000   0.793   6.568  17.154  0.1083  0.3850  0.1536
 7195TIP3    H243001   0.863   6.452  17.221 -0.6311 -0.3037 -0.2475
 7196TIP3   OH243002   1.951   5.940  14.960 -0.3249  0.2157  0.1373
 7196TIP3    H143003   1.865   5.958  14.996  1.0859  1.9702  2.9735
 7196TIP3    H243004   1.969   5.849  14.985 -1.3742 -0.2183 -0.6264
 7197TIP3   OH243005   3.178   0.725  17.209  0.0129  0.4809 -0.1344
 7197TIP3    H143006   3.208   0.649  17.159  1.2217 -1.0158  2.6562
 7197TIP3    H243007   3.258   0.774  17.229 -0.2621  0.4113  1.2446
 7198TIP3   OH243008   3.436   2.825  12.021  0.2559 -0.9798  0.3208
 7198TIP3    H143009   3.477   2.871  11.948  0.8250 -1.9379  0.0281
 7198TIP3    H243010   3.358   2.878  12.041  0.6352 -0.1545 -0.3093
 7199TIP3   OH243011   2.329   6.330  13.655  0.0291 -0.9245  0.8341
 7199TIP3    H143012   2.257   6.381  13.693 -1.3319 -1.3796 -1.0076
 7199TIP3    H243013   2.388   6.396  13.619 -1.5732 -0.5067 -1.2637
 7200TIP3   OH243014   0.090   6.211  14.027  0.0512  0.3040  0.3269
 7200TIP3    H143015   0.014   6.263  14.001  0.2278  0.2774 -0.2499
 7200TIP3    H243016   0.147   6.211  13.950  0.5074  0.0862  0.6607
 7201TIP3   OH243017   4.837   6.768   2.486  0.0810  0.8526 -0.0818
 7201TIP3    H143018   4.900   6.709   2.446  0.3250  1.1859 -0.1956
 7201TIP3    H243019   4.889   6.822   2.545  0.0156  1.5707 -0.6637
 7202TIP3   OH243020   5.694   5.999  16.359  0.4760  0.1471 -0.2621
 7202TIP3    H143021   5.676   6.003  16.453  1.2978 -0.4231 -0.0683
 7202TIP3    H243022   5.639   5.928  16.327  1.0635 -0.4432  0.0124
 7203TIP3   OH243023   0.998   4.746   2.458 -0.1045 -0.3733 -0.2170
 7203TIP3    H143024   0.967   4.668   2.505 -0.8178 -0.1053 -0.2178
 7203TIP3    H243025   1.018   4.715   2.370  1.7438 -0.9870  0.3778
 7204TIP3   OH243026   1.782   3.530  13.223  0.1467 -0.4830  0.5086
 7204TIP3    H143027   1.822   3.541  13.137 -0.1601  0.7624  0.5110
 7204TIP3    H243028   1.825   3.595  13.279 -1.5739  0.6554  0.5939
 7205TIP3   OH243029   2.634   5.597   5.449 -1.0188  0.7820 -0.1443
 7205TIP3    H143030   2.678   5.653   5.386 -1.0668 -2.2816 -3.2043
 7205TIP3    H243031   2.704   5.548   5.492 -1.1312 -0.0574 -0.8866
 7206TIP3   OH243032   0.150   2.957  10.861 -0.0349 -0.3015 -0.0871
 7206TIP3    H143033   0.237   2.995  10.874 -0.0295  0.0343 -0.9935
 7206TIP3    H243034   0.163   2.863  10.866  0.8125 -0.3652 -2.4099
 7207TIP3   OH243035   0.506   0.322  17.205  0.3599  0.0791  0.7657
 7207TIP3    H143036   0.554   0.254  17.157  0.5326  1.3799 -1.0351
 7207TIP3    H243037   0.573   0.368  17.255  0.6421  0.4255  0.0842
 7208TIP3   OH243038   2.873   4.882  15.428  0.1065  0.1015  0.2146
 7208TIP3    H143039   2.885   4.805  15.484  0.6056 -1.5086 -1.9788
 7208TIP3    H243040   2.822   4.943  15.482  1.7278 -0.7073  2.9204
 7209TIP3   OH243041   6.636   5.765   1.973  0.3931  0.4596 -0.0201
 7209TIP3    H143042   6.713   5.800   2.019  1.1727 -0.6684 -0.4244
 7209TIP3    H243043   6.597   5.842   1.932  0.2860  1.3246  1.6186
 7210TIP3   OH243044   0.063   2.024   6.491 -0.3118 -0.5562 -0.1568
 7210TIP3    H143045   0.019   1.976   6.561 -1.6818 -0.2410 -0.7637
 7210TIP3    H243046   0.023   1.991   6.410 -0.3548  0.6591 -0.6529
 7211TIP3   OH243047   2.964   5.810   4.356 -0.2507  0.3995  0.4967
 7211TIP3    H143048   3.004   5.747   4.295  0.3369 -0.5167  1.7947
 7211TIP3    H243049   2.923   5.875   4.299  0.0248 -0.5889 -0.8846
 7212TIP3   OH243050   3.682   0.173   2.089 -0.3520 -0.1549  0.2551
 7212TIP3    H143051   3.720   0.199   2.005  0.0386 -1.8041 -0.1174
 7212TIP3    H243052   3.590   0.153   2.068 -0.8554  1.5966  0.6922
 7213TIP3   OH243053   1.683   1.146  10.825  0.0425 -0.6404  0.3040
 7213TIP3    H143054   1.703   1.054  10.843  1.2771 -0.5458 -0.5046
 7213TIP3    H243055   1.764   1.193  10.846 -0.0807  0.0665 -0.7531
 7214TIP3   OH243056   3.773   5.998  16.089 -0.5472 -0.1074  0.2617
 7214TIP3    H143057   3.861   5.963  16.075 -1.1398 -1.1218 -1.0634
 7214TIP3    H243058   3.784   6.093  16.083  0.1663 -0.2672 -1.8430
 7215TIP3   OH243059   2.547   6.098   1.095  0.0527  0.6026  0.3921
 7215TIP3    H143060   2.492   6.129   1.167 -1.6488 -0.5689 -0.3598
 7215TIP3    H243061   2.490   6.099   1.018  0.3895 -2.6956 -0.0188
 7216TIP3   OH243062   2.624   2.777  13.695 -0.5301  0.0686 -0.6871
 7216TIP3    H143063   2.597   2.856  13.742 -1.0076 -0.1630 -0.5612
 7216TIP3    H243064   2.700   2.745  13.743 -0.5290  0.2789 -0.5480
 7217TIP3   OH243065   2.884   5.453  14.146 -0.3931  0.3419 -0.0465
 7217TIP3    H143066   2.796   5.485  14.166  0.6012  2.9269  0.6197
 7217TIP3    H243067   2.905   5.492  14.061  0.2401  0.0588 -0.0249
 7218TIP3   OH243068   6.177   3.504   1.309  0.3338 -0.9215 -0.2095
 7218TIP3    H143069   6.240   3.575   1.320 -1.3670  0.6389 -0.1832
 7218TIP3    H243070   6.106   3.525   1.369 -0.3561 -2.5177 -0.4111
 7219TIP3   OH243071   6.379   2.047   3.038  0.4044  0.1996  0.1485
 7219TIP3    H143072   6.395   2.140   3.054 -0.0929  0.3107 -0.0005
 7219TIP3    H243073   6.412   2.003   3.116  2.3509  0.3351 -0.5370
 7220TIP3   OH243074   3.780   4.787   5.908  0.6680 -0.0668 -0.2121
 7220TIP3    H143075   3.826   4.712   5.945 -2.8166 -1.7270  1.1561
 7220TIP3    H243076   3.756   4.840   5.983 -2.8077 -1.2650 -0.2968
 7221TIP3   OH243077   5.825   4.535   3.999 -0.5382 -0.4900 -0.1255
 7221TIP3    H143078   5.846   4.448   4.032 -1.7453 -0.6232  0.3377
 7221TIP3    H243079   5.738   4.526   3.961 -0.2915  0.3097 -0.9125
 7222TIP3   OH243080   6.263   4.440   0.489  0.1411  0.2061  0.0219
 7222TIP3    H143081   6.333   4.495   0.455 -0.0508  0.5038  0.1109
 7222TIP3    H243082   6.227   4.490   0.562  0.4390 -0.3481  0.5620
 7223TIP3   OH243083   3.800   3.185   0.956  0.6077 -0.0865 -0.7611
 7223TIP3    H143084   3.717   3.166   0.914  0.0963  0.1527  0.1131
 7223TIP3    H243085   3.808   3.281   0.950  1.0064 -0.1424 -1.1770
 7224TIP3   OH243086   5.538   2.980  16.387 -0.0603  0.4017 -0.0650
 7224TIP3    H143087   5.589   3.003  16.465  1.7502  0.5167 -1.2213
 7224TIP3    H243088   5.447   2.998  16.411  0.6928  3.2493  1.0719
 7225TIP3   OH243089   3.818   5.318  11.348 -0.2783 -0.4194  0.1701
 7225TIP3    H143090   3.904   5.312  11.307  0.0101 -1.5181  0.9081
 7225TIP3    H243091   3.759   5.274  11.286 -0.6058  1.6219 -1.0464
 7226TIP3   OH243092   0.694   0.801  12.918 -0.4140 -0.1491 -0.0215
 7226TIP3    H143093   0.780   0.781  12.881  0.3358  0.1358  1.4776
 7226TIP3    H243094   0.688   0.744  12.995 -1.1894  0.4684  0.3908
 7227TIP3   OH243095   5.614   0.867   1.399 -0.1189 -0.3482 -0.7630
 7227TIP3    H143096   5.642   0.780   1.426  1.3721  0.7762  1.6399
 7227TIP3    H243097   5.694   0.912   1.372 -0.4433  1.0799  0.5218
 7228TIP3   OH243098   2.982   1.171   5.127  0.0822 -0.5348  0.4122
 7228TIP3    H143099   3.024   1.107   5.184  0.1963 -0.5205  0.3454
 7228TIP3    H243100   3.051   1.198   5.067  0.0681 -0.2515  0.5249
 7229TIP3   OH243101   1.247   5.033   6.440 -0.5672  0.0113 -0.1976
 7229TIP3    H143102   1.171   5.089   6.451  0.7078  2.1337 -1.4857
 7229TIP3    H243103   1.216   4.960   6.386 -1.8091  0.4682 -0.1220
 7230TIP3   OH243104   4.744   2.987   1.409  0.5101 -0.2430  0.3261
 7230TIP3    H143105   4.764   2.982   1.503  0.6122 -0.0895  0.3131
 7230TIP3    H243106   4.648   2.991   1.405  0.5174  2.8531  0.6006
 7231TIP3   OH243107   3.294   1.854   2.308  0.5773  0.4578 -0.2879
 7231TIP3    H143108   3.224   1.792   2.288 -0.1405  0.8361  0.9285
 7231TIP3    H243109   3.373   1.801   2.311  0.3162 -0.0200 -1.4333
 7232TIP3   OH243110   0.625   6.735  15.257 -0.7965 -1.2260  0.4189
 7232TIP3    H143111   0.585   6.672  15.318 -2.3434 -1.0799 -0.3847
 7232TIP3    H243112   0.632   6.816  15.308  0.1249 -1.7256  1.1075
 7233TIP3   OH243113   6.070   1.180   0.222 -0.4590  0.1877  0.1436
 7233TIP3    H143114   6.035   1.131   0.296 -0.5172  1.3233  0.8889
 7233TIP3    H243115   6.025   1.143   0.146 -1.6414  0.1190  0.8536
 7234TIP3   OH243116   5.909   3.322   0.810 -0.2263 -0.0214  0.1050
 7234TIP3    H143117   5.830   3.270   0.827 -0.5967  0.1357 -1.0714
 7234TIP3    H243118   5.927   3.310   0.717  0.3840  0.9928  0.0756
 7235TIP3   OH243119   0.421   0.128  15.035 -0.4494 -0.3504  0.2150
 7235TIP3    H143120   0.489   0.168  15.089  0.4052 -0.1302 -0.9634
 7235TIP3    H243121   0.406   0.043  15.074  1.0880 -0.7211  0.0725
 7236TIP3   OH243122   0.616   5.846   1.060  0.1265 -0.2200  0.3859
 7236TIP3    H143123   0.634   5.934   1.027 -0.2725 -1.0569 -2.2887
 7236TIP3    H243124   0.700   5.800   1.054 -0.3000 -0.8563 -1.1719
 7237TIP3   OH243125   6.090   2.963   3.281  0.4400  0.2903 -0.1834
 7237TIP3    H143126   6.029   3.034   3.301  0.9094  1.0708 -1.4211
 7237TIP3    H243127   6.174   3.006   3.269  0.4813 -0.2733 -2.2889
 7238TIP3   OH243128   1.568   4.524  15.881  0.0830  0.1677 -0.2522
 7238TIP3    H143129   1.502   4.473  15.929 -1.3790 -0.8974 -3.1478
 7238TIP3    H243130   1.640   4.462  15.866  0.0915  0.1878 -0.2944
 7239TIP3   OH243131   2.107   3.746   2.952 -0.1032 -0.3792  0.2813
 7239TIP3    H143132   2.053   3.811   2.907  0.0226 -1.2394 -1.1941
 7239TIP3    H243133   2.138   3.688   2.882 -0.4854 -2.2394  1.5655
 7240TIP3   OH243134   0.070   0.086   3.219 -0.7736 -0.1954  0.1228
 7240TIP3    H143135   0.090   0.006   3.267  0.1653  0.3164  0.6101
 7240TIP3    H243136   0.051   0.056   3.130 -0.2537 -0.9486  0.2523
 7241TIP3   OH243137   0.770   6.764   3.372  0.3884  0.4730  0.1392
 7241TIP3    H143138   0.684   6.806   3.380  1.2507  2.2376  0.6512
 7241TIP3    H243139   0.757   6.676   3.406 -1.3285  0.5358 -0.2585
 7242TIP3   OH243140   6.285   3.933   5.482  0.0269  0.0443  0.1119
 7242TIP3    H143141   6.379   3.942   5.501  0.0305 -1.1985  0.7596
 7242TIP3    H243142   6.245   4.008   5.525  0.4454 -0.8167  2.1063
 7243TIP3   OH243143   2.543   5.958   2.875 -0.1973  0.5047  0.8413
 7243TIP3    H143144   2.626   5.914   2.856 -1.4710 -2.6659  2.0263
 7243TIP3    H243145   2.543   5.972   2.970 -0.1619  2.5379  0.5977
 7244TIP3   OH243146   1.956   1.063   5.161  0.4553  0.2583  0.1650
 7244TIP3    H143147   1.900   1.000   5.207  0.8905 -0.8019 -0.7135
 7244TIP3    H243148   1.912   1.147   5.173 -1.9603 -0.6656 -1.3987
 7245TIP3   OH243149   0.163   5.690   5.844  0.2793  0.0382  0.7632
 7245TIP3    H143150   0.098   5.698   5.774 -2.3408 -1.7151  2.8048
 7245TIP3    H243151   0.146   5.765   5.901 -0.4359 -0.7399  1.6095
 7246TIP3   OH243152   4.744   2.171   6.388  0.2485  0.2558  0.3128
 7246TIP3    H143153   4.683   2.150   6.317  3.5337 -0.6682 -2.5059
 7246TIP3    H243154   4.717   2.114   6.460 -0.8638 -1.8261 -1.6255
 7247TIP3   OH243155   0.736   2.528   5.457 -0.5294 -0.1675  0.0320
 7247TIP3    H143156   0.773   2.584   5.525  1.5210 -0.0540 -1.0935
 7247TIP3    H243157   0.690   2.588   5.398  2.0672  0.5420 -1.4402
 7248TIP3   OH243158   4.024   1.790   5.385 -0.7627 -0.3530  0.3408
 7248TIP3    H143159   4.049   1.868   5.434 -1.4803  0.3990 -0.4468
 7248TIP3    H243160   4.024   1.818   5.294  0.7562 -1.7727 -0.1490
 7249TIP3   OH243161   0.712   2.266   2.078  0.0679  0.0733  0.8945
 7249TIP3    H143162   0.757   2.196   2.030  0.1626  0.1818  0.8217
 7249TIP3    H243163   0.770   2.342   2.068 -0.4949  0.4210  0.1576
 7250TIP3   OH243164   3.053   4.903  13.209  0.0416 -0.0579  0.5851
 7250TIP3    H143165   3.106   4.982  13.225 -0.4343  0.1353  1.2911
 7250TIP3    H243166   3.076   4.876  13.121 -0.6697  1.5678 -0.1422
 7251TIP3   OH243167   0.350   1.680  14.735 -0.2602  0.0360  0.6504
 7251TIP3    H143168   0.309   1.676  14.649  0.4310  3.2173  0.0473
 7251TIP3    H243169   0.419   1.614  14.732 -2.8351 -2.8089  0.3578
 7252TIP3   OH243170   0.369   4.259   2.817  0.3430  0.4825 -0.0697
 7252TIP3    H143171   0.309   4.327   2.846  0.2815  0.8127 -0.9643
 7252TIP3    H243172   0.456   4.297   2.830  0.3410  0.2887  0.5208
 7253TIP3   OH243173   4.761   1.267   1.330 -0.3084  0.1067 -0.3929
 7253TIP3    H143174   4.762   1.301   1.420 -0.0487 -1.5762  0.2674
 7253TIP3    H243175   4.829   1.200   1.329 -0.3979  0.0147 -1.8277
 7254TIP3   OH243176   1.970   6.419   1.464  0.8464  0.4727  0.9324
 7254TIP3    H143177   1.905   6.468   1.415  0.6230 -0.1733  0.5724
 7254TIP3    H243178   1.931   6.333   1.478  0.8228  0.7096  2.4372
 7255TIP3   OH243179   6.627   0.700   4.238  0.8665  0.2038 -0.2641
 7255TIP3    H143180   6.673   0.762   4.294  1.1086 -1.6856  1.7420
 7255TIP3    H243181   6.666   0.615   4.259 -0.3748 -0.8365 -1.9292
 7256TIP3   OH243182   2.848   0.274   4.526  0.0071 -0.6628 -0.0416
 7256TIP3    H143183   2.787   0.331   4.480  0.8592  1.1000  0.9184
 7256TIP3    H243184   2.792   0.210   4.570 -1.0075 -0.3049 -0.7553
 7257TIP3   OH243185   2.724   2.565  13.045  0.1906  0.1519 -0.0342
 7257TIP3    H143186   2.756   2.505  13.112 -0.1096 -0.0123 -0.0396
 7257TIP3    H243187   2.804   2.602  13.006  0.3738  0.6224  0.7463
 7258TIP3   OH243188   6.421   5.746  11.576  0.3025 -0.9596 -0.0493
 7258TIP3    H143189   6.360   5.727  11.505  0.5013  0.5070 -0.6545
 7258TIP3    H243190   6.366   5.784  11.645  0.2482 -1.5177  0.2204
 7259TIP3   OH243191   4.105   2.919   4.464  0.1485  0.0869 -0.6129
 7259TIP3    H143192   4.172   2.883   4.406  0.6563  0.6008 -0.3513
 7259TIP3    H243193   4.086   2.849   4.526 -1.5198 -1.0510 -2.2909
 7260TIP3   OH243194   2.795   3.815  16.401 -0.1565 -0.3272  0.1031
 7260TIP3    H143195   2.799   3.779  16.312  0.8629  0.9282 -0.4022
 7260TIP3    H243196   2.886   3.832  16.424 -0.4570 -0.0356  1.1347
 7261TIP3   OH243197   6.227   5.930  11.756  0.2299 -0.6572  0.4744
 7261TIP3    H143198   6.276   5.860  11.798  0.1581 -0.2850  1.1912
 7261TIP3    H243199   6.174   5.968  11.826 -2.0144 -1.8046 -0.4950
 7262TIP3   OH243200   3.333   0.899   0.940  0.5298 -0.2515 -0.1554
 7262TIP3    H143201   3.306   0.990   0.926  1.3999  0.1733  0.8132
 7262TIP3    H243202   3.310   0.855   0.858  2.6838  1.4695 -1.8160
 7263TIP3   OH243203   5.656   0.291   2.863 -0.0553 -0.4626 -0.8658
 7263TIP3    H143204   5.608   0.260   2.786 -0.0598  0.4155 -1.2397
 7263TIP3    H243205   5.592   0.342   2.912 -0.2226 -1.5437  0.0680
 7264TIP3   OH243206   3.329   1.068  16.656 -0.5503 -0.0615 -0.5140
 7264TIP3    H143207   3.325   1.135  16.724  0.3773  0.4153 -0.9017
 7264TIP3    H243208   3.362   1.115  16.578  0.7776 -1.0742 -0.6053
 7265TIP3   OH243209   5.830   5.015   4.384 -0.6012  0.2466 -0.0900
 7265TIP3    H143210   5.774   4.970   4.446 -0.1931  0.7893  0.6964
 7265TIP3    H243211   5.906   4.957   4.373 -0.2890  0.5268  0.5653
 7266TIP3   OH243212   1.238   4.241  13.552 -0.4692  0.1560  0.3387
 7266TIP3    H143213   1.177   4.168  13.542  0.2816 -0.5785  0.8916
 7266TIP3    H243214   1.323   4.204  13.525 -0.4990  1.6205 -2.0631
 7267TIP3   OH243215   6.782   4.501  15.205  0.0206  0.1968  0.1152
 7267TIP3    H143216   6.781   4.597  15.200  3.0857  0.3989  1.3699
 7267TIP3    H243217   6.703   4.480  15.255 -0.5841  2.0737  0.0597
 7268TIP3   OH243218   4.166   3.699   3.007  0.1926  0.2089  0.3811
 7268TIP3    H143219   4.235   3.672   3.068  0.1657  0.6756  0.6207
 7268TIP3    H243220   4.201   3.676   2.921  0.5585  0.2397  0.5173
 7269TIP3   OH243221   2.102   2.175  15.282 -0.2094 -0.4084 -0.4547
 7269TIP3    H143222   2.100   2.175  15.187 -0.8779 -2.0456 -0.4774
 7269TIP3    H243223   2.137   2.088  15.305 -0.8315 -0.3598  0.7814
 7270TIP3   OH243224   5.220   0.780   0.383  0.3478  0.3907  0.0951
 7270TIP3    H143225   5.159   0.728   0.436 -1.0880  1.1818 -0.7173
 7270TIP3    H243226   5.191   0.870   0.394  1.3284  0.7846 -0.3938
 7271TIP3   OH243227   3.998   1.016  10.859  0.0183  0.2760  0.1297
 7271TIP3    H143228   3.981   1.085  10.923  0.9471 -1.5202  2.4687
 7271TIP3    H243229   4.073   1.047  10.808 -1.1420  2.0182 -0.6011
 7272TIP3   OH243230   3.097   3.199   5.402  0.2315  0.6683  0.2929
 7272TIP3    H143231   3.101   3.269   5.466 -1.1995  2.4988 -1.4794
 7272TIP3    H243232   3.168   3.219   5.340  0.2749  0.1456  0.1704
 7273TIP3   OH243233   1.612   2.407   4.477 -0.4298  0.1569  0.0087
 7273TIP3    H143234   1.632   2.497   4.451  0.1313  0.3258  0.9389
 7273TIP3    H243235   1.517   2.406   4.488 -0.2963  1.1737  1.7321
 7274TIP3   OH243236   4.928   4.479   4.904 -0.0293  0.0609  0.0359
 7274TIP3    H143237   4.910   4.386   4.889  0.1136  0.3070 -1.9077
 7274TIP3    H243238   5.021   4.488   4.885  0.5404  0.2198  2.5351
 7275TIP3   OH243239   2.258   6.715   0.182  0.3452 -0.1892  0.0768
 7275TIP3    H143240   2.202   6.789   0.206  0.2801 -0.7332  1.7552
 7275TIP3    H243241   2.238   6.698   0.090 -0.6313  1.0204  0.0432
 7276TIP3   OH243242   1.377   2.800  14.628  0.6641 -0.1485 -0.0833
 7276TIP3    H143243   1.355   2.852  14.706  0.3700  1.5528 -1.2404
 7276TIP3    H243244   1.365   2.709  14.656  1.2747  0.3712  2.0608
 7277TIP3   OH243245   5.368   4.817  16.485 -0.3806 -0.2680  0.1641
 7277TIP3    H143246   5.434   4.881  16.459 -0.7679  0.3665  0.7048
 7277TIP3    H243247   5.298   4.869  16.525 -1.0769 -0.9534 -0.1240
 7278TIP3   OH243248   3.663   6.369  14.437  0.1891 -0.1252  0.0696
 7278TIP3    H143249   3.587   6.379  14.379 -1.0579  1.8955  1.9037
 7278TIP3    H243250   3.682   6.275  14.435 -2.6084 -0.7794 -0.1949
 7279TIP3   OH243251   2.341   1.287   0.301 -0.5343  0.0182 -0.1123
 7279TIP3    H143252   2.264   1.343   0.306 -0.2340  0.3382  1.6017
 7279TIP3    H243253   2.328   1.222   0.371 -0.2706 -1.3014 -1.2295
 7280TIP3   OH243254   2.859   1.261  10.749 -0.4913  0.1531 -0.1362
 7280TIP3    H143255   2.871   1.330  10.813 -0.0482 -0.6004  0.6167
 7280TIP3    H243256   2.813   1.303  10.676 -0.3719  1.1876  0.3686
 7281TIP3   OH243257   5.665   2.649   4.045 -0.6694 -0.4951  0.6204
 7281TIP3    H143258   5.700   2.571   4.002 -1.4966 -0.1205 -0.8132
 7281TIP3    H243259   5.577   2.659   4.008 -0.4163  1.3675  0.4341
 7282TIP3   OH243260   5.195   6.024   4.839 -0.4268 -0.8165  0.0620
 7282TIP3    H143261   5.195   6.047   4.932 -0.0532  1.0738 -0.3825
 7282TIP3    H243262   5.180   6.106   4.793 -0.5575 -1.7075 -1.5806
 7283TIP3   OH243263   5.663   4.264  15.554  0.3139 -0.1278 -0.1205
 7283TIP3    H143264   5.748   4.282  15.513  0.3790  0.1744  0.1467
 7283TIP3    H243265   5.670   4.173  15.584  0.6652  0.0017  0.1950
 7284TIP3   OH243266   4.952   3.785  16.802 -0.2069  0.4803 -0.0748
 7284TIP3    H143267   4.951   3.698  16.760 -1.8885 -0.9237  2.5990
 7284TIP3    H243268   5.040   3.793  16.838  0.1378  0.1585 -0.8086
 7285TIP3   OH243269   5.843   6.615   2.768 -0.1878  0.1314 -0.1714
 7285TIP3    H143270   5.911   6.672   2.730 -1.6785  2.5728  0.5994
 7285TIP3    H243271   5.856   6.623   2.862 -1.5559  0.6766 -0.0160
 7286TIP3   OH243272   3.344   2.539  15.165  0.1566 -0.0858 -0.4785
 7286TIP3    H143273   3.366   2.506  15.078  0.7341  2.1202 -1.2464
 7286TIP3    H243274   3.354   2.464  15.222  1.8071 -1.1353 -2.0197
 7287TIP3   OH243275   1.003   4.064   3.654 -0.0597 -0.9345  0.0847
 7287TIP3    H143276   0.915   4.050   3.618  0.0542 -0.8877 -0.2160
 7287TIP3    H243277   0.988   4.112   3.735 -0.2980 -0.7170 -0.0846
 7288TIP3   OH243278   3.936   1.692   0.581  0.1572  0.0750  0.5996
 7288TIP3    H143279   4.008   1.709   0.520 -1.0115  0.6789 -0.6922
 7288TIP3    H243280   3.909   1.779   0.611  0.4774 -0.1967  1.7189
 7289TIP3   OH243281   3.522   5.991   0.828  0.5147  0.1343 -0.0669
 7289TIP3    H143282   3.527   5.901   0.861 -0.1945  0.6328  1.5033
 7289TIP3    H243283   3.605   6.005   0.783  0.2799 -1.5863 -1.1426
 7290TIP3   OH243284   5.513   3.030  16.110  0.0396  0.1030  0.2105
 7290TIP3    H143285   5.552   3.012  16.196  2.4504  2.3895 -0.3038
 7290TIP3    H243286   5.462   3.109  16.123 -0.8385 -0.3856 -0.1686
 7291TIP3   OH243287   3.242   5.580  16.718  0.6296 -0.2277  0.0083
 7291TIP3    H143288   3.259   5.573  16.624 -0.1274 -0.6441 -0.0956
 7291TIP3    H243289   3.152   5.551  16.729  0.3425  0.8664  0.7193
 7292TIP3   OH243290   3.016   3.403  11.003 -0.4548  0.1191  0.3568
 7292TIP3    H143291   3.093   3.359  10.966 -0.7219  0.0486 -0.1338
 7292TIP3    H243292   2.942   3.366  10.954 -0.7651  0.4383  0.5822
 7293TIP3   OH243293   1.374   6.329  15.996  0.3264 -0.4525  0.1836
 7293TIP3    H143294   1.279   6.319  15.987  0.4666 -0.4663 -1.6020
 7293TIP3    H243295   1.409   6.243  15.976  0.7316 -0.3978  0.6526
 7294TIP3   OH243296   1.579   3.503   2.730 -0.3348 -0.3422 -0.6954
 7294TIP3    H143297   1.639   3.559   2.780 -0.7536 -0.1111 -0.4504
 7294TIP3    H243298   1.504   3.491   2.788 -1.1501  0.5184 -1.5493
 7295TIP3   OH243299   0.724   3.136  14.267 -0.1205  0.0897  0.7666
 7295TIP3    H143300   0.736   3.219  14.221  0.3646 -0.8811 -0.9387
 7295TIP3    H243301   0.736   3.158  14.359 -0.6393  2.0238  0.4249
 7296TIP3   OH243302   1.586   2.521  16.325 -0.2848 -0.4571 -0.0810
 7296TIP3    H143303   1.514   2.578  16.299  0.4300  0.8834  0.7858
 7296TIP3    H243304   1.557   2.433  16.299 -1.9593  0.1152 -0.2918
 7297TIP3   OH243305   6.227   3.038   4.311  0.0030 -0.1779 -0.4763
 7297TIP3    H143306   6.304   3.034   4.253 -0.1677  0.5999 -0.7666
 7297TIP3    H243307   6.155   3.061   4.253 -1.0107 -3.4223 -0.7053
 7298TIP3   OH243308   6.108   6.104  15.770 -0.3873 -0.2718 -0.1370
 7298TIP3    H143309   6.079   6.027  15.819  0.3905 -0.7295 -0.3736
 7298TIP3    H243310   6.200   6.115  15.796 -0.9047  1.5204  1.1116
 7299TIP3   OH243311   5.675   0.510   0.665 -0.5807  0.0733 -0.0709
 7299TIP3    H143312   5.583   0.499   0.644 -0.6355  1.6881 -0.8361
 7299TIP3    H243313   5.719   0.436   0.624 -1.4597 -0.3267 -0.2951
 7300TIP3   OH243314   0.257   3.107   0.066  0.7225  0.7249 -0.0192
 7300TIP3    H143315   0.182   3.149   0.109  0.2943  1.1641 -1.1375
 7300TIP3    H243316   0.250   3.134  -0.026  1.5051 -0.3081 -0.4080
 7301TIP3   OH243317   5.856   2.470  10.319 -0.2270 -0.3641  0.2728
 7301TIP3    H143318   5.891   2.382  10.333  0.3596  0.0468  1.4766
 7301TIP3    H243319   5.781   2.456  10.260  0.1796 -1.5959  0.0123
 7302TIP3   OH243320   0.028   0.965  13.031  0.4695 -0.2660  0.3130
 7302TIP3    H143321  -0.061   0.996  13.045  0.7812  0.4941  0.6866
 7302TIP3    H243322   0.049   0.916  13.111  0.4289 -0.3331  0.2820
 7303TIP3   OH243323   3.739   0.611  12.571 -0.5216 -0.2987 -0.4098
 7303TIP3    H143324   3.751   0.621  12.477 -0.1891 -0.9349 -0.4401
 7303TIP3    H243325   3.784   0.686  12.610 -0.4351 -0.1753 -0.7509
 7304TIP3   OH243326   4.702   5.317   1.859 -0.3428 -0.4677  0.2538
 7304TIP3    H143327   4.753   5.242   1.829  1.0877  0.1243  1.0704
 7304TIP3    H243328   4.741   5.392   1.813 -2.5045 -0.2776 -1.4676
 7305TIP3   OH243329   4.099   2.727   4.667  0.4392 -0.5337  0.6924
 7305TIP3    H143330   4.042   2.667   4.619  1.1059 -0.9966  0.4745
 7305TIP3    H243331   4.096   2.695   4.757  0.1046 -0.3625  0.7439
 7306TIP3   OH243332   4.597   5.892  13.938 -0.3161  0.0939  0.0339
 7306TIP3    H143333   4.523   5.952  13.923 -0.9840 -0.4830  0.8596
 7306TIP3    H243334   4.603   5.840  13.858 -0.1833  0.7901 -0.4148
 7307TIP3   OH243335   6.352   0.556  11.115  0.4996  0.0720  0.2251
 7307TIP3    H143336   6.318   0.616  11.049 -1.9936  3.3950  4.0650
 7307TIP3    H243337   6.289   0.483  11.116 -1.3523  1.5910  0.9351
 7308TIP3   OH243338   2.179   6.310   2.359 -0.2375  0.5465  0.3489
 7308TIP3    H143339   2.219   6.251   2.423 -1.8430 -0.3299  0.5854
 7308TIP3    H243340   2.241   6.383   2.352  1.5976 -0.9229  0.3705
 7309TIP3   OH243341   5.908   5.218   2.068 -0.4580 -0.5667  0.7059
 7309TIP3    H143342   5.912   5.130   2.105 -0.1250 -1.6606 -1.7263
 7309TIP3    H243343   5.857   5.209   1.988  0.2998  1.2790 -0.0551
 7310TIP3   OH243344   4.721   3.650  16.207 -1.1055 -0.4408 -0.7296
 7310TIP3    H143345   4.675   3.573  16.175  0.5851 -1.6149 -0.4178
 7310TIP3    H243346   4.765   3.621  16.287 -0.2534  0.7782 -0.7176
 7311TIP3   OH243347   4.214   3.646  15.029 -0.4084  0.3110 -0.2079
 7311TIP3    H143348   4.197   3.558  15.064 -1.9132  0.1553 -1.2417
 7311TIP3    H243349   4.177   3.705  15.095 -1.1302  0.0980 -0.4145
 7312TIP3   OH243350   4.185   4.466  16.262 -0.2408  0.3584 -0.0641
 7312TIP3    H143351   4.256   4.449  16.201 -1.5009  0.4127 -1.6252
 7312TIP3    H243352   4.121   4.397  16.244 -1.5400  1.5709 -0.2733
 7313TIP3   OH243353   6.370   2.649   5.113 -0.5929 -0.3619  0.2520
 7313TIP3    H143354   6.343   2.593   5.040 -0.5071 -0.5685  0.3779
 7313TIP3    H243355   6.328   2.733   5.095  0.0148 -0.1935 -0.4148
 7314TIP3   OH243356   1.836   1.435  14.289 -0.2234  0.5925 -0.4919
 7314TIP3    H143357   1.843   1.530  14.289  2.2544  0.4839  0.2964
 7314TIP3    H243358   1.848   1.409  14.380  0.5314 -0.5156 -0.8803
 7315TIP3   OH243359   3.913   2.646  13.639 -0.1436  0.1266 -0.4092
 7315TIP3    H143360   3.973   2.573  13.657  0.8673  1.2252  0.8548
 7315TIP3    H243361   3.932   2.671  13.549 -0.5542 -1.2062 -0.8857
 7316TIP3   OH243362   4.084   2.707  16.734 -0.6699  0.2611 -0.6917
 7316TIP3    H143363   4.015   2.762  16.770 -0.7763  0.6643 -1.4904
 7316TIP3    H243364   4.164   2.735  16.779 -1.1353 -0.7960  0.8614
 7317TIP3   OH243365   3.385   5.526  10.752 -0.2308  0.5332  0.7092
 7317TIP3    H143366   3.366   5.547  10.844 -0.3489 -0.4767  0.9280
 7317TIP3    H243367   3.386   5.430  10.750  1.6794  0.5459  0.0351
 7318TIP3   OH243368   1.403   1.610  16.320 -0.0657  0.0668  0.5638
 7318TIP3    H143369   1.320   1.595  16.273 -0.2171 -1.1353  1.1853
 7318TIP3    H243370   1.467   1.625  16.250 -0.2344 -1.9820 -0.0853
 7319TIP3   OH243371   4.657   3.262   0.590 -0.1307  0.3868  0.0221
 7319TIP3    H143372   4.696   3.219   0.666  0.1225  0.8401  0.1561
 7319TIP3    H243373   4.573   3.295   0.621 -0.4710 -0.2986 -0.1732
 7320TIP3   OH243374   6.360   2.526   4.770 -0.2119 -0.0329  0.4137
 7320TIP3    H143375   6.270   2.526   4.800 -0.3924  1.1786 -0.0782
 7320TIP3    H243376   6.381   2.618   4.756  0.3418 -0.4338 -1.7081
 7321TIP3   OH243377   2.058   5.944  16.367  0.6182  0.3527  0.5376
 7321TIP3    H143378   2.128   5.997  16.406  0.0347  0.7890  1.0093
 7321TIP3    H243379   1.995   6.009  16.334  1.0809  0.0122 -1.1494
 7322TIP3   OH243380   5.274   3.593   2.387  0.5584 -0.0348  0.1437
 7322TIP3    H143381   5.207   3.576   2.320  0.9306  0.8100 -0.4564
 7322TIP3    H243382   5.241   3.548   2.465 -0.9529  0.7284 -0.0055
 7323TIP3   OH243383   5.889   0.187   0.363  0.4577  0.1179 -0.0683
 7323TIP3    H143384   5.819   0.129   0.393  0.8283  0.1187  0.8496
 7323TIP3    H243385   5.924   0.143   0.285  0.0017 -0.3208 -0.0338
 7324TIP3   OH243386   4.161   5.256  13.334  0.1241 -0.4590  0.3548
 7324TIP3    H143387   4.110   5.313  13.391 -0.2483 -0.2538 -0.1749
 7324TIP3    H243388   4.137   5.283  13.245  2.2476  0.6273  0.0715
 7325TIP3   OH243389   3.165   5.447   3.447 -0.1229 -0.1465  0.3359
 7325TIP3    H143390   3.107   5.407   3.381 -0.3802  0.5481  0.1306
 7325TIP3    H243391   3.239   5.387   3.453 -1.8069 -2.1682  2.1389
 7326TIP3   OH243392   6.350   4.828  12.293 -0.3698 -0.1855 -0.4118
 7326TIP3    H143393   6.400   4.756  12.254  0.5828  0.3394 -0.1903
 7326TIP3    H243394   6.415   4.895  12.312 -0.9604  0.0190  1.0645
 7327TIP3   OH243395   4.280   5.120   2.460 -0.0839 -0.0590  0.2628
 7327TIP3    H143396   4.241   5.086   2.380  1.8376 -0.2113 -0.6700
 7327TIP3    H243397   4.372   5.133   2.438  0.7325 -1.0499  2.7439
 7328TIP3   OH243398   2.558   1.367  11.641 -0.2109 -0.2688 -0.5271
 7328TIP3    H143399   2.492   1.300  11.658 -0.1180 -0.8517 -2.2807
 7328TIP3    H243400   2.528   1.411  11.561  0.7697  0.4468 -0.5272
 7329TIP3   OH243401   5.594   0.340  15.495  0.0613  0.1803  0.0519
 7329TIP3    H143402   5.607   0.257  15.540 -3.8764 -0.9593 -0.5422
 7329TIP3    H243403   5.552   0.397  15.560 -0.8616  0.3052 -0.6298
 7330TIP3   OH243404   5.452   2.034  15.250  0.4584 -0.4849  0.3062
 7330TIP3    H143405   5.465   2.108  15.191 -0.5781 -1.5496 -1.3610
 7330TIP3    H243406   5.403   2.070  15.324  0.5846  0.6284 -0.1350
 7331TIP3   OH243407   4.905   0.622   2.896  0.6578 -0.5688  0.2339
 7331TIP3    H143408   4.952   0.653   2.974  1.0682  1.8752 -0.8913
 7331TIP3    H243409   4.835   0.567   2.931  1.1075  0.0710  2.3055
 7332TIP3   OH243410   4.516   6.540   0.187 -0.0324  0.1445 -0.1693
 7332TIP3    H143411   4.455   6.612   0.172  0.2952  0.1905 -1.3909
 7332TIP3    H243412   4.594   6.564   0.137  0.1656 -0.9436 -0.4056
 7333TIP3   OH243413   4.355   1.590  14.629 -0.2256 -0.2964 -0.5000
 7333TIP3    H143414   4.337   1.594  14.535 -0.9197 -1.7092 -0.4639
 7333TIP3    H243415   4.372   1.497  14.646  3.0893  0.3384  0.2378
 7334TIP3   OH243416   4.018   1.358   5.425 -0.1821 -0.7074  0.3038
 7334TIP3    H143417   4.050   1.440   5.463 -0.3535  0.5295 -2.0613
 7334TIP3    H243418   4.065   1.350   5.342 -1.8039 -1.8437 -0.5543
 7335TIP3   OH243419   6.549   2.870  17.106 -0.4913 -0.1488  0.0976
 7335TIP3    H143420   6.636   2.831  17.097 -1.4854 -3.3405  2.4141
 7335TIP3    H243421   6.497   2.829  17.038 -0.4149  1.1361 -0.7590
 7336TIP3   OH243422   1.798   0.218  15.465  0.2705  0.1152  0.1154
 7336TIP3    H143423   1.805   0.124  15.451  0.9873  0.4220 -2.0670
 7336TIP3    H243424   1.752   0.228  15.548  1.8305 -2.1475  1.3240
 7337TIP3   OH243425   4.006   4.479   1.903 -0.0842 -0.1856  0.3656
 7337TIP3    H143426   3.991   4.506   1.813  0.4464 -2.0718 -0.3240
 7337TIP3    H243427   3.923   4.497   1.947 -0.2326  1.0800 -0.3894
 7338TIP3   OH243428   2.754   3.162   0.993  0.2226 -0.2944 -1.5977
 7338TIP3    H143429   2.702   3.242   1.003  2.2139  1.0470 -1.4908
 7338TIP3    H243430   2.769   3.157   0.898  0.7230 -0.1133 -1.5295
 7339TIP3   OH243431   5.497   1.333  16.277 -0.5760 -0.2073 -0.2834
 7339TIP3    H143432   5.464   1.253  16.319  2.0871 -2.1611 -1.5928
 7339TIP3    H243433   5.504   1.310  16.184 -0.4757  1.8447 -0.8254
 7340TIP3   OH243434   0.322   5.409  11.070  0.3074  0.0452  0.0035
 7340TIP3    H143435   0.319   5.394  11.165 -2.4249 -0.0819 -0.0168
 7340TIP3    H243436   0.412   5.438  11.053  1.1658 -0.8911  2.4552
 7341TIP3   OH243437   1.115   6.254  12.227  0.3262  0.8434 -0.0375
 7341TIP3    H143438   1.110   6.289  12.316 -0.1384 -0.0903  0.3143
 7341TIP3    H243439   1.124   6.332  12.172  0.6726  1.4303  0.8243
 7342TIP3   OH243440   2.606   4.549   0.251 -0.1038 -0.4372 -0.2773
 7342TIP3    H143441   2.590   4.466   0.295  1.2883 -0.4378  0.2928
 7342TIP3    H243442   2.675   4.530   0.188 -0.9239 -0.0628 -1.3121
 7343TIP3   OH243443   6.567   5.313   5.818  0.0232  0.0661  0.1838
 7343TIP3    H143444   6.505   5.334   5.888 -1.1410  0.4183 -0.9118
 7343TIP3    H243445   6.590   5.221   5.834  0.5566  0.4062  1.5731
 7344TIP3   OH243446   4.231   3.327   6.274 -0.0566  0.4730  0.4662
 7344TIP3    H143447   4.267   3.245   6.309 -2.4030 -0.2397  1.3954
 7344TIP3    H243448   4.268   3.395   6.330 -0.2611 -0.2477  1.5087
 7345TIP3   OH243449   2.728   6.513   1.234 -0.5259  0.2096  0.2230
 7345TIP3    H143450   2.768   6.592   1.272 -0.0970 -0.5749  1.4402
 7345TIP3    H243451   2.638   6.513   1.267 -0.9696  0.8948 -0.8959
 7346TIP3   OH243452   5.423   0.064  11.752  0.4999 -0.1414 -0.3788
 7346TIP3    H143453   5.361   0.040  11.683  1.4263  0.0228 -1.3055
 7346TIP3    H243454   5.435  -0.016  11.803 -0.3763 -0.2019 -0.2566
 7347TIP3   OH243455   6.003   6.003  15.168 -0.5607  0.3185 -0.0708
 7347TIP3    H143456   5.921   6.021  15.213 -0.5830 -1.3934  0.6725
 7347TIP3    H243457   5.985   5.922  15.118  1.0296 -0.9005  1.2227
 7348TIP3   OH243458   2.685   5.656  11.769  0.2212  0.1823  0.4145
 7348TIP3    H143459   2.624   5.609  11.826  0.7672  0.9509  1.6937
 7348TIP3    H243460   2.768   5.611  11.781 -0.5292 -2.9377 -3.7641
 7349TIP3   OH243461   0.587   3.564   4.290 -0.8522  0.1723 -0.1672
 7349TIP3    H143462   0.616   3.595   4.375 -3.0049  1.0117  0.3303
 7349TIP3    H243463   0.622   3.629   4.228 -1.2968  0.9434  0.3639
 7350TIP3   OH243464   2.757   1.971  13.734 -0.0242 -1.0094  0.2894
 7350TIP3    H143465   2.796   2.056  13.716 -0.6336 -0.7555  0.1140
 7350TIP3    H243466   2.830   1.915  13.760  0.4209 -0.5096  0.1273
 7351TIP3   OH243467   6.508   6.595   4.934  0.2208  0.3680  0.2545
 7351TIP3    H143468   6.479   6.578   4.844  0.6816 -0.5007  0.2595
 7351TIP3    H243469   6.526   6.689   4.936  0.7000  0.3074 -0.7076
 7352TIP3   OH243470   3.074   6.736  13.565 -0.0137  0.1459  0.1576
 7352TIP3    H143471   3.068   6.718  13.471 -0.6250  3.1067 -0.4755
 7352TIP3    H243472   2.988   6.711  13.600 -0.0366 -0.2658 -0.1810
 7353TIP3   OH243473   2.704   0.377  12.329 -0.0424 -0.0547  0.4361
 7353TIP3    H143474   2.733   0.404  12.242  0.2978 -0.2724  0.4789
 7353TIP3    H243475   2.661   0.454  12.365 -0.0385  0.0882  0.1389
 7354TIP3   OH243476   0.171   5.992  15.276 -0.7657  0.2056  0.2841
 7354TIP3    H143477   0.131   6.001  15.190 -1.3781 -0.0154  0.5412
 7354TIP3    H243478   0.158   5.900  15.299 -0.8670  0.3285  0.7343
 7355TIP3   OH243479   4.791   2.357   3.162  0.3192 -0.2241 -0.1808
 7355TIP3    H143480   4.818   2.394   3.078  0.7042  0.5656  0.2770
 7355TIP3    H243481   4.700   2.383   3.172  0.7524  1.1645  0.4114
 7356TIP3   OH243482   5.176   0.988  12.887  1.2185  0.0144  0.3555
 7356TIP3    H143483   5.150   0.941  12.966 -2.2939  1.9284  0.5466
 7356TIP3    H243484   5.153   0.929  12.815  0.6063 -0.1344  0.6739
 7357TIP3   OH243485   3.793   0.177  10.978  0.0090  0.1115 -0.2940
 7357TIP3    H143486   3.702   0.158  10.956  0.7577 -1.5829 -2.3284
 7357TIP3    H243487   3.838   0.179  10.893  1.8067  1.3974  0.6170
 7358TIP3   OH243488   3.745   4.595  14.310 -0.1895  0.0320  0.2551
 7358TIP3    H143489   3.719   4.591  14.218  0.2302  0.3624  0.1178
 7358TIP3    H243490   3.670   4.560  14.358 -1.4172  2.1426 -0.0278
 7359TIP3   OH243491   4.793   1.179  14.578 -0.7715  0.4706 -1.4664
 7359TIP3    H143492   4.762   1.090  14.559  1.3950 -1.3165  2.1838
 7359TIP3    H243493   4.718   1.223  14.618 -1.1801 -0.6218 -0.9964
 7360TIP3   OH243494   3.918   3.397   1.181 -0.0100  0.1929  0.1328
 7360TIP3    H143495   3.888   3.327   1.239 -0.2896  0.7290  0.6424
 7360TIP3    H243496   3.847   3.462   1.183 -0.1314  0.1122 -0.9944
 7361TIP3   OH243497   1.421   6.702   4.507 -0.8978 -0.4835  0.0851
 7361TIP3    H143498   1.505   6.730   4.472 -1.4648  0.2056 -0.7841
 7361TIP3    H243499   1.442   6.637   4.574  0.3668  0.4979  0.6653
 7362TIP3   OH243500   1.111   0.017  11.173  0.2997 -0.1971  0.1779
 7362TIP3    H143501   1.125   0.112  11.171  1.7368 -0.3787 -2.6628
 7362TIP3    H243502   1.018   0.005  11.156  0.1918  0.6718  0.1327
 7363TIP3   OH243503   1.657   3.247  11.324  0.2613  0.4094 -0.0856
 7363TIP3    H143504   1.667   3.249  11.229  1.7342  2.3492  0.0418
 7363TIP3    H243505   1.566   3.223  11.338 -0.2306  0.9424 -2.0222
 7364TIP3   OH243506   4.285   2.770  16.419 -0.1242 -0.5023 -0.0680
 7364TIP3    H143507   4.222   2.834  16.450 -0.5634 -1.6759  1.5720
 7364TIP3    H243508   4.369   2.799  16.454 -0.3744 -0.9751  0.9441
 7365TIP3   OH243509   2.736   2.412   0.854  0.3507  0.6065  0.0485
 7365TIP3    H143510   2.822   2.404   0.812  1.0740 -1.4396  1.7546
 7365TIP3    H243511   2.738   2.499   0.895  1.4947  0.7139 -0.2000
 7366TIP3   OH243512   6.024   5.288   1.701 -0.1944 -0.0738  0.2651
 7366TIP3    H143513   6.071   5.223   1.648 -0.6397 -1.0639  1.0528
 7366TIP3    H243514   6.010   5.361   1.641  0.7541 -0.4906 -0.5088
 7367TIP3   OH243515   2.733   0.120   4.207 -0.1224 -0.2983 -0.0626
 7367TIP3    H143516   2.807   0.106   4.148 -1.1840  0.8279 -1.7318
 7367TIP3    H243517   2.729   0.215   4.218  0.3451 -0.4839  2.3045
 7368TIP3   OH243518   1.560   5.066   0.984  0.1558 -0.2118  0.2681
 7368TIP3    H143519   1.640   5.102   1.021 -0.1097 -1.3086  2.0504
 7368TIP3    H243520   1.509   5.037   1.060 -1.6651 -0.1065 -0.8412
 7369TIP3   OH243521   4.607   4.681  12.111 -0.1331  0.0388  0.4826
 7369TIP3    H143522   4.540   4.743  12.142 -1.3901 -0.9074 -0.2191
 7369TIP3    H243523   4.690   4.721  12.137 -0.9046  1.8154  0.4162
 7370TIP3   OH243524   5.764   0.210   3.177  0.2939 -0.0427 -0.7100
 7370TIP3    H143525   5.856   0.233   3.167 -0.1998  1.8752 -1.1463
 7370TIP3    H243526   5.719   0.294   3.185 -1.3302 -0.9741  0.3412
 7371TIP3   OH243527   3.756   2.471   6.002 -0.7888 -0.3316  0.0237
 7371TIP3    H143528   3.759   2.561   6.035 -0.0584 -0.3907  0.1393
 7371TIP3    H243529   3.733   2.419   6.078  0.0043 -0.3704  0.2421
 7372TIP3   OH243530   4.485   2.464   3.143 -0.0816  0.0348 -0.1356
 7372TIP3    H143531   4.475   2.559   3.154 -1.4293 -0.2967  2.4048
 7372TIP3    H243532   4.421   2.427   3.204 -1.5846 -2.5804 -3.0668
 7373TIP3   OH243533   2.451   1.123  11.640 -0.1530 -0.3368 -0.3228
 7373TIP3    H143534   2.507   1.082  11.706 -0.5527 -0.8496 -0.2976
 7373TIP3    H243535   2.406   1.050  11.597  1.1382 -0.1203 -2.1335
 7374TIP3   OH243536   1.461   0.700  12.914  0.4352  0.3789 -0.0657
 7374TIP3    H143537   1.550   0.681  12.886  0.1275 -0.6354 -0.3862
 7374TIP3    H243538   1.422   0.614  12.930 -0.8266  0.7552 -0.9798
 7375TIP3   OH243539   5.812   0.819   5.042 -0.1653 -0.4341  0.2078
 7375TIP3    H143540   5.796   0.797   5.134  0.6773  1.0280  0.7344
 7375TIP3    H243541   5.745   0.883   5.020 -0.4347 -0.8606 -0.2486
 7376TIP3   OH243542   2.119   4.748   0.332 -0.1969 -0.0581 -0.2026
 7376TIP3    H143543   2.051   4.815   0.335 -1.0424 -0.9042 -0.2660
 7376TIP3    H243544   2.144   4.744   0.239 -0.8517 -0.5189 -0.3666
 7377TIP3   OH243545   2.367   2.684   3.617 -0.4365 -0.2697  0.1519
 7377TIP3    H143546   2.339   2.741   3.545 -2.0519  0.9707  1.6597
 7377TIP3    H243547   2.287   2.672   3.669  0.6879 -1.0993  1.7482
 7378TIP3   OH243548   6.266   4.018  12.483 -0.6164  0.6442  0.1711
 7378TIP3    H143549   6.195   3.965  12.447  0.0291  0.4000 -0.7683
 7378TIP3    H243550   6.224   4.070  12.552 -1.2185 -1.2485  1.2990
 7379TIP3   OH243551   6.526   2.840   3.340  0.2800 -0.1028 -0.1358
 7379TIP3    H143552   6.495   2.889   3.416  0.9420  0.7829 -0.4140
 7379TIP3    H243553   6.620   2.861   3.335 -0.0823  1.3431 -2.2366
 7380TIP3   OH243554   0.569   0.985   3.470  0.2096  0.0606  0.1990
 7380TIP3    H143555   0.474   0.984   3.462  0.2995 -0.0275 -1.0317
 7380TIP3    H243556   0.595   0.894   3.454  0.3152 -0.6830  3.7414
 7381TIP3   OH243557   3.891   4.805  15.303 -0.2113  0.2831 -0.0143
 7381TIP3    H143558   3.934   4.867  15.243 -0.8650  0.0824 -0.7029
 7381TIP3    H243559   3.904   4.844  15.390  1.9032 -0.0885 -0.1159
 7382TIP3   OH243560   3.403   3.517   1.276  0.5053  0.6057 -0.2597
 7382TIP3    H143561   3.333   3.453   1.262  1.5564 -0.3949 -1.1614
 7382TIP3    H243562   3.477   3.483   1.226  2.0352  1.0012  1.6253
 7383TIP3   OH243563   3.377   4.867   4.542 -0.2680 -0.0827  0.4900
 7383TIP3    H143564   3.406   4.799   4.481  2.0366  0.9847  0.2693
 7383TIP3    H243565   3.352   4.820   4.621 -1.5528 -1.3632 -0.6249
 7384TIP3   OH243566   3.897   5.074  12.175 -0.2089  0.3173  0.2184
 7384TIP3    H143567   3.872   5.000  12.230 -0.4658  1.7124  2.0823
 7384TIP3    H243568   3.989   5.058  12.152 -1.1091 -2.1404 -2.1743
 7385TIP3   OH243569   2.164   3.674   5.750  0.0541 -0.0618 -0.3238
 7385TIP3    H143570   2.177   3.657   5.843  0.8667  0.5214 -0.3202
 7385TIP3    H243571   2.097   3.742   5.748  0.5656  0.4611 -0.1228
 7386TIP3   OH243572   3.349   4.432  15.586  0.8260  0.0595 -0.5735
 7386TIP3    H143573   3.324   4.348  15.548 -0.3218 -0.1254  0.5387
 7386TIP3    H243574   3.365   4.413  15.679  1.2186  0.9411 -0.4480
 7387TIP3   OH243575   5.236   6.491  16.578 -0.1032  0.6532  1.1332
 7387TIP3    H143576   5.273   6.562  16.631 -2.1657  0.6761  2.6930
 7387TIP3    H243577   5.204   6.534  16.499  2.6030  0.6931 -0.0441
 7388TIP3   OH243578   4.571   0.892   2.520 -0.1812 -0.1282 -0.3253
 7388TIP3    H143579   4.624   0.814   2.502  0.1260  0.0461 -0.1968
 7388TIP3    H243580   4.500   0.862   2.576 -0.0688 -0.3167 -0.2850
 7389TIP3   OH243581   1.526   3.707   3.174 -0.1908  0.2821  0.2956
 7389TIP3    H143582   1.517   3.615   3.149 -0.1723  0.4493 -0.3495
 7389TIP3    H243583   1.504   3.709   3.267 -1.4377 -0.1804  0.0248
 7390TIP3   OH243584   5.416   6.463   4.474  0.2431 -0.4215 -0.2952
 7390TIP3    H143585   5.477   6.504   4.412 -0.2043 -0.7478 -0.9625
 7390TIP3    H243586   5.454   6.376   4.491  0.4889 -0.2457  0.0832
 7391TIP3   OH243587   1.386   2.818   0.742 -0.0726 -0.5809  0.3821
 7391TIP3    H143588   1.436   2.773   0.810 -0.8764 -0.4079  1.1156
 7391TIP3    H243589   1.299   2.830   0.781 -0.0047  1.2177  0.0303
 7392TIP3   OH243590   5.073   1.231   2.985 -0.0767 -0.4921  0.5183
 7392TIP3    H143591   5.038   1.147   3.015 -0.9370  0.0450  1.0349
 7392TIP3    H243592   5.062   1.290   3.058 -1.8924  0.7489 -0.6881
 7393TIP3   OH243593   5.950   5.809   3.916  0.0034  0.3844 -0.6476
 7393TIP3    H143594   5.871   5.793   3.968 -0.0525  1.6329 -0.3088
 7393TIP3    H243595   6.009   5.856   3.975  0.4840  0.6049 -1.2888
 7394TIP3   OH243596   2.557   1.484   3.465 -0.0828  0.5140  0.0175
 7394TIP3    H143597   2.482   1.434   3.499 -1.3617  1.6744 -1.0189
 7394TIP3    H243598   2.633   1.431   3.489 -1.2641 -1.0166  0.5523
 7395TIP3   OH243599   2.641   3.920   5.002  0.1210  0.0810  0.0760
 7395TIP3    H143600   2.660   3.827   4.988 -2.3454 -0.3880 -0.7724
 7395TIP3    H243601   2.702   3.967   4.945  0.6381 -1.0809 -0.3518
 7396TIP3   OH243602   6.620   4.096  11.997 -0.4647 -0.1410 -0.4478
 7396TIP3    H143603   6.528   4.068  11.999  0.0692 -2.0176  0.5974
 7396TIP3    H243604   6.651   4.067  11.911 -0.1016 -2.3738  0.3589
 7397TIP3   OH243605   2.505   2.420  11.330  0.4105  0.0067  0.2722
 7397TIP3    H143606   2.528   2.458  11.245 -2.6626  1.6871  0.0465
 7397TIP3    H243607   2.583   2.433  11.384  1.1590  2.3851 -1.2170
 7398TIP3   OH243608   4.885   0.624  17.035  0.2618 -0.3863 -0.0974
 7398TIP3    H143609   4.942   0.549  17.048  0.0753 -0.5827 -0.3887
 7398TIP3    H243610   4.901   0.650  16.944  1.3388  0.7823  0.3948
 7399TIP3   OH243611   4.667   1.909  15.268 -0.1066 -0.2035  0.0155
 7399TIP3    H143612   4.623   1.968  15.205  0.9836  1.1304  0.4558
 7399TIP3    H243613   4.759   1.936  15.266  0.1318 -0.8240  1.4347
 7400TIP3   OH243614   4.544   3.448  12.216 -0.4325  0.4868  0.3772
 7400TIP3    H143615   4.518   3.539  12.229 -0.5851  0.4705  0.1833
 7400TIP3    H243616   4.620   3.436  12.274  0.5210  1.1620 -0.6937
 7401TIP3   OH243617   3.974   0.532  15.275  0.1347  0.2630  0.3691
 7401TIP3    H143618   4.065   0.536  15.245  0.3937  2.4088  1.2459
 7401TIP3    H243619   3.961   0.441  15.301  1.5064 -0.4529 -1.2895
 7402TIP3   OH243620   3.042   6.303  13.960 -0.1565  0.3905 -0.6590
 7402TIP3    H143621   3.119   6.272  13.912  0.3810  0.5099  0.1117
 7402TIP3    H243622   3.029   6.393  13.928 -0.8912 -0.1261 -1.8862
 7403TIP3   OH243623   2.421   0.824  15.290  0.3648 -0.0547  0.4329
 7403TIP3    H143624   2.345   0.881  15.277  1.0020  1.1521  1.7162
 7403TIP3    H243625   2.402   0.777  15.371 -0.0392 -1.5342 -0.4851
 7404TIP3   OH243626   6.335   1.915   2.328 -0.2592  0.7569  0.0406
 7404TIP3    H143627   6.348   1.967   2.408  1.0032  0.5508  0.0007
 7404TIP3    H243628   6.282   1.841   2.356 -0.0679  0.8307  0.6295
 7405TIP3   OH243629   1.248   3.935   4.882 -0.2701  0.1651 -0.3112
 7405TIP3    H143630   1.269   3.859   4.935  0.3383  0.1998 -0.4890
 7405TIP3    H243631   1.182   3.905   4.820  0.6466 -0.4796 -1.0006
 7406TIP3   OH243632   2.520   2.418  12.600  0.0991  0.3999  0.1002
 7406TIP3    H143633   2.530   2.403  12.694 -2.8338  0.6067  0.5542
 7406TIP3    H243634   2.513   2.331  12.562 -0.7897  0.3258  0.4074
 7407TIP3   OH243635   0.512   0.243  11.327 -0.2795 -0.9168 -0.0035
 7407TIP3    H143636   0.437   0.213  11.378  0.1624 -0.2245  1.1046
 7407TIP3    H243637   0.506   0.339  11.330 -0.4049 -0.8594 -1.5262
 7408TIP3   OH243638   2.372   2.445  13.697 -0.0929 -0.2641 -0.6901
 7408TIP3    H143639   2.353   2.366  13.747 -2.7503 -0.9809 -2.5867
 7408TIP3    H243640   2.387   2.414  13.608  1.1241  1.2086 -1.0334
 7409TIP3   OH243641   0.447   2.290   2.941  0.5880 -0.2991  0.4041
 7409TIP3    H143642   0.410   2.248   3.019 -1.0991 -0.8055 -0.5985
 7409TIP3    H243643   0.395   2.254   2.869 -0.9792  3.4487 -0.5699
 7410TIP3   OH243644   3.859   1.272  12.856  0.3113  0.2458 -0.0144
 7410TIP3    H143645   3.951   1.281  12.831  0.2455 -2.3700 -1.6826
 7410TIP3    H243646   3.856   1.189  12.903 -1.3435 -0.3596 -1.1048
 7411TIP3   OH243647   5.165   6.346   5.252 -0.1446  0.1415  0.0123
 7411TIP3    H143648   5.130   6.321   5.167  0.8828  1.0512 -0.6989
 7411TIP3    H243649   5.219   6.424   5.235  2.7046 -1.4825  0.9190
 7412TIP3   OH243650   5.089   5.880  16.084 -0.4157 -0.0583  0.5936
 7412TIP3    H143651   5.016   5.912  16.137 -1.0437 -0.0372 -0.2664
 7412TIP3    H243652   5.165   5.925  16.119 -0.3802 -1.8300  3.0903
 7413TIP3   OH243653   0.056   6.345   4.845 -0.1598  0.1834 -0.3321
 7413TIP3    H143654  -0.036   6.329   4.823  0.0399  0.5716 -1.5298
 7413TIP3    H243655   0.105   6.300   4.777  0.5469  0.1286  0.1991
 7414TIP3   OH243656   4.137   3.569  13.141 -0.4332  0.2676  0.4005
 7414TIP3    H143657   4.139   3.552  13.235 -0.4458 -0.0293  0.3498
 7414TIP3    H243658   4.165   3.487  13.101  0.5632  0.7125  0.1703
 7415TIP3   OH243659   4.165   0.334  11.598 -0.3906 -0.5612 -0.1501
 7415TIP3    H143660   4.132   0.317  11.686  0.6162 -2.4247 -0.0769
 7415TIP3    H243661   4.126   0.266  11.544  1.0211 -1.0564 -0.5966
 7416TIP3   OH243662   3.780   3.481  12.340  0.0319 -0.0267 -0.0908
 7416TIP3    H143663   3.712   3.416  12.360 -0.8914  0.6766 -0.8527
 7416TIP3    H243664   3.739   3.565  12.362 -0.4430  0.6711 -3.2075
 7417TIP3   OH243665   0.095   6.449   2.188  0.2596 -0.0158 -0.5239
 7417TIP3    H143666   0.044   6.475   2.265 -0.4694  1.9502 -1.5938
 7417TIP3    H243667   0.051   6.371   2.155  0.2579 -0.5629  0.7035
 7418TIP3   OH243668   3.048   1.081   3.445  0.2774 -0.0480  0.0372
 7418TIP3    H143669   3.005   1.134   3.512  1.8015  1.2158  0.0662
 7418TIP3    H243670   3.046   0.992   3.480 -0.9006  0.2273  0.7245
 7419TIP3   OH243671   6.672   4.111  13.682 -0.3001 -0.0722 -0.4960
 7419TIP3    H143672   6.629   4.196  13.681 -1.7410 -0.7713 -2.2022
 7419TIP3    H243673   6.607   4.051  13.718  0.2494 -0.6745 -0.4759
 7420TIP3   OH243674   1.322   4.912   5.036 -0.5951 -0.0716 -0.1211
 7420TIP3    H143675   1.292   4.821   5.042  0.3826 -0.3542  0.6381
 7420TIP3    H243676   1.250   4.957   4.992 -2.1526 -0.7349  1.6168
 7421TIP3   OH243677   4.293   6.273   5.480 -0.6452 -0.0776  0.1103
 7421TIP3    H143678   4.208   6.314   5.496 -0.5429  0.5357 -0.8086
 7421TIP3    H243679   4.352   6.346   5.462  0.1151 -0.4896  0.8800
 7422TIP3   OH243680   4.290   4.775   2.618  0.3120  0.1432  0.4782
 7422TIP3    H143681   4.361   4.833   2.644  0.0366  0.4012  0.6730
 7422TIP3    H243682   4.237   4.827   2.558 -0.8852  0.7244  1.9589
 7423TIP3   OH243683   6.326   1.882   1.290 -0.0767  0.0563  0.6448
 7423TIP3    H143684   6.413   1.860   1.322 -0.3711  0.0461  1.4564
 7423TIP3    H243685   6.327   1.977   1.281  0.2034  0.0069  0.0714
 7424TIP3   OH243686   1.560   3.781  13.846 -0.5573  0.6694  0.2879
 7424TIP3    H143687   1.613   3.828  13.781 -1.8090  2.3027  0.3951
 7424TIP3    H243688   1.621   3.719  13.886  0.2840 -0.3153 -2.3351
 7425TIP3   OH243689   1.522   1.027  16.644 -0.1917  0.0753  0.2047
 7425TIP3    H143690   1.502   0.933  16.653  0.3431 -0.0069  0.5733
 7425TIP3    H243691   1.463   1.069  16.707 -0.8598  0.0478 -0.3874
 7426TIP3   OH243692   2.599   6.437   4.520  0.6186 -0.1077 -0.1447
 7426TIP3    H143693   2.671   6.464   4.578 -0.8885  2.2437  0.7964
 7426TIP3    H243694   2.535   6.507   4.528 -1.4102 -1.6736 -1.6587
 7427TIP3   OH243695   5.309   2.163  14.230  0.4996  0.0759  0.1192
 7427TIP3    H143696   5.320   2.185  14.322  1.1113 -1.9204  0.5781
 7427TIP3    H243697   5.312   2.247  14.184  1.9810  0.9627  1.7386
 7428TIP3   OH243698   2.373   2.947   2.135  0.2346 -0.2111 -0.1515
 7428TIP3    H143699   2.412   2.902   2.210 -0.0203 -1.4382 -0.7238
 7428TIP3    H243700   2.289   2.979   2.167 -0.4647 -1.8641 -0.2300
 7429TIP3   OH243701   5.212   3.269   5.349 -0.1339  0.2056  0.1167
 7429TIP3    H143702   5.119   3.287   5.335 -0.2588 -0.9923 -0.7535
 7429TIP3    H243703   5.245   3.347   5.393 -1.4304  0.8796 -0.0563
 7430TIP3   OH243704   1.599   4.529  11.116  0.2703 -0.5635  0.6105
 7430TIP3    H143705   1.546   4.452  11.095  1.2152 -0.8421 -0.9618
 7430TIP3    H243706   1.587   4.587  11.042  0.8586  0.0828  1.0110
 7431TIP3   OH243707   2.103   1.410  11.126  0.4006  0.1799  0.6476
 7431TIP3    H143708   2.178   1.371  11.172  0.1281 -0.7555  0.3156
 7431TIP3    H243709   2.027   1.378  11.175  0.1831  0.4737  0.4979
 7432TIP3   OH243710   2.510   0.846   2.888  0.4437  0.1982 -0.1008
 7432TIP3    H143711   2.478   0.936   2.882  2.2211  0.8287 -0.4862
 7432TIP3    H243712   2.605   0.853   2.878  0.7254 -1.6209  0.8576
 7433TIP3   OH243713   2.368   3.917   4.968 -0.7571 -0.1290 -0.5359
 7433TIP3    H143714   2.463   3.925   4.964 -0.5884 -2.0075 -1.6906
 7433TIP3    H243715   2.342   3.896   4.878 -2.1550 -0.5856 -0.0621
 7434TIP3   OH243716   6.257   5.403   4.463  0.1236 -0.0576 -0.1514
 7434TIP3    H143717   6.288   5.314   4.473  1.1277  0.1778 -1.0807
 7434TIP3    H243718   6.175   5.395   4.415  1.7378 -0.3279 -3.0564
 7435TIP3   OH243719   1.001   2.015  11.958 -0.7725 -0.6548 -0.2287
 7435TIP3    H143720   0.968   2.087  12.012  0.4493 -0.8110  0.7816
 7435TIP3    H243721   1.010   1.942  12.020  3.1923 -0.1212  0.0726
 7436TIP3   OH243722   1.355   6.077  16.457  0.5194 -0.4095  0.2464
 7436TIP3    H143723   1.289   6.043  16.396  0.4812 -1.1853  0.7048
 7436TIP3    H243724   1.316   6.065  16.543  0.5135  0.8168  0.4286
 7437TIP3   OH243725   2.614   2.004  10.638  0.4271 -0.3641  0.1643
 7437TIP3    H143726   2.606   2.066  10.566  0.4732 -0.3004  0.2140
 7437TIP3    H243727   2.649   2.056  10.710 -2.0450  0.2133  1.0508
 7438TIP3   OH243728   1.667   2.043   2.217  0.0450 -0.1923 -0.3709
 7438TIP3    H143729   1.601   2.110   2.199  1.5118  2.2523  2.3394
 7438TIP3    H243730   1.746   2.074   2.173  0.4419 -0.7938 -0.1025
 7439TIP3   OH243731   2.904   0.737  10.484 -0.0317  0.0943 -0.5247
 7439TIP3    H143732   2.971   0.805  10.470 -0.5904  1.0516  1.1676
 7439TIP3    H243733   2.824   0.775  10.448  0.1326 -0.7153 -1.8029
 7440TIP3   OH243734   1.551   4.933  12.668 -0.0086 -0.2416 -0.5460
 7440TIP3    H143735   1.476   4.988  12.689 -1.1877 -1.4283 -1.5295
 7440TIP3    H243736   1.593   4.978  12.594  0.3162  0.4562  0.0464
 7441TIP3   OH243737   4.438   5.022  10.826 -0.3339  0.2225 -0.5897
 7441TIP3    H143738   4.385   5.085  10.777  1.3870  0.5642 -2.1547
 7441TIP3    H243739   4.525   5.061  10.827  0.6766 -1.8950 -1.1910
 7442TIP3   OH243740   4.976   3.237  12.484 -0.0804  0.3787  1.0195
 7442TIP3    H143741   5.011   3.320  12.515 -0.8071  1.4128 -0.7646
 7442TIP3    H243742   4.993   3.175  12.555  2.2734  1.5739  1.5785
 7443TIP3   OH243743   2.003   0.834  14.671  0.0854 -0.0664 -0.1737
 7443TIP3    H143744   2.006   0.895  14.597  1.0411 -1.1765 -1.0922
 7443TIP3    H243745   2.091   0.839  14.709 -0.0298 -0.4141  0.1412
 7444TIP3   OH243746   0.387   1.328  10.756 -0.3499 -0.3965  0.4874
 7444TIP3    H143747   0.329   1.401  10.778  1.4003  1.1172  0.3221
 7444TIP3    H243748   0.471   1.351  10.795  0.4575 -1.9693 -0.2181
 7445TIP3   OH243749   5.209   0.153   0.011 -0.0767  0.4407  0.1197
 7445TIP3    H143750   5.160   0.118   0.086 -1.4987  1.2633 -0.3709
 7445TIP3    H243751   5.223   0.246   0.032  0.7423  0.3595 -0.0310
 7446TIP3   OH243752   6.435   3.702  14.769  0.1641 -0.0881  0.4036
 7446TIP3    H143753   6.468   3.788  14.743  0.0901  0.1013  0.9011
 7446TIP3    H243754   6.442   3.703  14.865  2.0540 -1.4147  0.3236
 7447TIP3   OH243755   5.916   2.111  12.099 -0.1410 -0.0296 -0.2592
 7447TIP3    H143756   5.956   2.162  12.170 -0.4375 -0.1721  0.0095
 7447TIP3    H243757   5.828   2.147  12.091 -1.1020 -1.8706  1.3448
 7448TIP3   OH243758   0.841   6.584  10.415 -0.4275 -0.1132 -0.6072
 7448TIP3    H143759   0.808   6.578  10.325  0.7040 -0.8642 -0.9863
 7448TIP3    H243760   0.824   6.675  10.440 -1.8500 -0.2009 -1.1264
 7449TIP3   OH243761   6.573   6.325  15.848  0.2377  0.6367  0.1301
 7449TIP3    H143762   6.573   6.319  15.943 -1.7916 -0.7656  0.0953
 7449TIP3    H243763   6.643   6.387  15.828  2.9681 -1.5185  2.3294
 7450TIP3   OH243764   0.084   2.086  13.216  0.2518  0.2494  0.2539
 7450TIP3    H143765   0.077   1.993  13.194 -0.3207  0.1410  0.8706
 7450TIP3    H243766   0.172   2.096  13.253  0.0161 -0.2159  0.9550
 7451TIP3   OH243767   3.701   3.580  15.993  0.1610  0.1010 -0.9268
 7451TIP3    H143768   3.637   3.517  16.026  0.5431 -0.2653 -0.8777
 7451TIP3    H243769   3.694   3.654  16.053  0.3314 -0.2576 -0.4575
 7452TIP3   OH243770   6.274   2.426   2.172  0.3232  0.3033  0.5767
 7452TIP3    H143771   6.338   2.483   2.130  0.0423  0.4314  0.3168
 7452TIP3    H243772   6.322   2.345   2.190  0.3018  0.0385 -0.5091
 7453TIP3   OH243773   1.266   5.320   2.192 -0.3299 -0.6085 -0.5566
 7453TIP3    H143774   1.281   5.274   2.109 -0.2649 -1.6534  0.0139
 7453TIP3    H243775   1.226   5.403   2.167 -0.9398 -1.1959 -1.5917
 7454TIP3   OH243776   2.551   3.498  10.823 -0.5188 -0.3798  0.2250
 7454TIP3    H143777   2.493   3.446  10.767 -1.5858  1.7528 -0.7725
 7454TIP3    H243778   2.632   3.448  10.826  0.0108 -0.2124 -4.1690
 7455TIP3   OH243779   1.187   3.602   1.645  0.4282 -0.1801 -0.1174
 7455TIP3    H143780   1.242   3.563   1.712 -0.8619 -0.9917  0.5037
 7455TIP3    H243781   1.162   3.528   1.589 -0.6410  0.0462  0.0569
 7456TIP3   OH243782   1.845   5.821   4.146 -0.0109  0.0162 -0.3334
 7456TIP3    H143783   1.828   5.728   4.164  1.0143 -0.0744  0.1921
 7456TIP3    H243784   1.880   5.822   4.057 -2.6235  0.2086 -1.4622
 7457TIP3   OH243785   4.049   3.261  13.798  0.5488 -0.1224  0.1470
 7457TIP3    H143786   4.017   3.310  13.874  1.5108  0.4279  0.2137
 7457TIP3    H243787   3.979   3.267  13.734  0.2972  0.5974  0.4856
 7458TIP3   OH243788   6.530   3.225  13.401  0.1272 -0.7013 -0.2280
 7458TIP3    H143789   6.449   3.197  13.444  1.6946  0.8255  4.2936
 7458TIP3    H243790   6.511   3.314  13.371  0.0905 -0.3286  0.8598
 7459TIP3   OH243791   4.242   1.599   5.124 -0.6274 -0.2973  0.0558
 7459TIP3    H143792   4.335   1.616   5.108 -0.6260 -1.0150 -0.7856
 7459TIP3    H243793   4.206   1.683   5.152  0.4038 -0.1584  1.0323
 7460TIP3   OH243794   3.145   0.865  10.327 -0.0526 -0.3747 -0.2218
 7460TIP3    H143795   3.186   0.951  10.331  0.5109 -0.5912 -1.0642
 7460TIP3    H243796   3.210   0.805  10.362 -0.4980 -0.4472  0.4930
 7461TIP3   OH243797   0.870   0.215   1.644  0.0909  0.2342 -0.8096
 7461TIP3    H143798   0.857   0.183   1.734 -0.0209  0.5601 -0.7092
 7461TIP3    H243799   0.933   0.154   1.606 -0.6691 -0.5507 -0.8578
 7462TIP3   OH243800   2.390   2.352   2.147 -0.4078 -0.0057 -0.4701
 7462TIP3    H143801   2.397   2.404   2.067 -2.4174 -0.2159 -0.8270
 7462TIP3    H243802   2.433   2.269   2.126  0.1573  0.3929 -0.9078
 7463TIP3   OH243803   4.008   4.478  14.065  0.2966 -0.1927 -0.1745
 7463TIP3    H143804   4.037   4.433  13.986 -1.5639 -3.6145  0.8430
 7463TIP3    H243805   3.912   4.476  14.060  0.1399  1.0636  1.3644
 7464TIP3   OH243806   5.954   1.873   2.453  0.5738  0.4236  0.1308
 7464TIP3    H143807   5.893   1.879   2.526  0.5218  0.2662  0.1000
 7464TIP3    H243808   6.038   1.852   2.493  0.6537  0.8411  0.1928
 7465TIP3   OH243809   5.621   6.450   1.021 -0.5900  0.2388 -0.2185
 7465TIP3    H143810   5.598   6.360   0.998 -0.9416  0.5869 -1.3301
 7465TIP3    H243811   5.589   6.461   1.110  0.6398 -1.1276  0.4315
 7466TIP3   OH243812   1.837   0.355  16.803  0.3368 -0.4882 -0.5838
 7466TIP3    H143813   1.875   0.365  16.716  1.5845  1.2325  0.1211
 7466TIP3    H243814   1.905   0.311  16.854  0.4931  0.4848  0.0747
 7467TIP3   OH243815   5.553   5.121  13.967  0.1045  0.3657 -0.1254
 7467TIP3    H143816   5.597   5.119  14.053 -0.3399 -0.0568  0.0963
 7467TIP3    H243817   5.520   5.211  13.959 -1.1422  0.0184  0.8135
 7468TIP3   OH243818   3.502   6.380  13.066  0.1221 -0.0697  0.0126
 7468TIP3    H143819   3.589   6.420  13.058 -0.7088  1.8648 -0.0709
 7468TIP3    H243820   3.504   6.305  13.008  1.3884  0.6291 -0.8931
 7469TIP3   OH243821   3.747   2.295  12.254 -0.0344  0.1679  0.1091
 7469TIP3    H143822   3.687   2.369  12.264  0.4393  0.4276  1.1078
 7469TIP3    H243823   3.772   2.297  12.162  0.3471  1.5567  0.2265
 7470TIP3   OH243824   3.566   1.788  13.619 -0.3353 -0.3576 -0.2182
 7470TIP3    H143825   3.583   1.846  13.693 -3.3836 -2.1043  2.0876
 7470TIP3    H243826   3.617   1.709  13.637 -0.3996 -0.4581 -0.4615
 7471TIP3   OH243827   4.383   4.545  14.999  0.0483 -0.0503 -0.0497
 7471TIP3    H143828   4.393   4.494  14.919 -0.7488 -0.2171 -0.0509
 7471TIP3    H243829   4.437   4.498  15.064  1.7671  0.8231 -0.7873
 7472TIP3   OH243830   3.968   0.749   1.620  0.1817  0.2679 -0.2146
 7472TIP3    H143831   3.984   0.680   1.556  2.5185 -0.2259  0.7954
 7472TIP3    H243832   4.031   0.817   1.599 -0.2211  0.8812  0.4882
 7473TIP3   OH243833   3.299   0.966   3.896  0.3299 -0.6124  0.3389
 7473TIP3    H143834   3.371   0.915   3.860  1.1513 -0.2146  1.3857
 7473TIP3    H243835   3.224   0.943   3.841  1.2711 -0.9253 -0.8563
 7474TIP3   OH243836   3.433   2.780   2.174  0.2115  0.3777  0.0377
 7474TIP3    H143837   3.468   2.754   2.259 -1.0420  0.3548  0.5577
 7474TIP3    H243838   3.498   2.747   2.111 -1.2483 -4.3324  0.5707
 7475TIP3   OH243839   5.919   5.701  11.702 -0.0985 -0.4851 -0.2855
 7475TIP3    H143840   6.003   5.664  11.727  0.0130  0.3445  0.6332
 7475TIP3    H243841   5.925   5.793  11.727 -1.1502 -0.3355 -0.5297
 7476TIP3   OH243842   4.612   2.092   4.748  0.1898  0.0232  0.0718
 7476TIP3    H143843   4.586   2.150   4.677 -1.0282  0.1782  0.6329
 7476TIP3    H243844   4.645   2.013   4.703 -3.1037 -1.0310 -0.7487
 7477TIP3   OH243845   5.555   2.090  12.292  0.2434  0.4803  0.2454
 7477TIP3    H143846   5.465   2.114  12.311  0.1349  1.5808 -1.4452
 7477TIP3    H243847   5.571   2.012  12.344 -3.1681 -2.5229 -2.6930
 7478TIP3   OH243848   5.167   2.126  16.653  0.0668  0.1585 -0.5997
 7478TIP3    H143849   5.222   2.052  16.678 -1.2489 -0.7531 -0.3175
 7478TIP3    H243850   5.114   2.094  16.580  0.3992  1.2494 -1.3405
 7479TIP3   OH243851   5.675   2.028   6.247  0.4646  0.1474  0.0363
 7479TIP3    H143852   5.660   2.121   6.231 -4.3402 -0.1723  1.1816
 7479TIP3    H243853   5.731   2.026   6.325  2.1722  1.9204 -1.0541
 7480TIP3   OH243854   1.833   0.825  13.031  0.2681  0.9111 -0.1235
 7480TIP3    H143855   1.820   0.747  13.085  1.2900  1.0530  0.3488
 7480TIP3    H243856   1.783   0.894  13.075 -0.7522  0.5037 -0.6188
 7481TIP3   OH243857   4.329   4.053   6.317  0.2467  0.1600 -0.5914
 7481TIP3    H143858   4.300   4.014   6.234 -0.1871 -0.7147 -0.0441
 7481TIP3    H243859   4.314   4.147   6.307  0.7878  0.1397 -1.7374
 7482TIP3   OH243860   2.751   0.487  11.141  0.5859  0.4521 -0.0692
 7482TIP3    H143861   2.820   0.473  11.076  1.1386 -2.7214  1.0244
 7482TIP3    H243862   2.671   0.461  11.097  0.7540 -0.2934  0.0610
 7483TIP3   OH243863   4.173   0.501  13.571  0.3476 -0.1596  0.3657
 7483TIP3    H143864   4.098   0.556  13.547  0.4799  0.1773  0.7103
 7483TIP3    H243865   4.226   0.497  13.491  0.2158  0.0165  0.2683
 7484TIP3   OH243866   1.743   1.472  16.264  0.5456 -0.2983 -0.0173
 7484TIP3    H143867   1.809   1.523  16.311 -1.4797  2.9541 -0.3598
 7484TIP3    H243868   1.692   1.430  16.333 -0.5872  2.0618  0.7160
 7485TIP3   OH243869   4.189   0.682  12.080 -0.0432  0.4722 -0.0065
 7485TIP3    H143870   4.165   0.625  12.007 -1.6835 -0.5687  1.2599
 7485TIP3    H243871   4.199   0.622  12.154  0.7156  1.5874  0.8260
 7486TIP3   OH243872   1.696   0.375  15.737  0.0605  0.3543  0.2841
 7486TIP3    H143873   1.758   0.448  15.738  0.9679 -0.3160 -1.8751
 7486TIP3    H243874   1.703   0.336  15.824  1.0017  1.6421  0.8117
 7487TIP3   OH243875   5.133   4.953  14.481  0.5118 -0.2003  0.1037
 7487TIP3    H143876   5.112   4.974  14.390  0.9243  0.9682  0.2492
 7487TIP3    H243877   5.221   4.989  14.494  0.5709 -0.6051  0.8810
 7488TIP3   OH243878   6.086   4.959   2.589  0.3271  0.1839 -0.1193
 7488TIP3    H143879   6.095   5.016   2.512  2.2639 -1.4248 -1.1767
 7488TIP3    H243880   6.172   4.917   2.598 -0.4764 -1.2076  1.7080
 7489TIP3   OH243881   3.912   4.929  12.710  0.4490  1.0234 -0.1616
 7489TIP3    H143882   3.995   4.931  12.759  0.6779  1.2340 -0.5573
 7489TIP3    H243883   3.912   4.844  12.667  0.9030  1.4008 -0.9204
 7490TIP3   OH243884   2.776   0.235   1.635  0.7782  0.3109  0.1371
 7490TIP3    H143885   2.715   0.193   1.574  0.9616  1.2898 -0.7317
 7490TIP3    H243886   2.860   0.234   1.590  1.3828 -0.8052  1.2277
 7491TIP3   OH243887   3.483   3.044   2.743 -0.0374  0.2448  0.0008
 7491TIP3    H143888   3.575   3.021   2.730 -0.3712 -0.5345 -1.0374
 7491TIP3    H243889   3.463   3.102   2.669 -0.1198  1.2545  0.7852
 7492TIP3   OH243890   5.290   6.109   5.649  1.0046  0.7605 -0.1145
 7492TIP3    H143891   5.284   6.169   5.723  1.4387  1.1235 -0.3664
 7492TIP3    H243892   5.264   6.024   5.684 -0.3096  1.2208  0.0804
 7493TIP3   OH243893   3.058   2.935   5.063  0.1226 -0.2845  0.2300
 7493TIP3    H143894   3.057   3.023   5.026 -1.4171 -0.5284 -0.3758
 7493TIP3    H243895   3.067   2.877   4.987 -0.3756 -0.6942  0.4751
 7494TIP3   OH243896   5.674   6.332   6.045 -0.2245 -0.4553  0.1656
 7494TIP3    H143897   5.702   6.418   6.074  1.6218 -0.9571  0.0329
 7494TIP3    H243898   5.675   6.278   6.124 -0.0638 -0.6588  0.0273
 7495TIP3   OH243899   6.348   1.809   3.669  0.5498 -0.7122 -0.4415
 7495TIP3    H143900   6.269   1.770   3.706  0.4810 -0.9941 -0.8945
 7495TIP3    H243901   6.322   1.900   3.650  0.9033 -0.2128  1.2400
 7496TIP3   OH243902   4.984   3.437  14.755  0.4997  0.1669  0.1808
 7496TIP3    H143903   4.950   3.512  14.804 -0.0186 -0.0021  0.0892
 7496TIP3    H243904   5.040   3.475  14.688 -0.3653  0.5302 -0.3560
 7497TIP3   OH243905   2.738   1.616   3.954  0.2273 -0.1390  0.0592
 7497TIP3    H143906   2.647   1.586   3.956 -0.1861  1.1015  0.4990
 7497TIP3    H243907   2.762   1.612   3.861 -0.8323  1.1102 -0.2942
 7498TIP3   OH243908   4.421   1.867   6.348 -0.2066  0.1427 -0.1966
 7498TIP3    H143909   4.456   1.896   6.264  1.3668  1.9293  0.9925
 7498TIP3    H243910   4.469   1.786   6.366  1.1560  0.9491 -0.0179
 7499TIP3   OH243911   0.249   0.406  14.843  0.8114 -0.2283  0.0960
 7499TIP3    H143912   0.329   0.354  14.842  0.2804 -1.0746 -1.4515
 7499TIP3    H243913   0.264   0.474  14.777  0.0788 -0.7075 -0.5874
 7500TIP3   OH243914   4.426   5.550   0.713  0.1550 -0.0752 -0.0887
 7500TIP3    H143915   4.476   5.612   0.660  0.9020 -0.6455 -0.0646
 7500TIP3    H243916   4.391   5.486   0.651 -1.1653  0.7076 -0.1958
 7501TIP3   OH243917   0.627   0.543   5.206  0.1131 -0.2144  0.4462
 7501TIP3    H143918   0.589   0.630   5.210 -0.3084 -0.2681 -1.4222
 7501TIP3    H243919   0.554   0.483   5.223 -0.1595 -0.2526 -0.7916
 7502TIP3   OH243920   2.313   6.236  15.890 -0.3589  0.4030 -0.3593
 7502TIP3    H143921   2.328   6.318  15.843 -1.2629 -0.4959 -2.3509
 7502TIP3    H243922   2.219   6.220  15.882 -0.6578  0.4155  2.2400
 7503TIP3   OH243923   6.678   0.394  11.298  0.2076  0.4791  0.3512
 7503TIP3    H143924   6.647   0.334  11.365  0.7184  1.8846  1.9286
 7503TIP3    H243925   6.765   0.362  11.276 -0.8964 -1.4539 -1.5615
 7504TIP3   OH243926   3.951   0.805  12.208  0.3514  0.0671 -0.0837
 7504TIP3    H143927   4.027   0.777  12.156 -0.4461 -1.1732 -0.6346
 7504TIP3    H243928   3.975   0.784  12.298  1.4419  1.5292  0.0069
 7505TIP3   OH243929   4.936   1.887   6.507  0.2141  0.2912  0.1007
 7505TIP3    H143930   4.888   1.814   6.546  1.2247 -0.3027  0.2908
 7505TIP3    H243931   4.934   1.955   6.574  2.6681 -1.0209  1.6872
 7506TIP3   OH243932   4.392   4.659   5.058 -0.8995 -0.1331 -0.5315
 7506TIP3    H143933   4.348   4.740   5.031 -1.0267 -0.4781 -1.3820
 7506TIP3    H243934   4.470   4.689   5.105 -0.0145  0.5252 -2.3165
 7507TIP3   OH243935   0.092   0.633   1.904  0.2523  0.6795 -0.1329
 7507TIP3    H143936   0.133   0.662   1.823 -0.1874 -1.0360 -1.0363
 7507TIP3    H243937  -0.002   0.640   1.887  0.1519 -0.1936  0.0082
 7508TIP3   OH243938   5.234   5.433  12.139 -0.1785  0.1316  0.1541
 7508TIP3    H143939   5.160   5.494  12.145  1.3716  2.0577  0.7670
 7508TIP3    H243940   5.286   5.450  12.218  1.1073 -0.9238 -0.4198
 7509TIP3   OH243941   5.008   6.030  15.842  0.7508 -0.3225 -0.4196
 7509TIP3    H143942   5.076   5.995  15.784 -1.1648 -3.0686 -1.2638
 7509TIP3    H243943   5.028   5.993  15.928  0.5716 -0.8114 -0.5836
 7510TIP3   OH243944   4.240   0.288  17.127  0.5528  0.3386 -0.5480
 7510TIP3    H143945   4.236   0.205  17.080 -1.2240 -1.0318  1.8073
 7510TIP3    H243946   4.233   0.355  17.059  0.9700 -1.4298 -2.4294
 7511TIP3   OH243947   2.879   6.190  14.340 -0.4571 -0.0466  0.0674
 7511TIP3    H143948   2.894   6.159  14.429 -0.1576 -0.8864 -0.2646
 7511TIP3    H243949   2.794   6.234  14.343 -0.9097 -0.9267  0.5552
 7512TIP3   OH243950   2.722   2.277   1.129 -0.4563  0.6623  0.1206
 7512TIP3    H143951   2.635   2.294   1.165 -0.5586  1.5773 -0.5241
 7512TIP3    H243952   2.713   2.293   1.035  0.5247  1.2717  0.1173
 7513TIP3   OH243953   5.061   4.321   1.388  0.5225  0.7641 -0.3311
 7513TIP3    H143954   5.130   4.342   1.451  1.6662 -2.1327 -0.4672
 7513TIP3    H243955   5.020   4.242   1.423 -0.1775  0.2655 -2.1773
 7514TIP3   OH243956   4.704   5.379   3.600  0.5912  0.2701 -0.5641
 7514TIP3    H143957   4.620   5.423   3.585  0.0658 -0.5182 -0.0173
 7514TIP3    H243958   4.754   5.395   3.520 -0.0339  0.8550 -0.8493
 7515TIP3   OH243959   1.843   0.489   0.761 -0.0192  0.1907 -0.3008
 7515TIP3    H143960   1.802   0.549   0.698  0.7258  0.2086 -0.7852
 7515TIP3    H243961   1.771   0.432   0.790 -0.4809  0.5196 -0.7722
 7516TIP3   OH243962   3.711   2.658  13.258 -0.0275 -0.3653  0.0571
 7516TIP3    H143963   3.710   2.744  13.215  0.5674 -0.5415 -0.3294
 7516TIP3    H243964   3.636   2.659  13.316  1.0331  1.1775  1.5060
 7517TIP3   OH243965   4.975   1.925  15.923 -0.3834 -0.1558 -0.4084
 7517TIP3    H143966   4.934   1.916  16.009 -0.7972  1.1782 -0.4362
 7517TIP3    H243967   5.048   1.986  15.938 -1.2171  1.0799 -1.2215
 7518TIP3   OH243968   0.860   3.004  16.970 -0.2283 -0.1741 -0.5156
 7518TIP3    H143969   0.894   3.074  17.026  2.4248 -0.2310 -1.8957
 7518TIP3    H243970   0.802   3.049  16.908  1.0774  0.7892 -1.0854
 7519TIP3   OH243971   1.644   0.328   0.826 -0.2440 -0.3794  0.3780
 7519TIP3    H143972   1.587   0.279   0.767  0.1745  1.3478 -1.5942
 7519TIP3    H243973   1.586   0.387   0.872 -0.2643  0.4929 -0.7079
 7520TIP3   OH243974   3.116   0.193   3.843  0.2645  0.2904  0.3623
 7520TIP3    H143975   3.137   0.119   3.900 -0.2028 -0.6233 -0.6059
 7520TIP3    H243976   3.103   0.154   3.756  2.6853  1.8230 -0.8084
 7521TIP3   OH243977   1.426   5.580   4.983 -0.1970 -0.1054 -0.1422
 7521TIP3    H143978   1.426   5.650   5.048  2.7550 -0.9176  0.8962
 7521TIP3    H243979   1.441   5.624   4.900  0.0612  0.6226  0.2850
 7522TIP3   OH243980   5.662   5.609   2.615 -0.4641 -0.7491  0.2063
 7522TIP3    H143981   5.676   5.617   2.709 -0.0929  0.3663  0.0740
 7522TIP3    H243982   5.645   5.516   2.601 -1.1712 -0.8293  1.4525
 7523TIP3   OH243983   5.726   1.519   2.246 -0.0034 -0.0540  0.5601
 7523TIP3    H143984   5.777   1.489   2.321  0.4866 -0.7243 -0.0290
 7523TIP3    H243985   5.644   1.470   2.251 -1.0830  1.7464  2.0795
 7524TIP3   OH243986   2.254   0.753  16.847  0.3013  0.2417  0.5075
 7524TIP3    H143987   2.341   0.760  16.886 -0.7757 -0.8648  3.4414
 7524TIP3    H243988   2.250   0.664  16.812  0.1502  0.0646  0.9681
 7525TIP3   OH243989   6.170   0.486  13.213 -0.0395 -0.2241 -0.0035
 7525TIP3    H143990   6.260   0.498  13.181 -0.9759  2.6065 -1.9543
 7525TIP3    H243991   6.180   0.435  13.293  3.3840  0.5481  0.2213
 7526TIP3   OH243992   4.388   4.123  13.632 -0.1330 -0.5690 -0.4106
 7526TIP3    H143993   4.398   4.158  13.543  1.1511  0.3511  0.0622
 7526TIP3    H243994   4.462   4.063  13.642  1.0114  0.9812  0.7652
 7527TIP3   OH243995   6.471   1.828  10.940 -0.0479  0.1684 -0.3738
 7527TIP3    H143996   6.542   1.830  10.875 -0.7507 -1.7002 -1.2685
 7527TIP3    H243997   6.516   1.816  11.024  0.7235 -2.3126 -1.0459
 7528TIP3   OH243998   2.539   5.340  17.157 -0.2735 -0.2031 -0.8591
 7528TIP3    H143999   2.571   5.320  17.069  1.2948  0.6026 -0.5078
 7528TIP3    H244000   2.550   5.434  17.166 -1.4312 -0.1202 -0.1720
 7529TIP3   OH244001   6.016   6.009  12.320 -0.3926  0.1048 -0.7215
 7529TIP3    H144002   6.003   6.082  12.381 -0.4727 -0.2737 -0.2790
 7529TIP3    H244003   6.110   5.994  12.320 -0.1914  1.1362 -1.9203
 7530TIP3   OH244004   2.396   0.553  15.747  0.2825  0.2390  0.1232
 7530TIP3    H144005   2.332   0.575  15.680 -0.6733  1.8414  1.4919
 7530TIP3    H244006   2.475   0.602  15.723 -0.2070  1.1840  0.3923
 7531TIP3   OH244007   1.718   0.293   1.262 -0.2857 -0.2534  0.0656
 7531TIP3    H144008   1.649   0.230   1.240  1.3374 -1.6251 -1.3393
 7531TIP3    H244009   1.746   0.328   1.177  0.5388  0.5368  0.6436
 7532TIP3   OH244010   4.504   5.359  11.529 -0.1332  0.3658 -0.1295
 7532TIP3    H144011   4.431   5.421  11.532  0.3190  0.8691  1.2615
 7532TIP3    H244012   4.463   5.273  11.537 -0.8745  0.3004 -3.1945
 7533TIP3   OH244013   2.847   2.855  16.559 -0.0530 -0.0957 -0.8849
 7533TIP3    H144014   2.797   2.884  16.483  1.0729 -1.8553 -2.3679
 7533TIP3    H244015   2.814   2.766  16.576  0.4008 -0.0886  0.0787
 7534TIP3   OH244016   1.153   5.886  15.859  0.3816 -1.1340  0.2953
 7534TIP3    H144017   1.220   5.839  15.809 -0.3505 -0.7800 -1.0733
 7534TIP3    H244018   1.106   5.937  15.793 -1.9563 -2.2175  1.0261
 7535TIP3   OH244019   3.208   1.542  13.575  0.1049  0.2195  0.3673
 7535TIP3    H144020   3.276   1.493  13.619  1.0530  1.5757  0.4719
 7535TIP3    H244021   3.190   1.492  13.495  0.5572 -0.6222  0.7821
 7536TIP3   OH244022   6.059   6.061   2.511 -0.1230  0.5461 -0.6135
 7536TIP3    H144023   6.014   5.977   2.520 -0.7338  0.8856 -0.5026
 7536TIP3    H244024   6.050   6.102   2.597  0.6040  0.5203 -0.5176
 7537TIP3   OH244025   3.340   2.791   3.238  0.1140 -0.2731 -0.1986
 7537TIP3    H144026   3.418   2.826   3.281 -0.1315 -1.6960  1.4683
 7537TIP3    H244027   3.300   2.868   3.197  0.7946  1.0214  1.4350
 7538TIP3   OH244028   3.382   5.058   0.714  0.0965  0.1441 -0.1729
 7538TIP3    H144029   3.363   5.072   0.807 -0.7188  0.3684 -0.3663
 7538TIP3    H244030   3.344   5.134   0.670 -0.1794 -0.3223 -0.7609
 7539TIP3   OH244031   3.458   5.241   4.695  0.6105  0.1764 -0.8189
 7539TIP3    H144032   3.405   5.268   4.620  2.5360  0.1714 -2.2551
 7539TIP3    H244033   3.481   5.150   4.677  0.6511  0.0056  0.0612
 7540TIP3   OH244034   3.907   2.347  13.480 -0.7223 -0.2366  0.2614
 7540TIP3    H144035   3.862   2.350  13.396 -1.4409  1.4352  0.6684
 7540TIP3    H244036   3.994   2.384  13.462 -0.1544 -1.6826 -0.1196
 7541TIP3   OH244037   0.975   6.450  14.746 -0.0225  0.0061  0.1365
 7541TIP3    H144038   0.926   6.374  14.777 -1.0466  1.4058  2.1864
 7541TIP3    H244039   1.019   6.483  14.824  1.2680  0.9007 -0.9418
 7542TIP3   OH244040   3.190   3.949  11.028 -0.1468 -0.0644 -0.3037
 7542TIP3    H144041   3.237   3.890  11.087 -1.9053 -0.8011  0.4366
 7542TIP3    H244042   3.137   3.891  10.973 -0.3673  0.7303 -0.9464
 7543TIP3   OH244043   1.433   5.176  16.083  0.5203 -0.1190 -0.2412
 7543TIP3    H144044   1.339   5.185  16.068  0.8458 -0.9577 -3.3632
 7543TIP3    H244045   1.446   5.083  16.103  0.6335  0.1591  1.0869
 7544TIP3   OH244046   5.335   3.154  13.902 -0.7272  0.4724 -0.4015
 7544TIP3    H144047   5.379   3.080  13.860  1.4884  0.9108  0.9792
 7544TIP3    H244048   5.361   3.230  13.850 -0.5256  0.6215 -0.0913
 7545TIP3   OH244049   1.484   2.315  16.211 -0.2079  0.2902 -0.4653
 7545TIP3    H144050   1.420   2.370  16.167  1.2860  1.3819 -1.3413
 7545TIP3    H244051   1.490   2.236  16.157 -1.9253 -0.5560  0.4815
 7546TIP3   OH244052   4.806   5.230   2.722  0.5680 -0.4188 -0.1830
 7546TIP3    H144053   4.753   5.224   2.643  1.0461 -0.0901 -0.5383
 7546TIP3    H244054   4.832   5.140   2.741 -1.8204 -0.8905  1.2057
 7547TIP3   OH244055   3.807   3.818  17.079 -0.1335  0.1393  0.4007
 7547TIP3    H144056   3.886   3.856  17.118 -1.1398  2.2469  0.5035
 7547TIP3    H244057   3.789   3.741  17.133  1.0774  0.3910  1.2133
 7548TIP3   OH244058   2.885   3.601   5.850  0.8900 -0.4723  0.2369
 7548TIP3    H144059   2.821   3.574   5.784 -0.0372  1.2802  0.3754
 7548TIP3    H244060   2.842   3.671   5.899  3.6382  2.4729 -1.1561
 7549TIP3   OH244061   4.579   2.715  14.733 -0.0067  0.0277  0.0721
 7549TIP3    H144062   4.661   2.678  14.701  0.6706  1.0707  0.5451
 7549TIP3    H244063   4.564   2.792  14.679 -2.1532 -1.5867 -1.8664
 7550TIP3   OH244064   5.416   0.608  15.054  0.1975 -0.0697  0.0945
 7550TIP3    H144065   5.500   0.626  15.095  1.4167 -3.3235 -0.6693
 7550TIP3    H244066   5.420   0.655  14.970  0.3688  1.3819  0.8825
 7551TIP3   OH244067   3.988   0.536   1.470 -0.0053  0.6674  0.3193
 7551TIP3    H144068   4.043   0.495   1.403  0.3786 -0.0089  1.0330
 7551TIP3    H244069   3.900   0.535   1.433  0.2689  0.6784 -0.3421
 7552TIP3   OH244070   4.630   4.560   1.420 -0.0521  0.0647  0.5997
 7552TIP3    H144071   4.661   4.646   1.394  0.9063 -0.1027  1.1398
 7552TIP3    H244072   4.703   4.521   1.467 -0.9632 -0.4803  1.6307
 7553TIP3   OH244073   1.458   4.511   4.114 -0.0862 -0.1227  0.0429
 7553TIP3    H144074   1.469   4.466   4.197  0.2504 -0.1017  0.0106
 7553TIP3    H244075   1.423   4.597   4.138  0.5587  0.0990  0.2133
 7554TIP3   OH244076   2.464   0.205   0.959 -0.3600 -0.1448  0.0833
 7554TIP3    H144077   2.401   0.139   0.932  1.5602 -1.4153 -1.5810
 7554TIP3    H244078   2.544   0.156   0.977  1.4892  1.7338 -2.3173
 7555TIP3   OH244079   2.529   0.808   0.519  0.2991  0.1449  0.2779
 7555TIP3    H144080   2.593   0.821   0.449  0.7475 -0.8968  0.4823
 7555TIP3    H244081   2.483   0.728   0.494  1.0793 -0.7527  1.6238
 7556TIP3   OH244082   1.921   5.814   3.200  0.0653 -0.1534  0.2156
 7556TIP3    H144083   1.881   5.878   3.259 -1.7135  0.5653 -1.6658
 7556TIP3    H244084   1.899   5.729   3.237 -1.7876  0.2672  0.1532
 7557TIP3   OH244085   1.175   0.979   3.178 -0.7046 -0.8418  0.7282
 7557TIP3    H144086   1.259   0.980   3.224 -1.5145 -0.7351  2.2706
 7557TIP3    H244087   1.191   1.028   3.098  0.1475  1.1858  2.0546
 7558TIP3   OH244088   0.862   2.316   0.850  0.1286  0.2886  0.6227
 7558TIP3    H144089   0.825   2.404   0.842 -0.3398 -0.0706 -2.4136
 7558TIP3    H244090   0.809   2.274   0.918 -2.0144  1.2825 -0.3185
 7559TIP3   OH244091   4.602   0.324   1.051  0.2935 -0.4317  0.0434
 7559TIP3    H144092   4.550   0.267   1.109  0.0836  1.1019  1.4354
 7559TIP3    H244093   4.538   0.382   1.010  0.7909  1.1413  1.3881
 7560TIP3   OH244094   2.077   5.564   0.292 -0.2435 -0.3641  0.2052
 7560TIP3    H144095   2.164   5.536   0.319 -0.7065 -0.0524  2.1769
 7560TIP3    H244096   2.071   5.538   0.200  0.2303 -4.6789  1.1666
 7561TIP3   OH244097   5.021   1.332   4.390 -0.2901  0.4436 -0.2663
 7561TIP3    H144098   5.082   1.280   4.338  0.3025  0.1119  0.7250
 7561TIP3    H244099   4.934   1.307   4.359  0.0386 -0.0194 -0.8286
 7562TIP3   OH244100   0.366   3.719  16.743 -0.2338  0.1717  0.0245
 7562TIP3    H144101   0.375   3.739  16.836  1.0513  1.6023 -0.3561
 7562TIP3    H244102   0.330   3.800  16.705  0.8604  0.2265 -0.9501
 7563TIP3   OH244103   5.539   0.869  11.442  0.3336  0.0332  0.1996
 7563TIP3    H144104   5.472   0.930  11.474 -0.4766 -0.4085 -0.6289
 7563TIP3    H244105   5.592   0.920  11.381 -0.2765 -0.0596 -0.4099
 7564TIP3   OH244106   0.711   2.828   3.616  0.4005  0.4467  0.1802
 7564TIP3    H144107   0.790   2.863   3.657 -1.0426  1.7127  2.0791
 7564TIP3    H244108   0.708   2.736   3.643  1.3514  0.2918 -0.1864
 7565TIP3   OH244109   4.826   3.644  15.364 -0.2150  0.6695  0.1125
 7565TIP3    H144110   4.906   3.614  15.322 -0.5210 -1.8140  1.0975
 7565TIP3    H244111   4.856   3.699  15.437  1.0060 -2.9979  2.6917
 7566TIP3   OH244112   6.644   3.402   4.678  0.1293 -0.0250  0.5107
 7566TIP3    H144113   6.561   3.447   4.663  0.4519 -0.3804 -3.3585
 7566TIP3    H244114   6.620   3.311   4.695 -0.3051  0.0758  0.4422
 7567TIP3   OH244115   5.045   6.066   0.166  0.1905  0.2483 -0.1960
 7567TIP3    H144116   5.008   5.988   0.125  1.3771 -1.4582  1.7215
 7567TIP3    H244117   5.018   6.060   0.258  2.7817  0.3753  0.6742
 7568TIP3   OH244118   0.944   2.532   6.312 -0.0870  0.4533 -0.0695
 7568TIP3    H144119   1.013   2.504   6.251 -0.5921  1.1838 -0.9982
 7568TIP3    H244120   0.978   2.509   6.398 -0.0852 -2.2419 -0.6823
 7569TIP3   OH244121   2.777   4.256  12.183 -0.0651 -0.4707  0.7971
 7569TIP3    H144122   2.786   4.164  12.159  1.2171  0.0152 -0.7522
 7569TIP3    H244123   2.744   4.254  12.273  1.2898 -2.4767  1.3253
 7570TIP3   OH244124   1.498   2.206  10.950 -0.0689 -0.3818 -0.1323
 7570TIP3    H144125   1.430   2.219  10.884  1.1759  1.8859 -1.0968
 7570TIP3    H244126   1.451   2.209  11.034 -1.4268 -1.2970 -0.8283
 7571TIP3   OH244127   1.370   2.938   0.002 -0.2010  0.3120  0.1213
 7571TIP3    H144128   1.409   2.950  -0.084 -0.3363  2.2676  0.2986
 7571TIP3    H244129   1.426   2.872   0.044  0.3035 -0.1184 -1.1748
 7572TIP3   OH244130   3.554   4.059  16.602 -0.1944  0.5372 -0.0263
 7572TIP3    H144131   3.597   4.131  16.556 -0.8925  1.7256  1.1048
 7572TIP3    H244132   3.571   4.077  16.695 -1.0049 -0.3411  0.3058
 7573TIP3   OH244133   3.042   3.665   0.722 -0.3170 -0.3965 -0.0499
 7573TIP3    H144134   3.045   3.664   0.818 -0.9920 -0.0491 -0.0231
 7573TIP3    H244135   2.970   3.608   0.699 -0.7464  0.2400 -0.3150
 7574TIP3   OH244136   4.245   0.948  12.410  0.1991 -0.1133 -0.0706
 7574TIP3    H144137   4.195   0.866  12.409  0.6956 -0.4511  1.1076
 7574TIP3    H244138   4.336   0.921  12.398  0.4308  0.1955  0.8720
 7575TIP3   OH244139   0.494   4.041   1.182  0.2654  0.2882 -0.2727
 7575TIP3    H144140   0.549   4.081   1.114 -0.4961  0.3196 -0.8803
 7575TIP3    H244141   0.423   4.104   1.196  1.6067  1.4115  2.2323
 7576TIP3   OH244142   2.421   6.310  14.567 -0.2254  0.4937  0.3488
 7576TIP3    H144143   2.369   6.235  14.597  0.7274 -0.2987  0.0611
 7576TIP3    H244144   2.511   6.279  14.569  0.0724  1.1723 -1.1297
 7577TIP3   OH244145   5.775   4.460   5.891 -1.1106 -0.0251 -0.8330
 7577TIP3    H144146   5.729   4.489   5.970 -0.0578  0.8444 -0.5052
 7577TIP3    H244147   5.864   4.441   5.921 -1.1432 -1.3483 -1.5104
 7578TIP3   OH244148   3.386   6.384  10.970  0.4120 -0.0357 -0.5318
 7578TIP3    H144149   3.434   6.416  10.894 -1.0028  0.5212 -1.2081
 7578TIP3    H244150   3.363   6.293  10.948  1.4165 -0.4257 -0.0557
 7579TIP3   OH244151   6.382   3.290  14.586 -0.0383  0.0834  0.5346
 7579TIP3    H144152   6.413   3.271  14.675 -1.7929 -0.2783  1.1107
 7579TIP3    H244153   6.351   3.381  14.591 -1.2543 -0.3184  0.6535
 7580TIP3   OH244154   3.785   6.760   1.894  0.3417  0.1535 -0.3399
 7580TIP3    H144155   3.769   6.766   1.800  1.4784 -0.6819 -0.6068
 7580TIP3    H244156   3.856   6.822   1.911 -0.5688  1.0949  0.1782
 7581TIP3   OH244157   0.033   2.960   5.340 -0.4002  0.0030  0.4425
 7581TIP3    H144158  -0.062   2.954   5.332 -0.2967 -0.4597 -0.5704
 7581TIP3    H244159   0.055   3.044   5.301 -0.3189 -0.2538 -0.0696
 7582TIP3   OH244160   0.633   5.031   6.500 -0.8838 -0.1920 -0.1553
 7582TIP3    H144161   0.633   4.936   6.489 -0.6076 -0.6494  2.8595
 7582TIP3    H244162   0.543   5.057   6.484 -1.0056 -0.9902 -0.8345
 7583TIP3   OH244163   5.688   5.921  12.712  0.3513  0.0931 -1.5599
 7583TIP3    H144164   5.748   5.846  12.714  2.5341  1.7738 -1.0960
 7583TIP3    H244165   5.636   5.907  12.633  0.3730 -2.1316 -1.2486
 7584TIP3   OH244166   6.715   0.905  15.017 -0.5028  0.9674 -0.4300
 7584TIP3    H144167   6.753   0.936  14.934  1.4304 -0.6113 -0.2085
 7584TIP3    H244168   6.665   0.827  14.992  0.3149  0.3243 -0.1109
 7585TIP3   OH244169   2.465   5.605   6.353 -0.1662  0.0099 -0.0668
 7585TIP3    H144170   2.415   5.563   6.424  0.0700  1.9012  1.2861
 7585TIP3    H244171   2.399   5.638   6.293 -0.5363  1.3997  1.0697
 7586TIP3   OH244172   2.047   3.508   1.141 -0.3305 -0.2661  0.1977
 7586TIP3    H144173   2.105   3.465   1.078  0.2368 -1.2127  1.3316
 7586TIP3    H244174   2.036   3.596   1.106 -0.6156 -0.9715 -1.6024
 7587TIP3   OH244175   1.845   0.259   5.478  0.3242  0.0945  0.3208
 7587TIP3    H144176   1.806   0.321   5.540 -1.0313  1.0711 -1.4183
 7587TIP3    H244177   1.923   0.302   5.445  0.1482  0.2897  0.1544
 7588TIP3   OH244178   2.740   5.903   4.185 -0.5326  0.2170  0.2261
 7588TIP3    H144179   2.669   5.928   4.125  0.4072  0.0217 -1.0121
 7588TIP3    H244180   2.777   5.823   4.146  0.9800  0.8456  0.2873
 7589TIP3   OH244181   5.955   1.432  12.464  0.7283 -0.5231  0.9506
 7589TIP3    H144182   5.959   1.475  12.549  0.8364  0.9241  0.2522
 7589TIP3    H244183   6.010   1.486  12.407 -1.5611  0.2415 -0.7113
 7590TIP3   OH244184   5.428   4.074  10.793 -0.1988  0.1949 -0.4825
 7590TIP3    H144185   5.481   4.128  10.852 -1.3229 -0.5115  1.2393
 7590TIP3    H244186   5.337   4.099  10.813 -0.6533 -0.9438 -1.0443
 7591TIP3   OH244187   4.212   0.079  16.955 -0.1236 -0.0864  0.5880
 7591TIP3    H144188   4.204  -0.014  16.975 -0.6059 -0.6377 -1.8566
 7591TIP3    H244189   4.307   0.095  16.957 -0.0343 -0.6408  1.0081
 7592TIP3   OH244190   0.668   6.399  16.556 -0.0219  0.3450  0.0144
 7592TIP3    H144191   0.706   6.313  16.575  1.7278  0.6786 -1.6229
 7592TIP3    H244192   0.673   6.406  16.461 -1.3709  1.7405  0.0199
 7593TIP3   OH244193   1.336   6.675  11.052  0.1470  0.4693  0.2839
 7593TIP3    H144194   1.383   6.745  11.007 -0.9419  1.8274  1.1637
 7593TIP3    H244195   1.246   6.708  11.059 -0.9230 -1.8932 -1.0749
 7594TIP3   OH244196   5.443   0.946   5.860  0.1250  0.0602 -0.0750
 7594TIP3    H144197   5.351   0.931   5.880  0.1058  1.4649  1.0543
 7594TIP3    H244198   5.491   0.899   5.928  0.2454 -0.2852 -0.3923
 7595TIP3   OH244199   2.135   6.512   1.672  0.2229 -0.0240 -0.1150
 7595TIP3    H144200   2.097   6.469   1.595 -0.8306 -1.5638  1.1922
 7595TIP3    H244201   2.065   6.570   1.704 -0.0794 -0.8507  0.7655
 7596TIP3   OH244202   1.508   6.594  12.916 -0.0091 -0.1457 -0.3186
 7596TIP3    H144203   1.419   6.565  12.936  0.1581  0.1555  0.9145
 7596TIP3    H244204   1.498   6.651  12.839 -1.1748  1.5074  0.9775
 7597TIP3   OH244205   3.306   2.047  15.521  0.6148  0.1588  0.0964
 7597TIP3    H144206   3.389   2.022  15.479  0.8851  0.8653  0.2094
 7597TIP3    H244207   3.265   1.963  15.543  0.6721 -0.2233 -1.1817
 7598TIP3   OH244208   3.606   2.749  15.936 -0.2414  0.0667 -0.0996
 7598TIP3    H144209   3.573   2.838  15.955 -2.2629 -1.2092  3.3547
 7598TIP3    H244210   3.544   2.715  15.872  0.6322  1.1451 -1.5649
 7599TIP3   OH244211   4.408   4.358  12.963  0.7935 -0.5500  0.3830
 7599TIP3    H144212   4.487   4.339  12.912  0.6055 -0.2604 -0.0211
 7599TIP3    H244213   4.401   4.453  12.962 -0.9641 -0.6260 -1.7849
 7600TIP3   OH244214   2.560   4.908   2.380  0.4360 -0.1635  0.3943
 7600TIP3    H144215   2.566   4.830   2.435 -0.7716 -0.2450  0.4312
 7600TIP3    H244216   2.602   4.883   2.298  1.4520 -0.3278  0.9479
 7601TIP3   OH244217   2.705   4.183  12.708  0.1663  0.1364 -0.2773
 7601TIP3    H144218   2.630   4.229  12.747 -0.0937 -1.0950  0.7519
 7601TIP3    H244219   2.701   4.095  12.746  2.3488  0.1528  0.0948
 7602TIP3   OH244220   2.265   1.192  15.684  0.0384  0.2507  0.2376
 7602TIP3    H144221   2.297   1.102  15.696  0.1072  0.0015 -1.5021
 7602TIP3    H244222   2.337   1.247  15.714  0.3797 -0.2876  0.4197
 7603TIP3   OH244223   6.608   0.644  11.558 -0.3565 -0.0430  0.1257
 7603TIP3    H144224   6.577   0.642  11.468 -2.2867 -1.1148  0.7445
 7603TIP3    H244225   6.531   0.673  11.609  0.4374 -0.2477  1.4975
 7604TIP3   OH244226   3.185   1.226  10.972  0.2773 -0.4943 -0.0449
 7604TIP3    H144227   3.264   1.196  10.926  1.0778  0.5844  0.5882
 7604TIP3    H244228   3.166   1.312  10.934 -0.2839 -0.5182  0.1750
 7605TIP3   OH244229   4.826   1.835  14.545  0.1882 -0.3835 -0.0585
 7605TIP3    H144230   4.801   1.760  14.599 -2.3869 -0.4306 -1.1773
 7605TIP3    H244231   4.818   1.911  14.603  0.4427 -0.7175  0.4218
 7606TIP3   OH244232   5.292   1.452   3.398 -0.7250  0.4280  0.2175
 7606TIP3    H144233   5.250   1.430   3.482 -0.7755  1.1779  0.3979
 7606TIP3    H244234   5.376   1.407   3.401 -0.6237  0.6478  0.7836
 7607TIP3   OH244235   1.582   4.829   5.097  0.0320  0.4058 -0.1355
 7607TIP3    H144236   1.593   4.808   5.189 -2.7646 -0.7894  0.0152
 7607TIP3    H244237   1.489   4.847   5.087 -0.2134 -1.6913 -3.1104
 7608TIP3   OH244238   1.349   4.333  10.336  0.4370 -0.3324  0.5784
 7608TIP3    H144239   1.256   4.347  10.355  0.3781 -2.4838  2.2551
 7608TIP3    H244240   1.394   4.392  10.397  0.1351 -2.7338  3.3512
 7609TIP3   OH244241   5.543   1.155   5.316 -0.0839  0.1047  0.0838
 7609TIP3    H144242   5.632   1.190   5.323 -0.3326  0.7835 -0.1282
 7609TIP3    H244243   5.513   1.149   5.407 -1.4969  4.2834  0.1146
 7610TIP3   OH244244   5.075   6.696   4.186  0.2231  0.1370  0.4198
 7610TIP3    H144245   5.109   6.622   4.237 -1.5619 -0.1777  1.2270
 7610TIP3    H244246   5.103   6.678   4.096  0.1938 -1.3031  0.6764
 7611TIP3   OH244247   4.514   6.757  16.333  0.2295  0.0447 -0.2516
 7611TIP3    H144248   4.532   6.817  16.405  1.0426  0.4598 -0.7806
 7611TIP3    H244249   4.597   6.710  16.320 -0.2422 -0.8227 -0.1874
 7612TIP3   OH244250   5.785   4.078   4.654  0.3559 -0.2199 -0.1908
 7612TIP3    H144251   5.853   4.012   4.637  0.1126 -0.7717  0.9014
 7612TIP3    H244252   5.736   4.083   4.571  0.9492 -0.7314 -0.5847
 7613TIP3   OH244253   2.238   4.668   6.116  0.1676  0.1484 -0.0627
 7613TIP3    H144254   2.209   4.641   6.203  1.8149  1.3522  0.9327
 7613TIP3    H244255   2.305   4.605   6.092  0.3214  0.3057 -0.0545
 7614TIP3   OH244256   5.769   5.736   1.592 -0.7531  0.3139 -0.3278
 7614TIP3    H144257   5.692   5.690   1.558 -1.7278  2.0968 -0.6833
 7614TIP3    H244258   5.793   5.797   1.521 -2.0362  3.2037  1.5245
 7615TIP3   OH244259   2.100   1.676   1.111  0.2725 -0.1432  0.4704
 7615TIP3    H144260   2.188   1.714   1.117 -0.3601  2.4198 -3.2602
 7615TIP3    H244261   2.108   1.606   1.047 -0.4638  0.5719 -0.4387
 7616TIP3   OH244262   0.503   4.953  11.563 -0.5976  0.4605  0.0973
 7616TIP3    H144263   0.492   4.880  11.502 -0.6801  0.6111 -0.0704
 7616TIP3    H244264   0.559   5.015  11.517  0.9114 -0.2412  0.9046
 7617TIP3   OH244265   3.828   4.898  17.139 -0.3465  0.0608 -0.2438
 7617TIP3    H144266   3.765   4.965  17.115  0.1019 -0.2861 -2.5930
 7617TIP3    H244267   3.902   4.912  17.080  0.5063 -1.3973  0.4244
 7618TIP3   OH244268   5.378   6.247  15.165 -0.0355 -0.2354 -0.3745
 7618TIP3    H144269   5.419   6.318  15.115  0.3367 -0.4649 -0.3967
 7618TIP3    H244270   5.312   6.211  15.105 -0.9600  0.7694  0.0141
 7619TIP3   OH244271   0.046   1.676  11.741 -0.0039  0.2376 -0.1701
 7619TIP3    H144272   0.035   1.739  11.670 -0.3988  0.3860  0.0175
 7619TIP3    H244273  -0.041   1.637  11.752  0.4334 -1.0547 -0.9327
 7620TIP3   OH244274   3.065   4.191   4.956 -0.1525  0.1367  0.3248
 7620TIP3    H144275   3.130   4.261   4.966  0.0489  0.2660 -1.5111
 7620TIP3    H244276   3.012   4.218   4.882 -0.8139 -1.1145  0.3131
 7621TIP3   OH244277   1.330   3.757  11.803  0.2644  0.0610  0.6736
 7621TIP3    H144278   1.342   3.831  11.743  0.9381 -0.1257  0.5725
 7621TIP3    H244279   1.403   3.764  11.864  0.9534 -1.1293  0.0136
 7622TIP3   OH244280   3.273   5.137  12.994 -0.2995  0.0133 -0.4900
 7622TIP3    H144281   3.264   5.044  13.014 -1.8233  0.5312  1.7095
 7622TIP3    H244282   3.189   5.161  12.954  0.0380  0.4696 -0.9324
 7623TIP3   OH244283   3.738   5.585   3.107 -0.6713 -0.1056  0.1195
 7623TIP3    H144284   3.727   5.645   3.034 -1.4485 -0.3778  0.0079
 7623TIP3    H244285   3.727   5.639   3.185  1.6072  0.4855  0.0937
 7624TIP3   OH244286   2.801   6.783  14.009  0.1193  0.5071 -0.4265
 7624TIP3    H144287   2.894   6.799  14.023 -0.0435  0.8717  0.3190
 7624TIP3    H244288   2.757   6.851  14.060 -0.6635 -3.1499  4.4670
 7625TIP3   OH244289   4.587   2.480  16.959  0.0225  0.2667  0.0913
 7625TIP3    H144290   4.557   2.527  17.036 -0.0180 -0.1850  0.3586
 7625TIP3    H244291   4.659   2.533  16.925 -0.7447  1.1026 -0.2737
 7626TIP3   OH244292   2.346   4.821  13.048 -0.6879  0.4939  0.0471
 7626TIP3    H144293   2.348   4.917  13.050 -0.7852  0.6644 -3.0301
 7626TIP3    H244294   2.429   4.797  13.008 -1.6207 -0.5300 -1.3597
 7627TIP3   OH244295   6.432   4.172  11.532  0.0047 -0.0763 -0.0292
 7627TIP3    H144296   6.391   4.091  11.502 -0.7671  0.7417 -1.2833
 7627TIP3    H244297   6.359   4.225  11.563  0.5144  0.1352  0.8447
 7628TIP3   OH244298   5.399   4.428  12.834  0.3302 -0.1557  0.3365
 7628TIP3    H144299   5.490   4.400  12.842 -0.3240 -2.4265  0.5377
 7628TIP3    H244300   5.357   4.396  12.914 -0.9788 -0.5684 -0.4831
 7629TIP3   OH244301   2.156   1.409   5.896  0.5018  0.0089  0.4993
 7629TIP3    H144302   2.073   1.394   5.941  0.5695 -1.2250  0.2472
 7629TIP3    H244303   2.195   1.322   5.888  2.1326  0.6252  1.2051
 7630TIP3   OH244304   3.199   5.539   0.254 -0.6778 -0.2961 -0.3241
 7630TIP3    H144305   3.260   5.559   0.325  0.0630  0.3360 -1.1162
 7630TIP3    H244306   3.149   5.619   0.242 -0.3557 -0.1827 -0.9412
 7631TIP3   OH244307   0.536   4.473  13.319 -0.5818 -0.2277  0.1997
 7631TIP3    H144308   0.458   4.484  13.265 -0.6885 -1.2903  0.1091
 7631TIP3    H244309   0.591   4.412  13.270 -0.4381 -0.7897  1.0277
 7632TIP3   OH244310   4.952   4.190  17.049  0.7802  0.2859 -0.1029
 7632TIP3    H144311   4.949   4.280  17.016  0.9223  0.0397 -0.8045
 7632TIP3    H244312   4.976   4.199  17.141  1.9648  0.9071 -0.4555
 7633TIP3   OH244313   2.101   4.901   5.564 -0.0516 -0.5660 -1.1875
 7633TIP3    H144314   2.072   4.960   5.633  2.5955  0.3572 -0.7213
 7633TIP3    H244315   2.135   4.959   5.496  2.3684 -1.4427 -0.8376
 7634TIP3   OH244316   4.251   3.850  11.520 -0.7962  0.1344  0.4083
 7634TIP3    H144317   4.186   3.825  11.454 -1.1012  0.6918  0.4971
 7634TIP3    H244318   4.300   3.769  11.537 -0.9688 -0.1055 -0.2153
 7635TIP3   OH244319   1.857   4.218   1.356 -0.2150 -0.3798  0.5828
 7635TIP3    H144320   1.876   4.312   1.354  2.4091 -0.8236  0.9820
 7635TIP3    H244321   1.903   4.183   1.279 -1.3761 -1.3268  0.2922
 7636TIP3   OH244322   4.289   3.812   5.249  0.1161  0.1508 -0.5942
 7636TIP3    H144323   4.304   3.904   5.268  0.8581 -0.0858 -0.0199
 7636TIP3    H244324   4.244   3.812   5.164 -0.1747  1.0482 -0.4470
 7637TIP3   OH244325   5.354   2.069   4.158  0.1844  0.1396 -0.8925
 7637TIP3    H144326   5.409   2.142   4.132 -1.7108  1.9080 -0.2509
 7637TIP3    H244327   5.368   2.061   4.253  0.4532 -0.4012 -0.9743
 7638TIP3   OH244328   5.699   5.038  14.187 -0.3986  0.1761 -0.8757
 7638TIP3    H144329   5.681   4.973  14.254  0.2749  0.5387 -0.3313
 7638TIP3    H244330   5.766   5.095  14.225  0.2910  0.1571 -1.9900
 7639TIP3   OH244331   6.650   0.504  16.598 -0.3019 -0.4271 -0.6417
 7639TIP3    H144332   6.701   0.431  16.631 -0.9922 -0.5610  0.1671
 7639TIP3    H244333   6.661   0.573  16.663 -0.3429 -0.1093 -0.9666
 7640TIP3   OH244334   6.303   6.251   1.067  0.0183  0.3920  0.6138
 7640TIP3    H144335   6.372   6.187   1.084  0.5472  1.3727  2.3622
 7640TIP3    H244336   6.260   6.263   1.151 -2.6623 -0.5432 -0.5022
 7641TIP3   OH244337   1.702   2.965   4.397 -0.0361  0.3450 -0.3813
 7641TIP3    H144338   1.635   2.899   4.415 -0.2586  0.3021 -1.3583
 7641TIP3    H244339   1.677   3.039   4.451 -0.9586  0.3826 -0.8432
 7642TIP3   OH244340   1.841   4.636  11.217  0.2086  0.4541  0.1616
 7642TIP3    H144341   1.875   4.706  11.161  0.1229  0.2061 -0.2111
 7642TIP3    H244342   1.767   4.600  11.168 -0.3933  0.7833  0.8298
 7643TIP3   OH244343   6.121   3.823   5.271 -0.3379 -0.2117 -0.1926
 7643TIP3    H144344   6.102   3.905   5.225 -0.3304  0.1382  0.4127
 7643TIP3    H244345   6.182   3.849   5.340  0.4945 -0.9167 -0.6443
 7644TIP3   OH244346   2.548   1.494   4.808 -0.6439 -0.3618 -0.4643
 7644TIP3    H144347   2.536   1.534   4.893  0.0098  0.7178 -0.8681
 7644TIP3    H244348   2.503   1.409   4.815  0.7512 -1.0099  1.4660
 7645TIP3   OH244349   1.824   6.091   4.195  0.0720  0.0892 -0.2646
 7645TIP3    H144350   1.825   5.996   4.181 -1.1898 -0.1757  1.1913
 7645TIP3    H244351   1.739   6.109   4.234 -0.2366  2.0385 -1.6901
 7646TIP3   OH244352   4.030   4.519   4.309 -0.3108 -0.0434 -0.0417
 7646TIP3    H144353   4.069   4.581   4.248  0.6530 -0.1481  0.4412
 7646TIP3    H244354   4.103   4.461   4.333 -0.8756 -0.5158  0.5623
 7647TIP3   OH244355   6.231   4.904   3.721  0.1096  0.4612  0.5188
 7647TIP3    H144356   6.137   4.907   3.701 -0.1423 -0.3043  1.5233
 7647TIP3    H244357   6.274   4.916   3.636 -0.8933  0.6082  0.0174
 7648TIP3   OH244358   4.069   2.137   0.963 -0.0586 -0.3108 -0.0414
 7648TIP3    H144359   3.982   2.112   0.992  0.3085  0.1345  1.5620
 7648TIP3    H244360   4.115   2.053   0.952  0.3645 -0.5543  2.7024
 7649TIP3   OH244361   5.671   6.694  12.292  0.4069 -0.5079  0.0071
 7649TIP3    H144362   5.660   6.599  12.280  1.1189 -0.5969  0.0150
 7649TIP3    H244363   5.587   6.724  12.327  0.3649 -1.2270  0.5480
 7650TIP3   OH244364   6.251   3.314  15.531 -0.0828  0.4170  0.2143
 7650TIP3    H144365   6.198   3.330  15.609  1.5677  2.4812  1.0143
 7650TIP3    H244366   6.228   3.385  15.472  1.2631  0.9562  0.3088
 7651TIP3   OH244367   6.163   1.135  11.294  0.6361 -0.6223  0.3557
 7651TIP3    H144368   6.177   1.139  11.200 -2.3589 -0.3545 -0.1763
 7651TIP3    H244369   6.169   1.042  11.315 -1.2783 -1.0268 -0.6523
 7652TIP3   OH244370   3.409   0.241   2.271  0.4970  0.3303  0.4511
 7652TIP3    H144371   3.395   0.286   2.187  1.0619  1.7400  1.0837
 7652TIP3    H244372   3.327   0.255   2.319  0.5856  0.4790  0.5583
 7653TIP3   OH244373   4.803   2.107   5.341  0.1004 -0.0885 -0.4971
 7653TIP3    H144374   4.728   2.135   5.393  0.3248 -1.0424  0.3940
 7653TIP3    H244375   4.864   2.180   5.344 -0.4819  0.4028 -0.6023
 7654TIP3   OH244376   3.380   5.402   3.131  0.1396  0.6518  1.3487
 7654TIP3    H144377   3.460   5.349   3.127  0.5607  1.2980 -2.3762
 7654TIP3    H244378   3.309   5.339   3.116  0.3656  0.6075  0.3504
 7655TIP3   OH244379   1.831   5.528  14.777  0.2786  0.1900  0.4033
 7655TIP3    H144380   1.816   5.445  14.823 -0.7831 -0.2209 -0.6537
 7655TIP3    H244381   1.927   5.534  14.771  0.4268 -0.1298  1.9467
 7656TIP3   OH244382   1.576   5.937   3.320  0.5160 -0.1430  0.2276
 7656TIP3    H144383   1.486   5.970   3.322  0.4113 -0.0815 -2.3255
 7656TIP3    H244384   1.587   5.894   3.405 -1.3973  1.1249  1.2017
 7657TIP3   OH244385   5.831   1.542   5.996 -0.2050 -0.1735 -0.3474
 7657TIP3    H144386   5.919   1.555   5.961  0.5175  0.7468  1.6475
 7657TIP3    H244387   5.811   1.624   6.041 -0.5245 -1.6367  2.3802
 7658TIP3   OH244388   4.092   3.023   5.954  0.2752  0.1718  0.2646
 7658TIP3    H144389   4.118   2.979   5.874 -1.1659 -0.7922  0.3047
 7658TIP3    H244390   4.075   2.953   6.016  1.0047  0.8905  1.3210
 7659TIP3   OH244391   0.855   4.618   3.859 -0.0543 -0.4788  0.6658
 7659TIP3    H144392   0.867   4.629   3.954 -0.2792  0.3274  0.6120
 7659TIP3    H244393   0.857   4.708   3.825 -0.1017 -0.7588 -0.0783
 7660TIP3   OH244394   1.193   4.092  11.839  0.3967  0.1158 -0.3714
 7660TIP3    H144395   1.136   4.097  11.762 -1.4157 -1.7035  0.7504
 7660TIP3    H244396   1.273   4.052  11.806 -0.0522  0.0819 -1.4686
 7661TIP3   OH244397   0.178   4.658   4.367  0.6620  0.4275 -0.1777
 7661TIP3    H144398   0.216   4.571   4.355  1.9505  0.4719  2.6576
 7661TIP3    H244399   0.253   4.715   4.383 -0.0698  2.3744 -3.0092
 7662TIP3   OH244400   4.917   2.647  13.340  0.5300 -0.1140 -0.8307
 7662TIP3    H144401   4.964   2.568  13.366  0.0137 -0.3904 -0.7282
 7662TIP3    H244402   4.978   2.694  13.283  1.3581  0.0722  0.1667
 7663TIP3   OH244403   6.786   0.031   4.900  0.2381 -0.6604 -0.0321
 7663TIP3    H144404   6.852   0.050   4.967  0.6725 -1.2992 -0.2638
 7663TIP3    H244405   6.704   0.061   4.938  0.7607  0.8777 -0.0617
 7664TIP3   OH244406   3.829   2.145  12.477  0.5327  0.3377  0.1787
 7664TIP3    H144407   3.803   2.220  12.425  0.7102  2.0896  2.4884
 7664TIP3    H244408   3.748   2.115  12.519  0.1967 -1.6837 -1.7083
 7665TIP3   OH244409   4.961   3.446   5.320 -0.0932 -0.2465 -0.1938
 7665TIP3    H144410   4.958   3.528   5.270  2.0000 -0.6040 -1.0216
 7665TIP3    H244411   4.941   3.472   5.410 -0.7635  0.9466 -0.6595
 7666TIP3   OH244412   5.046   4.599   3.094 -0.1152 -0.7221  0.2416
 7666TIP3    H144413   4.998   4.532   3.045 -0.3139 -0.3463 -0.0871
 7666TIP3    H244414   5.133   4.601   3.053 -0.1038 -0.7835  0.2616
 7667TIP3   OH244415   0.450   4.864  11.810 -0.2134 -0.3623  0.4254
 7667TIP3    H144416   0.546   4.857  11.812  0.0709  2.1723 -0.2941
 7667TIP3    H244417   0.429   4.886  11.720 -1.2300  1.1363  0.9797
 7668TIP3   OH244418   5.752   4.935   5.770 -0.5228 -0.2870 -0.0234
 7668TIP3    H144419   5.824   4.988   5.804  1.3370 -2.3227 -0.5584
 7668TIP3    H244420   5.724   4.883   5.845 -0.8085 -0.1679 -0.0476
 7669TIP3   OH244421   4.729   6.507  12.793 -0.2697  0.5391 -0.3534
 7669TIP3    H144422   4.759   6.565  12.722  2.0163  1.4246  1.2005
 7669TIP3    H244423   4.808   6.462  12.821 -1.3919 -0.8047  0.7666
 7670TIP3   OH244424   3.626   0.689  12.298 -0.2895  0.5281  0.3017
 7670TIP3    H144425   3.621   0.745  12.221 -0.6072  0.7139  0.4566
 7670TIP3    H244426   3.635   0.601  12.263  0.2041  0.6714  0.0592
 7671TIP3   OH244427   3.124   0.164   2.097  0.8878  0.4976 -0.3052
 7671TIP3    H144428   3.114   0.129   2.185 -1.8985  1.5415 -0.0936
 7671TIP3    H244429   3.072   0.106   2.042 -1.3552  2.4505 -0.4103
 7672TIP3   OH244430   0.319   6.354   1.807 -0.1841 -0.0885 -0.0404
 7672TIP3    H144431   0.404   6.332   1.845 -0.6323 -1.0625  0.4243
 7672TIP3    H244432   0.338   6.425   1.745  0.9898 -0.4081 -0.0694
 7673TIP3   OH244433   0.103   5.927  17.034  0.9739  0.0110  0.0971
 7673TIP3    H144434   0.179   5.985  17.025  0.5433  0.6843  0.6682
 7673TIP3    H244435   0.032   5.975  16.992 -0.0525  1.2341  3.0045
 7674TIP3   OH244436   1.999   6.005  11.921 -0.2116 -0.1907 -0.1017
 7674TIP3    H144437   2.066   6.041  11.863 -0.8040  2.2188  0.6067
 7674TIP3    H244438   2.049   5.962  11.990  0.5875  0.2571 -0.3819
 7675TIP3   OH244439   2.459   6.295  12.482 -0.1950  0.0073  0.0480
 7675TIP3    H144440   2.454   6.203  12.457  0.9214 -0.4665  1.3958
 7675TIP3    H244441   2.444   6.343  12.401  2.1363 -1.3933 -1.3495
 7676TIP3   OH244442   2.170   1.305  13.584  0.1810  0.2887 -0.1630
 7676TIP3    H144443   2.101   1.371  13.579 -0.0898 -0.0212 -0.6446
 7676TIP3    H244444   2.166   1.273  13.674  0.3915  0.9996  0.1079
 7677TIP3   OH244445   5.178   2.958   2.186 -0.2950  0.0562 -0.0675
 7677TIP3    H144446   5.237   3.000   2.248  0.0331  0.2002 -0.4729
 7677TIP3    H244447   5.228   2.953   2.104 -0.3457 -1.0753 -0.0527
 7678TIP3   OH244448   5.831   5.669   2.177 -0.0386 -0.0138  0.1379
 7678TIP3    H144449   5.846   5.756   2.141  1.9307  0.1907  1.2998
 7678TIP3    H244450   5.806   5.616   2.102 -0.1805  1.2976 -0.7742
 7679TIP3   OH244451   1.105   1.895   0.750 -0.2474 -0.4463  0.4667
 7679TIP3    H144452   1.034   1.941   0.705  0.8035 -0.2961 -1.1319
 7679TIP3    H244453   1.145   1.841   0.681  2.3715  0.8918  0.8473
 7680TIP3   OH244454   0.273   6.056   2.559  0.2801  0.3105 -0.0725
 7680TIP3    H144455   0.268   5.983   2.498 -0.2188  1.4228 -1.4225
 7680TIP3    H244456   0.194   6.106   2.542  2.0399  2.8633 -1.4870
 7681TIP3   OH244457   6.164   3.632  15.273 -0.4114 -0.5033 -0.7405
 7681TIP3    H144458   6.250   3.652  15.310 -0.2011  0.0191 -1.4833
 7681TIP3    H244459   6.109   3.615  15.349 -0.3024  1.7633 -0.0856
 7682TIP3   OH244460   6.034   3.782  13.395  0.2977 -0.0012 -0.4276
 7682TIP3    H144461   6.101   3.850  13.389 -1.0155  1.5520  1.4461
 7682TIP3    H244462   6.013   3.762  13.303  0.8377  2.0219 -1.0525
 7683TIP3   OH244463   0.449   5.172   5.152 -0.1740  0.1399 -0.4127
 7683TIP3    H144464   0.453   5.245   5.214  1.4117  0.4134 -0.7976
 7683TIP3    H244465   0.401   5.208   5.077 -1.6807 -0.0472  0.4041
 7684TIP3   OH244466   6.045   4.158  15.057  0.1349 -0.1594  0.5237
 7684TIP3    H144467   6.052   4.063  15.067 -2.7617 -0.5392  0.0091
 7684TIP3    H244468   6.042   4.192  15.147 -0.0952 -0.7197  0.7326
 7685TIP3   OH244469   2.383   4.098  13.655 -0.7035  0.5852 -0.0900
 7685TIP3    H144470   2.290   4.097  13.635 -0.5005  1.1005 -1.1128
 7685TIP3    H244471   2.398   4.016  13.703 -1.7263  0.6400  0.3522
 7686TIP3   OH244472   2.001   5.008  17.042 -0.0185  0.3163 -0.4541
 7686TIP3    H144473   2.021   5.060  16.964 -2.3647 -1.7404 -2.6273
 7686TIP3    H244474   2.068   4.940  17.043  0.1596  0.4882 -0.5334
 7687TIP3   OH244475   4.947   3.182   3.191 -0.0211 -0.0768  0.5575
 7687TIP3    H144476   4.915   3.194   3.101  1.8354  0.4208 -0.0756
 7687TIP3    H244477   4.906   3.253   3.240 -2.3649 -1.3103  0.5272
 7688TIP3   OH244478   2.181   3.149   1.968 -0.4632 -0.0432  0.4688
 7688TIP3    H144479   2.096   3.108   1.953  0.1912 -1.3553  0.2750
 7688TIP3    H244480   2.202   3.192   1.885  0.0321 -1.5355 -0.1984
 7689TIP3   OH244481   6.457   1.904  15.011  0.3723  0.7595  0.1516
 7689TIP3    H144482   6.481   1.867  15.096 -3.9430  0.7456  1.6426
 7689TIP3    H244483   6.442   1.997  15.028 -0.3358  0.8019 -0.6201
 7690TIP3   OH244484   4.854   0.222   0.967 -0.1370 -0.1381 -0.2190
 7690TIP3    H144485   4.774   0.264   0.997 -1.4475 -0.0854 -3.4043
 7690TIP3    H244486   4.901   0.291   0.920  1.2255 -0.4840  0.5777
 7691TIP3   OH244487   6.023   2.080  10.985 -0.1319  0.6269  0.1082
 7691TIP3    H144488   5.972   2.137  10.928  2.3094  2.5891 -0.2763
 7691TIP3    H244489   6.112   2.086  10.952  0.8754 -0.4257  2.4140
 7692TIP3   OH244490   5.297   0.357  16.746 -0.4739 -0.1152 -0.4518
 7692TIP3    H144491   5.238   0.433  16.738 -0.1110  0.2877  0.5151
 7692TIP3    H244492   5.318   0.353  16.840  1.2264 -0.1107 -0.8003
 7693TIP3   OH244493   0.914   5.731  13.144  0.0816 -0.4721 -0.3653
 7693TIP3    H144494   0.948   5.801  13.087 -1.0701 -0.5303 -1.1707
 7693TIP3    H244495   0.837   5.770  13.186  0.5462 -0.6509  0.6818
 7694TIP3   OH244496   5.826   1.304   1.199  0.2671  0.5081  0.0033
 7694TIP3    H144497   5.867   1.272   1.118  0.4930  2.4907 -0.7156
 7694TIP3    H244498   5.787   1.388   1.175 -2.1706 -0.1797  1.2882
 7695TIP3   OH244499   0.943   0.369   3.208  0.1949 -0.1433 -0.0111
 7695TIP3    H144500   0.875   0.310   3.241 -0.0940  0.3883  0.3701
 7695TIP3    H244501   0.960   0.429   3.281  1.0134 -0.2182 -0.1362
 7696TIP3   OH244502   5.349   5.546  10.850  0.1964 -0.8046 -0.3324
 7696TIP3    H144503   5.442   5.526  10.842  0.2893 -0.7941  0.6415
 7696TIP3    H244504   5.324   5.510  10.934 -0.5470 -0.2745 -0.3199
 7697TIP3   OH244505   5.517   0.457   3.011  0.0386  0.1805 -0.2707
 7697TIP3    H144506   5.460   0.474   3.087 -0.2429  0.4103 -0.5303
 7697TIP3    H244507   5.605   0.468   3.045 -0.0885  0.3585  0.0075
 7698TIP3   OH244508   2.240   2.473   0.609  0.0804 -0.2378  0.0271
 7698TIP3    H144509   2.165   2.445   0.661 -0.3857  0.3095 -0.3286
 7698TIP3    H244510   2.201   2.507   0.528  0.6526  0.7911  0.1645
 7699TIP3   OH244511   6.367   2.090  16.977  0.4616 -0.1445 -0.0157
 7699TIP3    H144512   6.401   2.116  17.063 -2.0502  0.8478  0.7787
 7699TIP3    H244513   6.322   2.007  16.993 -0.4759  0.3113 -0.2169
 7700TIP3   OH244514   5.861   4.920   2.723  0.0324 -0.5397 -0.0946
 7700TIP3    H144515   5.934   4.951   2.670  1.2766 -1.1062  1.2402
 7700TIP3    H244516   5.863   4.973   2.802  0.4046 -2.0131  0.9342
 7701TIP3   OH244517   4.510   2.949   4.478 -0.0008  0.1043  0.4361
 7701TIP3    H144518   4.469   2.944   4.564  0.9946 -2.3299  0.8590
 7701TIP3    H244519   4.443   2.917   4.417  0.7565 -2.9827  1.0147
 7702TIP3   OH244520   2.085   0.928  15.472  0.0437  0.7967 -0.4413
 7702TIP3    H144521   2.173   0.961  15.453  0.9650 -1.0214  0.4332
 7702TIP3    H244522   2.048   0.906  15.387  1.2341 -0.3150 -0.6989
 7703TIP3   OH244523   1.182   2.561   3.543  0.0361 -0.0675  0.2720
 7703TIP3    H144524   1.127   2.615   3.488  0.1985  1.4064  1.4985
 7703TIP3    H244525   1.247   2.524   3.483  1.1230  2.6512 -0.3648
 7704TIP3   OH244526   4.607   2.787  16.003  0.1398 -0.1287  0.0107
 7704TIP3    H144527   4.552   2.826  16.071  0.8429 -0.4886  0.7939
 7704TIP3    H244528   4.653   2.716  16.046 -0.1790 -1.0412 -1.1056
 7705TIP3   OH244529   3.779   4.942  16.119  0.0841  0.3683 -0.5495
 7705TIP3    H144530   3.756   5.035  16.117 -1.6215  0.0339  1.2030
 7705TIP3    H244531   3.868   4.940  16.155 -0.4157  1.2646  0.7926
 7706TIP3   OH244532   2.934   4.760  12.937 -0.0858  0.4058 -0.6242
 7706TIP3    H144533   2.861   4.823  12.938 -0.2497  0.2165  0.0827
 7706TIP3    H244534   2.892   4.675  12.955 -0.1755 -0.2873 -3.6804
 7707TIP3   OH244535   4.748   1.079   4.937 -0.6563  0.2660  0.0575
 7707TIP3    H144536   4.792   1.152   4.892 -0.8883  1.2595  1.3656
 7707TIP3    H244537   4.803   1.003   4.919 -0.5087  0.6982 -1.5056
 7708TIP3   OH244538   0.473   1.235  12.717  0.1723  0.1734 -0.0265
 7708TIP3    H144539   0.422   1.184  12.780 -0.0851  1.0738  0.4993
 7708TIP3    H244540   0.438   1.323  12.722  0.7359  0.4576 -0.8051
 7709TIP3   OH244541   6.065   6.276  15.336  0.7017 -0.2941 -0.7841
 7709TIP3    H144542   5.994   6.231  15.381 -0.3156  1.2592 -0.7703
 7709TIP3    H244543   6.038   6.367  15.333  2.2639  0.1826 -1.6457
 7710TIP3   OH244544   5.192   0.808  13.156  0.5147 -0.5723 -0.0027
 7710TIP3    H144545   5.147   0.724  13.147 -0.1696 -0.3085  0.8523
 7710TIP3    H244546   5.211   0.815  13.249  0.0987  0.4601  0.0204
 7711TIP3   OH244547   3.550   6.343  17.197  0.4577 -0.6266  0.0701
 7711TIP3    H144548   3.478   6.382  17.245  0.9560 -0.6007  0.8132
 7711TIP3    H244549   3.622   6.406  17.206  0.9265 -1.1857  0.3468
 7712TIP3   OH244550   2.523   4.506   5.056  0.5513  0.5515 -0.1132
 7712TIP3    H144551   2.523   4.410   5.048  1.3677  0.3400  1.7786
 7712TIP3    H244552   2.439   4.533   5.020 -0.1937 -1.0079  0.3553
 7713TIP3   OH244553   4.324   1.201   4.800  0.8247 -0.2498 -0.0617
 7713TIP3    H144554   4.269   1.123   4.797  0.7748 -0.2586  0.9601
 7713TIP3    H244555   4.365   1.204   4.713  1.6842 -2.0269  0.2375
 7714TIP3   OH244556   5.363   4.256   0.847  0.2297 -0.5538 -0.3812
 7714TIP3    H144557   5.406   4.179   0.884  1.8932  0.2026 -0.6206
 7714TIP3    H244558   5.426   4.290   0.783 -0.6117  0.7804 -0.5529
 7715TIP3   OH244559   1.380   0.953   5.391 -0.0877 -0.0680 -0.3464
 7715TIP3    H144560   1.374   1.038   5.346  0.6163  1.1002  1.6293
 7715TIP3    H244561   1.364   0.889   5.322  0.2998  1.6207 -2.1265
 7716TIP3   OH244562   1.915   3.430  14.024  0.6728 -0.1073  0.0540
 7716TIP3    H144563   1.980   3.411  14.093  0.9380 -1.4648 -0.5318
 7716TIP3    H244564   1.967   3.461  13.950  0.5512 -0.1577 -0.0529
 7717TIP3   OH244565   5.743   5.625   4.948 -0.0213  0.1344 -0.4284
 7717TIP3    H144566   5.712   5.715   4.954 -0.2447  0.2089 -2.2360
 7717TIP3    H244567   5.691   5.578   5.013  0.2089  1.3174  0.6537
 7718TIP3   OH244568   5.475   2.489  12.292 -0.3627  0.2911  0.3326
 7718TIP3    H144569   5.438   2.548  12.225  0.5227 -1.3308 -1.6968
 7718TIP3    H244570   5.570   2.499  12.283 -0.2079  0.6800  2.0110
 7719TIP3   OH244571   0.337   2.958  11.474  0.3138 -0.3708 -0.2191
 7719TIP3    H144572   0.377   3.017  11.538 -0.1705  0.7307 -0.9087
 7719TIP3    H244573   0.288   3.015  11.415  0.2006 -1.4169 -1.1865
 7720TIP3   OH244574   6.227   5.979   2.839 -0.0534 -0.4692  0.0350
 7720TIP3    H144575   6.277   5.901   2.817  0.2776 -0.1518 -0.3503
 7720TIP3    H244576   6.235   6.036   2.762  0.4945  0.3430  0.6720
 7721TIP3   OH244577   2.856   1.958  16.924 -0.2920  0.8122 -0.1167
 7721TIP3    H144578   2.885   1.866  16.929 -1.1272  0.5814  0.6279
 7721TIP3    H244579   2.920   2.006  16.977  0.8906  0.8774 -1.5139
 7722TIP3   OH244580   4.034   1.244  16.447 -0.2435 -0.2139 -0.1527
 7722TIP3    H144581   4.116   1.255  16.400 -0.1458 -1.9669 -0.4581
 7722TIP3    H244582   3.967   1.274  16.385  0.1223  0.7532 -0.0867
 7723TIP3   OH244583   1.528   6.360   2.685 -0.2724 -0.3118  0.6198
 7723TIP3    H144584   1.500   6.416   2.757 -2.1578 -0.5609  0.1313
 7723TIP3    H244585   1.463   6.376   2.616  1.0617 -0.6232 -0.7626
 7724TIP3   OH244586   1.725   1.674  16.723 -0.1041  0.1841 -0.0014
 7724TIP3    H144587   1.781   1.742  16.762 -0.7716 -0.6142  2.5812
 7724TIP3    H244588   1.768   1.592  16.747 -1.7870 -0.4047  1.1663
 7725TIP3   OH244589   1.117   3.597   3.153 -0.2102  0.0864 -0.5617
 7725TIP3    H144590   1.111   3.616   3.060  0.0313  2.0460 -0.2232
 7725TIP3    H244591   1.026   3.580   3.180 -0.2387 -0.8078 -1.1981
 7726TIP3   OH244592   1.323   6.370   4.551  0.2930  0.1338  0.2685
 7726TIP3    H144593   1.356   6.396   4.465 -1.1135 -0.2689 -0.4227
 7726TIP3    H244594   1.384   6.410   4.613  1.9919 -0.5018 -0.9155
 7727TIP3   OH244595   0.421   3.414  12.963  0.2374  0.1965 -0.2150
 7727TIP3    H144596   0.441   3.482  13.027 -1.0470  1.9994 -1.6238
 7727TIP3    H244597   0.502   3.362  12.957  2.2560  3.1799 -0.9481
 7728TIP3   OH244598   4.499   1.119   0.407  0.2645  0.1593  0.2949
 7728TIP3    H144599   4.477   1.192   0.465 -1.9975 -1.4525  1.6347
 7728TIP3    H244600   4.519   1.160   0.323  0.1112  2.3564  1.2645
 7729TIP3   OH244601   3.925   5.110   0.808  0.5186 -0.0471  0.1882
 7729TIP3    H144602   3.983   5.167   0.759  0.2854 -0.2866 -0.3791
 7729TIP3    H244603   3.843   5.110   0.758 -0.4214  1.3059  1.6537
 7730TIP3   OH244604   6.077   3.472  15.711  0.7351 -0.1082  0.7217
 7730TIP3    H144605   6.046   3.495  15.623  1.6111 -0.8211  0.2037
 7730TIP3    H244606   6.030   3.391  15.733  1.0739 -0.3451  0.5843
 7731TIP3   OH244607   0.353   5.863   1.028 -0.4074 -0.2769  0.7024
 7731TIP3    H144608   0.448   5.862   1.039 -0.1953  1.9201 -0.3885
 7731TIP3    H244609   0.326   5.772   1.041  1.6769 -0.7291  2.2559
 7732TIP3   OH244610   0.437   0.550   2.695 -0.2721  0.2240  0.3552
 7732TIP3    H144611   0.528   0.578   2.679 -0.0177 -0.2522  0.9795
 7732TIP3    H244612   0.393   0.630   2.723  0.0090  0.4117  0.2720
 7733TIP3   OH244613   3.582   2.416   0.080 -0.1428  0.1079  0.3980
 7733TIP3    H144614   3.668   2.398   0.118  0.0060 -1.0751 -0.4383
 7733TIP3    H244615   3.600   2.474   0.007  0.2816 -1.8579 -1.1532
 7734TIP3   OH244616   4.510   4.353   1.317 -0.4409  0.5101 -0.2119
 7734TIP3    H144617   4.584   4.302   1.283 -1.9279 -1.6721 -0.3973
 7734TIP3    H244618   4.550   4.418   1.374  1.6364 -0.5203 -0.3903
 7735TIP3   OH244619   6.093   3.886  14.914 -0.0398  0.1223 -0.5248
 7735TIP3    H144620   6.144   3.810  14.941 -0.8622 -0.9994 -1.9507
 7735TIP3    H244621   6.025   3.895  14.982  1.0286  0.6223  0.5088
 7736TIP3   OH244622   3.783   0.108   6.231  0.2325  0.1534  0.0599
 7736TIP3    H144623   3.742   0.095   6.145  0.0004 -0.0227  0.1959
 7736TIP3    H244624   3.737   0.184   6.267  0.1729  0.0853  0.1256
 7737TIP3   OH244625   4.759   4.797  11.742  0.2022  0.3927 -0.2043
 7737TIP3    H144626   4.774   4.703  11.744 -0.2650  0.3241  0.6702
 7737TIP3    H244627   4.699   4.810  11.668 -2.6047 -0.4895  1.7592
 7738TIP3   OH244628   3.099   1.996   0.903  0.2055  0.0267  0.3059
 7738TIP3    H144629   3.047   1.924   0.868  0.3975 -0.2513  0.5796
 7738TIP3    H244630   3.172   1.953   0.949  1.3164  0.4165 -1.0250
 7739TIP3   OH244631   0.155   0.006   6.353  0.0085 -0.1259  0.2133
 7739TIP3    H144632   0.149   0.100   6.371  0.9519  0.4005 -1.8988
 7739TIP3    H244633   0.107  -0.035   6.425  1.7019  1.7996  2.6612
 7740TIP3   OH244634   0.464   5.440  16.847 -0.1607  0.5610 -0.1704
 7740TIP3    H144635   0.414   5.521  16.848  0.1790  0.7761 -0.3271
 7740TIP3    H244636   0.525   5.449  16.921  1.7065  1.6306 -1.7422
 7741TIP3   OH244637   2.233   6.670  11.589 -0.1010  0.9559 -0.2829
 7741TIP3    H144638   2.239   6.619  11.670  0.3206  0.0360 -0.8686
 7741TIP3    H244639   2.147   6.710  11.592 -1.4589 -1.6607 -0.8094
 7742TIP3   OH244640   4.749   5.688   4.543  0.0345  0.2014  0.0749
 7742TIP3    H144641   4.827   5.642   4.513 -1.1972 -2.8412  1.0469
 7742TIP3    H244642   4.692   5.618   4.577 -2.8611  2.3083 -0.0386
 7743TIP3   OH244643   5.893   5.568  13.344 -0.1406  0.0619  0.1699
 7743TIP3    H144644   5.919   5.659  13.332 -0.6590  0.2118  0.1338
 7743TIP3    H244645   5.814   5.558  13.290 -1.0474  0.0514  1.4327
 7744TIP3   OH244646   6.511   0.223   0.248 -0.0980 -0.3685  0.6094
 7744TIP3    H144647   6.427   0.195   0.285 -0.5307 -1.6568 -1.1929
 7744TIP3    H244648   6.576   0.175   0.298 -0.5711 -0.8352  0.7888
 7745TIP3   OH244649   5.372   2.225  11.149  0.0290  0.2296  0.1643
 7745TIP3    H144650   5.394   2.302  11.098  0.7006  0.7321  1.1839
 7745TIP3    H244651   5.388   2.151  11.090 -4.0122  0.8819 -2.1087
 7746TIP3   OH244652   0.784   1.963   4.580 -0.8300 -0.3335  0.1108
 7746TIP3    H144653   0.710   2.022   4.596 -0.5701 -0.2458  1.0692
 7746TIP3    H244654   0.810   1.933   4.667  1.1035  0.6917 -0.0409
 7747TIP3   OH244655   3.234   5.253   1.775 -0.7124  0.5623  0.3445
 7747TIP3    H144656   3.140   5.243   1.760 -1.0767  2.0196  1.4697
 7747TIP3    H244657   3.262   5.169   1.812 -0.7758 -1.2530 -3.2586
 7748TIP3   OH244658   1.339   4.816   5.969 -0.1410 -0.8797  0.0318
 7748TIP3    H144659   1.318   4.900   6.009  1.5511 -0.2558 -0.3135
 7748TIP3    H244660   1.375   4.763   6.041  2.3638  0.0454 -0.4585
 7749TIP3   OH244661   0.710   4.614  14.198 -0.1589  0.2089  0.1996
 7749TIP3    H144662   0.713   4.572  14.112  1.3241 -1.1625  0.8651
 7749TIP3    H244663   0.617   4.636  14.210 -0.6420 -0.9044 -1.1392
 7750TIP3   OH244664   5.388   1.795   1.719  0.0459 -0.1073  0.2113
 7750TIP3    H144665   5.447   1.748   1.779 -0.7305 -1.0875  0.2269
 7750TIP3    H244666   5.406   1.757   1.633 -2.0955 -2.0557  0.5298
 7751TIP3   OH244667   1.516   0.468   0.382 -0.1913 -0.0153 -0.3961
 7751TIP3    H144668   1.548   0.388   0.342 -2.3307 -1.1684  0.0581
 7751TIP3    H244669   1.581   0.488   0.450  0.6613 -1.0331 -0.8725
 7752TIP3   OH244670   3.051   0.029  15.844 -0.4859  0.3572  0.3417
 7752TIP3    H144671   3.063   0.095  15.775 -2.0817  0.0195 -0.3011
 7752TIP3    H244672   3.060   0.078  15.926 -0.8671  1.2247 -0.1225
 7753TIP3   OH244673   3.315   6.333   3.396 -0.6579  0.2769  0.6579
 7753TIP3    H144674   3.376   6.356   3.465 -2.6748  2.5784  1.8180
 7753TIP3    H244675   3.363   6.350   3.315  1.2267 -1.0187  1.4276
 7754TIP3   OH244676   5.906   5.471  13.036  0.2770  0.2121 -0.2826
 7754TIP3    H144677   5.821   5.506  13.064 -0.1122 -0.8291 -0.1257
 7754TIP3    H244678   5.884   5.395  12.983  1.1183 -0.1692 -0.0919
 7755TIP3   OH244679   2.891   2.090   4.114 -0.0996  0.0957 -0.8494
 7755TIP3    H144680   2.888   2.002   4.152 -0.1996 -0.0969 -1.3034
 7755TIP3    H244681   2.817   2.136   4.153 -0.2652 -0.1351 -0.8907
 7756TIP3   OH244682   0.382   6.089   3.474 -0.0834 -0.2748 -0.2107
 7756TIP3    H144683   0.347   6.159   3.419 -2.0922 -1.2122 -0.2112
 7756TIP3    H244684   0.374   6.124   3.563  1.2053  0.4227 -0.3533
 7757TIP3   OH244685   0.232   1.908  16.176  0.4215  0.0725  0.4678
 7757TIP3    H144686   0.258   1.979  16.116  0.6799 -0.6689 -0.3230
 7757TIP3    H244687   0.241   1.946  16.263  0.5889  1.0075  0.0625
 7758TIP3   OH244688   3.540   6.616  14.442  0.6683  0.0181  0.3816
 7758TIP3    H144689   3.543   6.712  14.436 -0.2526  0.0185 -0.2046
 7758TIP3    H244690   3.627   6.588  14.414  0.7875  0.6622  0.0816
 7759TIP3   OH244691   4.951   0.986   3.077 -0.4587  0.2783 -0.3264
 7759TIP3    H144692   4.991   0.907   3.042 -0.5542  0.5791 -1.1399
 7759TIP3    H244693   4.928   0.964   3.168 -0.2100 -0.5193 -0.4540
 7760TIP3   OH244694   3.381   6.727  13.580  0.0383 -0.1977 -0.0702
 7760TIP3    H144695   3.358   6.761  13.493  1.5698 -1.8269 -1.1797
 7760TIP3    H244696   3.297   6.705  13.620 -0.7790  1.6491 -0.6335
 7761TIP3   OH244697   2.471   2.974   1.468 -0.6033  0.3768  0.0759
 7761TIP3    H144698   2.382   2.980   1.502 -0.3387 -0.6071  0.9790
 7761TIP3    H244699   2.464   3.005   1.378 -1.6164  1.5158  0.5111
 7762TIP3   OH244700   3.840   6.024  13.649  0.4299  0.2281 -0.6621
 7762TIP3    H144701   3.880   6.027  13.562 -0.0438  0.9903 -0.8620
 7762TIP3    H244702   3.746   6.015  13.631  0.2986  0.7335 -0.2384
 7763TIP3   OH244703   3.178   1.616   4.660 -0.1312 -0.0523  0.2795
 7763TIP3    H144704   3.090   1.590   4.686 -0.6062  2.0256  0.8829
 7763TIP3    H244705   3.189   1.579   4.572 -3.2470  2.9960 -1.6319
 7764TIP3   OH244706   2.598   3.437   3.888 -0.7275  0.5473 -0.2474
 7764TIP3    H144707   2.579   3.506   3.951 -1.6960  1.4218 -1.4636
 7764TIP3    H244708   2.690   3.452   3.863 -0.4775  0.4662  0.5931
 7765TIP3   OH244709   2.278   4.079   2.961 -0.1820 -0.6343  0.7443
 7765TIP3    H144710   2.325   4.006   3.002 -0.6435  0.2486  2.9703
 7765TIP3    H244711   2.191   4.075   2.998  0.0660  1.6216  1.6912
 7766TIP3   OH244712   3.832   5.419   4.039  0.2343  0.4843 -0.1123
 7766TIP3    H144713   3.866   5.377   3.961  0.0320  0.7050 -0.3200
 7766TIP3    H244714   3.782   5.350   4.084  1.6213 -0.0942  0.6339
 7767TIP3   OH244715   5.137   4.031   0.308  0.4319  0.3780  0.1253
 7767TIP3    H144716   5.130   4.004   0.400  1.6920 -4.8281 -0.9848
 7767TIP3    H244717   5.053   4.005   0.270  0.0335  2.2280 -0.3645
 7768TIP3   OH244718   5.748   2.833  10.946 -0.4393 -0.2430  0.2915
 7768TIP3    H144719   5.798   2.785  11.013  0.4496  0.4061  0.1050
 7768TIP3    H244720   5.691   2.766  10.908  0.4963 -1.0818  0.3034
 7769TIP3   OH244721   0.375   6.490   5.662 -0.3886  0.2196  0.5726
 7769TIP3    H144722   0.368   6.545   5.584  1.5882  1.4052  1.1486
 7769TIP3    H244723   0.294   6.507   5.710 -1.7030 -0.6387 -1.2373
 7770TIP3   OH244724   4.268   5.277   5.818 -0.4772 -0.4906 -0.2314
 7770TIP3    H144725   4.228   5.331   5.887  0.0891 -0.3839  0.0221
 7770TIP3    H244726   4.331   5.336   5.776  0.9693 -1.2415  0.7755
 7771TIP3   OH244727   2.664   0.492  13.931  0.5871  0.7475 -0.4588
 7771TIP3    H144728   2.619   0.568  13.969 -1.2062  0.0594 -1.0759
 7771TIP3    H244729   2.748   0.488  13.976 -0.2641  1.6722  1.2941
 7772TIP3   OH244730   0.474   4.274  14.704 -0.7532  0.4352 -0.8954
 7772TIP3    H144731   0.534   4.202  14.726  0.5764  1.8737  0.4728
 7772TIP3    H244732   0.389   4.246  14.739 -0.1567 -0.2607  0.0429
 7773TIP3   OH244733   1.341   2.620   5.346  0.1846 -0.3408 -0.2523
 7773TIP3    H144734   1.250   2.592   5.331 -0.2206  1.0673 -0.5120
 7773TIP3    H244735   1.392   2.541   5.328 -0.9648 -1.1171 -0.2756
 7774TIP3   OH244736   4.798   4.824  16.341  0.0432  0.1446 -0.0145
 7774TIP3    H144737   4.834   4.858  16.423 -0.0614  0.4349 -0.0881
 7774TIP3    H244738   4.704   4.823  16.355  0.0270  0.1706 -0.1210
 7775TIP3   OH244739   2.630   2.126  12.437  0.4137  0.8635  0.4389
 7775TIP3    H144740   2.697   2.087  12.493  0.1972 -0.4071 -0.1493
 7775TIP3    H244741   2.547   2.089  12.470  0.2572  0.3352 -0.4915
 7776TIP3   OH244742   2.087   1.264   3.021 -0.0827 -0.4704 -1.1621
 7776TIP3    H144743   2.015   1.205   3.044 -0.0756 -0.2733 -0.6087
 7776TIP3    H244744   2.129   1.284   3.105 -0.5736  0.9565 -1.2274
 7777TIP3   OH244745   1.894   3.774  13.332  0.1135  0.5365 -0.0209
 7777TIP3    H144746   1.969   3.826  13.359 -0.9715  1.1660  1.9385
 7777TIP3    H244747   1.837   3.836  13.287  0.2937  0.2793 -0.6180
 7778TIP3   OH244748   1.234   5.825   5.120 -0.4486  0.0323 -0.1984
 7778TIP3    H144749   1.218   5.758   5.053  0.4371 -0.2369 -0.1569
 7778TIP3    H244750   1.269   5.899   5.071 -0.6473  0.1602 -0.1448
 7779TIP3   OH244751   4.243   3.092  13.076 -0.5037 -0.7051 -0.3099
 7779TIP3    H144752   4.170   3.139  13.117 -0.7273 -0.0167 -1.4726
 7779TIP3    H244753   4.274   3.033  13.145 -3.0287 -2.0246 -0.1727
 7780TIP3   OH244754   2.809   4.294   6.569  0.0148 -0.0217 -0.3289
 7780TIP3    H144755   2.874   4.332   6.628  0.0137  1.3450 -1.1913
 7780TIP3    H244756   2.859   4.268   6.491 -0.4656  1.0872 -1.0197
 7781TIP3   OH244757   2.543   3.929   1.913 -0.0826  0.4666 -0.1445
 7781TIP3    H144758   2.621   3.922   1.858  0.6612 -1.9120  1.0930
 7781TIP3    H244759   2.576   3.960   1.997 -0.7451  0.9803 -0.0621
 7782TIP3   OH244760   3.091   1.748   3.029 -0.1724  0.1420  0.3031
 7782TIP3    H144761   3.104   1.656   3.052 -1.0125  0.0857  0.5574
 7782TIP3    H244762   3.135   1.796   3.099 -0.0613 -0.0539  0.3699
 7783TIP3   OH244763   5.220   1.774  11.853 -0.1162  0.6565 -0.6191
 7783TIP3    H144764   5.219   1.749  11.760 -0.8818 -0.2137 -0.3955
 7783TIP3    H244765   5.151   1.840  11.861  0.9768  1.8762 -0.9442
 7784TIP3   OH244766   1.308   4.381   5.049 -0.0174 -0.3096 -0.2043
 7784TIP3    H144767   1.257   4.360   4.971 -0.1581  0.4396 -0.3127
 7784TIP3    H244768   1.354   4.299   5.070  1.4645 -0.0507 -2.1360
 7785TIP3   OH244769   3.354   1.719   6.084  0.1670 -0.4677  0.0007
 7785TIP3    H144770   3.396   1.724   6.170  2.0992 -2.7974 -0.7062
 7785TIP3    H244771   3.299   1.641   6.088 -0.4567 -0.0705 -0.5901
 7786TIP3   OH244772   0.308   1.596  11.484 -0.5548  0.3813 -0.1698
 7786TIP3    H144773   0.281   1.653  11.411  2.4614  1.5824 -0.4778
 7786TIP3    H244774   0.368   1.650  11.536  1.2687 -2.0055  0.3799
 7787TIP3   OH244775   3.944   3.081  17.133  0.6137 -0.0591  0.0741
 7787TIP3    H144776   4.023   3.027  17.135  0.9364  0.4202  0.4630
 7787TIP3    H244777   3.910   3.076  17.222  1.9254  2.2296  0.7649
 7788TIP3   OH244778   1.068   2.490   0.868  0.4635  0.1397 -0.3371
 7788TIP3    H144779   1.070   2.555   0.798 -0.7162 -0.4884 -0.9827
 7788TIP3    H244780   1.015   2.418   0.833 -0.3360 -0.0954  1.2533
 7789TIP3   OH244781   2.283   1.700  13.678 -0.0306 -0.2924  0.5292
 7789TIP3    H144782   2.339   1.644  13.625 -1.2858 -0.1807 -0.9888
 7789TIP3    H244783   2.233   1.640  13.734 -0.7983 -0.6733 -0.5286
 7790TIP3   OH244784   0.005   0.166  11.556  0.5759 -0.2366  0.3470
 7790TIP3    H144785  -0.063   0.231  11.577  0.3638 -0.4261  0.2592
 7790TIP3    H244786  -0.027   0.123  11.477 -0.1969 -1.7049  1.3939
 7791TIP3   OH244787   2.794   3.371   1.685 -0.3131 -0.6687  0.2649
 7791TIP3    H144788   2.733   3.351   1.614 -0.7414  0.7679  0.1894
 7791TIP3    H244789   2.854   3.297   1.687 -0.4685 -0.8744 -1.3948
 7792TIP3   OH244790   0.138   4.971  13.295  0.8951 -0.0241  0.2476
 7792TIP3    H144791   0.198   5.017  13.236  0.2194  0.7453  0.1466
 7792TIP3    H244792   0.079   4.922  13.236  0.3528  0.5792  0.2755
 7793TIP3   OH244793   2.772   4.283   1.054  0.1127  0.9816 -0.2804
 7793TIP3    H144794   2.794   4.274   1.147  0.5556 -0.5532 -0.4978
 7793TIP3    H244795   2.838   4.230   1.009 -1.5251 -0.3120 -1.2804
 7794TIP3   OH244796   4.753   6.152   3.279 -0.0262 -0.6097  0.0613
 7794TIP3    H144797   4.683   6.218   3.274 -0.0734 -0.5883  0.9149
 7794TIP3    H244798   4.809   6.181   3.351  0.0286 -1.4302  0.3564
 7795TIP3   OH244799   3.079   2.290   4.048 -0.4572  0.0799 -1.1336
 7795TIP3    H144800   3.060   2.362   4.109 -1.1927 -1.2981  0.3482
 7795TIP3    H244801   3.028   2.216   4.082  0.5157 -1.2359 -2.4274
 7796TIP3   OH244802   4.354   5.403  13.130 -0.3278 -0.2413  0.1817
 7796TIP3    H144803   4.327   5.373  13.044 -0.5613  0.8139 -0.1316
 7796TIP3    H244804   4.329   5.496  13.132 -0.2854 -0.2374  1.3619
 7797TIP3   OH244805   1.782   1.526  10.588  0.0044  0.5196  0.6032
 7797TIP3    H144806   1.877   1.516  10.601  0.6192  3.1299 -0.9699
 7797TIP3    H244807   1.757   1.593  10.652 -0.9377 -0.5144  1.3587
 7798TIP3   OH244808   1.948   1.875  16.766 -0.2590  0.1201  0.3793
 7798TIP3    H144809   1.967   1.855  16.675  1.1106 -0.2852  0.7267
 7798TIP3    H244810   1.956   1.971  16.772 -1.6304  0.2920 -0.1726
 7799TIP3   OH244811   6.482   6.178   0.712 -0.0713  0.4795 -0.0785
 7799TIP3    H144812   6.393   6.183   0.678 -0.3813  1.5543  0.8331
 7799TIP3    H244813   6.471   6.172   0.807  0.8342  1.4803  0.1045
 7800TIP3   OH244814   1.096   2.304   2.222  0.1117  0.1228  0.6262
 7800TIP3    H144815   1.136   2.218   2.239 -1.2165 -0.2423  2.0653
 7800TIP3    H244816   1.089   2.345   2.308 -0.6737  1.0521  0.1375
 7801TIP3   OH244817   1.254   4.427  12.473 -0.1365  0.2075  0.0790
 7801TIP3    H144818   1.186   4.426  12.406  1.2058 -0.7404 -1.3678
 7801TIP3    H244819   1.301   4.344  12.460  0.2688  0.0638  2.1283
 7802TIP3   OH244820   6.306   0.407   3.010  0.4010 -0.3607  0.9120
 7802TIP3    H144821   6.370   0.409   2.938 -0.1320  1.5620  0.4266
 7802TIP3    H244822   6.322   0.324   3.055  1.0146 -1.4471 -1.1901
 7803TIP3   OH244823   4.496   5.452   2.100  0.3399  0.3809 -0.1337
 7803TIP3    H144824   4.451   5.462   2.016 -2.3394 -2.7065  0.7178
 7803TIP3    H244825   4.533   5.364   2.096  4.0303  1.7259  0.4072
 7804TIP3   OH244826   2.501   0.765   5.012 -0.0676 -0.1729 -0.8072
 7804TIP3    H144827   2.566   0.806   5.068 -3.2726  1.3904  2.1854
 7804TIP3    H244828   2.457   0.702   5.070 -1.8605 -0.3923 -2.3347
 7805TIP3   OH244829   0.941   0.583   2.323  0.0938  0.3777 -0.5255
 7805TIP3    H144830   0.941   0.676   2.301  0.8624  0.3415 -0.7026
 7805TIP3    H244831   1.004   0.575   2.394 -1.3008  0.2627  0.7600
 7806TIP3   OH244832   5.536   0.274  15.043  0.8388 -0.0805 -0.2397
 7806TIP3    H144833   5.508   0.234  15.125 -2.2457  2.6627  0.2279
 7806TIP3    H244834   5.617   0.321  15.065  0.7033 -0.3753  0.9067
 7807TIP3   OH244835   5.815   3.418   5.727  0.4816  0.0225 -0.6910
 7807TIP3    H144836   5.840   3.453   5.812  2.1122 -0.4282 -0.9581
 7807TIP3    H244837   5.738   3.364   5.745  0.5881  0.2245  0.4236
 7808TIP3   OH244838   1.457   0.137   2.166  0.3013  0.4721  0.5570
 7808TIP3    H144839   1.489   0.151   2.256  1.5727  2.4110 -0.1424
 7808TIP3    H244840   1.516   0.069   2.131  0.0898  0.0375  1.0293
 7809TIP3   OH244841   5.501   3.410   3.121 -1.1686 -0.1084  0.5389
 7809TIP3    H144842   5.533   3.418   3.031 -0.3608  0.3895  0.8666
 7809TIP3    H244843   5.412   3.377   3.111 -1.0191 -0.2564 -0.4377
 7810TIP3   OH244844   3.198   1.481   0.599  0.5115 -0.1327  0.6328
 7810TIP3    H144845   3.109   1.454   0.620  0.4151 -0.1586  0.1939
 7810TIP3    H244846   3.195   1.503   0.506  1.5616 -2.6170 -0.0742
 7811TIP3   OH244847   0.491   3.479  13.217  0.2014 -0.3909 -0.6335
 7811TIP3    H144848   0.517   3.491  13.308  2.0193 -0.5389 -1.0956
 7811TIP3    H244849   0.458   3.389  13.214  0.7910 -0.6320 -0.2400
 7812TIP3   OH244850   5.793   3.642   1.235 -0.0038  0.3163 -0.4640
 7812TIP3    H144851   5.761   3.615   1.150  1.4623 -2.2362 -0.3117
 7812TIP3    H244852   5.714   3.653   1.289 -0.8203 -1.4993 -1.2272
 7813TIP3   OH244853   4.347   0.957  14.583  0.2001  0.2708  0.0246
 7813TIP3    H144854   4.391   0.915  14.657 -0.9393 -1.0155  0.0075
 7813TIP3    H244855   4.414   1.011  14.542  1.1489  0.1029  1.3160
 7814TIP3   OH244856   6.105   6.013  12.004  0.1832  0.0147  0.3666
 7814TIP3    H144857   6.146   5.975  12.082 -0.2187  0.6404  0.8969
 7814TIP3    H244858   6.080   6.101  12.031 -1.4308 -0.3130  0.0459
 7815TIP3   OH244859   1.208   5.763   2.735  0.1788 -0.4403  0.8709
 7815TIP3    H144860   1.277   5.708   2.772 -0.6833 -1.8630  0.4642
 7815TIP3    H244861   1.136   5.702   2.716 -0.5924  0.7330 -0.1795
 7816TIP3   OH244862   2.340   1.528   3.727  0.6975 -0.1903 -0.6426
 7816TIP3    H144863   2.381   1.441   3.729  0.9954 -0.0439  0.8504
 7816TIP3    H244864   2.409   1.586   3.696  1.2853 -0.1277  0.7203
 7817TIP3   OH244865   5.394   5.557   4.800  0.0748 -0.1748  0.3862
 7817TIP3    H144866   5.419   5.469   4.827 -0.9929 -0.3082  0.9934
 7817TIP3    H244867   5.367   5.600   4.882 -1.5576 -0.0221 -0.1930
 7818TIP3   OH244868   5.800   3.769   1.702  0.1757 -0.8257 -0.6299
 7818TIP3    H144869   5.862   3.771   1.775 -0.2633  1.5746 -0.2528
 7818TIP3    H244870   5.721   3.730   1.739 -1.1349  3.1123  1.2373
 7819TIP3   OH244871   2.913   1.694  16.908  0.7735  0.1167  0.4151
 7819TIP3    H144872   2.996   1.648  16.925  0.9451 -0.1799 -1.1510
 7819TIP3    H244873   2.849   1.646  16.962  1.2565 -0.9165  0.0996
 7820TIP3   OH244874   1.761   5.830  17.162  0.4281 -0.4520 -0.4903
 7820TIP3    H144875   1.740   5.811  17.071  0.6563  0.0546 -0.6552
 7820TIP3    H244876   1.830   5.897  17.157  0.3476 -0.3244  0.0523
 7821TIP3   OH244877   5.896   0.883  16.875 -0.5199  0.3218  0.3688
 7821TIP3    H144878   5.866   0.836  16.953 -0.6926  1.5952  1.0978
 7821TIP3    H244879   5.856   0.836  16.802  1.0525 -2.0004  0.8621
 7822TIP3   OH244880   4.435   3.705   1.502 -0.3077 -0.6189 -0.2567
 7822TIP3    H144881   4.452   3.611   1.509 -0.4914 -0.5893  0.7288
 7822TIP3    H244882   4.466   3.742   1.585 -1.4934 -0.0079 -0.0633
 7823TIP3   OH244883   6.576   5.195   4.740 -0.1750  0.3137  0.8466
 7823TIP3    H144884   6.511   5.265   4.741 -1.4788 -0.8241 -0.0538
 7823TIP3    H244885   6.526   5.115   4.758  1.0351 -0.5620  0.4693
 7824TIP3   OH244886   4.918   3.493  16.713  0.3482 -0.0094 -0.0547
 7824TIP3    H144887   4.997   3.523  16.669  0.4313 -1.1818 -0.7559
 7824TIP3    H244888   4.951   3.436  16.784  0.1487 -1.2019 -0.8830
 7825TIP3   OH244889   3.041   0.738  16.227  0.0951 -0.1144  0.8734
 7825TIP3    H144890   3.076   0.825  16.246  2.1460 -0.4038 -1.1535
 7825TIP3    H244891   3.060   0.687  16.306  1.2252  0.6249  1.1018
 7826TIP3   OH244892   3.423   4.061  12.845 -0.7597  0.3491  0.4381
 7826TIP3    H144893   3.425   4.052  12.750  2.4306  0.8059  0.3373
 7826TIP3    H244894   3.411   3.972  12.877 -2.5061  0.2724 -0.3536
 7827TIP3   OH244895   4.440   3.404   0.693  0.0813  0.5237 -0.3548
 7827TIP3    H144896   4.449   3.491   0.732 -0.3938  0.9863 -1.2400
 7827TIP3    H244897   4.346   3.389   0.689  0.1681 -0.8835  1.5662
 7828TIP3   OH244898   4.548   2.812  15.067 -0.0451 -0.1229  0.3676
 7828TIP3    H144899   4.497   2.876  15.018  0.4226 -0.8958 -1.2275
 7828TIP3    H244900   4.514   2.817  15.156 -1.9274  0.3612 -0.3198
 7829TIP3   OH244901   0.556   5.645   3.436 -0.0366  0.2257  0.1090
 7829TIP3    H144902   0.590   5.731   3.464 -0.3210  0.3926 -0.0550
 7829TIP3    H244903   0.561   5.648   3.340 -1.7077  0.7477  0.0174
 7830TIP3   OH244904   1.927   2.043   1.369 -0.3537  0.3479 -0.0585
 7830TIP3    H144905   1.910   1.978   1.437 -2.6536  1.3075  0.3929
 7830TIP3    H244906   2.004   2.090   1.401 -1.5237  0.9543  2.1286
 7831TIP3   OH244907   6.585   3.359  12.684 -0.1173  0.6384 -0.2280
 7831TIP3    H144908   6.579   3.440  12.735 -0.6060  1.6477 -1.8209
 7831TIP3    H244909   6.641   3.302  12.736  1.7809  2.6798  0.0791
 7832TIP3   OH244910   5.950   4.022  15.330 -0.5089 -0.1983  0.0849
 7832TIP3    H144911   5.944   3.956  15.399  0.8824 -0.7726 -0.3141
 7832TIP3    H244912   5.897   4.095  15.363 -1.3594 -1.1527  0.9262
 7833TIP3   OH244913   0.264   5.872   2.371 -0.0315 -0.3691  0.5406
 7833TIP3    H144914   0.351   5.906   2.349 -0.7305  2.1998  1.3933
 7833TIP3    H244915   0.274   5.777   2.366  2.9229 -0.1893  0.9711
 7834TIP3   OH244916   3.328   4.647   6.624 -0.0351  0.2149  0.2910
 7834TIP3    H144917   3.379   4.716   6.582 -0.5102 -0.0458 -0.7400
 7834TIP3    H244918   3.394   4.590   6.665  0.4744  0.2056 -0.5290
 7835TIP3   OH244919   2.909   6.123  15.521 -0.1765 -0.5006  1.0310
 7835TIP3    H144920   2.857   6.203  15.510  1.1321  0.1592 -0.9890
 7835TIP3    H244921   2.845   6.052  15.522 -1.2491  0.4491  0.9756
 7836TIP3   OH244922   5.527   0.600   5.559  0.5364 -0.3991  0.4062
 7836TIP3    H144923   5.578   0.676   5.587  1.4669 -1.3348  1.3341
 7836TIP3    H244924   5.554   0.530   5.617 -0.4608 -1.4076 -0.2960
 7837TIP3   OH244925   0.219   1.829  10.784 -0.3265  0.2147  0.6329
 7837TIP3    H144926   0.179   1.888  10.721  0.2878  1.5529  1.4551
 7837TIP3    H244927   0.300   1.873  10.811 -0.0563 -0.8017  1.5925
 7838TIP3   OH244928   4.535   2.055  13.080 -0.1402 -0.0905  0.0842
 7838TIP3    H144929   4.542   2.061  13.175 -0.0798 -0.3713  0.0987
 7838TIP3    H244930   4.587   2.129  13.047  0.4050 -0.3869  0.2581
 7839TIP3   OH244931   6.641   4.635   6.101 -0.2834 -0.2639  0.6619
 7839TIP3    H144932   6.608   4.686   6.174 -3.5450 -0.5405 -0.4423
 7839TIP3    H244933   6.648   4.546   6.135  0.5753  0.0269  1.2596
 7840TIP3   OH244934   1.578   0.421   5.181 -0.4020 -0.1717 -0.1777
 7840TIP3    H144935   1.591   0.477   5.104 -1.9325  1.1651  0.4776
 7840TIP3    H244936   1.523   0.473   5.240 -0.3766 -1.6799  1.2625
 7841TIP3   OH244937   2.086   0.291   3.164  0.1371 -0.8411 -0.3562
 7841TIP3    H144938   2.009   0.311   3.110 -0.7182  1.2870  1.5049
 7841TIP3    H244939   2.052   0.237   3.235  0.3359  0.1034  0.4711
 7842TIP3   OH244940   2.295   3.874   2.030  0.4325  0.4704 -0.6000
 7842TIP3    H144941   2.359   3.934   1.993 -0.6186  0.4969 -2.5176
 7842TIP3    H244942   2.308   3.792   1.982  0.3618 -0.1430  0.4062
 7843TIP3   OH244943   5.274   1.459  11.421 -0.1972  0.3323  0.3316
 7843TIP3    H144944   5.340   1.435  11.357  0.5319  1.7392  0.5274
 7843TIP3    H244945   5.194   1.417  11.390  0.6471 -0.9300 -0.2119
 7844TIP3   OH244946   6.579   2.965  11.433  0.3115  0.1828  0.0268
 7844TIP3    H144947   6.632   2.915  11.370  0.4300 -0.4357  0.6034
 7844TIP3    H244948   6.595   3.056  11.410  1.8143  0.0229  0.3077
 7845TIP3   OH244949   2.860   6.646   3.960 -0.1461  0.3727  0.1994
 7845TIP3    H144950   2.843   6.565   4.007 -1.7217  1.9962  2.6794
 7845TIP3    H244951   2.919   6.695   4.018 -0.0438  1.4071 -0.7506
 7846TIP3   OH244952   1.095   4.284   5.257 -0.2447  0.5283  0.1194
 7846TIP3    H144953   1.154   4.301   5.330 -1.3895  2.9742  0.5686
 7846TIP3    H244954   1.133   4.208   5.213  2.0228  0.6891  1.6176
 7847TIP3   OH244955   2.696   5.482  12.920  0.5623  0.0579 -0.3142
 7847TIP3    H144956   2.670   5.392  12.898 -0.8637  0.6150 -1.0087
 7847TIP3    H244957   2.787   5.488  12.891  0.7178 -1.1835 -0.1540
 7848TIP3   OH244958   0.477   0.850  16.530  0.2089  0.6173 -0.2921
 7848TIP3    H144959   0.417   0.900  16.475 -1.4391 -1.2799 -0.3033
 7848TIP3    H244960   0.429   0.835  16.612  0.9312 -0.3213 -0.0231
 7849TIP3   OH244961   2.749   3.225  14.010  0.5211  0.0167  0.1068
 7849TIP3    H144962   2.725   3.232  13.917  0.2442 -3.2961 -0.2005
 7849TIP3    H244963   2.675   3.266  14.056 -1.1677 -1.4942 -1.0965
 7850TIP3   OH244964   6.634   2.551   0.071 -0.0095 -0.0128 -0.7633
 7850TIP3    H144965   6.578   2.622   0.102 -0.7627 -0.5398 -0.8647
 7850TIP3    H244966   6.713   2.594   0.038 -0.0899  0.7022 -0.0447
 7851TIP3   OH244967   4.604   1.305  12.403  0.0429 -0.2272 -0.0908
 7851TIP3    H144968   4.690   1.331  12.369 -0.2945  2.7417  1.0367
 7851TIP3    H244969   4.560   1.266  12.328  1.2334  1.2128 -1.6326
 7852TIP3   OH244970   1.474   4.820  17.076  0.1759  0.0344 -0.2999
 7852TIP3    H144971   1.557   4.856  17.044  0.0421  0.6013 -0.0091
 7852TIP3    H244972   1.456   4.868  17.157 -0.0771 -0.5858  0.0178
 7853TIP3   OH244973   2.401   4.444  13.188 -0.1107 -0.1209 -0.0695
 7853TIP3    H144974   2.460   4.501  13.237  2.2865 -0.4482 -2.3175
 7853TIP3    H244975   2.428   4.355  13.213 -0.6082 -0.2758 -0.0798
 7854TIP3   OH244976   1.963   4.597   5.155  0.2100  0.2077  0.2692
 7854TIP3    H144977   1.967   4.636   5.068  0.1271 -0.5963 -0.1062
 7854TIP3    H244978   1.950   4.671   5.214  0.4715  0.7813 -0.3800
 7855TIP3   OH244979   3.707   2.205  16.281  0.2894  0.2718 -0.0835
 7855TIP3    H144980   3.786   2.220  16.229 -0.3597 -0.9414 -1.4874
 7855TIP3    H244981   3.716   2.116  16.314  0.0191  0.5252  0.6931
 7856TIP3   OH244982   6.549   0.175  15.322  0.0464  0.3896  0.1407
 7856TIP3    H144983   6.608   0.125  15.378  1.3762  1.6498 -0.0674
 7856TIP3    H244984   6.522   0.112  15.254  0.1252 -0.5533  0.9556
 7857TIP3   OH244985   0.070   0.654  14.962 -0.3075  0.0860 -0.0721
 7857TIP3    H144986   0.074   0.603  15.042  2.5365  0.4093  0.1077
 7857TIP3    H244987  -0.012   0.628  14.920 -0.4571 -2.2578  1.5215
 7858TIP3   OH244988   4.581   5.169   6.011 -0.7497  0.0247  0.2178
 7858TIP3    H144989   4.510   5.208   6.061 -1.4675 -0.5006 -0.3640
 7858TIP3    H244990   4.548   5.083   5.987  0.2990 -0.4369  0.3847
 7859TIP3   OH244991   2.440   4.138  15.486 -0.3962 -0.4078  0.0861
 7859TIP3    H144992   2.398   4.224  15.489  2.0683  0.8733  0.3813
 7859TIP3    H244993   2.417   4.097  15.570 -0.3167  0.6175  0.6187
 7860TIP3   OH244994   5.255   1.565  14.299  0.5160 -0.2072  0.3476
 7860TIP3    H144995   5.182   1.568  14.360  0.6357  0.3951  0.4678
 7860TIP3    H244996   5.278   1.472  14.293  0.3866 -0.2901  1.0812
 7861TIP3   OH244997   2.604   4.672  13.704  0.0287  0.4037 -0.0953
 7861TIP3    H144998   2.575   4.608  13.639  1.1491 -1.4847  1.1766
 7861TIP3    H244999   2.575   4.637  13.788  1.1299  1.2985  0.6921
 7862TIP3   OH245000   4.673   2.207  16.481  0.0374  0.9896  0.3167
 7862TIP3    H145001   4.578   2.200  16.490  0.1863 -1.7196  0.4265
 7862TIP3    H245002   4.699   2.270  16.548 -1.5080  0.6001  1.3245
 7863TIP3   OH245003   6.345   3.683   5.029 -0.3510  0.2157 -0.2552
 7863TIP3    H145004   6.284   3.657   5.099 -0.4251  0.2264 -0.3158
 7863TIP3    H245005   6.393   3.603   5.008  0.5049  0.4760  0.6306
 7864TIP3   OH245006   2.458   0.419   5.640  0.4258 -0.1844  0.5946
 7864TIP3    H145007   2.500   0.427   5.725  1.6710 -1.6122  0.1509
 7864TIP3    H245008   2.525   0.379   5.584 -1.0405 -1.1425 -0.5275
 7865TIP3   OH245009   4.028   5.136  10.911 -0.5799  0.3191 -0.0577
 7865TIP3    H145010   4.008   5.223  10.947  1.1394  1.4731 -1.7016
 7865TIP3    H245011   4.061   5.153  10.823  0.1705 -1.9832 -0.2994
 7866TIP3   OH245012   4.931   3.003  13.357 -0.1083 -0.3277 -0.5608
 7866TIP3    H145013   4.937   3.074  13.292 -0.6394  1.2738  1.0694
 7866TIP3    H245014   5.005   3.019  13.415 -0.1974 -1.1694 -0.2185
 7867TIP3   OH245015   3.597   4.185  12.375  0.0949 -0.4758 -0.1197
 7867TIP3    H145016   3.665   4.171  12.441 -0.7048  0.5410  0.9770
 7867TIP3    H245017   3.515   4.177  12.424 -0.5296  3.5555 -0.1370
 7868TIP3   OH245018   6.095   2.527   0.443 -0.0498  0.2526  0.0761
 7868TIP3    H145019   6.157   2.582   0.395 -1.0681  0.0560 -1.5667
 7868TIP3    H245020   6.012   2.541   0.397 -0.7482 -1.1293  0.8750
 7869TIP3   OH245021   3.279   3.757   0.968 -0.5825  0.1500  0.3146
 7869TIP3    H145022   3.338   3.803   0.907 -0.6297  2.0095  1.5686
 7869TIP3    H245023   3.285   3.809   1.049 -2.3469 -0.8569  1.1264
 7870TIP3   OH245024   4.128   2.064   2.681 -0.1561 -0.1739 -0.3552
 7870TIP3    H145025   4.153   2.151   2.712  1.8884  0.7711 -4.0070
 7870TIP3    H245026   4.045   2.077   2.637  0.2793  0.0469 -1.1355
 7871TIP3   OH245027   0.588   1.374   4.671  0.1240  0.3302  0.4527
 7871TIP3    H145028   0.627   1.430   4.738 -0.8878 -0.0486  1.4003
 7871TIP3    H245029   0.509   1.339   4.713 -0.8048  0.4632 -1.1055
 7872TIP3   OH245030   6.173   1.969  11.445  0.2584  0.3983 -0.1038
 7872TIP3    H145031   6.083   1.970  11.413  0.0557 -2.0585  0.1329
 7872TIP3    H245032   6.226   1.948  11.368  0.4190  0.1459  0.0711
 7873TIP3   OH245033   2.649   0.244  13.789  0.6537 -0.8150 -0.1875
 7873TIP3    H145034   2.731   0.197  13.779  1.2391 -0.0985  1.0436
 7873TIP3    H245035   2.667   0.310  13.856 -1.0320 -0.9151  0.4080
 7874TIP3   OH245036   6.643   0.195   0.019  0.5240  0.1829 -0.8964
 7874TIP3    H145037   6.632   0.262  -0.048  0.1440  0.1166 -0.9044
 7874TIP3    H245038   6.593   0.228   0.094  0.0842 -0.2312 -1.0050
 7875TIP3   OH245039   3.077   5.889   2.763 -0.7297  0.1977  0.0857
 7875TIP3    H145040   3.130   5.868   2.687 -0.9864 -0.5943  0.1150
 7875TIP3    H245041   3.038   5.974   2.743  1.4050  1.3479  0.5372
 7876TIP3   OH245042   5.369   3.217  12.121  0.0892 -0.0905 -0.2933
 7876TIP3    H145043   5.421   3.259  12.053  1.8950 -1.1291  0.3671
 7876TIP3    H245044   5.398   3.259  12.202 -0.0293 -0.7485  0.0934
 7877TIP3   OH245045   4.808   0.082   0.267  0.0485 -0.8761  0.2634
 7877TIP3    H145046   4.741   0.048   0.326 -1.0865 -1.8176 -1.4481
 7877TIP3    H245047   4.789   0.175   0.259  0.7072 -0.5654  1.9300
 7878TIP3   OH245048   5.164   3.635  12.406 -0.2153 -0.1194  0.4278
 7878TIP3    H145049   5.129   3.724  12.403 -0.5354 -0.2478 -1.7693
 7878TIP3    H245050   5.091   3.582  12.438 -0.6945  0.1761 -0.1425
 7879TIP3   OH245051   3.774   3.032   0.684  0.9263 -0.2448 -0.7472
 7879TIP3    H145052   3.863   3.061   0.704  1.4415 -2.1530  0.0321
 7879TIP3    H245053   3.745   2.989   0.764 -0.9858  0.9131 -0.7627
 7880TIP3   OH245054   0.217   0.854  12.743 -0.1302 -0.1287  0.7116
 7880TIP3    H145055   0.286   0.913  12.773 -0.8571  0.9437  0.2898
 7880TIP3    H245056   0.202   0.795  12.818  1.1807 -0.3396  0.8321
 7881TIP3   OH245057   5.101   5.772   2.653 -0.3299 -0.5107 -0.4659
 7881TIP3    H145058   5.128   5.861   2.678 -0.0452 -0.7130 -0.0390
 7881TIP3    H245059   5.125   5.718   2.728 -0.0616 -1.0267 -0.9155
 7882TIP3   OH245060   1.755   5.082  11.111  0.3373 -0.3621  0.5531
 7882TIP3    H145061   1.765   5.156  11.052  1.6638 -0.3273  0.7736
 7882TIP3    H245062   1.766   5.005  11.055  2.6868 -0.3270  0.8306
 7883TIP3   OH245063   2.103   3.534   1.935 -0.0404  0.1268  0.1935
 7883TIP3    H145064   2.057   3.461   1.894  0.5446 -0.0446 -0.1709
 7883TIP3    H245065   2.049   3.610   1.915  0.3464  0.0805 -1.1003
 7884TIP3   OH245066   1.751   0.329  14.990  0.4132 -0.1649  0.1199
 7884TIP3    H145067   1.765   0.420  14.961 -1.8307  0.1220 -0.2185
 7884TIP3    H245068   1.732   0.337  15.084  1.0109 -0.3873  0.2639
 7885TIP3   OH245069   2.729   5.492  16.628 -0.5438 -1.0308 -0.2054
 7885TIP3    H145070   2.686   5.546  16.561  0.5311 -0.2148 -0.2527
 7885TIP3    H245071   2.682   5.409  16.625 -0.6402 -0.9424 -1.8338
 7886TIP3   OH245072   6.373   4.751  13.083  0.1559 -0.1118 -0.0916
 7886TIP3    H145073   6.456   4.777  13.043 -0.2540  0.3532 -0.6608
 7886TIP3    H245074   6.382   4.775  13.175  0.5288  0.2388 -0.2160
 7887TIP3   OH245075   6.508   4.267   2.356  0.0888  0.2188  0.2081
 7887TIP3    H145076   6.543   4.327   2.421  0.5547 -0.0688  0.2258
 7887TIP3    H245077   6.456   4.323   2.298 -1.5309  0.2824  1.6273
 7888TIP3   OH245078   2.860   1.846   4.247 -0.2355 -0.0105 -0.0938
 7888TIP3    H145079   2.877   1.760   4.209  0.5057 -0.0161  0.2249
 7888TIP3    H245080   2.841   1.829   4.339 -2.3652 -0.0275 -0.4806
 7889TIP3   OH245081   0.895   0.783   1.395  0.3197  0.1226  0.5935
 7889TIP3    H145082   0.844   0.838   1.455 -1.5582 -0.6808 -0.1686
 7889TIP3    H245083   0.889   0.695   1.433  0.9070 -0.0342  0.3348
 7890TIP3   OH245084   1.041   3.723  11.183 -0.4498 -0.7249  0.9641
 7890TIP3    H145085   1.106   3.751  11.118  1.5704 -2.2201  2.2315
 7890TIP3    H245086   0.968   3.689  11.130  1.0707 -1.7973 -0.5669
 7891TIP3   OH245087   0.588   0.842  15.912  0.2430 -0.5366  0.3915
 7891TIP3    H145088   0.522   0.841  15.843  0.1620  0.5678  0.4299
 7891TIP3    H245089   0.587   0.754  15.949 -1.8905 -0.2989  1.0222
 7892TIP3   OH245090   3.780   1.863   4.817 -0.3466 -0.1848 -0.3820
 7892TIP3    H145091   3.734   1.779   4.815  0.7653 -0.8763  1.0785
 7892TIP3    H245092   3.795   1.885   4.725 -3.8017  0.2678 -1.0039
 7893TIP3   OH245093   3.557   5.071  14.416 -0.0004  0.0653 -0.0359
 7893TIP3    H145094   3.639   5.084  14.369 -0.5489  0.5620 -0.8778
 7893TIP3    H245095   3.538   4.978  14.405  0.6458 -0.1413  0.5126
 7894TIP3   OH245096   4.421   1.927   4.873  0.1457  0.2137 -0.8987
 7894TIP3    H145097   4.494   1.977   4.836 -0.6654  1.4029 -0.9397
 7894TIP3    H245098   4.462   1.869   4.938  1.0107  1.7559 -0.0123
 7895TIP3   OH245099   6.658   1.141  12.791 -0.1426  0.0698  0.2928
 7895TIP3    H145100   6.590   1.142  12.858  0.2502  1.2957  0.7079
 7895TIP3    H245101   6.615   1.105  12.714 -1.2389  0.7090  0.5789
 7896TIP3   OH245102   0.280   0.464  11.672  0.1155  0.0695 -0.1345
 7896TIP3    H145103   0.283   0.450  11.767  1.2388 -0.0697 -0.1755
 7896TIP3    H245104   0.270   0.559  11.663 -2.3954 -0.1247  0.1147
 7897TIP3   OH245105   4.466   3.970  13.038  0.2485 -0.3830 -0.0312
 7897TIP3    H145106   4.451   4.051  13.086 -1.5484 -0.0211 -1.1121
 7897TIP3    H245107   4.456   3.994  12.946  0.0093 -1.7671 -0.3982
 7898TIP3   OH245108   5.598   5.680  16.394  0.0409 -0.4715  0.4391
 7898TIP3    H145109   5.684   5.719  16.404  0.8727 -1.9033 -0.7684
 7898TIP3    H245110   5.613   5.600  16.345 -1.8427 -1.3344  1.1531
 7899TIP3   OH245111   1.052   2.617  11.817 -0.1625  0.5375 -0.2842
 7899TIP3    H145112   1.004   2.607  11.735  1.9736 -0.4850 -1.5195
 7899TIP3    H245113   0.986   2.615  11.885 -1.9483  0.6702 -1.9395
 7900TIP3   OH245114   3.346   4.589   5.726  0.6734  0.3838  0.1866
 7900TIP3    H145115   3.288   4.528   5.772  1.6813 -0.6681  0.1191
 7900TIP3    H245116   3.372   4.652   5.793 -0.7075  1.0310  0.1625
 7901TIP3   OH245117   3.642   5.517   1.101  0.0213 -0.0160 -0.1812
 7901TIP3    H145118   3.590   5.446   1.139 -0.6299 -0.3857 -1.6870
 7901TIP3    H245119   3.586   5.594   1.107  1.2900  0.7933  2.8200
 7902TIP3   OH245120   3.849   3.580  12.629  0.2669  0.1833  0.1917
 7902TIP3    H145121   3.791   3.619  12.564 -1.0466 -2.9211 -0.7194
 7902TIP3    H245122   3.791   3.559  12.703  1.0450  0.5198  0.9138
 7903TIP3   OH245123   2.340   1.209  14.531  0.0939  0.0828  0.0960
 7903TIP3    H145124   2.256   1.248  14.510  0.2270 -0.1214 -0.8275
 7903TIP3    H245125   2.321   1.117  14.548 -0.1665  0.4235  1.9421
 7904TIP3   OH245126   6.749   3.227   3.335  0.2727  0.2812  1.1245
 7904TIP3    H145127   6.718   3.292   3.273  0.2371 -2.3929 -1.8970
 7904TIP3    H245128   6.833   3.198   3.300 -0.9075 -3.1043  0.7391
 7905TIP3   OH245129   5.645   2.577   3.484  0.5913 -0.2815  0.3669
 7905TIP3    H145130   5.714   2.561   3.548  1.2815 -0.5918 -0.4375
 7905TIP3    H245131   5.564   2.578   3.536  1.2956  1.3346  1.5099
 7906TIP3   OH245132   5.764   2.280  10.607  0.2253  0.3522 -0.4317
 7906TIP3    H145133   5.670   2.266  10.599  0.0996  1.0313 -0.2446
 7906TIP3    H245134   5.802   2.239  10.530 -0.4777  2.3458 -1.9347
 7907TIP3   OH245135   5.832   4.524  11.304 -0.2227  0.9086 -0.5808
 7907TIP3    H145136   5.887   4.602  11.313  1.4656 -0.2473 -0.3725
 7907TIP3    H245137   5.864   4.464  11.371 -2.5721  0.6060  0.3525
 7908TIP3   OH245138   0.345   3.993   1.444  0.4988  0.1949  0.8166
 7908TIP3    H145139   0.379   4.060   1.503 -0.6904 -0.3144  2.1313
 7908TIP3    H245140   0.258   4.024   1.418  1.3053  0.8210 -1.4080
 7909TIP3   OH245141   4.823   5.002   2.856  0.3413  0.2230  0.2162
 7909TIP3    H145142   4.757   4.960   2.910  0.2753 -0.1906 -0.1732
 7909TIP3    H245143   4.900   4.945   2.864  0.6494  0.6959  0.6604
 7910TIP3   OH245144   2.839   3.549   6.208 -0.1032 -0.0890 -0.6281
 7910TIP3    H145145   2.781   3.478   6.236  0.8190 -0.0351  1.6316
 7910TIP3    H245146   2.786   3.601   6.147 -1.3402 -1.7611 -1.0489
 7911TIP3   OH245147   4.265   1.365  14.990  0.4511  0.3046  0.2646
 7911TIP3    H145148   4.248   1.430  14.921  1.2927  0.0827 -0.1618
 7911TIP3    H245149   4.360   1.359  14.995  0.4332  0.9434  2.0709
 7912TIP3   OH245150   4.092   4.803   3.759 -0.3739  0.2392  0.3630
 7912TIP3    H145151   4.160   4.870   3.750  1.2094 -1.1162  1.6093
 7912TIP3    H245152   4.093   4.781   3.852 -3.2148  0.8029  0.6151
 7913TIP3   OH245153   5.002   1.392  16.670  0.0912  0.2384 -0.3734
 7913TIP3    H145154   4.950   1.464  16.635 -1.4387 -0.5939  0.1211
 7913TIP3    H245155   4.947   1.353  16.737  1.1250 -1.0468 -0.2444
 7914TIP3   OH245156   4.660   4.666  10.473  0.5016 -0.2845  0.7174
 7914TIP3    H145157   4.698   4.735  10.420  0.4455  0.2479  1.3487
 7914TIP3    H245158   4.623   4.604  10.410  0.2095  0.4575  0.1397
 7915TIP3   OH245159   4.054   3.235   5.743 -0.0714  0.5654  0.0726
 7915TIP3    H145160   4.073   3.200   5.830 -0.4964  1.1015  0.3807
 7915TIP3    H245161   4.140   3.240   5.701 -0.0768 -1.6850 -0.3143
 7916TIP3   OH245162   4.381   6.764  12.542 -0.2883  0.6748 -0.0645
 7916TIP3    H145163   4.365   6.671  12.529  0.4632  0.8771 -3.3123
 7916TIP3    H245164   4.469   6.768  12.581 -0.6233  0.0373  0.7774
 7917TIP3   OH245165   0.834   4.139   0.282  0.3960 -0.9444 -0.2506
 7917TIP3    H145166   0.886   4.073   0.326 -1.9370 -0.8391  2.9960
 7917TIP3    H245167   0.765   4.090   0.238 -0.0663 -0.8056  0.3119
 7918TIP3   OH245168   5.544   5.327   1.923 -0.3539  0.7035 -0.0192
 7918TIP3    H145169   5.488   5.263   1.968 -0.9996  0.6467 -0.8766
 7918TIP3    H245170   5.493   5.354   1.847  0.1318  1.8736  0.0613
 7919TIP3   OH245171   5.417   1.884   1.343 -0.0816  0.3282  0.1749
 7919TIP3    H145172   5.496   1.904   1.293  0.2306  0.0745  0.5706
 7919TIP3    H245173   5.446   1.825   1.412 -0.6809 -0.0767  0.0930
 7920TIP3   OH245174   5.060   3.753   2.702  0.3938 -0.3306  0.5312
 7920TIP3    H145175   5.023   3.708   2.778  1.6550 -0.7901  0.8913
 7920TIP3    H245176   4.990   3.751   2.637 -0.4337 -0.6130  1.4014
 7921TIP3   OH245177   6.431   1.583   3.477  0.4680 -0.1442 -0.1339
 7921TIP3    H145178   6.403   1.496   3.505 -0.6100  0.1449 -0.2623
 7921TIP3    H245179   6.423   1.637   3.555 -1.7665  0.4855 -0.7432
 7922TIP3   OH245180   6.369   1.278  14.898  0.2936  0.1665  0.0788
 7922TIP3    H145181   6.386   1.206  14.837 -0.1879 -0.4505  0.6622
 7922TIP3    H245182   6.423   1.350  14.865  1.3137 -0.6611 -0.1245
 7923TIP3   OH245183   4.595   1.582  14.139 -0.1074  0.1122  0.1625
 7923TIP3    H145184   4.603   1.637  14.061 -2.0164 -1.3727 -1.1725
 7923TIP3    H245185   4.683   1.545  14.151  0.1696  0.1998 -1.4173
 7924TIP3   OH245186   4.472   3.147   1.644  0.1343 -0.0819 -0.5067
 7924TIP3    H145187   4.469   3.101   1.560  1.0373  0.2643 -0.7336
 7924TIP3    H245188   4.393   3.117   1.691 -1.2360  0.9013 -2.0771
 7925TIP3   OH245189   1.934   3.458   0.246  0.2892 -0.1301 -0.1156
 7925TIP3    H145190   1.957   3.415   0.329 -0.3626 -0.2458  0.0068
 7925TIP3    H245191   1.956   3.393   0.179  0.0620 -0.3484  0.0204
 7926TIP3   OH245192   1.921   0.552   0.126  0.2125  0.3815 -0.3248
 7926TIP3    H145193   1.998   0.497   0.111  0.7715  1.6290 -2.3314
 7926TIP3    H245194   1.847   0.497   0.099  0.5593 -0.1289 -0.2602
 7927TIP3   OH245195   1.971   4.834   3.170 -0.1717 -0.2769 -0.2546
 7927TIP3    H145196   2.046   4.781   3.145  0.3534 -0.4804  1.6442
 7927TIP3    H245197   2.005   4.896   3.234 -0.8206  2.2399 -2.1839
 7928TIP3   OH245198   4.523   3.817   4.542 -0.2593  0.0984  0.0235
 7928TIP3    H145199   4.520   3.800   4.448  0.9959 -2.1488  0.3180
 7928TIP3    H245200   4.475   3.743   4.581 -1.3782  1.3553  1.1564
 7929TIP3   OH245201   2.263   0.914  11.582 -0.2205  0.6136 -0.1307
 7929TIP3    H145202   2.308   0.846  11.532 -0.5210  0.5338 -0.2941
 7929TIP3    H245203   2.172   0.911  11.551 -1.0193 -1.0485  2.0752
 7930TIP3   OH245204   2.903   3.168   4.626  0.4227 -0.3396 -0.6554
 7930TIP3    H145205   2.850   3.224   4.683  1.3753 -2.8306  3.0918
 7930TIP3    H245206   2.841   3.105   4.589  0.1773 -1.0857  0.9043
 7931TIP3   OH245207   4.981   4.722  16.870  0.0153 -0.0287 -0.2914
 7931TIP3    H145208   5.065   4.704  16.827  1.0057  1.1189  1.0682
 7931TIP3    H245209   4.962   4.813  16.847 -0.1471  0.1506  0.5335
 7932TIP3   OH245210   5.935   6.314  12.350 -0.4936  0.4231  0.3363
 7932TIP3    H145211   5.848   6.324  12.388  0.5884  0.2040  3.1018
 7932TIP3    H245212   5.972   6.403  12.352 -0.0876  0.2490  0.7143
 7933TIP3   OH245213   2.657   2.763   1.528  0.1364 -0.0728  0.4082
 7933TIP3    H145214   2.734   2.819   1.540  1.0336 -0.8193 -1.3583
 7933TIP3    H245215   2.589   2.821   1.495  0.1970  0.4328  1.1489
 7934TIP3   OH245216   0.429   3.304   5.102 -0.0704 -0.4549  0.2467
 7934TIP3    H145217   0.392   3.328   5.187  0.3440  0.1240  0.2647
 7934TIP3    H245218   0.472   3.220   5.118  0.7679  0.0780  0.8290
 7935TIP3   OH245219   6.628   1.270   0.192 -0.5883  0.1550 -0.2571
 7935TIP3    H145220   6.653   1.303   0.107  0.2975 -2.0386 -0.9217
 7935TIP3    H245221   6.545   1.224   0.177 -0.9509  0.6038  0.2925
 7936TIP3   OH245222   4.424   1.752  16.595 -0.4489 -0.4125  0.3875
 7936TIP3    H145223   4.421   1.725  16.687  0.7483  0.7455  0.8024
 7936TIP3    H245224   4.498   1.705  16.558 -0.2371 -0.0343  0.3204
 7937TIP3   OH245225   1.810   2.044   3.219 -0.2507 -0.4374 -0.1786
 7937TIP3    H145226   1.873   2.068   3.287 -0.8523 -0.6229  0.4636
 7937TIP3    H245227   1.863   2.018   3.144  0.4344  1.3182 -0.3496
 7938TIP3   OH245228   0.451   0.122  14.241 -0.2828  0.0669 -0.1809
 7938TIP3    H145229   0.379   0.135  14.179  0.9022 -0.9244 -1.8695
 7938TIP3    H245230   0.523   0.174  14.204  0.7622 -1.3823 -0.2607
 7939TIP3   OH245231   2.627   1.872   4.051 -0.2170 -0.5467  0.5050
 7939TIP3    H145232   2.699   1.841   3.997  0.5375  0.9340  0.6371
 7939TIP3    H245233   2.667   1.898   4.134 -0.3352  3.1831 -0.4482
 7940TIP3   OH245234   3.333   4.385  14.104  0.5890 -0.8483 -0.0356
 7940TIP3    H145235   3.391   4.441  14.053  0.7499 -1.5697 -0.6608
 7940TIP3    H245236   3.253   4.378  14.052 -0.3975  0.7662  1.1777
 7941TIP3   OH245237   1.685   1.029   1.645 -0.3590  0.4603 -0.4157
 7941TIP3    H145238   1.652   1.027   1.735  0.6306  0.9389 -0.0203
 7941TIP3    H245239   1.709   0.938   1.626  0.2612  0.4936  0.1443
 7942TIP3   OH245240   0.656   4.186   0.627 -0.3828 -0.1067  0.1186
 7942TIP3    H145241   0.632   4.247   0.557 -0.1306 -0.5385 -0.3481
 7942TIP3    H245242   0.612   4.104   0.604 -0.5012 -0.1821  0.5999
 7943TIP3   OH245243   1.254   1.194   3.407  0.4284  0.1097  0.2049
 7943TIP3    H145244   1.181   1.253   3.426  0.7317  0.6522 -0.2755
 7943TIP3    H245245   1.311   1.244   3.349  0.8333 -0.5607  0.0088
 7944TIP3   OH245246   1.342   2.399   4.546  0.5735  0.1523 -0.7785
 7944TIP3    H145247   1.280   2.451   4.597  1.6004  2.1220 -1.4475
 7944TIP3    H245248   1.292   2.370   4.469  0.5919  2.2576 -1.6403
 7945TIP3   OH245249   3.043   0.155   1.583 -0.6755 -0.2708 -0.6274
 7945TIP3    H145250   3.125   0.119   1.551 -0.4141  0.1067 -0.3838
 7945TIP3    H245251   3.000   0.082   1.629 -0.8304 -0.6799 -1.4085
 7946TIP3   OH245252   1.931   0.378  16.533  0.2440 -0.1450 -0.1426
 7946TIP3    H145253   1.954   0.408  16.445  0.8276 -0.5967 -0.1461
 7946TIP3    H245254   1.899   0.289  16.521 -2.4527  0.7502 -0.2577
 7947TIP3   OH245255   0.422   1.798  16.845  0.2366 -0.7198 -0.2686
 7947TIP3    H145256   0.499   1.775  16.897 -1.6816 -3.3824  1.6179
 7947TIP3    H245257   0.348   1.771  16.898 -1.9784 -0.5732 -3.0514
 7948TIP3   OH245258   6.390   5.038  13.499  0.3635 -0.6787 -0.2988
 7948TIP3    H145259   6.472   5.087  13.508  0.1247 -0.5254  1.3675
 7948TIP3    H245260   6.322   5.105  13.492  0.2091 -0.7711  0.2315
 7949TIP3   OH245261   2.859   4.788  14.633  0.3926 -0.1992  0.2057
 7949TIP3    H145262   2.819   4.703  14.617 -1.7058  0.9815 -1.1795
 7949TIP3    H245263   2.922   4.771  14.703  1.0863 -3.1591 -0.9573
 7950TIP3   OH245264   0.356   4.640   0.092 -0.3595  0.7235  0.3035
 7950TIP3    H145265   0.310   4.669   0.013 -0.2105  2.2130  0.7460
 7950TIP3    H245266   0.446   4.627   0.064 -0.8711 -1.7845 -0.4639
 7951TIP3   OH245267   6.703   3.790  10.613 -0.3955 -0.3627 -0.6909
 7951TIP3    H145268   6.679   3.850  10.684  0.0477 -0.6434 -0.3026
 7951TIP3    H245269   6.792   3.815  10.590 -0.7051  0.0419 -1.4812
 7952TIP3   OH245270   2.146   0.650  12.620  0.2621 -0.0552 -0.2573
 7952TIP3    H145271   2.240   0.666  12.620  0.3549 -0.5772 -0.7116
 7952TIP3    H245272   2.113   0.704  12.547 -0.3157  2.9534  2.0407
 7953TIP3   OH245273   0.986   6.261  13.257  0.2016  0.2144 -0.4454
 7953TIP3    H145274   1.006   6.337  13.312 -0.8411  1.4433 -1.6840
 7953TIP3    H245275   1.072   6.226  13.232  0.6885 -0.1744  1.6531
 7954TIP3   OH245276   6.293   3.991  13.866 -0.0071  0.1397 -0.2078
 7954TIP3    H145277   6.388   3.993  13.854 -0.2007 -1.0273 -2.5063
 7954TIP3    H245278   6.280   3.991  13.961  2.2342  1.2207  0.1522
 7955TIP3   OH245279   5.920   4.050   2.357  0.3129  0.0945  0.6339
 7955TIP3    H145280   5.857   4.097   2.303  1.4906  1.3981  0.3222
 7955TIP3    H245281   6.000   4.050   2.304  0.6355 -1.3724  1.0802
 7956TIP3   OH245282   3.203   3.430   1.938  0.3854 -0.0927 -0.0836
 7956TIP3    H145283   3.167   3.341   1.943 -0.0016  0.0560 -0.1356
 7956TIP3    H245284   3.261   3.437   2.014 -1.1885  0.3015  1.1337
 7957TIP3   OH245285   5.308   0.017  15.053 -0.9593 -0.4152 -0.7290
 7957TIP3    H145286   5.286   0.052  14.966 -2.1813  0.1654 -0.2196
 7957TIP3    H245287   5.243  -0.052  15.067 -1.4870  0.2519  0.1717
 7958TIP3   OH245288   1.677   6.137   0.700  0.5678 -0.8068  0.0284
 7958TIP3    H145289   1.688   6.185   0.618  2.8532 -3.4345 -1.3460
 7958TIP3    H245290   1.745   6.070   0.698 -0.0341 -1.7057  3.5850
 7959TIP3   OH245291   3.395   4.259   1.641 -0.0809  0.1564 -0.3261
 7959TIP3    H145292   3.417   4.239   1.550  2.2137 -1.0142  0.3991
 7959TIP3    H245293   3.479   4.279   1.682 -1.0112  0.2746  1.6434
 7960TIP3   OH245294   1.210   1.973  15.566 -0.2068  0.6852  0.4506
 7960TIP3    H145295   1.251   1.946  15.484  3.0983  0.3864  2.0332
 7960TIP3    H245296   1.137   1.913  15.577 -0.0005 -0.0459 -1.6673
 7961TIP3   OH245297   4.183   5.479   4.434  0.3426 -0.6771 -0.5815
 7961TIP3    H145298   4.088   5.481   4.417  0.1150  0.9758  0.6581
 7961TIP3    H245299   4.195   5.401   4.488 -0.6830  0.2168  1.0226
 7962TIP3   OH245300   3.767   5.487   1.837  0.0469 -0.2658  0.1115
 7962TIP3    H145301   3.815   5.553   1.787 -0.1527  0.8038  1.2784
 7962TIP3    H245302   3.761   5.524   1.925 -1.3945 -1.1605  0.4161
 7963TIP3   OH245303   1.646   5.834   3.063  0.5555  0.3751 -0.0850
 7963TIP3    H145304   1.733   5.873   3.067  1.3739 -1.4460  0.9955
 7963TIP3    H245305   1.611   5.843   3.152 -1.1323  2.6165 -0.8766
 7964TIP3   OH245306   4.058   3.564  10.807 -0.2333  0.5383  0.4264
 7964TIP3    H145307   4.059   3.478  10.850  0.1799  1.0489  1.4655
 7964TIP3    H245308   3.969   3.572  10.773 -0.0423 -0.6545 -0.4282
 7965TIP3   OH245309   5.735   0.790  15.572  0.3655  0.0963 -0.0250
 7965TIP3    H145310   5.791   0.742  15.511  1.5121  2.0076 -0.5944
 7965TIP3    H245311   5.646   0.777  15.538  0.9892  1.4337 -2.4867
 7966TIP3   OH245312   3.952   4.345   2.299 -0.1582 -0.5457 -0.1414
 7966TIP3    H145313   3.993   4.315   2.218 -1.1044 -0.6429 -0.5988
 7966TIP3    H245314   4.021   4.336   2.365  0.8841  0.2654 -1.0613
 7967TIP3   OH245315   5.776   3.753   4.497  0.0823  0.6400  0.3766
 7967TIP3    H145316   5.849   3.745   4.435 -0.3355  0.7124 -0.1357
 7967TIP3    H245317   5.714   3.812   4.453 -1.4238 -1.3547 -0.3198
 7968TIP3   OH245318   5.192   1.067  14.505 -0.5630 -0.1076 -0.2130
 7968TIP3    H145319   5.266   1.125  14.492 -1.3481  1.1011  0.5417
 7968TIP3    H245320   5.160   1.087  14.593 -2.3251  0.0534 -0.8428
 7969TIP3   OH245321   4.033   0.114  16.141  0.1451 -0.4886 -0.4580
 7969TIP3    H145322   4.014   0.077  16.055 -1.6949  0.1086 -0.3671
 7969TIP3    H245323   4.088   0.048  16.184 -0.5035 -1.6952 -1.4033
 7970TIP3   OH245324   3.772   3.167   5.815 -0.2529 -0.6182 -0.3002
 7970TIP3    H145325   3.695   3.123   5.778 -0.5854  0.2482 -0.6573
 7970TIP3    H245326   3.834   3.173   5.742  0.3954 -1.7838  0.1106
 7971TIP3   OH245327   6.771   6.710  12.820  0.0189 -0.2831 -0.1038
 7971TIP3    H145328   6.829   6.674  12.887 -1.4213  0.3355  1.5303
 7971TIP3    H245329   6.739   6.792  12.857 -2.2399 -0.7992 -0.7687
 7972TIP3   OH245330   0.879   3.449  15.647  0.6475  0.1575 -0.2711
 7972TIP3    H145331   0.834   3.449  15.732  1.0391 -1.1021 -0.0465
 7972TIP3    H245332   0.810   3.466  15.583  0.3559  1.1800  0.2806
 7973TIP3   OH245333   4.570   5.029  12.229 -0.3437 -0.4024 -0.6529
 7973TIP3    H145334   4.637   4.996  12.170 -1.2616  1.0038 -2.5921
 7973TIP3    H245335   4.554   5.119  12.200 -1.2581  0.1771  1.3962
 7974TIP3   OH245336   3.285   3.867   1.531  0.0065  0.4302 -0.1506
 7974TIP3    H145337   3.277   3.922   1.609  1.5766  1.4425 -0.6577
 7974TIP3    H245338   3.222   3.797   1.545  1.2770 -0.2856  2.7648
 7975TIP3   OH245339   4.186   2.866  13.642 -0.0559  0.0816 -0.1456
 7975TIP3    H145340   4.157   2.787  13.686 -1.0012  1.3988  1.7187
 7975TIP3    H245341   4.113   2.888  13.583  0.2668 -0.4838 -0.7680
 7976TIP3   OH245342   4.791   5.858   3.719  0.4801 -0.5908  0.3091
 7976TIP3    H145343   4.791   5.779   3.773 -0.1500 -0.9855 -0.2434
 7976TIP3    H245344   4.734   5.836   3.645 -1.8981  1.2257  1.4326
 7977TIP3   OH245345   6.214   2.571  17.213 -0.0319  0.1493  1.0300
 7977TIP3    H145346   6.188   2.658  17.183  0.5627 -0.1465 -0.4534
 7977TIP3    H245347   6.138   2.516  17.195  0.4633 -0.1101 -0.4362
 7978TIP3   OH245348   2.970   3.856  13.650 -0.0843 -0.5973 -0.3807
 7978TIP3    H145349   3.028   3.899  13.712  0.0107 -0.4482 -0.5733
 7978TIP3    H245350   2.898   3.823  13.704 -0.7673  0.8360 -0.3666
 7979TIP3   OH245351   4.058   6.093   5.775 -0.2207 -0.0853  0.0186
 7979TIP3    H145352   4.002   6.141   5.714 -1.3826 -2.4375 -0.8991
 7979TIP3    H245353   4.022   6.115   5.862 -1.7562 -0.5271 -0.4729
 7980TIP3   OH245354   2.131   1.954  14.934  0.7288 -0.7542  0.5891
 7980TIP3    H145355   2.225   1.936  14.938  0.4437 -2.4633  0.4813
 7980TIP3    H245356   2.092   1.889  14.993 -0.5709 -1.9668 -1.4527
 7981TIP3   OH245357   4.442   5.057  12.788  0.1568 -0.2125  0.7611
 7981TIP3    H145358   4.358   5.066  12.743  0.1263  1.6605  1.1290
 7981TIP3    H245359   4.419   5.029  12.876 -0.1509  0.8541  1.0333
 7982TIP3   OH245360   4.315   6.177   5.754 -0.4349 -0.4749  0.0149
 7982TIP3    H145361   4.321   6.225   5.672  0.9889 -1.6123 -0.5867
 7982TIP3    H245362   4.224   6.147   5.758 -0.6276 -0.0299 -0.9095
 7983TIP3   OH245363   5.202   0.984  15.763 -0.1350  1.0697  0.2843
 7983TIP3    H145364   5.193   0.953  15.853 -1.1461  1.7948  0.4452
 7983TIP3    H245365   5.119   0.962  15.721  1.0108 -1.0006 -1.0438
 7984TIP3   OH245366   6.511   1.173  16.781 -0.1824 -0.7480  0.6096
 7984TIP3    H145367   6.424   1.199  16.752  0.2815 -0.5230 -0.6268
 7984TIP3    H245368   6.571   1.219  16.723  0.7483 -1.5927  0.8607
 7985TIP3   OH245369   1.459   0.754   5.612 -0.5801 -0.1655  0.2413
 7985TIP3    H145370   1.482   0.842   5.581  1.1831 -0.2803  1.0945
 7985TIP3    H245371   1.363   0.752   5.608 -0.6035  1.1073 -1.5815
 7986TIP3   OH245372   4.596   4.060   0.940  0.5433 -0.5741  0.2063
 7986TIP3    H145373   4.580   4.083   1.032 -1.1973 -1.1945  0.0956
 7986TIP3    H245374   4.681   4.099   0.920  1.1279 -0.7054  2.1721
 7987TIP3   OH245375   3.993   2.800  12.877  0.6737 -0.1652 -0.3465
 7987TIP3    H145376   3.905   2.806  12.839  1.0097 -0.6164 -1.2272
 7987TIP3    H245377   4.025   2.890  12.876 -0.1975  0.1971  1.0610
 7988TIP3   OH245378   4.641   2.307   4.984  0.5631 -0.7747 -0.1364
 7988TIP3    H145379   4.550   2.333   4.967  0.5237 -0.3972  0.6147
 7988TIP3    H245380   4.693   2.367   4.930  0.4283  0.2213  0.7930
 7989TIP3   OH245381   1.863   5.265   6.163  0.0530  0.1487 -0.6353
 7989TIP3    H145382   1.914   5.254   6.243 -0.5370 -1.9258 -0.4839
 7989TIP3    H245383   1.861   5.360   6.149  1.7524  0.4470  0.7453
 7990TIP3   OH245384   0.795   3.492   2.537  0.8751  0.3803  0.3439
 7990TIP3    H145385   0.716   3.545   2.524  0.7417  0.1258  0.1059
 7990TIP3    H245386   0.763   3.406   2.564  1.0274  0.0600 -0.4461
 7991TIP3   OH245387   1.947   1.786   1.843 -0.0667 -0.1262 -0.1429
 7991TIP3    H145388   1.925   1.747   1.928 -1.4219  1.9000  0.5051
 7991TIP3    H245389   1.907   1.726   1.779  1.3116 -1.8893  0.5746
 7992TIP3   OH245390   6.400   5.389  13.370  0.0963 -0.6931  0.4827
 7992TIP3    H145391   6.352   5.361  13.448 -0.4740 -1.4892 -0.1415
 7992TIP3    H245392   6.399   5.313  13.312  0.0408  0.0588 -0.5334
 7993TIP3   OH245393   2.390   2.586   2.336  0.7051  0.0235  0.9713
 7993TIP3    H145394   2.298   2.564   2.348  0.3495  0.8441 -0.1059
 7993TIP3    H245395   2.428   2.507   2.296  0.7064 -0.6630  2.2527
 7994TIP3   OH245396   0.365   1.313  14.683 -0.5290  0.5683  0.1212
 7994TIP3    H145397   0.403   1.383  14.630  0.7771 -1.3408 -1.6332
 7994TIP3    H245398   0.409   1.321  14.768 -0.6282  2.0252  0.0658
 7995TIP3   OH245399   1.450   5.012   6.150 -0.0655  0.5945  0.4131
 7995TIP3    H145400   1.503   5.072   6.204  2.5016 -1.1539 -0.0024
 7995TIP3    H245401   1.435   4.936   6.207 -0.3791  0.2151 -0.1693
 7996TIP3   OH245402   4.411   2.668  16.758  0.2362  0.1925 -0.7582
 7996TIP3    H145403   4.363   2.629  16.685  0.3900 -0.3272 -0.5893
 7996TIP3    H245404   4.418   2.598  16.822 -0.3215  0.7885 -0.0319
 7997TIP3   OH245405   3.996   4.363  11.471  0.5408 -0.7126  0.0401
 7997TIP3    H145406   3.921   4.331  11.422 -1.1646  0.5144  1.7169
 7997TIP3    H245407   4.045   4.285  11.495  0.7240 -1.4272 -2.4157
 7998TIP3   OH245408   5.971   2.662   2.587 -0.2858 -0.0106  0.5698
 7998TIP3    H145409   6.055   2.634   2.623 -0.3619  0.4594  1.1190
 7998TIP3    H245410   5.912   2.664   2.662 -1.2039 -1.8007 -0.0298
 7999TIP3   OH245411   0.626   0.319   5.634 -0.0326 -0.0957  0.2173
 7999TIP3    H145412   0.580   0.261   5.694 -1.7254 -0.2756 -1.1872
 7999TIP3    H245413   0.717   0.288   5.636  0.3218  0.7871  3.6696
 8000TIP3   OH245414   6.278   0.974  16.095 -0.0909  0.0003  0.0108
 8000TIP3    H145415   6.362   0.928  16.088  0.0719  0.1108  1.0396
 8000TIP3    H245416   6.294   1.059  16.055  0.1222 -0.1798 -0.2973
 8001TIP3   OH245417   1.310   0.821   2.447 -0.1684 -0.5559 -0.1376
 8001TIP3    H145418   1.385   0.874   2.475  0.4232 -0.6661 -1.4266
 8001TIP3    H245419   1.284   0.859   2.363 -1.6337 -0.4753  0.3147
 8002TIP3   OH245420   1.335   6.473   2.902  0.4886  0.1219 -0.2804
 8002TIP3    H145421   1.248   6.439   2.926  0.7878  0.7494  1.9792
 8002TIP3    H245422   1.396   6.421   2.954  1.2804  1.1354 -0.1629
 8003TIP3   OH245423   0.682   1.507   2.443  0.0145 -0.3077  0.6823
 8003TIP3    H145424   0.615   1.440   2.427  1.2542 -1.2549 -0.7420
 8003TIP3    H245425   0.764   1.465   2.419  0.6689  2.3197 -2.1729
 8004TIP3   OH245426   5.777   1.992   1.952 -0.2274 -0.0735 -0.1453
 8004TIP3    H145427   5.807   1.983   2.043  0.2708  0.6810 -0.2313
 8004TIP3    H245428   5.856   1.980   1.899  0.0548  2.3177 -0.3544
 8005TIP3   OH245429   0.064   4.445   3.876 -0.3120 -0.2052 -0.4067
 8005TIP3    H145430   0.114   4.475   3.952  1.4491 -1.0991 -1.1505
 8005TIP3    H245431   0.019   4.524   3.845 -0.9012  0.2178  1.4008
 8006TIP3   OH245432   0.553   1.834  12.902 -0.0013  0.9273 -0.3453
 8006TIP3    H145433   0.625   1.797  12.851 -0.1300  2.4610 -1.7382
 8006TIP3    H245434   0.543   1.775  12.976  2.7611  0.7260 -0.0309
 8007TIP3   OH245435   6.533   5.132  15.436  0.4880  0.0359  0.6663
 8007TIP3    H145436   6.621   5.113  15.467 -0.5044  0.7874  4.4336
 8007TIP3    H245437   6.504   5.207  15.488 -2.2794  0.0004 -0.6358
 8008TIP3   OH245438   5.803   1.906   2.692 -0.4096 -0.0282  0.1398
 8008TIP3    H145439   5.712   1.913   2.722 -0.2495 -1.2457  0.9634
 8008TIP3    H245440   5.852   1.881   2.770  0.8992  2.0875  0.0490
 8009TIP3   OH245441   5.842   2.683  16.582  0.5767  0.8953  0.2922
 8009TIP3    H145442   5.797   2.734  16.650  0.6327  0.1651  0.8789
 8009TIP3    H245443   5.794   2.704  16.502  1.4357  2.9450  0.2526
 8010TIP3   OH245444   6.652   4.761  15.150 -0.4987 -0.2913  0.2162
 8010TIP3    H145445   6.583   4.803  15.203 -2.4115 -3.6919  0.7318
 8010TIP3    H245446   6.681   4.829  15.090 -2.2208  2.1571  1.9592
 8011TIP3   OH245447   6.111   5.867   1.073  0.3906 -0.4057  0.3423
 8011TIP3    H145448   6.042   5.849   1.009  1.6288 -2.0485 -0.5923
 8011TIP3    H245449   6.112   5.789   1.129  0.0844  0.5305  1.7091
 8012TIP3   OH245450   4.681   4.943   6.241 -0.4317  0.5050 -0.1532
 8012TIP3    H145451   4.633   4.991   6.173  0.6483  0.3658 -1.0399
 8012TIP3    H245452   4.618   4.934   6.312 -1.7326  0.2943 -1.2852
 8013TIP3   OH245453   1.385   3.776   6.408  0.1456  0.4171 -0.2794
 8013TIP3    H145454   1.380   3.777   6.504 -1.0876  0.7307 -0.3355
 8013TIP3    H245455   1.357   3.688   6.384  0.2019  0.4251 -0.3744
 8014TIP3   OH245456   3.886   3.321   0.641  0.5176  0.5455  0.2865
 8014TIP3    H145457   3.949   3.260   0.679  1.0215  0.9876  0.1829
 8014TIP3    H245458   3.810   3.317   0.698 -0.0305 -1.2534 -0.5158
 8015TIP3   OH245459   2.342   4.504  16.746 -0.6733 -0.1929 -0.3340
 8015TIP3    H145460   2.368   4.594  16.731 -0.1343 -0.2089  0.4706
 8015TIP3    H245461   2.288   4.482  16.670  1.0707  0.0540 -1.7141
 8016TIP3   OH245462   5.778   2.250   3.528 -0.2576 -0.1506 -0.0607
 8016TIP3    H145463   5.693   2.208   3.538 -0.0396 -0.4597  0.4902
 8016TIP3    H245464   5.771   2.331   3.578  0.4256 -1.1198  1.6660
 8017TIP3   OH245465   0.264   3.826   4.064  0.2745 -0.4720 -0.1077
 8017TIP3    H145466   0.280   3.741   4.023  2.7577 -0.5378  0.7975
 8017TIP3    H245467   0.324   3.828   4.139 -1.2907  1.2200  1.1981
 8018TIP3   OH245468   3.365   2.103   1.583 -0.1257  0.2519 -0.1498
 8018TIP3    H145469   3.319   2.023   1.609 -1.4956 -0.6670 -4.5551
 8018TIP3    H245470   3.306   2.174   1.609 -0.9146 -0.4674  0.0742
 8019TIP3   OH245471   3.997   0.353   0.206 -0.1536  0.4999  0.1680
 8019TIP3    H145472   4.091   0.370   0.214  0.1844 -0.7986 -0.7095
 8019TIP3    H245473   3.974   0.384   0.119 -0.5158  0.7057  0.3346
 8020TIP3   OH245474   2.751   0.533   3.999 -0.1339 -0.5265 -0.6393
 8020TIP3    H145475   2.810   0.479   3.946  0.5636  0.7151 -1.1625
 8020TIP3    H245476   2.673   0.543   3.945 -0.4545 -1.3614 -0.3517
 8021TIP3   OH245477   6.536   0.112   2.669 -0.2782  0.3152  0.3497
 8021TIP3    H145478   6.517   0.018   2.677  0.3635  0.1249 -0.2789
 8021TIP3    H245479   6.608   0.126   2.730  0.0461  0.2641 -0.0167
 8022TIP3   OH245480   5.801   5.790  12.995  0.9034 -0.5077  0.0387
 8022TIP3    H145481   5.826   5.751  12.911  1.3964 -1.3424  0.5525
 8022TIP3    H245482   5.802   5.884  12.980 -1.8231 -0.6616 -1.6625
 8023TIP3   OH245483   5.950   1.403   3.329  0.2487 -0.0735 -0.4989
 8023TIP3    H145484   5.873   1.460   3.336  0.8450  0.6881 -0.0203
 8023TIP3    H245485   5.953   1.378   3.237 -0.5985 -0.1594 -0.5164
 8024TIP3   OH245486   5.243   6.720  10.502 -0.0795  0.6984  0.0507
 8024TIP3    H145487   5.298   6.662  10.449 -1.2275 -0.9599  0.6090
 8024TIP3    H245488   5.173   6.747  10.443 -0.5541  0.0272  0.3013
 8025TIP3   OH245489   0.122   3.534  14.271 -0.2763 -0.1214  0.1478
 8025TIP3    H145490   0.172   3.597  14.219 -1.1468  0.7971  0.3940
 8025TIP3    H245491   0.033   3.568  14.270 -0.1882  0.3936  2.9294
 8026TIP3   OH245492   2.822   5.285  15.453  0.8487 -0.1502  0.3019
 8026TIP3    H145493   2.796   5.360  15.507 -1.9350 -0.7955  0.0365
 8026TIP3    H245494   2.752   5.221  15.465  0.3269 -0.5784 -3.5720
 8027TIP3   OH245495   0.032   1.526   3.227 -0.3878 -0.6750 -0.6624
 8027TIP3    H145496   0.123   1.556   3.230 -0.9654  1.1842 -0.4840
 8027TIP3    H245497   0.018   1.482   3.311 -0.4146  1.4735  0.5162
 8028TIP3   OH245498   5.901   3.549  13.435 -0.3166  0.0022 -0.0691
 8028TIP3    H145499   5.963   3.505  13.493 -0.7347 -0.2121  0.2211
 8028TIP3    H245500   5.945   3.631  13.411  0.4975 -0.6031 -0.6735
 8029TIP3   OH245501   2.933   5.035   4.864  0.4994 -0.3137 -0.2221
 8029TIP3    H145502   2.880   5.092   4.920  0.0311  0.0079 -0.9787
 8029TIP3    H245503   2.868   4.982   4.817  0.8611 -0.1824 -0.8769
 8030TIP3   OH245504   4.921   5.581  10.747 -0.0586  0.1814 -0.0419
 8030TIP3    H145505   4.985   5.589  10.676 -0.0389  0.3718 -0.0038
 8030TIP3    H245506   4.948   5.647  10.811 -0.0440 -0.0280  0.1678
 8031TIP3   OH245507   6.435   4.184  12.707  0.6347  0.4989  0.2129
 8031TIP3    H145508   6.504   4.123  12.679  0.9335  0.8692  0.1399
 8031TIP3    H245509   6.377   4.130  12.761  2.1219  0.6575  2.0473
 8032TIP3   OH245510   5.254   1.241  11.200  0.3202  0.5346 -0.2179
 8032TIP3    H145511   5.266   1.214  11.108  1.3149 -0.5470  0.1911
 8032TIP3    H245512   5.337   1.280  11.224 -0.2379  1.6162 -0.0161
 8033TIP3   OH245513   6.336   2.100  13.807 -0.3654  0.2717  0.7045
 8033TIP3    H145514   6.294   2.046  13.741 -1.2368  1.0918  0.5694
 8033TIP3    H245515   6.396   2.040  13.852  1.5699  0.0716 -1.9271
 8034TIP3   OH245516   5.742   2.488   4.575 -0.2377  0.0963 -0.1899
 8034TIP3    H145517   5.836   2.501   4.568  0.0303 -1.9606 -1.0276
 8034TIP3    H245518   5.727   2.399   4.545 -2.2393 -0.3222  1.7181
 8035TIP3   OH245519   4.210   3.030  12.579 -0.2145  0.2703 -0.0720
 8035TIP3    H145520   4.203   3.042  12.673 -0.7293  1.5521 -0.2501
 8035TIP3    H245521   4.293   2.985  12.566  0.9371  2.0104  0.8771
 8036TIP3   OH245522   0.412   4.220  15.700  0.0496  0.6446  0.0289
 8036TIP3    H145523   0.431   4.178  15.616 -1.6281  2.4154 -1.3170
 8036TIP3    H245524   0.478   4.290  15.707  0.2957  0.3905  0.2931
 8037TIP3   OH245525   6.395   4.336   1.448  0.0069 -0.4009  0.1751
 8037TIP3    H145526   6.441   4.304   1.526  1.7989 -0.6571 -0.9411
 8037TIP3    H245527   6.430   4.424   1.434 -0.6370 -0.1829 -0.1097
 8038TIP3   OH245528   3.647   0.672   1.803  0.4651 -0.3426 -0.1389
 8038TIP3    H145529   3.668   0.680   1.710 -1.7375  1.3611 -0.5714
 8038TIP3    H245530   3.674   0.755   1.842 -3.3245  1.2128 -0.3903
 8039TIP3   OH245531   2.838   5.497   2.080 -0.0852  0.1091 -0.5071
 8039TIP3    H145532   2.927   5.510   2.048 -0.7196  0.9021 -2.0214
 8039TIP3    H245533   2.849   5.446   2.160  1.8824  2.1843  0.6489
 8040TIP3   OH245534   2.610   3.776  14.791 -0.3611 -0.2951 -0.7297
 8040TIP3    H145535   2.533   3.832  14.787 -1.1941 -1.2226  0.9275
 8040TIP3    H245536   2.585   3.698  14.741 -0.3310 -0.3882 -0.6020
 8041TIP3   OH245537   3.085   1.023   2.962 -0.5474  0.1086  0.0971
 8041TIP3    H145538   3.080   0.996   2.870 -0.9430  0.1870  0.0937
 8041TIP3    H245539   3.168   0.987   2.993 -1.9883 -3.0219  0.7067
 8042TIP3   OH245540   2.798   5.204   2.182 -0.1395 -0.0089 -0.2047
 8042TIP3    H145541   2.711   5.243   2.171  0.4648  0.8384 -2.7001
 8042TIP3    H245542   2.827   5.186   2.093  1.6889 -1.5923  0.6512
 8043TIP3   OH245543   1.282   2.869   3.477  0.7551 -0.7001  0.0114
 8043TIP3    H145544   1.334   2.790   3.462 -0.5796 -1.4168 -1.0256
 8043TIP3    H245545   1.331   2.939   3.433  1.1274 -1.2533 -0.4612
 8044TIP3   OH245546   6.137   2.321  10.712 -0.0477  0.2173  0.9068
 8044TIP3    H145547   6.133   2.319  10.808 -0.3895  2.7699  1.0064
 8044TIP3    H245548   6.113   2.411  10.689  1.0164 -0.0593 -1.5369
 8045TIP3   OH245549   3.549   0.920  12.454  0.3430 -0.0605  0.5581
 8045TIP3    H145550   3.583   0.833  12.431  0.6007  0.0255  0.6102
 8045TIP3    H245551   3.624   0.979  12.441  0.0814  0.2006  0.2156
 8046TIP3   OH245552   0.975   1.370  12.987 -0.7419 -0.5281 -0.6288
 8046TIP3    H145553   0.885   1.367  12.952 -0.0347 -1.0200 -2.5442
 8046TIP3    H245554   1.003   1.279  12.988 -0.1923 -0.3588 -0.2108
 8047TIP3   OH245555   3.028   5.910  12.856 -0.4320 -0.4999  0.0823
 8047TIP3    H145556   2.949   5.895  12.803 -0.0577 -0.5472 -0.4670
 8047TIP3    H245557   3.080   5.971  12.804 -0.1501 -0.3821  0.4972
 8048TIP3   OH245558   3.557   4.519   0.669 -0.0327 -0.5724 -0.1421
 8048TIP3    H145559   3.547   4.595   0.612  0.8265  0.3995  0.9510
 8048TIP3    H245560   3.626   4.467   0.628 -0.2098 -0.4696 -0.5770
 8049TIP3   OH245561   5.069   0.886   0.723 -0.1343 -0.5771 -0.2899
 8049TIP3    H145562   5.066   0.880   0.627 -0.2075 -3.7040 -0.1988
 8049TIP3    H245563   5.144   0.941   0.742 -1.0310  1.4182 -2.1054
 8050TIP3   OH245564   4.621   0.191   4.370 -0.5810 -0.7506 -0.2516
 8050TIP3    H145565   4.564   0.214   4.444  0.9193 -0.0892  0.7305
 8050TIP3    H245566   4.575   0.118   4.328 -2.5940  0.3128 -0.0518
 8051TIP3   OH245567   3.691   5.360   0.455  0.8226  0.2752 -0.0238
 8051TIP3    H145568   3.649   5.276   0.437  1.4229 -0.0911  0.2641
 8051TIP3    H245569   3.762   5.339   0.516  1.8424  0.7668 -0.9923
 8052TIP3   OH245570   4.313   1.217  16.358  0.1997  0.2303  0.1179
 8052TIP3    H145571   4.358   1.184  16.280  2.3456 -1.7039  2.0264
 8052TIP3    H245572   4.286   1.138  16.405 -2.1692  1.3579  0.7887
 8053TIP3   OH245573   0.230   5.647   1.229  0.3642 -0.0882 -0.5889
 8053TIP3    H145574   0.303   5.690   1.273 -1.1978  1.9666  0.1608
 8053TIP3    H245575   0.178   5.609   1.300  0.4063 -1.0945 -1.0758
 8054TIP3   OH245576   6.162   2.617  11.083  0.3887  0.0326  0.2323
 8054TIP3    H145577   6.230   2.655  11.138  0.9923 -1.3838  0.4985
 8054TIP3    H245578   6.194   2.530  11.061  1.2549  1.2116 -4.2078
 8055TIP3   OH245579   5.561   5.067   4.778 -0.5388 -0.2344 -0.1197
 8055TIP3    H145580   5.565   5.141   4.839 -0.6743  0.6863 -1.1974
 8055TIP3    H245581   5.585   4.991   4.831  1.2198  0.8002  0.6533
 8056TIP3   OH245582   1.185   3.683   0.455  0.0282 -0.2883 -0.4062
 8056TIP3    H145583   1.227   3.678   0.369 -0.3459  0.9258 -0.6833
 8056TIP3    H245584   1.198   3.596   0.493  2.5966 -0.0536 -0.5525
 8057TIP3   OH245585   4.120   5.401  13.887  0.1521 -0.2453  0.6379
 8057TIP3    H145586   4.119   5.342  13.811 -1.0069 -0.6758  0.9604
 8057TIP3    H245587   4.148   5.485  13.851 -1.5502 -0.1284 -0.5433
 8058TIP3   OH245588   2.493   6.110   2.344  0.0209  0.1959 -0.0644
 8058TIP3    H145589   2.454   6.025   2.365  0.3744  0.0259 -0.0845
 8058TIP3    H245590   2.431   6.151   2.284 -0.8141  0.5158  0.9890
 8059TIP3   OH245591   1.046   4.642   4.697  0.0059 -0.5308  0.1528
 8059TIP3    H145592   1.087   4.720   4.734 -1.1038 -0.4821  1.3356
 8059TIP3    H245593   0.963   4.673   4.662 -1.5850 -1.4970  2.7812
 8060TIP3   OH245594   0.282   0.290   2.145 -0.1423 -0.1589 -0.1251
 8060TIP3    H145595   0.232   0.252   2.218 -0.4687  1.3898  0.4878
 8060TIP3    H245596   0.316   0.372   2.180 -1.6708  1.4462 -2.1995
 8061TIP3   OH245597   2.217   0.580  14.791 -0.2451  0.3382 -0.2408
 8061TIP3    H145598   2.209   0.673  14.812  0.5863  0.0706  1.3829
 8061TIP3    H245599   2.221   0.536  14.875 -0.4149 -1.1721 -0.9803
 8062TIP3   OH245600   3.666   6.060   5.166 -0.4022  0.3432 -0.0598
 8062TIP3    H145601   3.699   6.013   5.242 -0.8245 -1.4801 -0.9325
 8062TIP3    H245602   3.736   6.056   5.102  0.8187  3.7480  0.8394
 8063TIP3   OH245603   5.905   2.914  13.933 -0.2253  0.5626 -0.1615
 8063TIP3    H145604   5.897   2.943  14.023 -2.3196 -2.5935  0.8639
 8063TIP3    H245605   5.980   2.855  13.933 -0.9550 -0.4033 -0.0991
 8064TIP3   OH245606   5.410   3.435  16.653 -0.6149 -0.0243 -0.2729
 8064TIP3    H145607   5.422   3.460  16.744 -1.7880  0.7744 -0.3152
 8064TIP3    H245608   5.321   3.401  16.649  0.2031 -2.3350 -0.6614
 8065TIP3   OH245609   4.692   0.194  11.737  0.0804 -0.0133 -0.0260
 8065TIP3    H145610   4.752   0.120  11.749  1.1244  1.0100  1.4220
 8065TIP3    H245611   4.737   0.252  11.676 -0.6260 -0.4440 -0.9689
 8066TIP3   OH245612   6.128   4.904  13.195  0.2806 -0.0748  0.0321
 8066TIP3    H145613   6.165   4.992  13.190 -0.5452  0.2893  0.1050
 8066TIP3    H245614   6.169   4.864  13.271  0.4871  0.3306  0.1345
 8067TIP3   OH245615   1.884   5.225   3.627 -0.5811 -0.2910  0.5234
 8067TIP3    H145616   1.967   5.178   3.618 -0.9488 -0.5805 -1.9939
 8067TIP3    H245617   1.817   5.160   3.609 -1.1446  0.8571 -1.8839
 8068TIP3   OH245618   5.400   4.584   0.835 -0.0305 -0.2605  0.0216
 8068TIP3    H145619   5.473   4.646   0.841 -1.9444  2.1632 -0.4437
 8068TIP3    H245620   5.431   4.517   0.773  0.8395  2.1724 -2.3512
 8069TIP3   OH245621   2.880   2.733   6.336 -0.0001 -0.3887 -0.6471
 8069TIP3    H145622   2.903   2.819   6.370 -0.1811 -0.8846  0.8077
 8069TIP3    H245623   2.958   2.679   6.351 -0.0667 -0.6094 -1.0767
 8070TIP3   OH245624   5.214   3.712   3.008  0.3248  0.5065 -0.1213
 8070TIP3    H145625   5.126   3.705   2.971 -0.7371  0.6268  2.2163
 8070TIP3    H245626   5.272   3.684   2.937 -1.6122 -0.1172 -1.5478
 8071TIP3   OH245627   1.324   4.262  16.271 -0.0599 -0.7169 -0.0146
 8071TIP3    H145628   1.365   4.177  16.289  0.7711 -0.1915  0.6233
 8071TIP3    H245629   1.307   4.299  16.358  0.5613  0.2313 -0.2828
 8072TIP3   OH245630   2.243   3.771  11.593 -0.7673  0.6507  0.4796
 8072TIP3    H145631   2.287   3.706  11.538 -1.4689  0.3274  0.2773
 8072TIP3    H245632   2.176   3.721  11.640  0.2266  0.8080  2.1259
 8073TIP3   OH245633   0.778   2.209   0.350  0.6566  0.3439  0.1687
 8073TIP3    H145634   0.796   2.290   0.398 -0.0475  1.5059 -1.4271
 8073TIP3    H245635   0.799   2.231   0.259 -0.6808 -0.9008 -0.4642
 8074TIP3   OH245636   6.184   6.347   1.576 -0.1717  0.1274  0.1775
 8074TIP3    H145637   6.099   6.330   1.618 -0.6734  1.9780 -0.0115
 8074TIP3    H245638   6.247   6.340   1.647 -0.9998  3.1386  1.3933
 8075TIP3   OH245639   2.142   4.849  11.816  0.5113 -0.6917  1.0654
 8075TIP3    H145640   2.227   4.830  11.776 -0.0389 -1.6691  0.3172
 8075TIP3    H245641   2.094   4.897  11.748  0.1854 -0.8522  1.1789
 8076TIP3   OH245642   6.084   4.268  16.636  0.0213 -0.1064  0.5009
 8076TIP3    H145643   6.144   4.268  16.711  0.5425  1.1551  0.1191
 8076TIP3    H245644   6.029   4.191  16.649  1.5758 -1.1833  0.9923
 8077TIP3   OH245645   1.100   0.936  13.498 -0.0173  0.1726 -0.4696
 8077TIP3    H145646   1.006   0.922  13.509  0.1739 -1.7427 -0.8126
 8077TIP3    H245647   1.140   0.870  13.555  1.0938  0.0922 -1.3133
 8078TIP3   OH245648   1.774   3.110   1.536  0.2569 -0.0410  0.2304
 8078TIP3    H145649   1.797   3.019   1.515  0.3768  0.0671 -0.1011
 8078TIP3    H245650   1.835   3.163   1.485 -0.9135  0.2532 -0.9303
 8079TIP3   OH245651   0.830   4.274  10.457  0.2330 -0.3387 -0.2699
 8079TIP3    H145652   0.827   4.348  10.397  0.2637 -0.8742 -0.9402
 8079TIP3    H245653   0.753   4.284  10.513  0.1100  0.0630 -0.5115
 8080TIP3   OH245654   5.391   0.187   5.969  0.3550 -0.0433 -0.8828
 8080TIP3    H145655   5.323   0.245   6.002  0.7171  0.0802 -0.3456
 8080TIP3    H245656   5.358   0.099   5.983  0.5500  0.0044 -0.0828
 8081TIP3   OH245657   5.910   5.529   4.740 -0.5427  0.2517  0.7187
 8081TIP3    H145658   5.857   5.538   4.820  0.2488  1.1706  1.1641
 8081TIP3    H245659   5.916   5.435   4.726 -3.4974  0.1129 -0.1901
 8082TIP3   OH245660   4.035   5.377   1.715 -0.3307 -0.3364 -0.3384
 8082TIP3    H145661   4.005   5.368   1.805 -1.1532  2.4677 -0.2167
 8082TIP3    H245662   3.983   5.450   1.680  0.9301 -0.4503 -2.6512
 8083TIP3   OH245663   3.957   0.626   4.757 -0.1636  0.4668 -0.1199
 8083TIP3    H145664   3.942   0.577   4.838 -3.5388 -0.6424 -1.2414
 8083TIP3    H245665   3.919   0.712   4.774  1.4993  1.1567  0.2779
 8084TIP3   OH245666   1.186   4.836   3.766  0.5544  0.1273 -0.3526
 8084TIP3    H145667   1.170   4.830   3.860 -1.1416 -1.0368 -0.6681
 8084TIP3    H245668   1.119   4.781   3.727  1.2180  0.5985 -2.2652
 8085TIP3   OH245669   0.216   2.210  12.946 -0.1351  0.4109  0.4666
 8085TIP3    H145670   0.231   2.130  12.996  1.4959  1.2296  1.3607
 8085TIP3    H245671   0.291   2.216  12.888 -1.3224  0.2007 -1.1743
 8086TIP3   OH245672   0.834   0.440  11.000 -0.3138  0.4488 -0.4475
 8086TIP3    H145673   0.752   0.429  10.953 -0.3848 -1.3205 -0.0168
 8086TIP3    H245674   0.874   0.352  10.998 -0.4405  0.1849  2.9483
 8087TIP3   OH245675   5.653   6.041   2.972  0.0723  0.1117  0.2993
 8087TIP3    H145676   5.743   6.039   2.940 -0.6700  1.5966 -2.1559
 8087TIP3    H245677   5.640   5.955   3.012  1.5852 -1.4967 -2.3651
 8088TIP3   OH245678   3.747   4.748   0.767  0.5896 -0.2262 -0.0188
 8088TIP3    H145679   3.745   4.666   0.716  1.0273  0.4329 -1.1154
 8088TIP3    H245680   3.661   4.787   0.751  0.1213 -0.7805  1.0524
 8089TIP3   OH245681   0.624   6.347  13.832  0.1742  0.6927 -0.3206
 8089TIP3    H145682   0.670   6.430  13.844 -1.5148  1.7338 -0.7565
 8089TIP3    H245683   0.694   6.281  13.833  1.4691  1.9802  1.1199
 8090TIP3   OH245684   1.964   3.850  13.748  0.0688 -0.3178 -0.2043
 8090TIP3    H145685   1.958   3.762  13.710 -0.6944  0.3362 -1.6698
 8090TIP3    H245686   1.892   3.898  13.709  0.0107  0.7666  1.1699
 8091TIP3   OH245687   4.657   6.649  15.318 -0.2798 -0.2247 -0.1612
 8091TIP3    H145688   4.603   6.653  15.240 -1.2736 -0.5824  0.4946
 8091TIP3    H245689   4.734   6.598  15.292 -0.4681 -0.1105 -0.9645
 8092TIP3   OH245690   5.860   1.397   4.014  0.1951 -0.0414  0.2542
 8092TIP3    H145691   5.872   1.309   4.051  1.0763 -0.0086  0.0650
 8092TIP3    H245692   5.925   1.403   3.944 -0.7387  0.2983 -0.5970
 8093TIP3   OH245693   0.842   3.053   0.200  0.2501 -0.4458  0.1062
 8093TIP3    H145694   0.932   3.048   0.233  0.2409 -0.8153  0.0833
 8093TIP3    H245695   0.829   2.970   0.154 -0.1980 -0.5137  0.3529
 8094TIP3   OH245696   5.066   0.166   4.253  0.0640 -0.5426 -0.3092
 8094TIP3    H145697   5.073   0.194   4.344 -0.3278 -0.2278 -0.3758
 8094TIP3    H245698   5.099   0.076   4.253  1.6648  0.0121 -0.1442
 8095TIP3   OH245699   3.645   5.574  17.211  0.2787 -0.3233 -0.7513
 8095TIP3    H145700   3.600   5.628  17.276 -1.9115 -0.5437 -1.9989
 8095TIP3    H245701   3.641   5.624  17.130  2.1730 -0.4482 -0.9696
 8096TIP3   OH245702   3.578   4.640   4.918 -0.6564 -0.3247  0.0699
 8096TIP3    H145703   3.594   4.695   4.841  0.9039  0.3325  0.8225
 8096TIP3    H245704   3.606   4.552   4.891  2.1028  0.3343  0.5574
 8097TIP3   OH245705   1.504   4.947   2.097 -0.1175 -0.0988 -0.1818
 8097TIP3    H145706   1.524   4.872   2.040  1.3768  1.4280 -1.7956
 8097TIP3    H245707   1.546   4.926   2.180  1.6232 -0.4188 -1.0987
 8098TIP3   OH245708   3.891   5.656   0.233 -0.3868  0.0800 -0.3308
 8098TIP3    H145709   3.840   5.697   0.162 -0.1200  1.5353  0.2698
 8098TIP3    H245710   3.842   5.679   0.312 -0.7399 -1.6179 -0.0255
 8099TIP3   OH245711   1.786   5.327   5.767 -0.3510 -0.1529 -0.6780
 8099TIP3    H145712   1.800   5.413   5.727  1.9608 -0.4747 -0.7199
 8099TIP3    H245713   1.857   5.319   5.831 -2.1490 -0.9276  1.3132
 8100TIP3   OH245714   0.995   5.191   2.021 -0.0432  0.7542  0.6928
 8100TIP3    H145715   0.910   5.236   2.025 -0.3515  0.4395 -1.2850
 8100TIP3    H245716   1.029   5.212   1.934  1.0682 -0.6245  0.7635
 8101TIP3   OH245717   2.869   1.206  16.170 -0.3670  0.1755  0.0536
 8101TIP3    H145718   2.875   1.300  16.152 -1.2063  0.1196 -0.5981
 8101TIP3    H245719   2.850   1.201  16.264  2.3215  0.5345  0.6879
 8102TIP3   OH245720   6.195   4.811   2.851  0.3008  0.0847  0.8502
 8102TIP3    H145721   6.157   4.763   2.924 -0.6496 -0.6914 -0.1215
 8102TIP3    H245722   6.173   4.903   2.867 -1.6105 -0.2880  0.5547
 8103TIP3   OH245723   1.453   4.009  16.280 -0.2368 -0.1177 -0.2763
 8103TIP3    H145724   1.381   3.983  16.222  0.5639 -2.0875 -0.4514
 8103TIP3    H245725   1.532   3.975  16.238  0.3934 -1.3837  1.8116
 8104TIP3   OH245726   3.346   3.090  15.518  0.3239  0.1258  0.1895
 8104TIP3    H145727   3.283   3.157  15.544 -0.9268 -0.4345 -1.2836
 8104TIP3    H245728   3.409   3.137  15.463 -0.3660  0.1863 -0.5714
 8105TIP3   OH245729   1.311   4.663  15.822  0.1079 -0.7541  0.1840
 8105TIP3    H145730   1.246   4.608  15.864  1.0710 -1.5272  0.6991
 8105TIP3    H245731   1.392   4.613  15.828  0.7155  0.1042 -0.6096
 8106TIP3   OH245732   5.241   1.922  10.695 -0.0198  0.3782  0.3099
 8106TIP3    H145733   5.305   1.980  10.735  0.5240 -0.0043  0.0172
 8106TIP3    H245734   5.294   1.855  10.650 -0.6250 -0.2887  0.5653
 8107TIP3   OH245735   3.263   2.641   4.887 -0.1370  0.3568 -0.0249
 8107TIP3    H145736   3.188   2.590   4.857 -0.2670  0.9535 -0.7473
 8107TIP3    H245737   3.239   2.732   4.869  0.1625  0.6690  1.0929
 8108TIP3   OH245738   0.096   1.010  17.147  0.2898 -0.5549 -0.1408
 8108TIP3    H145739   0.003   1.032  17.157 -0.3243 -2.8955 -0.2415
 8108TIP3    H245740   0.118   1.038  17.058 -0.3096 -0.0364 -0.1350
 8109TIP3   OH245741   2.626   1.801   2.937 -0.8222  0.3743 -0.2868
 8109TIP3    H145742   2.590   1.726   2.890  1.1099 -0.4111 -0.6260
 8109TIP3    H245743   2.640   1.868   2.870  0.3479 -0.1302 -0.5757
 8110TIP3   OH245744   2.533   4.810  16.842 -0.0599  0.3209  0.2086
 8110TIP3    H145745   2.623   4.823  16.814 -0.3259  0.6770 -0.4990
 8110TIP3    H245746   2.482   4.808  16.761 -0.3115 -3.2769  0.2944
 8111TIP3   OH245747   0.976   3.410  16.001  0.7516 -0.4784 -0.8318
 8111TIP3    H145748   0.952   3.409  16.094  0.9439 -1.1083 -0.7812
 8111TIP3    H245749   0.894   3.424  15.955  0.3977 -1.7229 -0.6273
 8112TIP3   OH245750   1.386   0.405   3.943  0.3034  0.4051  0.0955
 8112TIP3    H145751   1.359   0.444   4.026  2.0031  2.2684 -0.1687
 8112TIP3    H245752   1.310   0.416   3.886 -1.0503 -1.2890  1.4367
 8113TIP3   OH245753   4.034   2.170  13.630 -0.1821  0.2465 -0.2275
 8113TIP3    H145754   3.993   2.182  13.716  0.1702  0.8376 -0.1351
 8113TIP3    H245755   3.982   2.223  13.571 -1.0321 -0.9437 -0.5792
 8114TIP3   OH245756   5.994   5.621   6.677 -0.1123 -0.0944 -0.3200
 8114TIP3    H145757   6.052   5.609   6.602 -0.7702  1.1204 -1.0613
 8114TIP3    H245758   5.909   5.591   6.646 -0.2475 -0.2303  0.1743
 8115TIP3   OH245759   0.756   1.048  15.798 -0.0565 -0.5419  0.0938
 8115TIP3    H145760   0.730   0.957  15.813 -1.4452 -0.1756  0.1012
 8115TIP3    H245761   0.673   1.096  15.797  0.6624  0.7351  0.1580
 8116TIP3   OH245762   0.964   3.247  14.930 -0.0072  0.0582 -0.5734
 8116TIP3    H145763   1.057   3.225  14.917 -0.1697 -0.4467 -0.9114
 8116TIP3    H245764   0.966   3.332  14.972  0.6182  0.0148 -0.4962
 8117TIP3   OH245765   0.430   1.184   2.614 -0.5531  0.7019 -0.0772
 8117TIP3    H145766   0.484   1.173   2.692 -0.3921  2.4806  0.0882
 8117TIP3    H245767   0.424   1.096   2.577  1.5646  0.2741  0.4816
 8118TIP3   OH245768   3.565   6.568   4.045 -0.1370  0.1608  0.2836
 8118TIP3    H145769   3.497   6.527   3.992 -0.9099  0.8773  0.6913
 8118TIP3    H245770   3.530   6.656   4.064  2.6794  2.2753 -3.0989
 8119TIP3   OH245771   6.473   3.511  16.491  0.4175  0.2516  0.0483
 8119TIP3    H145772   6.422   3.474  16.418  0.0573  0.1238  0.3583
 8119TIP3    H245773   6.492   3.435  16.546 -1.6174  0.7040  1.4793
 8120TIP3   OH245774   4.144   2.724  16.115 -0.0705  0.2371  0.3271
 8120TIP3    H145775   4.173   2.801  16.066 -1.3111  0.2864 -0.3782
 8120TIP3    H245776   4.075   2.757  16.172  1.6185  0.2649  2.4929
 8121TIP3   OH245777   5.337   5.748  16.477 -0.2859  0.4568  0.4897
 8121TIP3    H145778   5.427   5.716  16.470 -0.1564  0.7867  0.6486
 8121TIP3    H245779   5.320   5.749  16.572 -1.3776 -2.1835  0.4160
 8122TIP3   OH245780   5.306   5.750  14.621 -0.0233 -0.0331  0.4322
 8122TIP3    H145781   5.218   5.787  14.632 -0.9634 -1.7464 -0.8641
 8122TIP3    H245782   5.291   5.656  14.615  1.8160 -0.2905 -0.7113
 8123TIP3   OH245783   4.376   4.470  13.987 -0.1904 -0.4997 -0.1909
 8123TIP3    H145784   4.415   4.512  13.910 -0.0849 -1.8149 -0.8859
 8123TIP3    H245785   4.355   4.382  13.958  0.4168 -1.2303  1.4804
 8124TIP3   OH245786   5.934   5.460   2.872  0.5015  0.1511 -0.0588
 8124TIP3    H145787   5.890   5.387   2.829 -0.2664  1.6657 -1.9788
 8124TIP3    H245788   5.863   5.514   2.908  0.5653  2.5282 -3.0389
 8125TIP3   OH245789   6.396   0.370   4.272  0.4121  0.1813  0.4412
 8125TIP3    H145790   6.414   0.455   4.233  2.2371 -0.4720 -0.2246
 8125TIP3    H245791   6.304   0.375   4.297 -0.7976  0.8651 -3.4331
 8126TIP3   OH245792   2.329   2.231  13.837  0.4147  0.4559 -0.2581
 8126TIP3    H145793   2.332   2.259  13.929 -0.6425 -0.3310  0.0509
 8126TIP3    H245794   2.383   2.151  13.835  1.5539  1.2128 -0.6364
 8127TIP3   OH245795   0.305   3.508   1.583  0.1615 -0.3393 -0.0649
 8127TIP3    H145796   0.314   3.445   1.654 -0.6325 -1.1744 -0.6738
 8127TIP3    H245797   0.242   3.572   1.616 -1.0299 -1.3132 -0.3820
 8128TIP3   OH245798   2.832   1.413   1.772 -0.1981  0.8101  0.0026
 8128TIP3    H145799   2.925   1.434   1.782  0.4579 -0.0540 -3.1514
 8128TIP3    H245800   2.788   1.498   1.782  0.5189  0.9343  3.8422
 8129TIP3   OH245801   4.093   0.158   5.184  0.0419  0.3663  0.3990
 8129TIP3    H145802   4.096   0.245   5.224  1.0305  1.0291 -1.0715
 8129TIP3    H245803   4.031   0.167   5.112 -0.8906 -0.5314  1.0623
 8130TIP3   OH245804   4.873   5.493   6.081 -0.0837  0.7770  0.1019
 8130TIP3    H145805   4.955   5.518   6.038 -0.5445  1.3111 -0.4950
 8130TIP3    H245806   4.883   5.400   6.100  0.7399  0.8832  0.2218
 8131TIP3   OH245807   5.650   6.550  17.130  0.5587  0.1481 -0.5415
 8131TIP3    H145808   5.616   6.630  17.090  1.9646  0.9059 -0.2751
 8131TIP3    H245809   5.586   6.528  17.198 -1.0940 -0.3432 -2.1883
 8132TIP3   OH245810   4.592   6.380   1.677 -0.1671  0.0600 -0.2615
 8132TIP3    H145811   4.539   6.456   1.702 -0.6054  0.1599 -1.4190
 8132TIP3    H245812   4.528   6.316   1.645  0.4270  0.5785 -2.6975
 8133TIP3   OH245813   6.539   6.082   2.831 -0.0622 -0.0690  0.4967
 8133TIP3    H145814   6.498   5.999   2.855  1.7128 -0.6738  1.6978
 8133TIP3    H245815   6.633   6.063   2.833  0.4207  2.1424  1.5588
 8134TIP3   OH245816   2.316   1.151   2.008  0.7004 -0.1815 -0.1290
 8134TIP3    H145817   2.306   1.056   1.998 -0.3439 -0.0496 -0.4091
 8134TIP3    H245818   2.292   1.187   1.923 -0.2263  0.4186  0.3742
 8135TIP3   OH245819   2.367   3.092   0.573  0.7415  0.2101 -0.0727
 8135TIP3    H145820   2.340   3.153   0.642  0.1193  0.4904 -0.5502
 8135TIP3    H245821   2.368   3.006   0.615 -0.4546  0.2562  0.0871
 8136TIP3   OH245822   5.576   3.146   4.461 -0.4570  0.1715 -0.0483
 8136TIP3    H145823   5.595   3.240   4.457  0.1315  0.1054  0.8158
 8136TIP3    H245824   5.640   3.107   4.402  0.5539  0.1728  0.9960
 8137TIP3   OH245825   0.483   6.204  16.409 -0.5386  0.6274  0.1331
 8137TIP3    H145826   0.444   6.128  16.367 -0.0232  0.5750 -0.2469
 8137TIP3    H245827   0.493   6.178  16.501 -0.6944  0.3723  0.0797
 8138TIP3   OH245828   6.622   3.115  14.734  0.3915  0.1035 -0.3567
 8138TIP3    H145829   6.618   3.060  14.656  0.2361  2.7626 -2.3340
 8138TIP3    H245830   6.533   3.111  14.771 -0.0236  0.1811 -1.3249
 8139TIP3   OH245831   2.834   6.172   5.108 -0.0092 -0.0362 -0.1205
 8139TIP3    H145832   2.782   6.173   5.189  0.2256  1.9588  0.0434
 8139TIP3    H245833   2.783   6.118   5.048 -2.2368  1.7359  0.0764
 8140TIP3   OH245834   5.903   4.558   1.418 -0.2094 -0.2049 -0.0959
 8140TIP3    H145835   5.926   4.465   1.417 -1.0769 -0.4817 -2.7387
 8140TIP3    H245836   5.869   4.575   1.330 -0.6076  2.4987  0.4943
 8141TIP3   OH245837   6.058   3.402  14.956 -0.5472  0.1880  0.2363
 8141TIP3    H145838   5.969   3.383  14.987 -0.8766  1.2941  0.0420
 8141TIP3    H245839   6.046   3.433  14.866 -0.2813  2.6763  0.9658
 8142TIP3   OH245840   3.521   5.594  14.634 -0.5391 -0.6634  0.2388
 8142TIP3    H145841   3.468   5.581  14.555 -0.0091 -0.8775 -0.0881
 8142TIP3    H245842   3.520   5.509  14.678 -0.1535 -0.7835  0.0273
 8143TIP3   OH245843   5.214   3.467   2.671  0.7616 -0.1764 -0.5380
 8143TIP3    H145844   5.155   3.450   2.744  1.7932 -0.8012  0.1746
 8143TIP3    H245845   5.272   3.536   2.701  3.8614 -3.1213  0.9283
 8144TIP3   OH245846   6.304   5.742  15.121  0.5016  0.1243 -0.3733
 8144TIP3    H145847   6.341   5.675  15.064  1.5142  0.6458 -0.3589
 8144TIP3    H245848   6.292   5.697  15.205 -1.2677 -0.7257 -1.0285
 8145TIP3   OH245849   3.491   1.101  12.726  0.0113 -0.4363  0.4505
 8145TIP3    H145850   3.454   1.179  12.767 -0.7480  0.4859 -1.8948
 8145TIP3    H245851   3.415   1.046  12.706  0.1708 -0.0841 -1.2411
 8146TIP3   OH245852   0.427   2.857   3.610  0.2788  0.2322 -0.1131
 8146TIP3    H145853   0.405   2.936   3.659  1.3621  0.8750 -0.6218
 8146TIP3    H245854   0.523   2.859   3.604  0.1805  0.5724 -2.8255
 8147TIP3   OH245855   0.061   1.985  10.587 -0.0302  0.5095  0.4806
 8147TIP3    H145856  -0.031   1.960  10.590 -0.3010  0.1651 -3.8736
 8147TIP3    H245857   0.060   2.076  10.555  1.1277  0.6135  0.7101
 8148TIP3   OH245858   1.144   3.279   0.310 -0.4085 -0.9818 -0.1135
 8148TIP3    H145859   1.193   3.299   0.389  0.0774  1.9882 -1.0227
 8148TIP3    H245860   1.206   3.234   0.253  0.7859  0.9869 -0.4908
 8149TIP3   OH245861   4.117   0.199   4.638  0.4533 -0.7500  0.3406
 8149TIP3    H145862   4.042   0.161   4.684  0.7776 -0.3631  1.2135
 8149TIP3    H245863   4.171   0.237   4.707  1.1584 -0.4947 -0.3307
 8150TIP3   OH245864   0.166   2.916  15.903 -0.1104  0.4317 -0.5033
 8150TIP3    H145865   0.203   2.838  15.861  1.3603 -0.1538  1.6714
 8150TIP3    H245866   0.144   2.887  15.992  1.3246  2.6252  0.6826
 8151TIP3   OH245867   5.709   2.337  16.510 -0.3067 -0.6991  0.1307
 8151TIP3    H145868   5.713   2.416  16.563 -1.8326 -0.8092  0.4497
 8151TIP3    H245869   5.801   2.311  16.498  0.1039 -0.6300  2.6614
 8152TIP3   OH245870   2.783   0.879  14.192 -0.4146 -0.0942 -0.0867
 8152TIP3    H145871   2.772   0.784  14.195 -0.7761 -0.0401  0.8341
 8152TIP3    H245872   2.702   0.914  14.229 -0.3172  0.5745 -0.4905
 8153TIP3   OH245873   3.959   4.518  11.056  0.3568 -0.0524 -0.2444
 8153TIP3    H145874   3.971   4.491  10.965  0.5416 -5.1886  0.9808
 8153TIP3    H245875   3.866   4.501  11.073  0.5197 -0.0006  0.7418
 8154TIP3   OH245876   4.824   2.947  11.077  0.3449  0.0603  0.4761
 8154TIP3    H145877   4.831   3.039  11.049  1.1848 -0.1704 -0.1233
 8154TIP3    H245878   4.760   2.908  11.018 -0.5423  0.4134  1.1789
 8155TIP3   OH245879   3.126   5.679   3.284 -0.3634  0.2067  0.0453
 8155TIP3    H145880   3.128   5.617   3.357 -1.3006 -0.4636 -0.4692
 8155TIP3    H245881   3.214   5.674   3.247 -0.7981 -2.0113 -0.9028
 8156TIP3   OH245882   5.619   2.876  11.248 -0.0394 -0.0080  0.4801
 8156TIP3    H145883   5.608   2.837  11.161 -0.2194 -1.4520  1.1107
 8156TIP3    H245884   5.605   2.970  11.234  0.4041 -0.1410 -1.1188
 8157TIP3   OH245885   3.005   0.843  11.116 -0.1029 -0.6480  0.6652
 8157TIP3    H145886   3.059   0.798  11.182  0.3545  1.1237  1.5553
 8157TIP3    H245887   3.055   0.833  11.034  0.0041 -1.6993  0.8417
 8158TIP3   OH245888   1.558   3.653  14.494 -0.6994  0.2706  0.2732
 8158TIP3    H145889   1.618   3.686  14.561  0.3137  1.0232 -0.9704
 8158TIP3    H245890   1.599   3.676  14.411 -1.4359 -1.5214 -0.6442
 8159TIP3   OH245891   6.149   5.084   2.345  0.1089  0.8171 -0.0279
 8159TIP3    H145892   6.183   5.031   2.272  1.0613  2.9222 -1.2036
 8159TIP3    H245893   6.093   5.149   2.302  1.0550  2.3904  1.0502
 8160TIP3   OH245894   1.485   5.121  13.360  0.4186  0.3714  0.8236
 8160TIP3    H145895   1.549   5.181  13.323  0.8902 -1.4966 -1.6720
 8160TIP3    H245896   1.526   5.034  13.351 -2.4479 -0.9172 -1.0289
 8161TIP3   OH245897   0.079   1.427   1.564  0.0329 -0.7029  0.4264
 8161TIP3    H145898   0.048   1.337   1.575 -0.6698 -0.4344  0.7368
 8161TIP3    H245899   0.066   1.468   1.650 -1.7549  0.3104 -0.2598
 8162TIP3   OH245900   0.212   1.774   4.769  0.2554  0.4335 -0.2482
 8162TIP3    H145901   0.235   1.785   4.861  0.5200  2.6948 -0.5227
 8162TIP3    H245902   0.120   1.749   4.770  0.3837 -0.0439  0.6364
 8163TIP3   OH245903   2.959   4.345   2.005 -0.3534 -0.1967  0.1065
 8163TIP3    H145904   3.035   4.375   1.954 -0.5166  0.8794  0.4724
 8163TIP3    H245905   2.954   4.251   1.987  0.6714 -0.1641 -0.4391
 8164TIP3   OH245906   6.325   4.063   3.178 -0.4976  0.5957 -0.2379
 8164TIP3    H145907   6.284   4.117   3.110 -2.2035 -1.2679 -0.8039
 8164TIP3    H245908   6.255   4.004   3.207  1.7535 -2.9620 -1.3877
 8165TIP3   OH245909   4.181   2.278  15.087  0.1046 -0.2982 -0.0136
 8165TIP3    H145910   4.129   2.199  15.071 -0.9589  0.5478 -0.8835
 8165TIP3    H245911   4.143   2.344  15.028  1.6090  0.5905 -0.0312
 8166TIP3   OH245912   0.467   0.104  13.197 -0.0497 -0.2746  0.7620
 8166TIP3    H145913   0.508   0.020  13.219 -0.4970 -0.9308 -0.7639
 8166TIP3    H245914   0.499   0.123  13.108 -1.3360  0.2965  0.4057
 8167TIP3   OH245915   0.237   2.952  14.645  0.8402 -0.5454  0.4052
 8167TIP3    H145916   0.244   2.979  14.553  1.0765 -0.6129  0.4019
 8167TIP3    H245917   0.292   2.873  14.650  0.2281 -0.9819  0.4304
 8168TIP3   OH245918   2.941   4.522   4.329 -0.2358  0.1478  0.1760
 8168TIP3    H145919   2.876   4.562   4.386  0.6639 -0.1235  1.4520
 8168TIP3    H245920   2.891   4.462   4.274 -1.3915  1.8614 -0.7264
 8169TIP3   OH245921   2.602   4.929  11.848  0.3142 -0.2658 -0.2620
 8169TIP3    H145922   2.539   4.870  11.889 -1.0234  0.2228 -1.5118
 8169TIP3    H245923   2.572   5.017  11.872  2.2371 -0.0343  1.5077
 8170TIP3   OH245924   0.844   0.189  16.839  0.7994 -0.1051  0.2684
 8170TIP3    H145925   0.886   0.106  16.818  3.2988  1.0542  0.3172
 8170TIP3    H245926   0.888   0.253  16.783 -1.1119  1.2094  0.1725
 8171TIP3   OH245927   1.473   3.442  13.022 -0.3312 -0.0905 -0.0051
 8171TIP3    H145928   1.533   3.514  13.045 -0.5427  0.0207  0.2009
 8171TIP3    H245929   1.426   3.473  12.945  0.6702 -0.6270 -0.8630
 8172TIP3   OH245930   1.334   4.504  13.561  0.3866 -0.7039  0.0299
 8172TIP3    H145931   1.318   4.411  13.579 -0.4399 -0.2807  1.7761
 8172TIP3    H245932   1.294   4.549  13.636  1.5747  1.0070 -0.3186
 8173TIP3   OH245933   4.367   1.425   5.549  0.0257  0.5551 -0.0255
 8173TIP3    H145934   4.282   1.455   5.517 -0.3686  1.8607  2.0195
 8173TIP3    H245935   4.362   1.435   5.645  2.5101  0.8391  0.1605
 8174TIP3   OH245936   0.141   3.507   6.475  0.2580 -0.3671  0.1121
 8174TIP3    H145937   0.120   3.541   6.561  1.6900 -1.2178  0.8417
 8174TIP3    H245938   0.061   3.517   6.424 -0.0681  1.8465  0.9781
 8175TIP3   OH245939   3.781   1.922   0.649 -0.0070  0.4168  0.2463
 8175TIP3    H145940   3.694   1.888   0.669 -0.2702  0.9001 -0.0624
 8175TIP3    H245941   3.767   2.014   0.629  0.7040  0.7516  1.1742
 8176TIP3   OH245942   3.077   6.502   3.809 -0.1233 -0.1542  0.2165
 8176TIP3    H145943   2.994   6.517   3.854 -0.2781 -1.1504  0.2841
 8176TIP3    H245944   3.117   6.589   3.802 -1.0368  0.2915  0.4381
 8177TIP3   OH245945   3.815   2.662   3.510  0.1906 -0.5097 -0.0594
 8177TIP3    H145946   3.895   2.695   3.470 -0.4903  1.4684  0.1072
 8177TIP3    H245947   3.754   2.653   3.437 -0.4093  1.1260  0.1967
 8178TIP3   OH245948   0.073   1.765   3.740 -0.1401  0.2965 -0.0191
 8178TIP3    H145949  -0.018   1.759   3.771 -0.3123  0.3558 -0.5016
 8178TIP3    H245950   0.081   1.855   3.708 -0.0907  0.1240 -0.5092
 8179TIP3   OH245951   6.520   0.994  11.630 -0.2272 -0.0833  0.0687
 8179TIP3    H145952   6.491   0.971  11.542  1.1994  0.9308 -0.7096
 8179TIP3    H245953   6.479   1.079  11.647  1.9282  1.2187 -0.9226
 8180TIP3   OH245954   5.504   0.194  12.978 -0.0287 -0.1943  0.3998
 8180TIP3    H145955   5.531   0.139  12.904 -1.9926 -1.0601  0.2660
 8180TIP3    H245956   5.436   0.251  12.942  0.6516  1.0308  1.0072
 8181TIP3   OH245957   5.456   0.071   4.376 -0.1048 -0.2426 -0.6290
 8181TIP3    H145958   5.491  -0.008   4.335  0.2910 -0.8019  0.7409
 8181TIP3    H245959   5.410   0.040   4.454 -1.2666  0.7522 -0.8851
 8182TIP3   OH245960   2.236   4.014  11.462  0.3635  0.2770  0.0095
 8182TIP3    H145961   2.216   4.004  11.369  1.4503 -0.6937 -0.1310
 8182TIP3    H245962   2.226   3.926  11.499 -0.2719  0.6867  0.8708
 8183TIP3   OH245963   4.396   0.198   0.098  0.2776  0.1999 -0.0042
 8183TIP3    H145964   4.440   0.281   0.118  1.1684  0.1976 -1.7604
 8183TIP3    H245965   4.343   0.218   0.021 -1.6597 -0.2140  1.1499
 8184TIP3   OH245966   3.268   0.249   0.734 -0.3311 -0.2950 -0.2389
 8184TIP3    H145967   3.354   0.227   0.769 -0.4853  0.6882  0.7849
 8184TIP3    H245968   3.211   0.255   0.810 -1.0580  0.1696 -0.8010
 8185TIP3   OH245969   2.921   2.189   2.728  0.0482 -0.2868  0.2377
 8185TIP3    H145970   2.994   2.150   2.777  0.4680  0.4573  0.2237
 8185TIP3    H245971   2.852   2.200   2.793  0.6577  0.8406  0.7361
 8186TIP3   OH245972   2.420   2.262  14.097  0.5163  0.4561  0.3968
 8186TIP3    H145973   2.491   2.319  14.127  1.1973 -0.5053  0.6691
 8186TIP3    H245974   2.449   2.174  14.121 -0.2366 -0.0619 -0.5364
 8187TIP3   OH245975   4.547   4.279  12.741  0.0864 -0.0421  0.2923
 8187TIP3    H145976   4.615   4.320  12.687  1.2695  0.0164  1.7418
 8187TIP3    H245977   4.563   4.185  12.732 -0.9461 -0.1220 -0.9429
 8188TIP3   OH245978   0.427   4.909  14.176  0.3763  0.3781 -0.3375
 8188TIP3    H145979   0.482   4.969  14.125  0.3117  2.8039  2.2081
 8188TIP3    H245980   0.338   4.941  14.162  0.2029  0.0824  0.0971
 8189TIP3   OH245981   0.100   4.694  15.571  0.1380 -0.5241 -0.6320
 8189TIP3    H145982   0.114   4.697  15.666  1.3621 -1.8266 -0.7384
 8189TIP3    H245983   0.045   4.618  15.557 -1.0458  0.3554 -0.8899
 8190TIP3   OH245984   3.027   4.734   1.478  0.1417  0.5694  0.6280
 8190TIP3    H145985   2.936   4.761   1.471 -0.3020 -1.1044 -0.7816
 8190TIP3    H245986   3.026   4.666   1.546 -0.3280 -1.7480 -1.5549
 8191TIP3   OH245987   5.781   5.260  14.975 -0.2314 -0.6351 -0.0474
 8191TIP3    H145988   5.823   5.281  14.892 -1.6199 -3.1366 -1.5368
 8191TIP3    H245989   5.849   5.217  15.026 -0.0174 -1.4752 -0.9996
 8192TIP3   OH245990   5.656   2.185   5.925  0.0155 -0.0666  0.5360
 8192TIP3    H145991   5.574   2.135   5.917  0.1955 -0.3639  0.5337
 8192TIP3    H245992   5.649   2.229   6.009  0.4063 -1.1137  1.1455
 8193TIP3   OH245993   0.594   2.011   0.344  0.1494 -0.7368  0.0083
 8193TIP3    H145994   0.540   2.020   0.422 -2.1459  0.1968 -1.5953
 8193TIP3    H245995   0.676   2.057   0.366 -0.1544 -1.0871  2.0584
 8194TIP3   OH245996   4.702   2.137   1.396  0.1480  0.3231  0.4518
 8194TIP3    H145997   4.717   2.054   1.442  0.4630  0.0109 -0.2099
 8194TIP3    H245998   4.751   2.129   1.315 -1.1053  0.5347 -0.3486
 8195TIP3   OH245999   5.760   0.719  15.013  0.0715  0.0818  0.0087
 8195TIP3    H146000   5.786   0.811  15.000  0.6028 -0.0828 -0.1343
 8195TIP3    H246001   5.717   0.718  15.099 -0.3647  0.5487 -0.1999
 8196TIP3   OH246002   0.450   4.102  17.223  0.5138  0.5185  0.0391
 8196TIP3    H146003   0.379   4.166  17.226  1.2810  1.3977 -0.3741
 8196TIP3    H246004   0.458   4.080  17.130  0.3593 -0.0817  0.1580
 8197TIP3   OH246005   4.593   1.171   3.784 -0.1352 -0.3126  0.3574
 8197TIP3    H146006   4.621   1.262   3.788 -1.5036  0.1011  1.9497
 8197TIP3    H246007   4.652   1.124   3.842 -0.4592 -0.1165  0.8517
 8198TIP3   OH246008   3.220   5.314  16.866  0.4458  0.3243 -0.1366
 8198TIP3    H146009   3.139   5.298  16.817 -0.5423  1.7612  0.9332
 8198TIP3    H246010   3.266   5.381  16.816  0.5756  0.1181 -0.2975
 8199TIP3   OH246011   4.249   2.708  14.304  0.2609  0.0184 -0.2960
 8199TIP3    H146012   4.336   2.710  14.344  1.7471 -3.3570 -2.8195
 8199TIP3    H246013   4.258   2.759  14.224 -0.3408  0.3289 -0.1735
 8200TIP3   OH246014   4.225   1.525  13.909  0.6558 -0.2135 -0.3565
 8200TIP3    H146015   4.320   1.530  13.904  0.5541  0.5677 -2.0395
 8200TIP3    H246016   4.197   1.614  13.930  0.2269 -0.0599 -1.5260
 8201TIP3   OH246017   2.934   0.256   4.944 -0.6316  0.0260  0.9852
 8201TIP3    H146018   2.932   0.310   5.023 -0.2378 -1.2069  1.8480
 8201TIP3    H246019   2.977   0.175   4.970  0.5586  0.0363 -0.7738
 8202TIP3   OH246020   3.703   4.932   3.052 -0.0082 -0.4594 -0.1944
 8202TIP3    H146021   3.648   4.908   3.126  2.5776 -0.7647  1.7746
 8202TIP3    H246022   3.660   5.007   3.012 -1.6277 -0.4745  1.4223
 8203TIP3   OH246023   2.676   0.928   3.641  0.4848 -0.3040 -0.3650
 8203TIP3    H146024   2.715   0.843   3.658  1.8200 -0.2668 -2.7339
 8203TIP3    H246025   2.745   0.991   3.665 -0.3372  0.1206  0.9739
 8204TIP3   OH246026   0.992   2.762   1.437 -0.9904 -0.2078 -0.1508
 8204TIP3    H146027   0.937   2.684   1.446 -0.2047 -0.8776 -1.0054
 8204TIP3    H246028   0.930   2.832   1.415 -1.6720 -0.6378  0.3544
 8205TIP3   OH246029   3.303   1.299   5.348  0.4504  0.1868  0.2860
 8205TIP3    H146030   3.257   1.309   5.431  0.2323  1.3405  0.0442
 8205TIP3    H246031   3.393   1.325   5.368  0.1731  1.4708 -0.0510
 8206TIP3   OH246032   5.844   5.697  12.727  0.0186  0.6272  0.2456
 8206TIP3    H146033   5.917   5.701  12.665  0.0098  0.4511  0.2231
 8206TIP3    H246034   5.800   5.614  12.706 -0.4727  0.9631 -0.0617
 8207TIP3   OH246035   1.572   6.723  15.507 -0.2068 -0.4035 -0.1843
 8207TIP3    H146036   1.649   6.689  15.554  0.2260 -2.0866 -1.9535
 8207TIP3    H246037   1.499   6.707  15.566  0.2358 -2.9573 -0.1916
 8208TIP3   OH246038   2.203   2.759   3.962 -0.3000  0.6044 -0.3645
 8208TIP3    H146039   2.287   2.730   3.997 -0.6058 -0.8380 -0.7561
 8208TIP3    H246040   2.158   2.800   4.037 -0.6769 -1.8202  0.8232
 8209TIP3   OH246041   1.208   3.712  16.832  0.0819  0.1467  0.0716
 8209TIP3    H146042   1.186   3.765  16.908 -0.6553  0.5566 -0.4172
 8209TIP3    H246043   1.127   3.707  16.781 -0.0199 -1.8501  0.3312
 8210TIP3   OH246044   0.313   6.270  14.445  0.5617 -0.1192  0.1533
 8210TIP3    H146045   0.299   6.179  14.471  0.1622  0.2235  1.1938
 8210TIP3    H246046   0.396   6.293  14.486  0.7395 -0.0525 -0.2382
 8211TIP3   OH246047   3.542   5.768   1.062 -0.0820  0.4821 -0.0966
 8211TIP3    H146048   3.625   5.812   1.084  0.8713 -0.7848 -0.9665
 8211TIP3    H246049   3.476   5.837   1.067  0.9763  1.4684  0.9068
 8212TIP3   OH246050   4.450   0.341  11.219  0.1944 -0.1560 -0.1561
 8212TIP3    H146051   4.422   0.291  11.296  0.1370 -0.5368 -0.4255
 8212TIP3    H246052   4.522   0.291  11.183  1.5456  1.0359  0.7780
 8213TIP3   OH246053   0.094   1.758   1.143  0.3116  0.5469 -0.1519
 8213TIP3    H146054   0.084   1.672   1.184  2.0932  1.1868  1.8390
 8213TIP3    H246055   0.189   1.771   1.138  0.2496  0.6690 -4.3958
 8214TIP3   OH246056   2.398   0.287   4.033  0.0115  0.1715 -0.6609
 8214TIP3    H146057   2.385   0.279   4.127 -1.3825  0.4939 -0.7984
 8214TIP3    H246058   2.487   0.256   4.018  0.3953  0.4970  0.8075
 8215TIP3   OH246059   4.600   0.518   4.190 -0.1487 -0.2527 -0.2088
 8215TIP3    H146060   4.664   0.447   4.184  2.6421  2.0537 -0.0062
 8215TIP3    H246061   4.564   0.510   4.279  1.7426 -0.2128  0.6172
 8216TIP3   OH246062   6.319   0.325  13.864 -0.3800  0.1423 -0.3304
 8216TIP3    H146063   6.263   0.374  13.804  0.8298  0.9365 -0.8658
 8216TIP3    H246064   6.289   0.351  13.951 -0.9357  0.4330 -0.5989
 8217TIP3   OH246065   2.102   6.558   4.270 -0.4090  0.2431 -0.1465
 8217TIP3    H146066   2.152   6.583   4.193  0.5662  0.4218  0.5239
 8217TIP3    H246067   2.104   6.462   4.270 -0.1146  0.2498 -0.1575
 8218TIP3   OH246068   5.169   5.163  12.162  0.0185 -0.0095 -0.0501
 8218TIP3    H146069   5.173   5.252  12.126 -1.2363 -0.1783 -0.6327
 8218TIP3    H246070   5.112   5.171  12.239  0.5468 -0.1701  0.3646
 8219TIP3   OH246071   0.478   6.599   3.379 -0.0633 -0.0860 -0.4661
 8219TIP3    H146072   0.463   6.657   3.454 -2.4169  0.2115 -1.0765
 8219TIP3    H246073   0.451   6.651   3.303  2.4564 -0.3089 -1.6066
 8220TIP3   OH246074   0.164   6.405  15.172  0.9316 -0.0473  0.3245
 8220TIP3    H146075   0.082   6.385  15.217  0.1411 -0.6488 -1.3214
 8220TIP3    H246076   0.220   6.442  15.241 -0.3803 -0.4718  1.6836
 8221TIP3   OH246077   6.395   4.816  13.689 -0.3370  0.6386 -0.5460
 8221TIP3    H146078   6.373   4.908  13.677 -0.4252  0.6476 -0.3088
 8221TIP3    H246079   6.477   4.805  13.642  0.2502  1.0932  0.3513
 8222TIP3   OH246080   3.457   1.441   0.513 -0.3336 -0.2993  0.5757
 8222TIP3    H146081   3.372   1.436   0.557 -1.3355  1.1775 -1.0180
 8222TIP3    H246082   3.439   1.411   0.424  0.5073  1.1896 -0.1357
 8223TIP3   OH246083   4.968   5.940  17.137 -0.2423 -0.1058 -0.5487
 8223TIP3    H146084   5.030   5.926  17.065 -0.6481 -1.9570 -0.5934
 8223TIP3    H246085   4.890   5.975  17.095 -0.1327 -0.2512 -0.8793
 8224TIP3   OH246086   0.302   5.345  15.946 -0.1288 -0.2984 -0.2815
 8224TIP3    H146087   0.224   5.400  15.954  1.2515  1.5982  1.2415
 8224TIP3    H246088   0.356   5.369  16.021  1.5207 -2.2590 -0.7350
 8225TIP3   OH246089   6.222   6.275   0.791 -0.1292  0.0347  0.6507
 8225TIP3    H146090   6.170   6.354   0.796 -1.2043 -0.6814  1.1111
 8225TIP3    H246091   6.272   6.273   0.873  1.2511  1.1123 -0.1212
 8226TIP3   OH246092   5.843   3.115   4.331 -0.3581  0.3321 -0.3784
 8226TIP3    H146093   5.917   3.074   4.286  0.4780  0.1255  1.1489
 8226TIP3    H246094   5.861   3.209   4.324  1.2558  0.2728  1.8263
 8227TIP3   OH246095   2.150   1.400  14.980  0.0374  0.2095  0.3741
 8227TIP3    H146096   2.190   1.339  15.042  2.3842  2.0741  0.8489
 8227TIP3    H246097   2.108   1.466  15.035  0.5539  0.8929 -0.0386
 8228TIP3   OH246098   2.084   1.996   4.378 -0.0464 -0.2494 -0.3940
 8228TIP3    H146099   2.129   2.080   4.391  0.4936 -0.3587 -1.4156
 8228TIP3    H246100   2.015   2.015   4.314  0.0735 -0.5711 -0.6246
 8229TIP3   OH246101   6.085   0.870   2.134  0.7165 -0.0708 -0.3840
 8229TIP3    H146102   6.152   0.802   2.132  1.1637  0.3632 -0.4584
 8229TIP3    H246103   6.070   0.893   2.042  1.1416  0.4759 -0.3246
 8230TIP3   OH246104   0.938   5.421   4.975  0.2612 -0.1386  0.0511
 8230TIP3    H146105   0.929   5.461   4.888 -1.2521 -2.3798 -0.9037
 8230TIP3    H246106   1.032   5.404   4.983  0.4516  0.2480 -1.0817
 8231TIP3   OH246107   0.196   3.712  11.210 -0.3254 -0.0794  0.1553
 8231TIP3    H146108   0.291   3.701  11.198 -0.6335 -1.8553 -1.0529
 8231TIP3    H246109   0.170   3.771  11.140 -0.3792 -1.2636 -0.8676
 8232TIP3   OH246110   4.201   5.452  16.148  0.2321  0.2751 -0.2538
 8232TIP3    H146111   4.270   5.511  16.179  2.0151 -0.4258 -2.6177
 8232TIP3    H246112   4.140   5.508  16.101  0.9201  0.5120 -0.8787
 8233TIP3   OH246113   1.518   2.624   2.626  0.0859  0.0013  0.0737
 8233TIP3    H146114   1.512   2.634   2.531  0.9059 -2.1162 -0.2583
 8233TIP3    H246115   1.436   2.660   2.660 -0.6291 -0.0657 -1.5224
 8234TIP3   OH246116   1.093   3.285   3.065  0.6002 -0.2302 -0.1311
 8234TIP3    H146117   1.020   3.344   3.081  1.6948  0.7183  1.8112
 8234TIP3    H246118   1.053   3.201   3.044 -1.0068  0.7476 -1.1209
 8235TIP3   OH246119   2.384   2.984   0.329  0.5928  0.1184  0.3669
 8235TIP3    H146120   2.369   3.011   0.419  1.1699 -1.5705  1.0036
 8235TIP3    H246121   2.468   3.024   0.305  0.9082 -0.1958  0.9227
 8236TIP3   OH246122   1.984   2.867   0.962  0.1031  0.8117  0.5838
 8236TIP3    H146123   2.050   2.935   0.976 -0.6581  1.2511  2.1533
 8236TIP3    H246124   2.030   2.785   0.982  1.5520  0.5351 -2.9504
 8237TIP3   OH246125   1.356   2.899  13.511 -0.7879 -0.3122 -0.4673
 8237TIP3    H146126   1.270   2.889  13.471 -1.0039 -2.2883  0.3522
 8237TIP3    H246127   1.339   2.900  13.605  0.1111 -2.1321 -0.2227
 8238TIP3   OH246128   5.864   2.536  10.586 -0.0711 -0.0432 -0.9186
 8238TIP3    H146129   5.883   2.537  10.492  2.3690  0.9210 -0.4864
 8238TIP3    H246130   5.840   2.445  10.605  0.6161 -0.5340 -2.2742
 8239TIP3   OH246131   3.445   4.962   3.745  0.0973  0.3195  0.6112
 8239TIP3    H146132   3.495   4.938   3.667  0.8040 -1.9714  1.6817
 8239TIP3    H246133   3.508   4.954   3.817 -0.9260  0.8583  1.5867
 8240TIP3   OH246134   3.206   0.024   6.230 -0.1138  0.4008  0.2075
 8240TIP3    H146135   3.202   0.119   6.216 -0.2745  0.6339  1.7030
 8240TIP3    H246136   3.146   0.008   6.302 -3.5998 -1.4611 -2.7388
 8241TIP3   OH246137   1.116   0.903   2.792  0.0617 -0.0668  0.0435
 8241TIP3    H146138   1.138   0.969   2.726  0.2860 -0.1258  0.0570
 8241TIP3    H246139   1.173   0.924   2.866 -0.3561  0.1400  0.3073
 8242TIP3   OH246140   4.838   0.812  12.539  0.4521  0.2564 -0.0845
 8242TIP3    H146141   4.756   0.829  12.584  1.2142  2.4996  0.6232
 8242TIP3    H246142   4.899   0.785  12.608  0.8240  0.6664 -0.2433
 8243TIP3   OH246143   4.433   2.430   2.085 -0.1308 -0.2328  0.1663
 8243TIP3    H146144   4.486   2.478   2.022  1.4050 -0.8012  0.9892
 8243TIP3    H246145   4.423   2.490   2.159 -1.2840  0.1379 -0.2507
 8244TIP3   OH246146   6.110   6.492   2.937  0.3353  0.0183  0.6987
 8244TIP3    H146147   6.099   6.571   2.990  0.8384  1.0140 -0.6176
 8244TIP3    H246148   6.199   6.463   2.955  0.7178  0.7047 -0.0269
 8245TIP3   OH246149   5.528   3.951   1.720  0.1289  0.2225 -0.2722
 8245TIP3    H146150   5.508   4.016   1.653  0.8093  0.5805 -0.1448
 8245TIP3    H246151   5.526   3.867   1.674 -2.4187  0.1137 -0.0980
 8246TIP3   OH246152   4.412   0.547  14.039  0.1870  0.1597 -0.2126
 8246TIP3    H146153   4.333   0.502  14.072 -0.0552 -0.9669 -2.1891
 8246TIP3    H246154   4.383   0.591  13.960  1.3332  0.6192 -0.3936
 8247TIP3   OH246155   0.546   5.173  15.365  0.3126  0.2191  0.0941
 8247TIP3    H146156   0.552   5.099  15.426 -0.9429 -0.9738 -1.1598
 8247TIP3    H246157   0.577   5.248  15.416 -0.2750 -0.8007  2.0580
 8248TIP3   OH246158   4.724   1.239   2.870  0.3694  0.2177 -0.3038
 8248TIP3    H146159   4.676   1.164   2.905 -0.3649  0.5137 -0.6598
 8248TIP3    H246160   4.783   1.202   2.805  1.0049 -0.2104  0.4906
 8249TIP3   OH246161   0.440   4.558  11.785  0.6338 -0.0354  0.3922
 8249TIP3    H146162   0.486   4.507  11.851 -0.5185 -0.7611  0.6575
 8249TIP3    H246163   0.423   4.643  11.827  1.8645  0.3295  0.2174
 8250TIP3   OH246164   6.322   0.582  14.379 -0.0170 -0.3997 -0.6486
 8250TIP3    H146165   6.291   0.651  14.320  0.3864  1.3619  1.0794
 8250TIP3    H246166   6.242   0.538  14.407 -0.5713  0.9714  0.0482
 8251TIP3   OH246167   5.347   2.834  11.330 -0.1796  0.0547  0.3373
 8251TIP3    H146168   5.337   2.794  11.244 -1.8508  0.7804  0.1630
 8251TIP3    H246169   5.433   2.876  11.328  0.0110 -0.3735 -0.7814
 8252TIP3   OH246170   1.717   2.635  12.183  0.3066 -0.1840  0.0168
 8252TIP3    H146171   1.701   2.599  12.270 -0.4304  1.5946  0.6790
 8252TIP3    H246172   1.777   2.707  12.197 -0.2905  0.5101 -0.8471
 8253TIP3   OH246173   6.454   1.338   1.093 -0.0259  0.2287 -0.2010
 8253TIP3    H146174   6.360   1.352   1.080 -0.2978  0.4898  1.6856
 8253TIP3    H246175   6.472   1.380   1.178  1.7379 -0.0541 -0.4134
 8254TIP3   OH246176   1.560   5.339  15.886  0.4831  0.3789 -0.4049
 8254TIP3    H146177   1.500   5.289  15.940 -1.1775  1.1034 -1.5075
 8254TIP3    H246178   1.611   5.273  15.839  0.2767 -0.2442  0.2350
 8255TIP3   OH246179   3.251   3.857   0.643  0.2848  0.0983  0.1340
 8255TIP3    H146180   3.160   3.830   0.651 -0.0202  0.1431 -2.4897
 8255TIP3    H246181   3.251   3.950   0.667 -0.1418 -0.1281  1.0889
 8256TIP3   OH246182   6.367   4.689   1.932 -0.6061  0.0209  0.1250
 8256TIP3    H146183   6.280   4.671   1.970  0.3688 -2.2801  1.5372
 8256TIP3    H246184   6.370   4.784   1.923 -2.8173  0.2664  1.1687
 8257TIP3   OH246185   5.064   6.655  11.226 -0.2976 -0.0978 -0.1193
 8257TIP3    H146186   5.134   6.717  11.206 -1.3640  1.7530  1.5518
 8257TIP3    H246187   4.992   6.679  11.167 -0.4635 -0.1943  0.0419
 8258TIP3   OH246188   1.152   3.612  16.039 -0.3136 -0.4188 -0.2121
 8258TIP3    H146189   1.120   3.529  16.004 -1.4753 -0.7007  1.4189
 8258TIP3    H246190   1.078   3.647  16.089  0.3640  1.3045 -0.3499
 8259TIP3   OH246191   5.768   4.027   5.184  0.2852 -0.4672  0.3145
 8259TIP3    H146192   5.673   4.030   5.173  0.1230  1.7404  1.8220
 8259TIP3    H246193   5.786   3.937   5.213 -1.2980 -0.9577 -0.1393
 8260TIP3   OH246194   1.822   6.436   2.605 -0.8772  0.3982  0.1551
 8260TIP3    H146195   1.832   6.360   2.547  0.2771  2.2092 -2.1552
 8260TIP3    H246196   1.906   6.442   2.651 -1.1162  0.0758  0.6481
 8261TIP3   OH246197   4.383   4.562  12.278  0.7865 -0.2952 -0.0661
 8261TIP3    H146198   4.385   4.655  12.253 -0.1889 -0.5630 -1.2520
 8261TIP3    H246199   4.397   4.563  12.373  0.7659  1.0676 -0.0499
 8262TIP3   OH246200   1.940   5.861   3.473 -0.1720  0.0808  0.3614
 8262TIP3    H146201   1.910   5.942   3.515  1.6025  0.3216  1.2849
 8262TIP3    H246202   1.913   5.791   3.532 -1.1696  0.0495 -0.1264
 8263TIP3   OH246203   0.912   1.491   4.739  0.3439 -0.0117  0.2131
 8263TIP3    H146204   0.952   1.562   4.689  0.6474 -0.4192 -0.1305
 8263TIP3    H246205   0.976   1.420   4.735 -0.2963 -0.5757 -0.1146
 8264TIP3   OH246206   0.752   4.455  13.768 -0.1942  0.2376 -0.3641
 8264TIP3    H146207   0.839   4.439  13.731  0.0648  2.3929 -0.8595
 8264TIP3    H246208   0.695   4.394  13.721  0.8582 -0.3244 -0.9593
 8265TIP3   OH246209   4.475   6.198  17.137  0.0314 -0.1280  0.1447
 8265TIP3    H146210   4.387   6.175  17.109  0.1924  0.7186 -1.2000
 8265TIP3    H246211   4.470   6.206  17.232 -1.4579  0.3934  0.0458
 8266TIP3   OH246212   2.514   1.583   2.798  0.3009 -0.0332  0.2212
 8266TIP3    H146213   2.419   1.592   2.797  0.5038  2.8472  0.3559
 8266TIP3    H246214   2.537   1.566   2.707 -0.2027  1.6970 -0.2574
 8267TIP3   OH246215   4.252   2.761   4.287 -0.3728 -0.1808 -0.2732
 8267TIP3    H146216   4.313   2.691   4.308 -0.4944  0.5884  3.2440
 8267TIP3    H246217   4.185   2.718   4.234  0.2001 -2.4531  0.6933
 8268TIP3   OH246218   3.529   0.655  15.923 -0.0522  0.3130 -0.7114
 8268TIP3    H146219   3.489   0.722  15.979 -0.7597  1.0224 -2.0209
 8268TIP3    H246220   3.575   0.704  15.856 -1.2814 -0.4700 -2.1848
 8269TIP3   OH246221   6.764   5.165   5.363 -0.2625  0.6135  0.1680
 8269TIP3    H146222   6.771   5.249   5.409 -2.4811  0.2339  1.3178
 8269TIP3    H246223   6.682   5.127   5.394  0.1978 -1.5584 -1.0693
 8270TIP3   OH246224   4.240   3.473   1.293  0.3626 -0.1247  0.4078
 8270TIP3    H146225   4.290   3.490   1.373 -0.0442 -1.7122  1.0488
 8270TIP3    H246226   4.184   3.549   1.283  2.3614  1.3825  0.0684
 8271TIP3   OH246227   3.801   4.850  14.314  0.4289  0.2065  0.1834
 8271TIP3    H146228   3.849   4.826  14.234  0.2145 -0.6394  0.2994
 8271TIP3    H246229   3.767   4.767  14.347 -1.7804  0.8595 -0.2933
 8272TIP3   OH246230   5.595   0.667  15.265  0.3634  0.3035 -0.0342
 8272TIP3    H146231   5.667   0.664  15.328  0.2039  0.9491  0.1822
 8272TIP3    H246232   5.516   0.675  15.319  0.2350  0.9968 -0.3164
 8273TIP3   OH246233   2.810   2.403   4.688 -0.2782  0.3302  0.0799
 8273TIP3    H146234   2.881   2.395   4.752 -0.0544  0.0083 -0.2095
 8273TIP3    H246235   2.731   2.408   4.742  0.0336  1.7361  0.4505
 8274TIP3   OH246236   0.064   3.180  15.516 -0.2437  0.4759 -0.2916
 8274TIP3    H146237   0.141   3.156  15.567  0.7165  1.8908 -0.9921
 8274TIP3    H246238   0.034   3.262  15.556  0.5654  1.6450 -1.9582
 8275TIP3   OH246239   3.245   5.005   2.741 -0.3275 -0.2791  0.1687
 8275TIP3    H146240   3.235   4.910   2.727  0.4162 -0.3939  0.3763
 8275TIP3    H246241   3.239   5.042   2.653  2.2135 -0.8054 -0.3031
 8276TIP3   OH246242   2.824   3.271   1.393  0.1099  0.2460 -0.1131
 8276TIP3    H146243   2.831   3.191   1.340 -0.4880 -1.1515  1.8107
 8276TIP3    H246244   2.893   3.328   1.359  0.7649 -1.2108 -1.3390
 8277TIP3   OH246245   3.852   3.040   3.290 -0.3905 -0.1978 -0.2533
 8277TIP3    H146246   3.858   3.020   3.197 -3.0383 -0.2095 -0.5223
 8277TIP3    H246247   3.862   3.135   3.296 -1.1861 -0.0785 -0.7030
 8278TIP3   OH246248   4.778   6.432  16.141  0.0274  0.5463  0.3585
 8278TIP3    H146249   4.786   6.467  16.230  0.5450  2.0806 -0.2518
 8278TIP3    H246250   4.803   6.505  16.084 -0.2268 -0.4189 -1.0549
 8279TIP3   OH246251   0.343   0.409   5.804 -0.1716  0.2385 -0.7187
 8279TIP3    H146252   0.390   0.332   5.835  1.3356  0.7888 -1.5053
 8279TIP3    H246253   0.308   0.449   5.883  3.5409  1.6020  0.4583
 8280TIP3   OH246254   4.760   2.927  16.305 -0.1778  0.1252 -0.2856
 8280TIP3    H146255   4.745   2.834  16.322 -0.4493  0.2423  0.1531
 8280TIP3    H246256   4.799   2.930  16.218 -2.6864 -0.2082 -1.4876
 8281TIP3   OH246257   0.436   1.957   4.636  0.2708 -0.1355 -0.4406
 8281TIP3    H146258   0.397   1.890   4.580 -0.0559  0.8143 -1.3594
 8281TIP3    H246259   0.384   1.953   4.717  0.1280 -0.8502 -0.5593
 8282TIP3   OH246260   4.182   6.365  13.225 -0.4005  0.3933 -0.4866
 8282TIP3    H146261   4.135   6.365  13.142 -0.3546  0.7203 -0.5140
 8282TIP3    H246262   4.233   6.446  13.225 -0.2247  0.2883 -0.2379
 8283TIP3   OH246263   2.752   2.602  12.573 -0.2056 -0.1267  0.0418
 8283TIP3    H146264   2.783   2.593  12.664 -3.4390  0.5679  1.3560
 8283TIP3    H246265   2.667   2.559  12.572 -1.1875  1.6443 -2.1077
 8284TIP3   OH246266   3.782   4.175  17.126  0.1546  0.2424 -0.4978
 8284TIP3    H146267   3.737   4.095  17.098  1.3569 -0.8969  0.6932
 8284TIP3    H246268   3.762   4.181  17.219  1.2287  0.5549 -0.2848
 8285TIP3   OH246269   0.312   3.954  13.784  0.3775  0.0616 -0.7370
 8285TIP3    H146270   0.387   3.970  13.727  1.5822  0.0929  0.7835
 8285TIP3    H246271   0.333   3.872  13.829  2.4988  2.8019  4.0473
 8286TIP3   OH246272   5.097   1.709  16.791 -0.3889 -0.2476  0.3457
 8286TIP3    H146273   5.177   1.663  16.815 -0.5045  0.3186  1.9614
 8286TIP3    H246274   5.027   1.645  16.805 -0.4132 -0.0545  1.1501
 8287TIP3   OH246275   0.626   2.374   3.139  0.3301  0.0393  0.3820
 8287TIP3    H146276   0.559   2.358   3.073  0.3431 -1.8643  0.7549
 8287TIP3    H246277   0.706   2.335   3.101  0.4424 -0.6399  1.2852
 8288TIP3   OH246278   5.590   4.782   2.254 -0.0591  0.5073  0.6938
 8288TIP3    H146279   5.550   4.753   2.336  1.3490 -1.3638  0.7870
 8288TIP3    H246280   5.684   4.777   2.271  0.3249 -1.8974 -1.6164
 8289TIP3   OH246281   4.743   2.872  15.764 -0.6962  0.0669 -0.4884
 8289TIP3    H146282   4.720   2.783  15.793  1.1363 -0.4455 -0.4967
 8289TIP3    H246283   4.811   2.900  15.825 -0.2260  0.8844 -1.3741
 8290TIP3   OH246284   4.018   1.413  15.382 -0.3385 -0.3945  1.0498
 8290TIP3    H146285   3.980   1.451  15.461 -1.0993  0.2033  0.4173
 8290TIP3    H246286   4.008   1.319  15.394  0.6457 -0.3803  2.1856
 8291TIP3   OH246287   0.253   3.629  14.866 -0.6652  0.1549  0.2419
 8291TIP3    H146288   0.266   3.564  14.935 -0.7586 -0.1225  0.0017
 8291TIP3    H246289   0.293   3.709  14.900 -1.0856  0.1359  0.7953
 8292TIP3   OH246290   4.284   1.310  14.629  0.3298 -0.0766 -0.2149
 8292TIP3    H146291   4.248   1.306  14.540  0.0839 -2.5937 -0.0758
 8292TIP3    H246292   4.208   1.297  14.686  0.4503  1.7596  0.4363
 8293TIP3   OH246293   2.854   3.475   4.660 -0.3111  0.0312 -0.4066
 8293TIP3    H146294   2.832   3.446   4.571 -1.7672  1.4029 -0.5326
 8293TIP3    H246295   2.882   3.566   4.649  1.2149 -0.3231  0.3460
 8294TIP3   OH246296   4.398   1.673   1.294 -0.1839 -0.1466 -0.4276
 8294TIP3    H146297   4.483   1.673   1.338 -0.6015 -1.6481  0.4385
 8294TIP3    H246298   4.338   1.634   1.357 -1.1819 -0.6546 -1.6373
 8295TIP3   OH246299   1.872   0.820  15.671  0.0947 -0.0255  0.1386
 8295TIP3    H146300   1.784   0.837  15.703 -1.3264 -3.8031 -1.1000
 8295TIP3    H246301   1.864   0.823  15.576  0.7243 -2.2325 -0.0559
 8296TIP3   OH246302   6.002   0.818   4.668  0.1830 -0.0049  0.3869
 8296TIP3    H146303   6.080   0.767   4.688 -0.0446 -1.1102 -1.3010
 8296TIP3    H246304   5.948   0.760   4.614 -1.7341  0.7937  1.3318
 8297TIP3   OH246305   2.252   3.764  13.049 -0.3617 -0.3920  0.0312
 8297TIP3    H146306   2.177   3.823  13.054  0.5757  1.0460 -1.6471
 8297TIP3    H246307   2.319   3.806  13.102  0.2055 -0.0944 -0.9051
 8298TIP3   OH246308   3.849   4.154   5.174  0.1785 -0.2786 -0.3962
 8298TIP3    H146309   3.925   4.202   5.141 -0.3687  0.2174 -0.9525
 8298TIP3    H246310   3.792   4.221   5.211  0.5217 -0.7687  1.0853
 8299TIP3   OH246311   1.832   0.082   0.673 -0.2618 -0.5054  0.3575
 8299TIP3    H146312   1.736   0.074   0.677 -0.4230  1.2560  1.0266
 8299TIP3    H246313   1.862  -0.002   0.638 -1.8979 -1.9780  2.2476
 8300TIP3   OH246314   0.883   1.711  13.776 -0.1254  0.0142  0.2766
 8300TIP3    H146315   0.907   1.790  13.823 -0.6561  1.3643 -1.6007
 8300TIP3    H246316   0.845   1.654  13.843  1.5104  0.7619  1.9185
 8301TIP3   OH246317   1.829   2.473  13.500 -0.1697  0.2737 -0.3455
 8301TIP3    H146318   1.750   2.464  13.553 -0.9917  0.6666 -1.4686
 8301TIP3    H246319   1.853   2.383  13.478  0.7419  0.0271  1.4257
 8302TIP3   OH246320   6.271   2.489  15.512  0.0744  0.6608  0.2016
 8302TIP3    H146321   6.265   2.534  15.597  0.6285 -0.0286  0.6125
 8302TIP3    H246322   6.329   2.545  15.460  0.3460  0.6915  0.5353
 8303TIP3   OH246323   0.732   1.899   3.490 -0.3738  0.3080  0.0365
 8303TIP3    H146324   0.658   1.957   3.508 -1.5817 -1.1054 -0.1535
 8303TIP3    H246325   0.789   1.909   3.566 -1.0621  0.9848  0.4823
 8304TIP3   OH246326   2.858   4.086   3.633 -0.3283 -0.7638 -0.8115
 8304TIP3    H146327   2.791   4.155   3.622 -0.2041 -0.6021 -0.5672
 8304TIP3    H246328   2.816   4.022   3.691 -0.0854 -0.3999 -0.2134
 8305TIP3   OH246329   2.842   0.498   5.429 -0.3377 -0.2669  0.0826
 8305TIP3    H146330   2.787   0.438   5.481 -0.5264 -0.9756 -0.9078
 8305TIP3    H246331   2.925   0.451   5.418 -0.8121 -0.7976 -1.5072
 8306TIP3   OH246332   4.597   3.108  11.727 -0.3483 -0.4312  0.3859
 8306TIP3    H146333   4.612   3.202  11.730  3.1059 -0.5972 -2.9327
 8306TIP3    H246334   4.510   3.099  11.686  0.8494  1.5862 -3.1026
 8307TIP3   OH246335   3.700   4.002  10.685 -0.0726 -0.4743  0.3318
 8307TIP3    H146336   3.633   3.963  10.740  0.2344  0.4499  1.3944
 8307TIP3    H246337   3.701   4.095  10.709  1.1788 -0.3557 -0.0683
 8308TIP3   OH246338   2.271   5.192  13.584 -0.2877  0.5528 -0.1589
 8308TIP3    H146339   2.311   5.105  13.576 -2.1249 -0.5166  1.4581
 8308TIP3    H246340   2.226   5.206  13.501  1.2684  0.6991 -1.0318
 8309TIP3   OH246341   4.751   5.434   4.311  0.6822 -0.2734 -0.1805
 8309TIP3    H146342   4.821   5.499   4.315  0.5790 -0.2205  2.0092
 8309TIP3    H246343   4.795   5.350   4.325  0.3580 -0.2357  1.2467
 8310TIP3   OH246344   2.039   6.247   4.596  0.2443 -0.3580  0.1596
 8310TIP3    H146345   2.131   6.247   4.570  0.3863 -0.4823  0.6513
 8310TIP3    H246346   1.996   6.305   4.532  0.7315  0.0307  0.1752
 8311TIP3   OH246347   3.719   4.899  13.387  0.1947  0.2508  0.1975
 8311TIP3    H146348   3.681   4.986  13.397  1.6529  1.1394 -1.4075
 8311TIP3    H246349   3.645   4.843  13.364 -0.5745  1.3360 -0.0601
 8312TIP3   OH246350   1.437   1.611   5.391 -0.4773  0.1693 -0.3250
 8312TIP3    H146351   1.525   1.650   5.399  0.0026 -1.1840  2.0456
 8312TIP3    H246352   1.380   1.672   5.438 -0.0644 -0.8803  1.6373
 8313TIP3   OH246353   5.021   3.952   0.589  0.4987  0.0650  0.1076
 8313TIP3    H146354   4.931   3.922   0.604  1.0865 -1.7903  0.1793
 8313TIP3    H246355   5.027   4.034   0.638 -0.5628 -0.8217  1.8402
 8314TIP3   OH246356   0.975   6.217   4.376 -0.5076  0.0381 -0.1356
 8314TIP3    H146357   0.997   6.303   4.410  1.8635 -0.2580 -0.7500
 8314TIP3    H246358   0.880   6.219   4.365 -0.5622  2.3993  0.2763
 8315TIP3   OH246359   5.992   0.385  12.370  0.6031  0.1206 -0.0244
 8315TIP3    H146360   5.899   0.372  12.387  0.8798 -1.2756  0.6002
 8315TIP3    H246361   6.015   0.463  12.420 -0.1312  0.2108  0.1879
 8316TIP3   OH246362   6.652   5.584   4.851 -0.0858 -0.4308 -0.4035
 8316TIP3    H146363   6.584   5.517   4.859 -1.9294  1.5346  1.6088
 8316TIP3    H246364   6.727   5.548   4.899 -0.5361 -1.5858 -0.5285
 8317TIP3   OH246365   6.519   1.443  16.469 -0.0075  0.5689  0.8350
 8317TIP3    H146366   6.549   1.518  16.418 -0.4428  0.6084  0.6284
 8317TIP3    H246367   6.575   1.371  16.440 -1.2775  0.2061 -0.9144
 8318TIP3   OH246368   2.364   6.056   0.216  0.1052 -0.2604 -0.0430
 8318TIP3    H146369   2.431   6.103   0.266  1.5966 -0.2964 -1.8884
 8318TIP3    H246370   2.328   5.993   0.278 -1.5689  2.8021  2.3626
 8319TIP3   OH246371   1.081   6.719  10.750 -0.0488  0.3782  0.2594
 8319TIP3    H146372   0.986   6.726  10.735 -0.2117 -0.6016  0.7778
 8319TIP3    H246373   1.096   6.627  10.770  0.9369  0.6264  0.7404
 8320TIP3   OH246374   6.115   3.854   3.849  0.1473 -0.0456  0.1511
 8320TIP3    H146375   6.044   3.794   3.874 -1.0976  0.4177 -1.9811
 8320TIP3    H246376   6.071   3.924   3.801  1.9301  0.8947 -0.1851
 8321TIP3   OH246377   0.826   5.767   4.424  0.1362 -0.3528  0.4151
 8321TIP3    H146378   0.899   5.801   4.476  0.9420 -0.1804 -0.7837
 8321TIP3    H246379   0.841   5.802   4.336 -1.5968 -0.0435  0.2192
 8322TIP3   OH246380   3.143   4.281  11.864 -0.3366 -0.2316  0.2820
 8322TIP3    H146381   3.076   4.262  11.931  0.3137 -0.4550  0.8795
 8322TIP3    H246382   3.208   4.333  11.911 -0.5826  0.8493 -0.5556
 8323TIP3   OH246383   6.763   0.687   5.857  0.4697 -0.0545 -0.4399
 8323TIP3    H146384   6.845   0.714   5.816  0.1787  2.5634  0.5337
 8323TIP3    H246385   6.789   0.656   5.944  0.8356 -3.5850 -1.6372
 8324TIP3   OH246386   3.546   6.367  16.921  0.0173  0.2441  0.8320
 8324TIP3    H146387   3.526   6.358  17.014  1.2846  0.2217  1.1245
 8324TIP3    H246388   3.557   6.462  16.908 -1.8942  0.4270  0.2978
 8325TIP3   OH246389   3.963   2.048  15.090  0.1500  0.2698 -0.5037
 8325TIP3    H146390   3.969   1.992  15.167  1.4014 -0.6832 -1.2531
 8325TIP3    H246391   3.870   2.049  15.068 -0.3217  1.0725  1.3547
 8326TIP3   OH246392   4.367   1.669   1.690  0.0974 -0.2746 -0.1379
 8326TIP3    H146393   4.410   1.733   1.633 -1.1407 -0.3675 -1.2394
 8326TIP3    H246394   4.321   1.610   1.629  0.6427 -1.8164  0.8654
 8327TIP3   OH246395   3.545   3.106   5.686  0.3007 -0.3184 -0.3235
 8327TIP3    H146396   3.455   3.102   5.719  0.2368 -0.1056 -0.4710
 8327TIP3    H246397   3.555   3.027   5.634  0.5792 -0.9446  0.6584
 8328TIP3   OH246398   2.649   2.365  16.229  0.5081 -0.2307 -0.6839
 8328TIP3    H146399   2.707   2.298  16.265  0.3576  0.0259  0.0430
 8328TIP3    H246400   2.692   2.447  16.250 -1.0241  0.0692  1.5566
 8329TIP3   OH246401   3.835   4.104  11.865  0.0072 -0.1394  0.4573
 8329TIP3    H146402   3.776   4.057  11.806  0.4473 -0.8811  0.5943
 8329TIP3    H246403   3.797   4.191  11.872 -0.6659 -0.3814 -0.0404
 8330TIP3   OH246404   0.323   4.802   5.907 -0.0601 -0.1851 -0.5673
 8330TIP3    H146405   0.231   4.781   5.920 -0.2467 -0.0135 -1.5879
 8330TIP3    H246406   0.367   4.717   5.905 -0.6379 -0.5020 -3.3102
 8331TIP3   OH246407   2.712   1.361   0.901 -0.3603 -0.2931 -0.3544
 8331TIP3    H146408   2.659   1.281   0.900 -1.3855  0.3532  0.4421
 8331TIP3    H246409   2.724   1.381   0.994 -1.9768  1.6494 -0.5118
 8332TIP3   OH246410   6.517   2.411  13.045 -0.2770  0.4425 -0.1927
 8332TIP3    H146411   6.605   2.372  13.046 -0.2666  0.2124 -2.7397
 8332TIP3    H246412   6.529   2.497  13.004 -1.2867  0.1803 -1.0932
 8333TIP3   OH246413   4.881   4.765   1.079 -0.3067  0.0144  0.0403
 8333TIP3    H146414   4.835   4.682   1.092  0.2399 -0.0851  1.6164
 8333TIP3    H246415   4.830   4.812   1.014 -1.6115 -0.8335  0.4238
 8334TIP3   OH246416   5.731   3.166  17.093  0.1576  0.8788 -0.1758
 8334TIP3    H146417   5.720   3.095  17.157  1.8740  1.0253  0.3293
 8334TIP3    H246418   5.646   3.209  17.090 -1.0746 -1.4499 -0.8197
 8335TIP3   OH246419   3.424   4.022   0.420 -0.0713  0.2409 -0.3995
 8335TIP3    H146420   3.378   3.941   0.443 -1.5604  1.8353  3.1871
 8335TIP3    H246421   3.506   4.018   0.470  1.1832 -0.1950 -2.4171
 8336TIP3   OH246422   4.279   4.403  10.944 -0.1044  0.3790  0.2423
 8336TIP3    H146423   4.268   4.485  10.992 -0.1392  0.3957  0.2060
 8336TIP3    H246424   4.217   4.343  10.986 -0.0636  0.3651  0.2829
 8337TIP3   OH246425   0.243   4.040  11.799  0.3641 -0.0747  0.1920
 8337TIP3    H146426   0.318   3.983  11.815 -0.0718 -0.3667  1.2232
 8337TIP3    H246427   0.268   4.124  11.839  0.9106  0.4290 -1.1267
 8338TIP3   OH246428   6.334   0.691  15.856  0.4905  0.5803  0.0998
 8338TIP3    H146429   6.407   0.729  15.806  0.3911 -1.0232 -1.3387
 8338TIP3    H246430   6.366   0.688  15.946  1.7456  0.9953 -0.3131
 8339TIP3   OH246431   6.502   4.189   3.853 -0.1986  0.6251  0.0404
 8339TIP3    H146432   6.578   4.143   3.817 -1.0046 -0.8902  0.1799
 8339TIP3    H246433   6.521   4.282   3.838  1.7819  0.3183  0.2941
 8340TIP3   OH246434   2.859   1.806   1.189 -0.6250  0.0152  0.5663
 8340TIP3    H146435   2.943   1.766   1.166 -1.1808  0.2719 -2.2466
 8340TIP3    H246436   2.815   1.740   1.242  0.4510 -1.0452  0.1881
 8341TIP3   OH246437   1.244   6.634  11.385 -0.2361 -0.2809  0.4279
 8341TIP3    H146438   1.192   6.679  11.318 -0.1185  0.5462  0.8746
 8341TIP3    H246439   1.218   6.675  11.467  1.4060  0.4939  0.6239
 8342TIP3   OH246440   2.583   3.716   3.294 -0.0687 -0.1673 -0.0506
 8342TIP3    H146441   2.634   3.763   3.361  1.9071  1.3834 -2.4482
 8342TIP3    H246442   2.555   3.785   3.233 -1.7808 -1.5186 -0.8695
 8343TIP3   OH246443   4.000   4.641   3.508  0.5564 -0.1707 -0.0779
 8343TIP3    H146444   4.082   4.604   3.475  1.1497  0.4649  0.6421
 8343TIP3    H246445   4.025   4.688   3.588 -0.3920  0.6404 -0.2314
 8344TIP3   OH246446   2.021   0.080   4.896  0.1803 -0.5064  0.4245
 8344TIP3    H146447   2.051  -0.010   4.887 -1.1020 -1.2924  3.0047
 8344TIP3    H246448   1.926   0.074   4.898  0.0499  0.9701  0.2689
 8345TIP3   OH246449   5.520   3.113   5.508 -0.4034  0.1485  0.3469
 8345TIP3    H146450   5.481   3.185   5.457 -0.0594  0.0901 -0.0067
 8345TIP3    H246451   5.475   3.116   5.592 -0.5623  0.6262  0.2482
 8346TIP3   OH246452   5.643   1.955  14.070 -0.0614  0.5367  0.0074
 8346TIP3    H146453   5.593   1.884  14.108 -1.4901  0.5922 -1.6203
 8346TIP3    H246454   5.697   1.914  14.003 -0.5327  0.8898 -0.6071
 8347TIP3   OH246455   4.663   2.183   1.779 -0.1711 -0.8449 -0.2276
 8347TIP3    H146456   4.670   2.089   1.792 -1.4822 -0.9703 -0.2662
 8347TIP3    H246457   4.586   2.194   1.722 -0.8103  0.2976  0.7953
 8348TIP3   OH246458   3.000   2.315  12.885 -0.6508  0.2513  0.1827
 8348TIP3    H146459   3.033   2.289  12.799 -0.5514 -0.2109  0.3599
 8348TIP3    H246460   2.916   2.269  12.893 -0.5368  0.0871  0.4427
 8349TIP3   OH246461   4.084   0.946   5.221  0.1955 -0.2941  0.4395
 8349TIP3    H146462   4.173   0.968   5.247  0.7743 -1.8377 -0.1108
 8349TIP3    H246463   4.059   1.016   5.160  0.5929  0.7426  1.4273
 8350TIP3   OH246464   6.191   1.597   2.020 -0.2920  0.5782 -0.1356
 8350TIP3    H146465   6.276   1.555   2.003  0.0621  0.8410  0.9445
 8350TIP3    H246466   6.177   1.652   1.942 -0.6039 -1.2344 -1.4076
 8351TIP3   OH246467   4.025   4.529   1.174 -0.5019 -0.2444  0.1931
 8351TIP3    H146468   4.080   4.567   1.243 -0.5036 -0.5774  0.3807
 8351TIP3    H246469   3.935   4.548   1.202 -0.4879  0.1387 -0.0200
 8352TIP3   OH246470   5.393   3.242  15.990  0.3171  0.3547 -0.1288
 8352TIP3    H146471   5.394   3.258  15.895  0.1567 -1.7719 -0.5526
 8352TIP3    H246472   5.300   3.241  16.013  0.3463  0.6094  0.0063
 8353TIP3   OH246473   0.669   6.425  11.033  0.3101 -0.1967  1.0289
 8353TIP3    H146474   0.748   6.475  11.011 -0.2346  0.5815  0.8114
 8353TIP3    H246475   0.702   6.344  11.071  1.2185  0.1098  0.9147
 8354TIP3   OH246476   2.865   4.763  13.600  0.1081  0.0809  0.5391
 8354TIP3    H146477   2.775   4.733  13.617 -0.2080  0.4138 -0.4906
 8354TIP3    H246478   2.883   4.735  13.511  1.3517 -0.7296  1.0135
 8355TIP3   OH246479   3.294   2.064   2.132  0.0892 -0.0155 -0.1563
 8355TIP3    H146480   3.370   2.122   2.126 -0.5731  0.9031  0.0471
 8355TIP3    H246481   3.305   2.018   2.215  0.5316 -0.0466 -0.2327
 8356TIP3   OH246482   2.650   1.758  14.920  0.7566  0.3650  0.0789
 8356TIP3    H146483   2.660   1.728  15.010  0.0871  1.0894  0.4126
 8356TIP3    H246484   2.690   1.690  14.867  1.7924  0.2661  0.9628
 8357TIP3   OH246485   5.805   5.929  14.424  0.5553  0.3918  0.2879
 8357TIP3    H146486   5.766   5.955  14.508 -1.8022 -1.7447 -0.0297
 8357TIP3    H246487   5.811   5.834  14.428  0.4922  0.2411 -1.8993
 8358TIP3   OH246488   6.477   4.845  15.405  0.1137 -0.0582  0.2721
 8358TIP3    H146489   6.561   4.879  15.373  0.6791 -1.6643 -0.0483
 8358TIP3    H246490   6.433   4.921  15.442  0.3960  1.4383 -2.3002
 8359TIP3   OH246491   1.137   4.711   5.820  0.0596  0.1565 -0.2934
 8359TIP3    H146492   1.090   4.791   5.797 -1.4383 -0.2797  1.0977
 8359TIP3    H246493   1.214   4.741   5.867 -0.0828  0.8003 -0.4582
 8360TIP3   OH246494   1.831   5.385  16.024  0.1116 -0.2363 -0.0117
 8360TIP3    H146495   1.897   5.401  15.957  0.4719 -0.8355  0.1935
 8360TIP3    H246496   1.748   5.389  15.976  0.2918  0.4779 -0.2785
 8361TIP3   OH246497   3.048   5.924   6.443 -0.3040  0.3490  0.0804
 8361TIP3    H146498   2.967   5.976   6.444  0.9165  2.3306  0.9072
 8361TIP3    H246499   3.026   5.845   6.493 -2.0865  0.2118 -0.8327
 8362TIP3   OH246500   0.104   5.859  13.149  0.2107 -0.1809 -0.4115
 8362TIP3    H146501   0.177   5.822  13.200 -0.4329 -0.5852  0.2463
 8362TIP3    H246502   0.071   5.786  13.098 -0.8520 -0.4750  0.6393
 8363TIP3   OH246503   4.506   2.751   5.163  0.0229  0.0903 -0.0504
 8363TIP3    H146504   4.478   2.841   5.150  2.6978  1.0607  0.2557
 8363TIP3    H246505   4.427   2.699   5.149 -1.3683  2.3753 -1.3289
 8364TIP3   OH246506   0.986   6.524  14.285 -0.6176  0.0535 -0.0911
 8364TIP3    H146507   0.931   6.562  14.353 -0.9596  1.6342 -1.2087
 8364TIP3    H246508   1.073   6.516  14.326 -0.9513  0.4189  0.7090
 8365TIP3   OH246509   3.834   2.408   0.505  0.2062 -0.4492  0.3840
 8365TIP3    H146510   3.873   2.379   0.588 -0.3556 -0.2968  0.7051
 8365TIP3    H246511   3.806   2.498   0.522 -0.4036 -0.6033  0.1971
 8366TIP3   OH246512   0.641   5.124   2.284  0.2066  1.2491  0.3025
 8366TIP3    H146513   0.714   5.073   2.320  0.0480  1.5852  1.1042
 8366TIP3    H246514   0.630   5.089   2.195 -1.0216 -1.3716  1.3592
 8367TIP3   OH246515   6.012   3.754  13.134 -0.0619  0.0238  0.8148
 8367TIP3    H146516   6.088   3.772  13.078  0.9011 -0.2544  1.9957
 8367TIP3    H246517   5.939   3.798  13.090  0.6083 -0.3964 -0.7832
 8368TIP3   OH246518   3.023   0.787  15.498 -0.0713 -0.6309 -0.5765
 8368TIP3    H146519   3.090   0.791  15.566 -2.7546 -0.9590  2.3052
 8368TIP3    H246520   3.020   0.875  15.461  0.7439 -0.1232  0.5222
 8369TIP3   OH246521   4.586   2.931   2.186 -0.5437 -0.0588 -0.1885
 8369TIP3    H146522   4.498   2.897   2.175 -1.3619  2.0753 -0.5993
 8369TIP3    H246523   4.642   2.867   2.142 -1.7896 -1.7101  0.5191
 8370TIP3   OH246524   2.221   4.493   0.366  0.0467 -0.2640 -0.1837
 8370TIP3    H146525   2.169   4.571   0.346 -0.0841  0.1666  1.6559
 8370TIP3    H246526   2.293   4.526   0.420  0.4375 -1.3089 -0.0542
 8371TIP3   OH246527   2.497   2.434  13.192  0.2373  0.2022  0.3991
 8371TIP3    H146528   2.556   2.365  13.162  0.3398  0.1694  0.6664
 8371TIP3    H246529   2.433   2.388  13.247  0.5283  0.3688  0.8820
 8372TIP3   OH246530   4.322   0.978   3.898  0.4686 -0.2778  0.1767
 8372TIP3    H146531   4.230   0.973   3.924 -0.2546  0.8395 -1.9489
 8372TIP3    H246532   4.357   1.051   3.950 -1.1949  2.5612 -2.3395
 8373TIP3   OH246533   3.854   1.185   3.955 -0.0792  0.4053  0.0603
 8373TIP3    H146534   3.786   1.174   4.021  0.5546  0.7611  0.7892
 8373TIP3    H246535   3.860   1.280   3.943  0.6957  0.4082  0.4392
 8374TIP3   OH246536   2.819   0.297   3.297 -0.5236 -0.2740 -0.7193
 8374TIP3    H146537   2.729   0.329   3.298 -0.1695  0.7996 -1.4017
 8374TIP3    H246538   2.831   0.260   3.209 -0.7426 -1.7940 -0.1362
 8375TIP3   OH246539   5.614   6.372  11.642  0.1807  0.1882 -0.4739
 8375TIP3    H146540   5.586   6.361  11.733  0.0157 -1.4204 -0.6862
 8375TIP3    H246541   5.670   6.297  11.626 -2.6699 -1.6505 -2.7715
 8376TIP3   OH246542   2.781   3.629   2.458 -0.4308 -0.2651  0.1144
 8376TIP3    H146543   2.731   3.581   2.392  0.8987 -0.5869 -0.7162
 8376TIP3    H246544   2.858   3.574   2.474 -0.8375 -0.3155  2.1523
 8377TIP3   OH246545   5.288   2.007   4.511  0.1638  0.3589 -0.0592
 8377TIP3    H146546   5.296   2.094   4.551 -0.3658  0.4849 -0.2225
 8377TIP3    H246547   5.226   1.961   4.566  1.1618 -0.2536  0.5836
 8378TIP3   OH246548   5.794   0.044  14.657  0.4081 -0.4904 -0.7452
 8378TIP3    H146549   5.882   0.006  14.650 -0.1488 -1.8516 -0.4815
 8378TIP3    H246550   5.742  -0.003  14.592 -0.6418 -1.1857  0.5633
 8379TIP3   OH246551   5.203   4.965   1.547  0.1834  0.1229 -0.1558
 8379TIP3    H146552   5.203   4.876   1.583 -0.6398  0.2895  0.2987
 8379TIP3    H246553   5.126   4.967   1.490 -0.2850  0.7758  0.4785
 8380TIP3   OH246554   1.004   1.147  11.824  0.1386  0.6277 -0.0760
 8380TIP3    H146555   1.045   1.200  11.755  0.2944 -0.6663 -1.0239
 8380TIP3    H246556   0.914   1.180  11.829  0.9189  2.7726  1.2742
 8381TIP3   OH246557   6.438   5.062  14.767  0.2955  0.1648 -0.0997
 8381TIP3    H146558   6.488   4.980  14.767 -0.4906 -0.3246 -0.2788
 8381TIP3    H246559   6.423   5.081  14.674  0.3649  0.4488 -0.0547
 8382TIP3   OH246560   1.613   3.905   0.361  0.1156  0.0493 -0.1656
 8382TIP3    H146561   1.678   3.835   0.357  0.6845  0.4759  1.1949
 8382TIP3    H246562   1.621   3.941   0.449 -0.4205  1.5804 -0.6997
 8383TIP3   OH246563   6.598   3.715   0.696  0.0095 -0.4591 -0.1569
 8383TIP3    H146564   6.633   3.630   0.670  0.5575 -0.4157  0.4174
 8383TIP3    H246565   6.662   3.778   0.663  1.3135 -0.4572  2.1715
 8384TIP3   OH246566   6.122   1.055  17.027  0.6535  0.3999 -0.2098
 8384TIP3    H146567   6.066   0.988  17.068  0.0198  1.5545  0.9046
 8384TIP3    H246568   6.181   1.006  16.971 -0.4413 -1.0138 -0.1900
 8385TIP3   OH246569   4.169   4.905  12.414 -0.6496  0.2427  0.2887
 8385TIP3    H146570   4.125   4.911  12.329 -2.7103 -0.7999  1.2300
 8385TIP3    H246571   4.113   4.955  12.473 -0.8151 -1.4283  1.6022
 8386TIP3   OH246572   2.361   3.211  15.468  0.0221  0.2082 -0.2855
 8386TIP3    H146573   2.393   3.176  15.551 -1.1404 -0.0359  0.0808
 8386TIP3    H246574   2.371   3.138  15.407  0.0614  0.0981 -0.1497
 8387TIP3   OH246575   3.963   1.551   4.373  0.0686  0.1330  0.6160
 8387TIP3    H146576   3.954   1.462   4.407  1.2747  0.0260  0.7132
 8387TIP3    H246577   3.940   1.607   4.447  1.6556 -0.1049  1.3459
 8388TIP3   OH246578   2.431   0.117  10.581  0.8078  0.3420  0.3979
 8388TIP3    H146579   2.419   0.046  10.645 -2.6358  0.5775  0.2288
 8388TIP3    H246580   2.396   0.195  10.625 -1.8108  0.4834 -1.6612
 8389TIP3   OH246581   5.188   3.061  14.809 -0.3895 -0.4358  0.2434
 8389TIP3    H146582   5.180   2.975  14.849 -0.0970 -1.0162 -0.8885
 8389TIP3    H246583   5.099   3.086  14.786 -0.4055 -0.7813 -0.0902
 8390TIP3   OH246584   5.365   5.162  16.494 -0.1328 -0.0383  0.4075
 8390TIP3    H146585   5.408   5.214  16.563 -0.3015  1.0977 -0.3125
 8390TIP3    H246586   5.429   5.094  16.473  0.5091  0.4588  0.7026
 8391TIP3   OH246587   2.104   0.055   4.318 -0.3284 -0.5950  0.4878
 8391TIP3    H146588   2.192   0.091   4.324 -0.1250  0.4243 -4.3886
 8391TIP3    H246589   2.117  -0.035   4.287 -0.8679 -0.1146 -1.2870
 8392TIP3   OH246590   5.788   2.501   5.541  0.0359  0.1912  0.3287
 8392TIP3    H146591   5.868   2.493   5.490  0.1537  2.7683 -0.0062
 8392TIP3    H246592   5.787   2.423   5.597  1.4893 -1.1089 -1.3789
 8393TIP3   OH246593   3.877   5.237  12.539  0.0744 -0.0904 -0.1352
 8393TIP3    H146594   3.881   5.254  12.444  0.9596 -1.4537 -0.3677
 8393TIP3    H246595   3.966   5.252  12.570 -0.2902  0.7071  0.5687
 8394TIP3   OH246596   1.297   5.608  11.491 -0.6741  0.1104  0.3176
 8394TIP3    H146597   1.261   5.683  11.539 -0.6719 -0.3603  1.0604
 8394TIP3    H246598   1.340   5.555  11.558 -0.0107 -0.1692 -0.3208
 8395TIP3   OH246599   2.958   5.591   0.748  0.2014  0.0244  0.3848
 8395TIP3    H146600   3.016   5.590   0.672  0.1552 -3.8099  0.2246
 8395TIP3    H246601   3.013   5.620   0.821  0.7625  1.8058 -0.6994
 8396TIP3   OH246602   3.797   5.879  16.886 -0.1216 -0.0388 -0.0068
 8396TIP3    H146603   3.816   5.921  16.971  0.5342  0.2891 -0.3012
 8396TIP3    H246604   3.757   5.796  16.909 -0.7744  0.4293  0.6118
 8397TIP3   OH246605   5.802   6.579   5.428 -0.1949  0.1975  0.0901
 8397TIP3    H146606   5.789   6.527   5.506 -0.6653  0.2180  0.0304
 8397TIP3    H246607   5.837   6.662   5.460 -1.9395  0.8424  0.4756
 8398TIP3   OH246608   5.300   4.875   0.681  0.6198  0.3951  0.1406
 8398TIP3    H146609   5.273   4.797   0.632  1.5225 -0.5229  1.0654
 8398TIP3    H246610   5.327   4.937   0.614 -1.1315  0.3428 -0.6749
 8399TIP3   OH246611   0.287   5.742  13.321 -0.1864  0.0666 -0.0776
 8399TIP3    H146612   0.236   5.677  13.370 -0.5393 -0.2209 -0.7943
 8399TIP3    H246613   0.378   5.724  13.345 -0.2580 -0.8558 -0.4246
 8400TIP3   OH246614   2.590   4.381  16.479 -0.2064 -0.2807 -0.1065
 8400TIP3    H146615   2.623   4.424  16.558  0.8339 -0.2624 -0.5257
 8400TIP3    H246616   2.629   4.294  16.480  1.2066  0.2853 -1.4190
 8401TIP3   OH246617   3.411   6.185   0.216  0.5996  0.7109 -0.1863
 8401TIP3    H146618   3.434   6.275   0.195 -0.6459  0.8514 -1.0885
 8401TIP3    H246619   3.322   6.175   0.183  0.7948 -0.9152 -0.3029
 8402TIP3   OH246620   2.999   5.585   4.180 -0.2335  0.4149 -0.4175
 8402TIP3    H146621   2.940   5.617   4.112 -0.1280 -0.5670 -0.9863
 8402TIP3    H246622   3.041   5.508   4.141  1.3960  1.0483 -0.0359
 8403TIP3   OH246623   3.868   1.043  11.210  0.0354 -0.3932 -0.4493
 8403TIP3    H146624   3.890   0.955  11.180  0.2318  0.3185 -2.5145
 8403TIP3    H246625   3.821   1.028  11.292  1.6229 -2.3121  0.2053
 8404TIP3   OH246626   5.079   2.928   1.133 -0.1169 -0.3670 -0.4485
 8404TIP3    H146627   5.037   3.003   1.176  2.8552  0.1400  1.8519
 8404TIP3    H246628   5.067   2.945   1.040 -0.4903  2.4131  0.0179
 8405TIP3   OH246629   5.545   3.050  13.159  0.0527  0.3709 -0.7067
 8405TIP3    H146630   5.620   3.047  13.218 -0.6819  2.9292  0.4630
 8405TIP3    H246631   5.576   3.098  13.083 -0.2680  1.0466 -0.4129
 8406TIP3   OH246632   0.896   6.750  13.800  0.2951  0.6300 -0.3524
 8406TIP3    H146633   0.988   6.743  13.823 -0.0976 -0.4095  1.0239
 8406TIP3    H246634   0.862   6.818  13.859 -0.4127 -1.0543  1.2910
 8407TIP3   OH246635   2.945   2.449   5.403 -0.3097  0.8357  0.5785
 8407TIP3    H146636   2.957   2.454   5.308  1.5253  1.5652  0.7947
 8407TIP3    H246637   2.973   2.360   5.426 -2.1202  0.1611  0.3117
 8408TIP3   OH246638   3.327   5.657   1.788 -0.0158  0.2568  0.4330
 8408TIP3    H146639   3.389   5.594   1.825 -1.3696 -0.8893  0.8085
 8408TIP3    H246640   3.331   5.732   1.847  1.0626  0.2366  0.4044
 8409TIP3   OH246641   0.069   4.062  16.714 -0.3147  0.0510  0.0013
 8409TIP3    H146642   0.037   4.036  16.801 -0.1662 -0.5279 -0.1112
 8409TIP3    H246643  -0.004   4.044  16.656 -0.1831 -0.1952 -0.0896
 8410TIP3   OH246644   6.561   4.019  14.189 -0.0670 -0.3105 -0.4515
 8410TIP3    H146645   6.503   3.950  14.221  0.2128  0.0009  0.7730
 8410TIP3    H246646   6.504   4.077  14.139  0.0459 -2.5225 -3.4379
 8411TIP3   OH246647   5.244   2.814  14.894  0.1782  0.3646  0.3042
 8411TIP3    H146648   5.173   2.750  14.899 -0.9530  1.5191 -0.4030
 8411TIP3    H246649   5.302   2.790  14.967 -0.2572 -1.3709  0.1327
 8412TIP3   OH246650   3.122   0.687   3.849 -0.5257 -0.6793  0.6973
 8412TIP3    H146651   3.168   0.633   3.785 -1.9529  0.6767 -1.6123
 8412TIP3    H246652   3.173   0.678   3.930  2.5503 -0.8771 -1.1332
 8413TIP3   OH246653   0.490   0.178   5.902  0.2129  0.1691  0.1267
 8413TIP3    H146654   0.543   0.217   5.972  0.4415  2.1153 -1.0481
 8413TIP3    H246655   0.422   0.128   5.948  0.3970  1.3060  1.7270
 8414TIP3   OH246656   3.136   4.726   5.037  0.0291 -0.2171 -0.3414
 8414TIP3    H146657   3.161   4.806   5.085 -1.1960  0.9384 -1.5454
 8414TIP3    H246658   3.114   4.663   5.105  2.3195 -0.0105  0.6808
 8415TIP3   OH246659   6.513   4.954   5.360 -0.2364  0.3843  0.0362
 8415TIP3    H146660   6.568   4.906   5.297  0.3671  0.0704  0.7911
 8415TIP3    H246661   6.426   4.914   5.350  0.0258 -0.1782 -0.0635
 8416TIP3   OH246662   0.448   6.255  13.380  0.0665 -0.0305 -0.3480
 8416TIP3    H146663   0.379   6.189  13.381 -0.0689  0.1148 -0.2157
 8416TIP3    H246664   0.496   6.238  13.299  0.0657 -0.3287 -0.2873
 8417TIP3   OH246665   5.540   4.838  17.043 -0.4576  0.2883  0.0691
 8417TIP3    H146666   5.612   4.777  17.059  0.4025  1.3354  0.3111
 8417TIP3    H246667   5.490   4.838  17.124  0.1368  0.6629  0.4459
 8418TIP3   OH246668   5.245   2.517  12.474 -0.3746 -0.3335 -0.0404
 8418TIP3    H146669   5.313   2.523  12.408 -1.5514  0.8593 -1.2028
 8418TIP3    H246670   5.191   2.443  12.446  0.7376 -1.7103  1.2411
 8419TIP3   OH246671   2.930   1.533  12.454  0.4259 -0.1038 -0.1486
 8419TIP3    H146672   2.844   1.514  12.418 -0.6490  3.3832  0.2452
 8419TIP3    H246673   2.963   1.606  12.401  1.6067  0.8744  1.7901
 8420TIP3   OH246674   5.122   3.899   6.359 -0.8608  0.0375  0.2188
 8420TIP3    H146675   5.071   3.830   6.318 -1.5311  0.2221  0.7202
 8420TIP3    H246676   5.084   3.908   6.447  0.6533 -0.4702  0.9531
 8421TIP3   OH246677   2.921   1.259  14.816 -0.1332  0.4793  0.3056
 8421TIP3    H146678   2.865   1.249  14.893  2.3352 -1.6308  2.0093
 8421TIP3    H246679   2.938   1.170  14.786 -0.0689  1.2029 -2.0466
 8422TIP3   OH246680   2.334   5.519  15.365  0.0688 -0.2065  0.1345
 8422TIP3    H146681   2.401   5.457  15.391  0.4433 -0.0299 -0.4062
 8422TIP3    H246682   2.314   5.567  15.445  1.1402  0.2607  0.1401
 8423TIP3   OH246683   0.890   4.805   1.878  0.0424 -0.5293 -0.1287
 8423TIP3    H146684   0.964   4.820   1.938  1.2882 -3.9340 -0.5396
 8423TIP3    H246685   0.912   4.854   1.800  1.4487 -0.7417  0.1041
 8424TIP3   OH246686   0.427   1.345  15.491 -0.1194 -0.3088  0.0778
 8424TIP3    H146687   0.456   1.385  15.573 -0.3238  2.1682 -0.9597
 8424TIP3    H246688   0.494   1.368  15.427 -0.6420 -1.0080 -0.7531
 8425TIP3   OH246689   4.906   5.842  11.727  0.4291 -0.0461 -0.1875
 8425TIP3    H146690   4.886   5.759  11.770  0.1947  1.2054  2.3129
 8425TIP3    H246691   5.001   5.852  11.737  0.3218  0.4253  0.4011
 8426TIP3   OH246692   0.211   1.618   3.514 -0.4713  0.5199  0.2087
 8426TIP3    H146693   0.293   1.604   3.562 -0.5836  0.2633  0.3300
 8426TIP3    H246694   0.165   1.685   3.565 -0.3914  0.5737  0.2102
 8427TIP3   OH246695   1.158   0.508   4.256  0.1499 -0.6051 -0.0460
 8427TIP3    H146696   1.116   0.462   4.183 -0.2133  0.3130 -0.4300
 8427TIP3    H246697   1.163   0.600   4.227 -0.1120 -0.2049  1.1377
 8428TIP3   OH246698   2.599   4.391   2.112 -0.4475  0.4692 -0.0413
 8428TIP3    H146699   2.531   4.338   2.071 -0.9438  1.6531 -0.7900
 8428TIP3    H246700   2.651   4.424   2.038  0.3140  0.4216  0.4620
 8429TIP3   OH246701   2.493   4.715  16.554 -0.5627 -0.0253  0.2782
 8429TIP3    H146702   2.409   4.755  16.574 -0.8212  0.1858 -1.1291
 8429TIP3    H246703   2.491   4.702  16.459  1.5201  1.1785  0.0219
 8430TIP3   OH246704   1.280   1.249   4.535 -0.2785 -0.0466 -0.0374
 8430TIP3    H146705   1.311   1.338   4.516  1.0237 -0.4191  0.2369
 8430TIP3    H246706   1.252   1.215   4.450 -0.1911  0.4067 -0.2502
 8431TIP3   OH246707   0.775   1.435  17.164 -0.5616  0.0242  0.1006
 8431TIP3    H146708   0.849   1.456  17.107 -0.1497  1.2716  1.0494
 8431TIP3    H246709   0.793   1.347  17.195  0.1215  0.0124 -0.3036
 8432TIP3   OH246710   4.746   5.340  13.090  0.7903  0.3542 -0.1971
 8432TIP3    H146711   4.793   5.257  13.100 -0.8211 -0.7701 -1.4128
 8432TIP3    H246712   4.668   5.330  13.144  1.1381  1.5655  0.5559
 8433TIP3   OH246713   4.531   6.188  11.879  0.2959 -0.3111 -0.0305
 8433TIP3    H146714   4.470   6.223  11.815 -0.9416 -2.4755 -0.1287
 8433TIP3    H246715   4.608   6.161  11.828  0.3965  0.3519 -0.2280
 8434TIP3   OH246716   5.677   6.271  17.025  0.5309 -0.6297  0.0510
 8434TIP3    H146717   5.681   6.357  17.068 -1.3435 -0.8881  0.8331
 8434TIP3    H246718   5.726   6.213  17.083 -0.4871 -0.6173  0.9461
 8435TIP3   OH246719   6.342   3.586  13.984 -0.4226  0.1810  0.0067
 8435TIP3    H146720   6.250   3.594  13.959 -0.4676 -1.8137 -0.5843
 8435TIP3    H246721   6.390   3.590  13.901  0.1980  2.6503  0.4054
 8436TIP3   OH246722   2.320   3.044   4.416 -0.0653  0.0097  0.0110
 8436TIP3    H146723   2.405   3.029   4.459 -0.3213 -0.3920  0.3797
 8436TIP3    H246724   2.258   2.990   4.465 -0.3993 -0.3117 -0.7423
 8437TIP3   OH246725   1.975   4.842   6.343  0.5602 -0.1105 -0.0810
 8437TIP3    H146726   2.029   4.763   6.338  0.6639 -0.1284  0.9647
 8437TIP3    H246727   1.886   4.813   6.324  0.9538  0.0066 -2.3426
 8438TIP3   OH246728   3.494   6.429  13.328  0.0905 -0.8127 -0.2751
 8438TIP3    H146729   3.480   6.443  13.234  0.6603 -1.0142 -0.3934
 8438TIP3    H246730   3.587   6.449  13.342  0.0018 -0.7489  0.2548
 8439TIP3   OH246731   5.950   4.637   5.384  0.2818 -0.5043  0.1384
 8439TIP3    H146732   5.904   4.720   5.402 -0.6905 -0.7561 -1.0543
 8439TIP3    H246733   5.957   4.595   5.469 -0.4663  0.1751  0.5530
 8440TIP3   OH246734   3.044   3.396  12.852 -0.6831 -0.2110 -0.3129
 8440TIP3    H146735   3.078   3.468  12.905 -2.6655  0.9596 -0.5286
 8440TIP3    H246736   3.079   3.412  12.764  0.2793 -0.5116  0.0090
 8441TIP3   OH246737   5.428   3.653  15.064 -0.2125  0.1910  0.0895
 8441TIP3    H146738   5.347   3.606  15.042  0.3216 -0.5415 -0.3837
 8441TIP3    H246739   5.407   3.745  15.052 -0.8104 -0.0262 -0.6100
 8442TIP3   OH246740   4.063   6.308   4.583 -0.5103  0.2208 -0.0391
 8442TIP3    H146741   4.108   6.237   4.629 -0.5094  0.3477  0.1591
 8442TIP3    H246742   4.132   6.372   4.565 -0.6881  0.6269  0.6775
 8443TIP3   OH246743   2.163   0.173  11.685  0.1969 -0.3153  0.6114
 8443TIP3    H146744   2.125   0.244  11.736 -0.2746 -0.4319  0.4230
 8443TIP3    H246745   2.120   0.094  11.718  1.3311 -0.6202  1.4123
 8444TIP3   OH246746   4.032   4.869   4.551  0.1129  0.3341 -0.5249
 8444TIP3    H146747   3.999   4.780   4.552  0.2324  0.2530  1.6770
 8444TIP3    H246748   3.958   4.922   4.522 -0.8222 -0.2381  0.6955
 8445TIP3   OH246749   6.280   2.636  15.741 -0.0296 -0.0223  0.2343
 8445TIP3    H146750   6.329   2.588  15.807 -1.5877  0.6213  1.9183
 8445TIP3    H246751   6.211   2.681  15.789 -3.1663 -1.9019 -2.1519
 8446TIP3   OH246752   3.096   0.736   2.030 -0.0530  0.0314  0.1785
 8446TIP3    H146753   3.037   0.812   2.033  0.6954  0.6637 -0.7606
 8446TIP3    H246754   3.047   0.667   2.074 -1.6458  0.4354 -0.8682
 8447TIP3   OH246755   6.195   5.595   4.666 -0.4068 -0.2225 -0.4257
 8447TIP3    H146756   6.101   5.605   4.681 -0.4678 -0.2199 -0.7960
 8447TIP3    H246757   6.201   5.544   4.585 -0.0871 -0.6875 -0.1152
 8448TIP3   OH246758   3.435   0.825   0.020  0.4088  0.1778 -0.5556
 8448TIP3    H146759   3.484   0.750  -0.013 -0.7741 -0.8784 -0.0001
 8448TIP3    H246760   3.500   0.879   0.064  0.9778 -1.6766  1.0426
 8449TIP3   OH246761   2.994   4.103   2.705 -0.2380  0.2990  0.4916
 8449TIP3    H146762   3.058   4.173   2.696  1.3280 -1.2232 -1.1811
 8449TIP3    H246763   2.934   4.115   2.632 -0.1281  0.0685  0.3614
 8450TIP3   OH246764   2.716   5.216  13.960 -0.2033 -0.8023 -0.3651
 8450TIP3    H146765   2.700   5.303  13.922  0.3598 -0.6567 -0.2910
 8450TIP3    H246766   2.637   5.196  14.010  0.6012  0.7718  1.6871
 8451TIP3   OH246767   3.388   4.344   3.608 -0.2214 -0.6289  0.5665
 8451TIP3    H146768   3.384   4.258   3.650 -0.8067 -1.9163 -1.9196
 8451TIP3    H246769   3.459   4.336   3.545 -0.8016  0.4369 -0.2483
 8452TIP3   OH246770   3.693   6.486  16.156 -0.7753 -0.6586  0.1357
 8452TIP3    H146771   3.743   6.413  16.119  0.2667 -0.5107  1.2066
 8452TIP3    H246772   3.651   6.527  16.080  0.0948 -1.2631 -0.6959
 8453TIP3   OH246773   3.184   2.013   6.325  0.1520  0.2430  0.5656
 8453TIP3    H146774   3.173   1.932   6.374  0.6253 -0.9780 -1.2254
 8453TIP3    H246775   3.095   2.044   6.309 -0.0523 -0.1928  0.8450
 8454TIP3   OH246776   1.597   6.703   5.297 -0.3417 -0.3388 -0.1960
 8454TIP3    H146777   1.564   6.783   5.337  0.1814 -0.7715  1.1467
 8454TIP3    H246778   1.691   6.707   5.308 -0.3682 -1.4906  0.5820
 8455TIP3   OH246779   4.539   4.642   4.292  0.2615  0.1763 -0.2063
 8455TIP3    H146780   4.532   4.733   4.265 -0.2153  0.2168  0.0434
 8455TIP3    H246781   4.456   4.602   4.265 -1.2505  0.7198  3.0644
 8456TIP3   OH246782   6.582   2.597   0.834 -0.0214  0.3182 -0.3825
 8456TIP3    H146783   6.554   2.682   0.803  0.5311 -0.2748 -2.6592
 8456TIP3    H246784   6.648   2.617   0.901 -0.3442  1.6581 -0.4394
 8457TIP3   OH246785   0.473   1.308  14.950 -0.0010  0.1529  0.5935
 8457TIP3    H146786   0.447   1.357  15.027  1.3949  1.6815  0.1399
 8457TIP3    H246787   0.542   1.249  14.981  0.9149  1.1230  0.4428
 8458TIP3   OH246788   6.469   0.609   4.640  0.5172 -0.3580  0.2307
 8458TIP3    H146789   6.514   0.525   4.627  2.9677  0.5030  2.1875
 8458TIP3    H246790   6.512   0.669   4.580  0.4848  0.0206  0.5800
 8459TIP3   OH246791   2.217   5.598  13.343 -0.5975  0.1735 -0.2859
 8459TIP3    H146792   2.265   5.561  13.416  0.0577  0.2114 -0.6871
 8459TIP3    H246793   2.125   5.583  13.364 -0.3735 -1.7132 -0.4263
 8460TIP3   OH246794   5.566   6.232   3.155 -0.3133 -0.3407  0.0741
 8460TIP3    H146795   5.625   6.306   3.170  1.9944 -2.3682  2.0956
 8460TIP3    H246796   5.622   6.165   3.114 -0.6788 -2.8013  3.1742
 8461TIP3   OH246797   3.582   6.789   3.657 -0.0577 -0.0885  0.7392
 8461TIP3    H146798   3.504   6.780   3.712 -0.9465 -1.1470 -0.6362
 8461TIP3    H246799   3.586   6.707   3.609  1.1009  0.5387 -0.2610
 8462TIP3   OH246800   6.577   0.343  17.033  0.1079  0.5045 -0.1479
 8462TIP3    H146801   6.526   0.420  17.009  0.9451  0.6164 -1.6818
 8462TIP3    H246802   6.659   0.352  16.985  1.1873 -0.1861  1.4598
 8463TIP3   OH246803   3.207   0.842   1.638 -0.2316 -0.6153  0.1345
 8463TIP3    H146804   3.149   0.862   1.712 -0.8185 -0.4188 -0.3744
 8463TIP3    H246805   3.232   0.928   1.604  0.5255 -0.6923  0.4672
 8464TIP3   OH246806   2.205   4.341  14.921  0.0185  0.2899 -0.1975
 8464TIP3    H146807   2.137   4.380  14.976 -0.9293 -0.9427 -0.4341
 8464TIP3    H246808   2.163   4.331  14.835  0.3141 -0.9592 -0.2105
 8465TIP3   OH246809   1.535   1.898  14.062  0.2520  0.2662 -0.2564
 8465TIP3    H146810   1.521   1.804  14.053 -0.6320  0.3380  0.2588
 8465TIP3    H246811   1.630   1.907  14.073  0.1751 -0.8034  1.9196
 8466TIP3   OH246812   4.497   2.948   3.303 -0.3078  0.0212 -0.2897
 8466TIP3    H146813   4.457   2.890   3.368  0.9033 -1.1096 -0.4954
 8466TIP3    H246814   4.551   3.008   3.355 -2.1113  1.4904 -0.0207
 8467TIP3   OH246815   0.042   3.044   4.102  0.6593  0.4022  0.1818
 8467TIP3    H146816   0.103   2.989   4.053  2.2112  1.0101  1.3378
 8467TIP3    H246817   0.071   3.134   4.084 -0.5418  0.7667 -0.0345
 8468TIP3   OH246818   2.465   5.079  16.648  0.2346 -0.6009  0.4920
 8468TIP3    H146819   2.382   5.056  16.690 -0.6483  0.5589 -0.5807
 8468TIP3    H246820   2.453   5.056  16.556 -1.0572  4.4561 -0.9411
 8469TIP3   OH246821   0.972   0.671  13.345  0.6480  0.2942  0.0479
 8469TIP3    H146822   1.061   0.672  13.380  1.0002  0.7345 -0.8180
 8469TIP3    H246823   0.919   0.713  13.412  0.6631 -1.9822  1.5962
 8470TIP3   OH246824   3.428   4.714  13.733  0.2968 -0.5081  0.2173
 8470TIP3    H146825   3.432   4.787  13.795 -0.1392 -0.5609  0.3077
 8470TIP3    H246826   3.465   4.750  13.652 -0.3596 -0.0430  0.1208
 8471TIP3   OH246827   4.000   1.641  12.789 -0.1764  0.0674  0.2225
 8471TIP3    H146828   4.015   1.607  12.878 -0.6070 -1.6555 -0.3230
 8471TIP3    H246829   3.930   1.704  12.800 -0.6376 -0.5594  1.0372
 8472TIP3   OH246830   6.584   4.532   5.250 -0.2688 -0.8299  0.0126
 8472TIP3    H146831   6.598   4.626   5.244 -1.4232 -0.7290 -1.4297
 8472TIP3    H246832   6.598   4.512   5.343  1.0618  0.5556  0.1582
 8473TIP3   OH246833   6.712   0.353  15.835 -0.2029 -0.5566  0.3485
 8473TIP3    H146834   6.759   0.424  15.877 -1.1338  0.9261 -1.0083
 8473TIP3    H246835   6.772   0.318  15.770 -0.0065 -0.5288  0.5159
 8474TIP3   OH246836   6.648   0.955  16.299  0.5029  0.6231  0.4051
 8474TIP3    H146837   6.719   0.891  16.303 -0.6580 -0.7945 -0.3622
 8474TIP3    H246838   6.634   0.969  16.205 -0.9030  0.0429  0.4970
 8475TIP3   OH246839   2.627   3.266  12.280 -0.3021  0.5080  0.1257
 8475TIP3    H146840   2.680   3.223  12.213 -0.9483  1.8059 -1.2751
 8475TIP3    H246841   2.554   3.205  12.296 -0.0645  0.1277 -0.2222
 8476TIP3   OH246842   0.984   0.064  12.396  0.0867  0.3121 -0.6850
 8476TIP3    H146843   0.955   0.154  12.377 -0.7105 -0.0307 -1.1639
 8476TIP3    H246844   1.059   0.075  12.454 -0.9564  1.2516  0.5604
 8477TIP3   OH246845   2.369   2.925   5.534 -0.2167  0.0913  0.6706
 8477TIP3    H146846   2.458   2.912   5.568 -0.0329 -1.9354 -0.3726
 8477TIP3    H246847   2.313   2.927   5.611  0.4509 -1.8157  1.2629
 8478TIP3   OH246848   2.514   5.739   0.712 -0.0008 -0.2026 -0.5685
 8478TIP3    H146849   2.478   5.650   0.723 -0.2790 -0.0613 -0.2884
 8478TIP3    H246850   2.594   5.739   0.765 -0.4514 -0.0365  0.1356
 8479TIP3   OH246851   5.404   1.221   3.061 -0.1183  0.2668 -0.2605
 8479TIP3    H146852   5.325   1.273   3.075  0.6319  1.2345  0.5094
 8479TIP3    H246853   5.454   1.269   2.995  0.3780  0.3053  0.1340
 8480TIP3   OH246854   1.365   3.349   1.586  0.0008  0.5678  0.4049
 8480TIP3    H146855   1.350   3.263   1.548 -0.5522  1.5319 -1.6940
 8480TIP3    H246856   1.340   3.340   1.678  0.4143 -1.6088  0.3410
 8481TIP3   OH246857   0.225   2.492   2.502  0.2614 -0.0738  0.2780
 8481TIP3    H146858   0.165   2.450   2.562  0.5229 -0.9682 -0.0588
 8481TIP3    H246859   0.306   2.441   2.509 -0.1309 -1.1322 -1.8449
 8482TIP3   OH246860   0.088   2.109   4.138  0.1535 -0.0400  0.4171
 8482TIP3    H146861   0.131   2.086   4.056  0.1064 -0.3994  0.4910
 8482TIP3    H246862   0.042   2.191   4.119  2.0232  1.1482  0.7345
 8483TIP3   OH246863   1.132   4.944   4.759 -0.0134  0.5475  0.4671
 8483TIP3    H146864   1.042   4.920   4.737 -0.2381  0.3779  1.5098
 8483TIP3    H246865   1.150   5.020   4.704  0.2177 -1.0675 -1.8460
 8484TIP3   OH246866   2.607   0.043   5.929 -0.1186 -0.8299 -0.4254
 8484TIP3    H146867   2.553  -0.025   5.969 -1.2120 -0.6172 -1.4757
 8484TIP3    H246868   2.553   0.121   5.929 -0.1104 -0.7754 -2.0971
 8485TIP3   OH246869   6.230   6.526  15.179  0.3358  0.0795 -0.2548
 8485TIP3    H146870   6.207   6.453  15.122 -0.9408  0.2182  0.0474
 8485TIP3    H246871   6.171   6.518  15.254  2.3254 -0.3998  1.3399
 8486TIP3   OH246872   5.445   4.180  17.198  0.0756  0.1528  0.3572
 8486TIP3    H146873   5.497   4.260  17.204  1.2279 -0.4048 -1.3110
 8486TIP3    H246874   5.488   4.119  17.257 -0.1465  0.4157  0.7975
 8487TIP3   OH246875   4.812   3.421  11.318  0.5101  0.8549 -0.0839
 8487TIP3    H146876   4.807   3.326  11.329  0.7022  0.8589  0.0528
 8487TIP3    H246877   4.890   3.447  11.369 -0.3137  1.2509  1.0176
 8488TIP3   OH246878   6.314   3.909  11.439 -0.2653  0.2478  1.0118
 8488TIP3    H146879   6.263   3.893  11.518  0.7911 -0.2783  1.6010
 8488TIP3    H246880   6.352   3.823  11.418 -2.2479 -0.1856 -1.3215
 8489TIP3   OH246881   5.217   1.196  17.097 -0.4649  0.2873  0.3656
 8489TIP3    H146882   5.281   1.130  17.071 -0.1729  0.1189  1.4603
 8489TIP3    H246883   5.134   1.147  17.103 -0.1732 -0.0808  1.5687
 8490TIP3   OH246884   4.481   2.124  13.439 -0.1595 -0.6953  0.3927
 8490TIP3    H146885   4.417   2.133  13.510  0.3606 -1.5086  0.9811
 8490TIP3    H246886   4.431   2.142  13.359 -0.9469 -0.5841  0.8982
 8491TIP3   OH246887   4.570   5.095  14.986  0.0069 -0.0152  0.2180
 8491TIP3    H146888   4.527   5.125  14.906 -0.8822 -0.9991  0.2989
 8491TIP3    H246889   4.663   5.090  14.963 -0.2779 -0.6849 -0.8984
 8492TIP3   OH246890   2.516   3.962   0.414 -0.4095  0.4433  0.3357
 8492TIP3    H146891   2.450   3.999   0.355 -2.1797 -0.7531  1.4564
 8492TIP3    H246892   2.506   4.012   0.496  0.1552  0.3068  0.4944
 8493TIP3   OH246893   1.068   6.499  13.447  0.0928 -0.1632  0.6278
 8493TIP3    H146894   0.977   6.516  13.423  0.5494  0.6068 -0.6555
 8493TIP3    H246895   1.117   6.511  13.366  1.5772  1.4181  1.6750
 8494TIP3   OH246896   1.233   2.523  13.889  0.1131  0.3914 -0.4609
 8494TIP3    H146897   1.274   2.565  13.965 -0.3930 -2.7550  1.7567
 8494TIP3    H246898   1.300   2.464  13.855 -0.6686 -0.5691 -0.3992
 8495TIP3   OH246899   6.588   2.489   1.397  0.6959  0.3416  0.2060
 8495TIP3    H146900   6.505   2.533   1.379  0.3149 -0.2543  0.4574
 8495TIP3    H246901   6.641   2.503   1.318  0.1306  0.2135 -0.2028
 8496TIP3   OH246902   5.121   6.638  16.366  0.0738 -0.2224  0.8000
 8496TIP3    H146903   5.067   6.717  16.364  0.3176 -0.0303  1.4238
 8496TIP3    H246904   5.138   6.617  16.274  0.9040  1.0703  0.6273
 8497TIP3   OH246905   1.564   1.074  11.364  1.3404 -0.3508 -0.3111
 8497TIP3    H146906   1.628   1.136  11.400  1.5011 -1.3967  1.3567
 8497TIP3    H246907   1.491   1.076  11.426  0.8409 -0.9803 -0.8639
 8498TIP3   OH246908   0.147   0.288   3.000 -0.3202  0.1259  0.7185
 8498TIP3    H146909   0.127   0.381   3.009  0.9505  0.3620  1.3589
 8498TIP3    H246910   0.074   0.252   2.951  0.3971  1.9653 -1.8832
 8499TIP3   OH246911   2.872   1.778   1.943  0.6910 -0.0162  0.4741
 8499TIP3    H146912   2.912   1.830   2.013  2.4981 -0.7055 -0.0026
 8499TIP3    H246913   2.826   1.842   1.889 -1.3875  0.4547  2.6481
 8500TIP3   OH246914   0.651   3.263  13.804  0.5466  0.1776 -0.1419
 8500TIP3    H146915   0.714   3.248  13.734  0.7071  0.0198  0.0362
 8500TIP3    H246916   0.566   3.251  13.762  0.6486 -0.1607 -0.2580
 8501TIP3   OH246917   4.997   2.273   4.691  0.2801  0.4226  0.5774
 8501TIP3    H146918   4.938   2.314   4.754 -0.1185  1.7111 -0.5892
 8501TIP3    H246919   4.958   2.291   4.606  1.3949 -0.3113 -0.1207
 8502TIP3   OH246920   5.085   0.059  13.914 -0.2487 -0.4810 -0.1772
 8502TIP3    H146921   4.991   0.077  13.907 -0.7935 -1.6159  2.7897
 8502TIP3    H246922   5.106   0.009  13.836 -1.7827  0.9296 -1.5650
 8503TIP3   OH246923   5.204   5.567  13.956  0.0305  0.8196 -0.1666
 8503TIP3    H146924   5.293   5.531  13.956 -0.6080 -0.8316 -0.5441
 8503TIP3    H246925   5.204   5.630  14.028  1.8543  1.8129 -0.9622
 8504TIP3   OH246926   1.123   3.994   0.792 -0.6582  0.1063  0.0061
 8504TIP3    H146927   1.038   4.035   0.780  0.3348  2.3281  0.1334
 8504TIP3    H246928   1.111   3.933   0.865 -2.2547 -0.0795 -0.3794
 8505TIP3   OH246929   1.567   1.303  14.954  0.3071 -0.0158  0.2686
 8505TIP3    H146930   1.637   1.277  15.012 -0.4703 -1.2225  0.7084
 8505TIP3    H246931   1.518   1.222  14.938  1.4970 -0.1854 -3.5055
 8506TIP3   OH246932   3.935   5.393  16.820 -0.1890 -0.2074 -0.1416
 8506TIP3    H146933   3.865   5.458  16.821 -0.2392 -0.2038 -1.4946
 8506TIP3    H246934   3.904   5.323  16.877 -1.2288 -0.1225 -0.5763
 8507TIP3   OH246935   6.581   2.901   0.355 -0.0181  0.0585  0.1555
 8507TIP3    H146936   6.547   2.983   0.392 -2.0624 -0.5886 -0.1358
 8507TIP3    H246937   6.595   2.845   0.431 -1.9776 -0.4654  0.2006
 8508TIP3   OH246938   4.383   4.873  16.552 -0.3606  0.1009  0.6495
 8508TIP3    H146939   4.289   4.886  16.539 -0.1653  1.1254  0.1407
 8508TIP3    H246940   4.416   4.852  16.465 -0.4229 -2.5289  1.1870
 8509TIP3   OH246941   2.397   5.862   2.657 -0.5417 -0.3098 -0.3667
 8509TIP3    H146942   2.406   5.780   2.706 -0.5785 -0.1038 -0.0100
 8509TIP3    H246943   2.444   5.927   2.709  0.1708 -0.2644 -1.0530
 8510TIP3   OH246944   3.288   0.250   0.050 -0.1157  0.3093  0.0737
 8510TIP3    H146945   3.200   0.279   0.027 -0.5879 -0.3367  0.9912
 8510TIP3    H246946   3.345   0.290  -0.015 -0.9187  1.9169  0.3127
 8511TIP3   OH246947   6.484   3.801  12.194  0.2185  0.6851  0.2345
 8511TIP3    H146948   6.503   3.893  12.212  0.5839  0.3657  1.5531
 8511TIP3    H246949   6.570   3.761  12.183  0.0973  0.3318  0.5599
 8512TIP3   OH246950   5.814   2.610  13.003  0.1173 -0.2710  0.4685
 8512TIP3    H146951   5.728   2.623  13.044 -2.2140 -2.9823 -2.9476
 8512TIP3    H246952   5.809   2.659  12.921  1.8281 -0.5271  0.1764
 8513TIP3   OH246953   1.723   3.498  13.539 -0.2891 -0.3049  0.1418
 8513TIP3    H146954   1.765   3.424  13.495  0.2333  0.3892 -0.5593
 8513TIP3    H246955   1.668   3.538  13.472 -1.1043 -0.4558  0.7087
 8514TIP3   OH246956   2.618   0.796   1.438  0.0802 -0.1479 -0.2766
 8514TIP3    H146957   2.527   0.785   1.466 -0.6306 -0.5285 -2.5226
 8514TIP3    H246958   2.617   0.776   1.345  2.7132 -1.3608 -0.1441
 8515TIP3   OH246959   3.757   6.443  13.095  0.1081  0.5548  0.6962
 8515TIP3    H146960   3.780   6.535  13.105  2.3929  0.1180  0.0782
 8515TIP3    H246961   3.818   6.397  13.152  1.8486 -0.7889 -2.0172
 8516TIP3   OH246962   0.213   3.842   2.451 -0.1263  0.0078 -0.6873
 8516TIP3    H146963   0.269   3.801   2.385  0.0811  1.5232 -1.4990
 8516TIP3    H246964   0.253   3.927   2.467 -2.1589  1.1470 -1.2802
 8517TIP3   OH246965   5.616   2.325  13.554  0.4957 -0.4538 -0.0017
 8517TIP3    H146966   5.526   2.305  13.527  0.0306 -0.1956  1.2633
 8517TIP3    H246967   5.627   2.278  13.636  1.4068 -0.2146  0.0208
 8518TIP3   OH246968   0.380   5.508  13.927 -0.2386 -0.3729 -0.1864
 8518TIP3    H146969   0.413   5.458  13.852 -3.9541 -2.2533 -0.7730
 8518TIP3    H246970   0.400   5.453  14.002 -0.0071 -0.4000 -0.2669
 8519TIP3   OH246971   5.951   6.407   0.790  0.2255 -0.5020  0.7365
 8519TIP3    H146972   5.947   6.329   0.846 -1.0917 -0.6220  0.4945
 8519TIP3    H246973   5.898   6.472   0.836 -1.0630 -0.6695 -0.4420
 8520TIP3   OH246974   5.648   6.472  15.529  0.0848  0.1524 -0.2634
 8520TIP3    H146975   5.689   6.427  15.455  0.2830  2.5061 -1.6694
 8520TIP3    H246976   5.559   6.436  15.532  0.5152 -0.9969 -0.7169
 8521TIP3   OH246977   4.289   1.009   2.877 -0.4388  0.1896  0.2145
 8521TIP3    H146978   4.344   1.087   2.873  3.2321 -2.1455  0.2970
 8521TIP3    H246979   4.286   0.987   2.970 -1.4817  0.2392  0.2002
 8522TIP3   OH246980   1.893   0.553  15.721  0.6090 -0.4972  0.2374
 8522TIP3    H146981   1.907   0.646  15.704  0.1597  0.0810  2.6133
 8522TIP3    H246982   1.954   0.533  15.792 -0.9264 -1.3764  1.3642
 8523TIP3   OH246983   1.225   6.116   4.475 -0.2399  0.0690 -0.1039
 8523TIP3    H146984   1.253   6.202   4.508 -0.0918 -0.5084  1.3719
 8523TIP3    H246985   1.140   6.132   4.435 -0.0615  0.9694 -0.1405
 8524TIP3   OH246986   0.894   2.304   5.372 -0.2904 -0.3047  0.0579
 8524TIP3    H146987   0.875   2.397   5.387 -0.4944  0.1166 -2.3053
 8524TIP3    H246988   0.973   2.287   5.423 -1.4896  0.5110  2.3550
 8525TIP3   OH246989   5.484   5.118  16.802  0.0816 -0.0219 -0.2174
 8525TIP3    H146990   5.478   5.031  16.762  0.1689 -0.1353  0.0204
 8525TIP3    H246991   5.400   5.130  16.846  0.3103 -0.2433  0.2812
 8526TIP3   OH246992   1.924   1.315   6.018 -0.0148  0.7663  0.0037
 8526TIP3    H146993   1.891   1.227   6.032 -0.3403  0.7727 -0.6582
 8526TIP3    H246994   1.855   1.358   5.967  0.4690  1.1733 -0.3147
 8527TIP3   OH246995   1.700   6.583  14.873 -0.1129  0.1746  0.3556
 8527TIP3    H146996   1.770   6.557  14.814 -0.5569  0.1268 -0.1540
 8527TIP3    H246997   1.727   6.549  14.958  0.4327  0.0708  0.1446
 8528TIP3   OH246998   5.834   1.149   1.636 -0.2342  0.3646  0.3619
 8528TIP3    H146999   5.854   1.092   1.562 -0.5668  2.1348 -1.1685
 8528TIP3    H247000   5.896   1.122   1.704  2.0696  0.4915 -1.5183
 8529TIP3   OH247001   6.515   6.629   3.523 -0.3948 -0.2021 -0.2155
 8529TIP3    H147002   6.426   6.600   3.545  0.4077 -1.5510  1.3602
 8529TIP3    H247003   6.516   6.630   3.427 -1.6214 -1.7451 -0.2851
 8530TIP3   OH247004   3.103   6.042  11.764  0.3500  0.5757 -0.2403
 8530TIP3    H147005   3.161   6.086  11.702  0.0251  0.6160 -0.5210
 8530TIP3    H247006   3.107   6.095  11.843  0.5043  0.7152 -0.3412
 8531TIP3   OH247007   3.458   3.815  14.580  0.7558 -0.1855  0.0473
 8531TIP3    H147008   3.534   3.861  14.543  0.2042  0.9895  0.3111
 8531TIP3    H247009   3.495   3.742  14.629  1.6886  0.1048 -0.2070
 8532TIP3   OH247010   1.689   3.502   0.433  0.2893 -0.4544 -0.1776
 8532TIP3    H147011   1.613   3.528   0.484 -0.0919 -0.8926 -0.5157
 8532TIP3    H247012   1.653   3.467   0.351  0.8360 -0.8892 -0.2409
 8533TIP3   OH247013   5.395   5.783  16.131  0.1313 -0.4237 -0.0926
 8533TIP3    H147014   5.355   5.848  16.188 -2.3133 -1.2543 -0.6967
 8533TIP3    H247015   5.351   5.701  16.154  0.8713 -1.2411 -1.4618
 8534TIP3   OH247016   5.964   5.688   5.448  0.0030 -0.2094  0.6083
 8534TIP3    H147017   5.959   5.623   5.378  0.8766 -0.0689  0.4040
 8534TIP3    H247018   5.908   5.760   5.419 -1.0583 -0.8887  0.8796
 8535TIP3   OH247019   2.799   4.097  13.145 -0.1652  0.3826  0.2209
 8535TIP3    H147020   2.717   4.077  13.099 -0.4890  0.6736  0.6643
 8535TIP3    H247021   2.858   4.025  13.121  0.7199  1.9955 -3.0825
 8536TIP3   OH247022   2.885   5.388  13.565 -0.5364  0.4583 -0.0861
 8536TIP3    H147023   2.838   5.468  13.541 -1.3265  0.2664  0.7735
 8536TIP3    H247024   2.841   5.357  13.645  1.3784  0.5460  1.0524
 8537TIP3   OH247025   0.558   2.645  14.878 -0.6368  0.4129  0.0348
 8537TIP3    H147026   0.613   2.566  14.884 -1.3400 -0.4155 -2.8918
 8537TIP3    H247027   0.575   2.692  14.960  1.4480 -1.7066  0.9403
 8538TIP3   OH247028   6.485   5.714  16.037 -0.1015 -0.7380  0.0717
 8538TIP3    H147029   6.539   5.733  16.114  0.4088  0.7467 -0.6052
 8538TIP3    H247030   6.410   5.772  16.046 -0.4397 -1.1414 -0.1372
 8539TIP3   OH247031   3.289   6.559  15.086  0.4950 -0.3025 -0.4764
 8539TIP3    H147032   3.272   6.639  15.036  0.5735 -0.5843 -0.9695
 8539TIP3    H247033   3.202   6.527  15.109  0.4623  1.7071  2.7058
 8540TIP3   OH247034   4.074   6.550   2.332 -0.2681  0.1339 -0.0165
 8540TIP3    H147035   4.027   6.560   2.249  0.8733  0.0272 -0.6970
 8540TIP3    H247036   4.020   6.488   2.382 -2.4664  2.3138  0.4983
 8541TIP3   OH247037   4.389   5.868  12.137 -0.0010  0.2870 -0.2434
 8541TIP3    H147038   4.412   5.837  12.049  0.3729 -0.5122  0.1229
 8541TIP3    H247039   4.366   5.960  12.125  0.5437  0.3224 -1.0952
 8542TIP3   OH247040   2.421   2.088  15.001  0.6073 -0.1848 -0.3666
 8542TIP3    H147041   2.496   2.030  14.990  0.3779 -0.7419  0.8355
 8542TIP3    H247042   2.436   2.130  15.086  0.2625  0.7724 -0.7661
 8543TIP3   OH247043   4.407   4.822   3.921  0.0319  0.3423 -0.2759
 8543TIP3    H147044   4.336   4.791   3.977  0.0151 -1.4962 -1.2670
 8543TIP3    H247045   4.448   4.892   3.973 -1.1306 -0.0199  1.2238
 8544TIP3   OH247046   5.460   2.033  13.580 -0.2514  0.7647 -0.0074
 8544TIP3    H147047   5.421   1.950  13.553 -0.2422  1.0843 -1.0272
 8544TIP3    H247048   5.477   2.022  13.674  0.1237 -0.5380 -0.2092
 8545TIP3   OH247049   6.780   0.273   2.080  0.1710  1.0347 -0.3797
 8545TIP3    H147050   6.793   0.252   1.987 -0.6242 -0.3715 -0.2017
 8545TIP3    H247051   6.721   0.348   2.080 -0.1234  0.8040 -0.9985
 8546TIP3   OH247052   0.125   4.148   5.812  0.3110 -0.0591 -0.2747
 8546TIP3    H147053   0.218   4.159   5.790  0.3390 -0.0112 -0.1319
 8546TIP3    H247054   0.125   4.089   5.887  0.2407  0.1401 -0.1158
 8547TIP3   OH247055   4.245   0.464  11.067  0.0051 -0.1834 -0.1673
 8547TIP3    H147056   4.159   0.466  11.109  0.1700 -1.3283  0.2757
 8547TIP3    H247057   4.305   0.437  11.137  0.6068 -0.1386 -0.6551
 8548TIP3   OH247058   0.837   0.476  15.799 -0.5819  0.4006  0.3678
 8548TIP3    H147059   0.882   0.558  15.780 -0.9324  0.0808 -2.3243
 8548TIP3    H247060   0.896   0.408  15.765 -0.6985 -0.4183  1.7371
 8549TIP3   OH247061   6.489   0.343   2.307 -0.1051 -0.2120  0.4436
 8549TIP3    H147062   6.508   0.331   2.214  0.5192 -0.0809  0.5548
 8549TIP3    H247063   6.451   0.259   2.334 -0.2910 -0.2499  0.0738
 8550TIP3   OH247064   3.433   1.994   2.981  0.4211 -0.0108  0.0522
 8550TIP3    H147065   3.496   1.923   2.979 -1.9085 -2.2118 -2.2942
 8550TIP3    H247066   3.360   1.960   3.033  0.2989  1.7222  1.0948
 8551TIP3   OH247067   0.899   0.628   0.331 -0.4375 -0.1273 -0.3065
 8551TIP3    H147068   0.955   0.595   0.261 -0.5273 -0.0598 -0.4108
 8551TIP3    H247069   0.940   0.597   0.411 -0.9176 -1.1374 -0.4293
 8552TIP3   OH247070   2.633   2.381  12.037  0.6664  0.1276  0.1242
 8552TIP3    H147071   2.662   2.471  12.055  0.6335  0.6026 -1.9529
 8552TIP3    H247072   2.713   2.335  12.012  0.2446  0.5515 -2.2570
 8553TIP3   OH247073   4.009   0.327  14.283  0.3114 -0.4387 -0.6573
 8553TIP3    H147074   3.915   0.336  14.298  0.4748 -1.1726  1.1019
 8553TIP3    H247075   4.049   0.386  14.347  1.0654 -0.8537 -0.7317
 8554TIP3   OH247076   3.677   4.693  16.011 -0.6799 -0.4261  0.2058
 8554TIP3    H147077   3.716   4.773  16.048 -0.3130 -0.5386  0.0642
 8554TIP3    H247078   3.619   4.725  15.942  0.2621 -0.3221 -0.5678
 8555TIP3   OH247079   1.306   2.630  11.948  0.7041  0.1777  0.2535
 8555TIP3    H147080   1.308   2.558  12.011 -0.3904  0.9841  1.2538
 8555TIP3    H247081   1.219   2.626  11.909  1.0106  0.3290 -0.4731
 8556TIP3   OH247082   4.944   2.558  11.662  0.3511 -0.1087  0.0090
 8556TIP3    H147083   4.920   2.479  11.712  0.0053  0.8577  1.4331
 8556TIP3    H247084   4.860   2.594  11.633  0.5852 -1.5267 -2.7974
 8557TIP3   OH247085   2.495   5.323  15.441 -0.4947  0.5385 -0.5976
 8557TIP3    H147086   2.548   5.320  15.361  0.0440  0.7478 -0.2570
 8557TIP3    H247087   2.525   5.249  15.493 -1.2452  0.0641 -0.8290
 8558TIP3   OH247088   5.090   4.067  16.441 -0.7665  0.1527  0.2298
 8558TIP3    H147089   5.120   4.157  16.448  1.5943 -0.6242  0.9714
 8558TIP3    H247090   5.063   4.043  16.530  2.0620 -0.9164  0.8912
 8559TIP3   OH247091   5.157   5.192  14.289 -0.0310  0.0205 -0.5233
 8559TIP3    H147092   5.094   5.248  14.334 -2.0281 -2.6353  0.2394
 8559TIP3    H247093   5.221   5.252  14.251 -1.4749  2.6859  1.0421
 8560TIP3   OH247094   2.578   5.286   5.788 -0.2711  0.4687  0.0366
 8560TIP3    H147095   2.562   5.331   5.705 -0.6152  0.0644 -0.1203
 8560TIP3    H247096   2.498   5.300   5.839 -0.0724  0.6909  0.2936
 8561TIP3   OH247097   6.588   3.716   4.793 -0.0803  0.3032  0.3900
 8561TIP3    H147098   6.563   3.659   4.866  0.3108  1.0225  1.0964
 8561TIP3    H247099   6.656   3.773   4.828  0.0675  0.7128 -0.5208
 8562TIP3   OH247100   1.840   3.227   6.314  0.1226  0.5059  0.2907
 8562TIP3    H147101   1.832   3.322   6.323  0.2335  0.4254  1.4121
 8562TIP3    H247102   1.758   3.193   6.348  1.3585  0.0857  3.1122
 8563TIP3   OH247103   1.230   0.413   0.924  0.3541 -0.6751  0.2556
 8563TIP3    H147104   1.270   0.368   0.850 -1.1737  2.8979 -3.0538
 8563TIP3    H247105   1.294   0.404   0.995  3.7849 -1.0466 -2.6329
 8564TIP3   OH247106   3.082   5.938  16.364 -0.2901 -0.0188  0.4084
 8564TIP3    H147107   3.151   5.949  16.298  0.6036 -0.0376  1.3080
 8564TIP3    H247108   3.053   5.847  16.353 -1.7914  0.6244 -1.4673
 8565TIP3   OH247109   4.507   4.678  17.219  0.3100  1.3168  0.1231
 8565TIP3    H147110   4.519   4.652  17.128  2.1182  2.8264 -0.1482
 8565TIP3    H247111   4.569   4.750  17.231  1.0662  0.2965  2.9291
 8566TIP3   OH247112   0.569   4.277   1.021 -0.4839  0.0086  0.4360
 8566TIP3    H147113   0.542   4.301   0.932  1.0874 -0.4297 -0.1929
 8566TIP3    H247114   0.659   4.308   1.028  0.0004 -1.5077  1.2673
 8567TIP3   OH247115   5.266   2.948   1.347 -0.1656 -0.2778  0.1817
 8567TIP3    H147116   5.190   3.004   1.365 -0.9619 -0.7825 -1.4122
 8567TIP3    H247117   5.236   2.887   1.280  2.1112  0.5534 -1.7354
 8568TIP3   OH247118   3.984   4.865   0.669 -0.1387 -0.1846 -0.5521
 8568TIP3    H147119   3.920   4.820   0.725  0.8908 -2.0221 -0.7556
 8568TIP3    H247120   3.960   4.957   0.674  0.0727 -0.1870  3.1602
 8569TIP3   OH247121   0.543   6.415   5.141 -0.0390 -0.0705  0.4409
 8569TIP3    H147122   0.590   6.398   5.059 -1.1721 -1.1472 -0.0205
 8569TIP3    H247123   0.478   6.345   5.146 -1.0703  0.9167  1.4546
 8570TIP3   OH247124   2.918   0.306   5.212 -0.2641  0.6679 -0.2849
 8570TIP3    H147125   2.979   0.331   5.281 -0.0939  1.3898 -0.6896
 8570TIP3    H247126   2.863   0.239   5.252 -1.1574  2.1312  1.0688
 8571TIP3   OH247127   3.566   0.821  10.698  0.0590  0.4985 -0.3833
 8571TIP3    H147128   3.600   0.748  10.646 -0.3363 -0.6295  0.9077
 8571TIP3    H247129   3.625   0.894  10.677 -1.2915  0.7574 -4.0069
 8572TIP3   OH247130   6.497   6.643   0.670 -0.3803  0.2224  0.0279
 8572TIP3    H147131   6.574   6.598   0.636  0.7001  1.9558  0.0477
 8572TIP3    H247132   6.517   6.659   0.762 -1.6717 -1.1203  0.5712
 8573TIP3   OH247133   6.056   2.619  13.172 -0.0091  0.2609 -0.3140
 8573TIP3    H147134   5.971   2.664  13.169  0.1117  0.5830  0.7247
 8573TIP3    H247135   6.037   2.536  13.214  0.1410  0.2099 -0.3480
 8574TIP3   OH247136   6.321   6.234   2.502 -0.0687  0.4062 -0.1474
 8574TIP3    H147137   6.228   6.219   2.486 -0.0556 -0.6588  0.6301
 8574TIP3    H247138   6.333   6.328   2.494 -1.2393  0.5642 -0.1217
 8575TIP3   OH247139   1.793   6.420  15.750 -0.8518  0.2644 -0.4473
 8575TIP3    H147140   1.815   6.466  15.669  2.4539  2.4789  1.4587
 8575TIP3    H247141   1.733   6.479  15.795 -2.1629 -0.6595 -0.9311
 8576TIP3   OH247142   1.551   3.514  12.516  0.1091  0.0537  0.4112
 8576TIP3    H147143   1.620   3.541  12.576  0.3031  0.6558 -0.0826
 8576TIP3    H247144   1.575   3.425  12.489 -0.5940 -0.7027  2.1263
 8577TIP3   OH247145   0.849   2.575   3.240 -0.3263  0.2708  0.2647
 8577TIP3    H147146   0.855   2.482   3.263 -0.3936  0.3836  0.7365
 8577TIP3    H247147   0.924   2.616   3.284 -0.4908  0.4959  0.3364
 8578TIP3   OH247148   4.184   6.690  14.826 -0.1767 -0.0708  0.6099
 8578TIP3    H147149   4.234   6.761  14.785 -0.6237 -0.9124 -1.5325
 8578TIP3    H247150   4.138   6.732  14.899  0.4968  1.5765  0.1304
 8579TIP3   OH247151   5.211   6.320   2.025  0.0645  0.1305  0.4153
 8579TIP3    H147152   5.211   6.415   2.008 -0.0748  0.1849  0.7057
 8579TIP3    H247153   5.194   6.313   2.119 -2.5546 -0.2435  0.0013
 8580TIP3   OH247154   1.879   3.720   4.781 -0.0806 -0.0646 -0.0714
 8580TIP3    H147155   1.840   3.808   4.779 -0.5325 -0.1087  2.7458
 8580TIP3    H247156   1.853   3.685   4.866  2.0053 -2.0517 -0.1829
 8581TIP3   OH247157   4.658   4.375  14.175 -0.3700 -0.2362 -0.2834
 8581TIP3    H147158   4.619   4.455  14.140 -0.6025  0.2198  0.9794
 8581TIP3    H247159   4.738   4.404  14.218 -0.7320 -0.5823  0.6568
 8582TIP3   OH247160   2.620   2.060   2.278 -0.0113 -0.0686 -0.3262
 8582TIP3    H147161   2.553   2.052   2.346  2.0373 -0.1861  1.7944
 8582TIP3    H247162   2.679   1.986   2.294  2.0941  1.5098 -0.3389
 8583TIP3   OH247163   5.187   6.609  14.903 -0.1731 -0.2370  0.3707
 8583TIP3    H147164   5.168   6.550  14.830  1.3969 -1.6208  1.0053
 8583TIP3    H247165   5.280   6.631  14.893 -0.5810  1.6965  0.4849
 8584TIP3   OH247166   4.532   5.989   2.636  0.0723 -0.1942 -0.5430
 8584TIP3    H147167   4.550   5.927   2.565 -2.6039  0.0932 -1.5974
 8584TIP3    H247168   4.453   6.035   2.608  0.5609  2.0015  1.3335
 8585TIP3   OH247169   5.116   2.540  11.906 -0.1122 -0.0129  0.2604
 8585TIP3    H147170   5.089   2.530  11.815 -0.1478 -0.3084  0.3020
 8585TIP3    H247171   5.212   2.538  11.903 -0.0840  1.1275  0.1008
 8586TIP3   OH247172   5.648   3.949   1.264  0.2562  0.4124 -0.0025
 8586TIP3    H147173   5.607   4.031   1.289  0.8674  0.6806  0.1182
 8586TIP3    H247174   5.575   3.887   1.256 -0.3226  1.2014 -1.0772
 8587TIP3   OH247175   6.468   5.855  11.296 -0.2674 -0.3273 -0.3019
 8587TIP3    H147176   6.478   5.868  11.202 -0.8970 -0.1911 -0.3537
 8587TIP3    H247177   6.407   5.781  11.304  0.9976 -1.3773  0.0000
 8588TIP3   OH247178   5.021   1.958   5.227  0.9141  0.4588  0.1365
 8588TIP3    H147179   4.941   1.990   5.270  0.3807  3.1812 -2.6159
 8588TIP3    H247180   4.989   1.902   5.157  1.7604 -3.0549  2.2898
 8589TIP3   OH247181   3.706   3.927   3.190  0.4835  0.2417  0.2205
 8589TIP3    H147182   3.654   3.994   3.145  0.6288  0.1734 -0.0523
 8589TIP3    H247183   3.758   3.887   3.121  2.2394  1.5204  0.7386
 8590TIP3   OH247184   5.636   5.539   2.891 -0.8288 -0.0816  0.5981
 8590TIP3    H147185   5.615   5.606   2.956 -1.6809 -0.6427  0.9106
 8590TIP3    H247186   5.567   5.546   2.825  1.2022  2.0372 -1.5660
 8591TIP3   OH247187   4.605   2.527   5.885  0.0047 -0.1591  0.5099
 8591TIP3    H147188   4.583   2.453   5.829  3.6958 -0.0743 -1.3792
 8591TIP3    H247189   4.591   2.604   5.830  0.3547  0.1965  0.9058
 8592TIP3   OH247190   2.503   3.140   2.761  0.1288  0.0805 -0.2757
 8592TIP3    H147191   2.468   3.051   2.762  1.9440 -0.6871 -0.4516
 8592TIP3    H247192   2.560   3.143   2.838  1.0176  0.6644 -0.9389
 8593TIP3   OH247193   1.394   3.705  16.300  0.1831  0.5287  0.1609
 8593TIP3    H147194   1.434   3.680  16.383  2.2288  0.0011 -0.9200
 8593TIP3    H247195   1.419   3.797  16.288 -0.1583  0.6206  0.1558
 8594TIP3   OH247196   3.355   5.338   5.894 -0.7238  0.1500  0.7879
 8594TIP3    H147197   3.342   5.253   5.936  0.5622 -1.1297 -1.2349
 8594TIP3    H247198   3.322   5.326   5.805  0.8301  1.2990  0.0075
 8595TIP3   OH247199   5.997   1.917   1.517 -0.1913 -0.6475  0.3786
 8595TIP3    H147200   5.904   1.899   1.522 -0.4449 -0.7992 -2.7058
 8595TIP3    H247201   6.020   1.954   1.602 -2.9373 -1.0775  1.3830
 8596TIP3   OH247202   0.035   3.604  15.236  0.6501 -0.4210  0.0609
 8596TIP3    H147203  -0.008   3.556  15.164  1.3174 -0.0404 -0.6029
 8596TIP3    H247204   0.128   3.593  15.219  0.8076  0.1307  0.5765
 8597TIP3   OH247205   0.621   1.061  10.958 -0.1656 -0.5401 -0.2318
 8597TIP3    H147206   0.659   1.058  11.046  0.1584 -2.9323 -0.4000
 8597TIP3    H247207   0.527   1.050  10.972 -0.2189 -0.0469 -0.1608
 8598TIP3   OH247208   4.894   2.301  15.353  0.3874 -0.1198  0.6362
 8598TIP3    H147209   4.985   2.271  15.360  0.7133  0.5662 -0.3969
 8598TIP3    H247210   4.901   2.396  15.360 -0.3241 -0.0921  1.0645
 8599TIP3   OH247211   3.274   5.010  13.631 -0.4653 -0.5989  0.1430
 8599TIP3    H147212   3.227   4.930  13.609  0.0724 -0.6379 -0.9142
 8599TIP3    H247213   3.301   5.046  13.547  0.2765  0.0982  0.6665
 8600TIP3   OH247214   0.101   2.816   0.719  0.7235  0.5040 -0.6386
 8600TIP3    H147215   0.162   2.849   0.785  0.4196  1.1569 -0.6697
 8600TIP3    H247216   0.152   2.753   0.669  0.8975 -0.1422  0.3330
 8601TIP3   OH247217   0.354   3.878   3.198  0.6217  0.1546 -0.3686
 8601TIP3    H147218   0.338   3.944   3.130  2.3165 -0.3157 -1.2850
 8601TIP3    H247219   0.333   3.795   3.155  1.3134 -0.1144 -0.1925
 8602TIP3   OH247220   2.696   5.467   2.796  0.1028  0.1676  0.3039
 8602TIP3    H147221   2.773   5.471   2.852  0.8290  3.1302 -0.7300
 8602TIP3    H247222   2.641   5.540   2.825  0.4530  1.7400 -2.6283
 8603TIP3   OH247223   3.968   2.185   2.974 -0.6835 -0.5879  0.0300
 8603TIP3    H147224   4.051   2.203   2.931 -0.1589 -0.7004  0.9717
 8603TIP3    H247225   3.975   2.094   3.002 -1.4738 -0.8658 -0.6358
 8604TIP3   OH247226   5.174   6.524   4.366  0.0836  0.3192  0.2471
 8604TIP3    H147227   5.270   6.531   4.362  0.1703 -0.5459  0.5140
 8604TIP3    H247228   5.159   6.436   4.402 -0.8343 -0.4370 -1.8875
 8605TIP3   OH247229   6.214   1.789   1.807  0.4496 -0.2009 -0.0449
 8605TIP3    H147230   6.290   1.802   1.864 -0.4563  0.7329  0.9886
 8605TIP3    H247231   6.250   1.746   1.729  2.0670  0.3942  0.3314
 8606TIP3   OH247232   6.582   6.309  11.741  0.2030 -0.6096 -0.7382
 8606TIP3    H147233   6.495   6.348  11.736  0.1436  0.1161  2.9583
 8606TIP3    H247234   6.640   6.375  11.704 -0.4621  0.8195  0.6358
 8607TIP3   OH247235   1.116   4.772  11.994 -0.1076 -0.4661 -0.0707
 8607TIP3    H147236   1.196   4.817  12.023 -0.3362 -0.3248  0.3536
 8607TIP3    H247237   1.121   4.686  12.036  0.7387 -1.1588 -1.5479
 8608TIP3   OH247238   0.597   2.580   2.521  0.3276 -0.2460 -0.0731
 8608TIP3    H147239   0.611   2.518   2.593  0.3091 -0.4048 -0.2048
 8608TIP3    H247240   0.521   2.545   2.474 -0.9476  0.9438  1.0000
 8609TIP3   OH247241   3.170   0.776  14.325 -0.1833 -0.1715  0.3700
 8609TIP3    H147242   3.192   0.787  14.233  2.8743 -0.3849  0.9572
 8609TIP3    H247243   3.098   0.837  14.341 -1.5089 -0.8708 -2.3197
 8610TIP3   OH247244   5.041   5.314  13.649  0.4780 -0.3287 -0.0674
 8610TIP3    H147245   5.007   5.375  13.714  1.4260  0.7032 -0.5035
 8610TIP3    H247246   4.962   5.277  13.608 -0.1207 -0.5087  1.1942
 8611TIP3   OH247247   2.574   2.291  16.642 -0.5038 -0.4043  0.2313
 8611TIP3    H147248   2.626   2.354  16.692 -1.4393  0.8527 -0.3406
 8611TIP3    H247249   2.569   2.329  16.554 -0.1748 -1.8259 -0.4322
 8612TIP3   OH247250   0.294   3.850  12.479 -0.7306  0.1337 -0.0967
 8612TIP3    H147251   0.361   3.782  12.482  1.6136  2.3118  0.7466
 8612TIP3    H247252   0.215   3.808  12.514  1.1204 -1.6001  2.3031
 8613TIP3   OH247253   2.452   6.685   3.790  0.0979 -0.8686 -1.1434
 8613TIP3    H147254   2.362   6.655   3.805  0.1836  0.1162  1.9799
 8613TIP3    H247255   2.484   6.708   3.877  2.4859  1.3482 -2.4939
 8614TIP3   OH247256   1.301   2.843  16.961 -0.2854 -0.7240  0.0565
 8614TIP3    H147257   1.372   2.794  16.919 -0.8457 -2.0163  0.5487
 8614TIP3    H247258   1.228   2.780  16.964 -1.0005  0.1177  0.8173
 8615TIP3   OH247259   4.374   4.396  16.086 -0.3709 -0.1577  0.1900
 8615TIP3    H147260   4.406   4.481  16.117 -1.6040  0.3943 -0.0050
 8615TIP3    H247261   4.413   4.385  16.000 -0.3101  0.2756  0.1606
 8616TIP3   OH247262   4.077   2.742   2.430 -0.2563  0.4767  0.8876
 8616TIP3    H147263   3.992   2.697   2.436  0.5060 -1.2483 -0.4591
 8616TIP3    H247264   4.055   2.835   2.437 -2.8180  0.4275 -2.9591
 8617TIP3   OH247265   4.295   6.142  16.279 -0.0770 -0.4371  0.6249
 8617TIP3    H147266   4.318   6.218  16.225 -1.3828 -0.7498 -0.4073
 8617TIP3    H247267   4.218   6.105  16.237 -0.8377 -1.0027  2.4309
 8618TIP3   OH247268   3.680   1.531   1.556  0.0410  0.0496  0.3917
 8618TIP3    H147269   3.652   1.525   1.647 -2.2713  0.9745 -0.1883
 8618TIP3    H247270   3.691   1.624   1.540 -0.8524  0.0106 -0.5918
 8619TIP3   OH247271   2.336   4.533   4.008  0.0380  0.8959  0.1731
 8619TIP3    H147272   2.402   4.472   3.977 -2.1662 -0.6080 -1.9763
 8619TIP3    H247273   2.365   4.618   3.976  0.9168  0.2531 -0.7945
 8620TIP3   OH247274   4.792   5.964  13.496 -0.7349  0.3243  0.2972
 8620TIP3    H147275   4.835   5.911  13.564  0.6506  0.6099 -0.3204
 8620TIP3    H247276   4.718   5.911  13.467 -0.9101 -0.1217  1.5106
 8621TIP3   OH247277   4.926   5.887  12.805  0.0386 -0.1846 -0.5290
 8621TIP3    H147278   4.902   5.797  12.787 -0.6280  0.0914 -1.0510
 8621TIP3    H247279   5.017   5.894  12.774  0.0245 -0.6162 -0.6739
 8622TIP3   OH247280   0.670   3.516  11.861  0.9656  0.2522 -0.1574
 8622TIP3    H147281   0.598   3.578  11.851  1.1796  0.3546 -1.1076
 8622TIP3    H247282   0.749   3.569  11.855  1.1403  0.0028 -0.0965
 8623TIP3   OH247283   2.934   5.772  16.761  0.1391 -0.5432  0.2072
 8623TIP3    H147284   2.857   5.760  16.817 -0.1460  0.3027  0.0093
 8623TIP3    H247285   2.996   5.705  16.791 -0.2457 -0.5026  1.1249
 8624TIP3   OH247286   2.859   0.941   4.730  0.1449  0.0612 -0.4203
 8624TIP3    H147287   2.828   0.892   4.655  2.6280 -0.7791 -1.0094
 8624TIP3    H247288   2.871   0.876   4.799  1.8942  0.0376 -0.6898
 8625TIP3   OH247289   3.145   3.444  12.034 -0.4264 -0.8557  0.1426
 8625TIP3    H147290   3.213   3.393  11.989 -0.0521 -2.3505  2.2802
 8625TIP3    H247291   3.068   3.435  11.978  0.9723  0.7701 -2.2804
 8626TIP3   OH247292   0.654   0.450  14.145  0.4788  0.2687 -0.2699
 8626TIP3    H147293   0.590   0.432  14.214 -2.0129  1.2523 -2.1507
 8626TIP3    H247294   0.685   0.539  14.164  1.3971 -0.2345  0.6841
 8627TIP3   OH247295   6.400   1.968   5.613 -0.5115  0.6425 -0.0731
 8627TIP3    H147296   6.484   2.014   5.608  0.0380 -0.2784  0.3294
 8627TIP3    H247297   6.379   1.947   5.523 -0.8633  1.8383 -0.2773
 8628TIP3   OH247298   1.847   5.508  15.382 -0.0663  0.1068 -0.0628
 8628TIP3    H147299   1.779   5.442  15.395  0.4387 -0.7252 -1.4555
 8628TIP3    H247300   1.809   5.570  15.320 -0.6456  1.3416  1.4537
 8629TIP3   OH247301   0.274   6.561   4.310  0.0767 -0.4893 -0.2029
 8629TIP3    H147302   0.252   6.603   4.227  0.9310 -1.1189 -0.7694
 8629TIP3    H247303   0.190   6.533   4.347 -0.4555  1.1893 -0.0773
 8630TIP3   OH247304   1.256   3.495   5.327  0.3578  0.2735 -0.0142
 8630TIP3    H147305   1.284   3.566   5.269 -1.6332 -0.4194 -1.9830
 8630TIP3    H247306   1.196   3.537   5.389 -0.8066  0.4025 -1.1629
 8631TIP3   OH247307   3.102   0.393  16.168  0.1386 -0.0289 -0.1151
 8631TIP3    H147308   3.065   0.411  16.255 -1.1831  0.1701 -0.6984
 8631TIP3    H247309   3.163   0.321  16.183 -0.4853 -0.3739  0.8885
 8632TIP3   OH247310   5.987   5.632  16.853 -0.1138  0.2472  0.4663
 8632TIP3    H147311   6.013   5.551  16.896  1.1061  0.3463 -0.0330
 8632TIP3    H247312   6.048   5.698  16.885  0.1061  0.5569 -0.5368
 8633TIP3   OH247313   4.520   6.189   1.005  0.2404 -0.1196 -0.4841
 8633TIP3    H147314   4.608   6.196   1.040  0.1466  0.9298 -0.3991
 8633TIP3    H247315   4.532   6.162   0.914  0.6302 -0.2729 -0.3889
 8634TIP3   OH247316   1.210   4.375   6.174  0.5187  0.0066 -0.3770
 8634TIP3    H147317   1.220   4.379   6.079  0.9430 -0.7798 -0.3735
 8634TIP3    H247318   1.276   4.312   6.203  2.0422  1.9460  0.7028
 8635TIP3   OH247319   4.354   5.739   5.413  0.0393 -0.1131  0.4481
 8635TIP3    H147320   4.447   5.757   5.398  0.0567 -0.6489 -0.1056
 8635TIP3    H247321   4.330   5.677   5.344 -0.7003 -0.0741  0.6635
 8636TIP3   OH247322   1.030   2.465  14.851 -0.0562  0.1242  0.2301
 8636TIP3    H147323   1.049   2.554  14.880  1.5200  0.1300 -0.6890
 8636TIP3    H247324   0.991   2.422  14.927  0.7863  1.1048  1.2401
 8637TIP3   OH247325   1.961   4.277  11.244  0.3369  0.3620 -0.1469
 8637TIP3    H147326   1.906   4.318  11.312  1.1647 -0.2188  0.8978
 8637TIP3    H247327   1.990   4.350  11.190  0.8546  1.0513  1.0110
 8638TIP3   OH247328   4.769   3.539  17.144  0.0827  0.8702  0.4050
 8638TIP3    H147329   4.841   3.564  17.085 -1.2589  0.3178 -1.5684
 8638TIP3    H247330   4.693   3.531  17.087 -0.8753 -1.7539  1.8799
 8639TIP3   OH247331   3.834   2.402  14.385  0.5243 -0.7428  0.0093
 8639TIP3    H147332   3.918   2.358  14.399  0.6242 -0.4343  0.4131
 8639TIP3    H247333   3.853   2.495  14.397 -0.1663 -0.7741  1.6920
 8640TIP3   OH247334   6.674   6.584   4.228  0.3749 -0.8827 -0.8418
 8640TIP3    H147335   6.627   6.502   4.246  1.1510 -1.0376  0.7214
 8640TIP3    H247336   6.664   6.635   4.308  0.4869  0.2828 -1.5492
 8641TIP3   OH247337   0.548   6.221  11.241  0.3461 -0.0034  0.8059
 8641TIP3    H147338   0.619   6.235  11.179 -1.6282  0.5964 -1.4518
 8641TIP3    H247339   0.581   6.257  11.323  3.0392 -0.7623  0.1843
 8642TIP3   OH247340   3.921   0.354   3.061  0.3042  0.1245  0.0005
 8642TIP3    H147341   3.951   0.336   3.150  5.4769  1.0122 -1.2941
 8642TIP3    H247342   3.945   0.276   3.011 -0.0445  0.7066 -1.1108
 8643TIP3   OH247343   5.368   6.238   0.764 -0.2567 -0.4358  0.2978
 8643TIP3    H147344   5.456   6.227   0.730  0.2245  1.2785  0.8847
 8643TIP3    H247345   5.378   6.234   0.859 -0.4757  1.6429  0.4506
 8644TIP3   OH247346   4.785   3.503   5.931 -0.0891  0.3174  0.0567
 8644TIP3    H147347   4.733   3.573   5.969 -0.0406 -0.0063  0.7369
 8644TIP3    H247348   4.722   3.448   5.885 -0.2492  0.3019  0.2961
 8645TIP3   OH247349   6.627   6.371   3.216 -0.6058  0.0530 -0.5510
 8645TIP3    H147350   6.573   6.450   3.217 -0.2743  0.2834 -0.6480
 8645TIP3    H247351   6.596   6.319   3.290 -0.2066  0.6923  0.0733
 8646TIP3   OH247352   1.349   3.102   3.335  0.1303  0.1920 -0.1105
 8646TIP3    H147353   1.409   3.168   3.301 -0.4166 -0.2173 -2.0462
 8646TIP3    H247354   1.263   3.130   3.304 -0.3244 -0.5865  0.4128
 8647TIP3   OH247355   4.560   3.109  12.596 -0.0183 -0.0115 -0.6270
 8647TIP3    H147356   4.502   3.173  12.555 -0.2880  1.4244  1.7934
 8647TIP3    H247357   4.628   3.162  12.637  0.3631 -1.3607  0.5471
 8648TIP3   OH247358   3.653   2.748   1.573 -0.1328  0.1069 -0.2507
 8648TIP3    H147359   3.631   2.696   1.496 -0.4372  2.6906 -2.0166
 8648TIP3    H247360   3.745   2.725   1.591  0.4303  0.5088 -2.3289
 8649TIP3   OH247361   6.584   3.348  13.022  0.1426 -0.4076 -0.1652
 8649TIP3    H147362   6.493   3.344  12.991  0.5588 -2.3025 -1.2170
 8649TIP3    H247363   6.632   3.287  12.967  1.7476 -0.7160  1.4818
 8650TIP3   OH247364   4.253   2.614  12.982  0.0992  0.0626 -0.5442
 8650TIP3    H147365   4.160   2.593  12.978  0.1363 -0.7896  1.5028
 8650TIP3    H247366   4.287   2.590  12.896 -1.3413 -0.8436 -0.8924
 8651TIP3   OH247367   4.222   1.504  12.689 -0.3218  0.7947  0.0681
 8651TIP3    H147368   4.146   1.548  12.728 -0.1061  0.0127  1.4337
 8651TIP3    H247369   4.273   1.575  12.651  0.5951  2.0010  3.1694
 8652TIP3   OH247370   3.763   4.895   0.228 -0.2068  0.3812  0.3081
 8652TIP3    H147371   3.714   4.846   0.163  2.3967 -0.8995 -0.8133
 8652TIP3    H247372   3.785   4.978   0.185  1.5100 -0.4630 -0.5552
 8653TIP3   OH247373   1.507   5.716  12.955 -0.2827 -0.1531  0.0129
 8653TIP3    H147374   1.480   5.643  13.010 -0.2169 -0.6181 -0.5679
 8653TIP3    H247375   1.449   5.788  12.982  0.4988 -0.0236  1.4834
 8654TIP3   OH247376   6.354   4.453   1.794 -0.2901  0.0887 -0.1827
 8654TIP3    H147377   6.323   4.541   1.814 -1.9230 -0.3527 -0.6089
 8654TIP3    H247378   6.275   4.405   1.767  0.6844 -1.2865 -0.7189
 8655TIP3   OH247379   5.122   4.004   0.894  0.4929 -0.0908 -0.3391
 8655TIP3    H147380   5.136   3.915   0.861  1.0826  0.3780 -1.4249
 8655TIP3    H247381   5.145   3.999   0.987  2.8154 -0.5923 -0.8664
 8656TIP3   OH247382   4.305   1.501  13.358 -0.5095  0.6485  0.4904
 8656TIP3    H147383   4.290   1.434  13.290  0.6772  0.6501  0.2143
 8656TIP3    H247384   4.386   1.544  13.332 -2.2485  3.6614 -0.5138
 8657TIP3   OH247385   3.244   0.188  14.752  0.5915 -0.1187  0.0553
 8657TIP3    H147386   3.338   0.208  14.754  0.9649 -1.5780 -0.9840
 8657TIP3    H247387   3.224   0.176  14.660 -0.5892 -0.0317  0.2829
 8658TIP3   OH247388   0.134   2.079   3.862  0.1790  0.5280  0.0015
 8658TIP3    H147389   0.044   2.073   3.828  0.2521 -0.9860  0.0361
 8658TIP3    H247390   0.180   2.130   3.795 -0.4715  0.4769 -0.5046
 8659TIP3   OH247391   5.238   6.634   5.525 -0.1995 -0.8237 -0.3724
 8659TIP3    H147392   5.323   6.605   5.559  0.5009  1.1516 -0.3111
 8659TIP3    H247393   5.191   6.553   5.507  1.4012 -1.9699  0.3292
 8660TIP3   OH247394   1.721   2.256  13.056 -0.1674  0.2546 -0.1954
 8660TIP3    H147395   1.704   2.317  13.128 -0.9955 -1.8868  1.5805
 8660TIP3    H247396   1.732   2.171  13.100  0.5619 -0.9466 -2.5479
 8661TIP3   OH247397   4.407   3.806  16.630 -0.5256 -0.3176 -0.2586
 8661TIP3    H147398   4.422   3.756  16.549 -1.5922  2.5405 -2.3826
 8661TIP3    H247399   4.491   3.848  16.648 -0.6266  0.0742 -0.6730
 8662TIP3   OH247400   0.088   4.695  14.915  0.7762  0.7785 -0.0054
 8662TIP3    H147401   0.027   4.768  14.932  0.1434  0.1692  0.3778
 8662TIP3    H247402   0.031   4.622  14.891  1.4512  0.5978 -1.1185
 8663TIP3   OH247403   4.666   5.493  12.865  0.5654 -0.1630  0.2138
 8663TIP3    H147404   4.670   5.436  12.789  0.8907 -0.4477  0.4405
 8663TIP3    H247405   4.670   5.434  12.940 -0.8573  0.0221  0.4779
 8664TIP3   OH247406   1.254   1.791   0.520 -0.1615 -0.2972  0.0576
 8664TIP3    H147407   1.223   1.712   0.477  1.2541 -1.1174  0.4833
 8664TIP3    H247408   1.343   1.770   0.547  0.6611  1.8220 -0.7896
 8665TIP3   OH247409   2.143   0.669   2.828 -0.0320 -0.2349 -0.7490
 8665TIP3    H147410   2.173   0.604   2.765  0.4857 -0.8792  0.1239
 8665TIP3    H247411   2.067   0.628   2.870  0.7096 -0.5994  0.2881
 8666TIP3   OH247412   3.051   4.796   4.459  0.1450 -0.1284 -0.2770
 8666TIP3    H147413   3.045   4.716   4.512 -1.3548 -0.4360 -0.8671
 8666TIP3    H247414   3.050   4.867   4.523  2.6040 -0.5422  0.3313
 8667TIP3   OH247415   4.495   6.560  15.542 -0.3004  0.2428  0.4034
 8667TIP3    H147416   4.551   6.519  15.608  0.2143  1.2275  0.5839
 8667TIP3    H247417   4.553   6.575  15.467 -1.0477 -1.5866 -0.6271
 8668TIP3   OH247418   5.712   1.568   1.168 -0.1418 -0.4791  0.6358
 8668TIP3    H147419   5.755   1.654   1.171 -0.2642 -0.4364  1.3659
 8668TIP3    H247420   5.681   1.554   1.257 -1.3170 -0.6821  0.2057
 8669TIP3   OH247421   5.873   2.176  15.124 -0.1570  0.7249 -0.0095
 8669TIP3    H147422   5.824   2.158  15.204  2.0373  1.7233  1.6338
 8669TIP3    H247423   5.871   2.271  15.115  0.7734  0.7202 -0.3598
 8670TIP3   OH247424   1.722   0.629   5.877 -0.2108  0.2896 -0.0099
 8670TIP3    H147425   1.679   0.544   5.872  0.2461  0.0184  0.5218
 8670TIP3    H247426   1.775   0.634   5.798 -1.6292  0.8776 -0.9782
 8671TIP3   OH247427   4.526   3.008  15.682  0.4636 -0.0930 -0.5661
 8671TIP3    H147428   4.585   3.047  15.618  1.2184  0.3619  0.3656
 8671TIP3    H247429   4.579   2.941  15.725 -0.2767 -0.9345 -0.9393
 8672TIP3   OH247430   3.902   5.160   4.876 -0.6326  0.2489 -0.6690
 8672TIP3    H147431   3.938   5.072   4.880  1.2917  1.0237 -0.2215
 8672TIP3    H247432   3.931   5.195   4.792 -1.5555  0.4115 -0.9374
 8673TIP3   OH247433   4.348   1.200   1.310  0.1257 -0.1483  0.5671
 8673TIP3    H147434   4.392   1.117   1.291 -1.1739 -0.4693 -1.3324
 8673TIP3    H247435   4.398   1.266   1.262 -0.4256 -0.2619 -0.1821
 8674TIP3   OH247436   4.142   0.426   2.575 -0.0171 -0.0739 -0.0958
 8674TIP3    H147437   4.128   0.480   2.653 -3.3039 -0.3850 -0.3391
 8674TIP3    H247438   4.143   0.336   2.608 -3.8042 -0.4143 -0.4241
 8675TIP3   OH247439   1.674   3.778   1.134 -0.3835 -0.1837 -0.5892
 8675TIP3    H147440   1.694   3.818   1.219 -1.3914 -0.9334  0.0280
 8675TIP3    H247441   1.664   3.685   1.153 -1.7715 -0.2113 -1.3044
 8676TIP3   OH247442   2.512   3.046  14.668 -0.2240  0.3258  0.0862
 8676TIP3    H147443   2.565   3.022  14.745  0.5967  1.7244 -0.0065
 8676TIP3    H247444   2.438   2.985  14.670  1.1038 -1.3430  0.5332
 8677TIP3   OH247445   4.688   2.440  15.600  0.2139 -0.2913 -0.4697
 8677TIP3    H147446   4.730   2.507  15.653 -2.0268  0.9394 -0.0952
 8677TIP3    H247447   4.614   2.409  15.653  0.1746 -1.8315 -1.3345
 8678TIP3   OH247448   3.976   5.741  11.702  0.1131  0.1752 -0.1657
 8678TIP3    H147449   4.032   5.675  11.743  1.1660  1.2719  0.2247
 8678TIP3    H247450   4.028   5.774  11.628  1.1334  2.9284  1.6154
 8679TIP3   OH247451   4.007   4.611  14.315 -0.4857  0.1379 -0.4179
 8679TIP3    H147452   3.912   4.617  14.304 -0.4081  0.1717 -1.0887
 8679TIP3    H247453   4.040   4.588  14.228  0.2026  1.0210 -0.3978
 8680TIP3   OH247454   4.150   1.575   5.495 -0.0928 -0.1914 -0.1456
 8680TIP3    H147455   4.153   1.611   5.584 -0.1556 -1.1580  0.2629
 8680TIP3    H247456   4.106   1.642   5.443  0.9983  0.9046  0.2934
 8681TIP3   OH247457   4.253   5.339   1.929 -0.7529  0.3513 -0.3703
 8681TIP3    H147458   4.319   5.306   1.867 -0.3380 -0.3788  0.4398
 8681TIP3    H247459   4.219   5.261   1.971 -0.8321  0.8621  0.5250
 8682TIP3   OH247460   5.044   6.275  10.684  0.0477 -0.0507  0.1011
 8682TIP3    H147461   4.953   6.246  10.698  0.0699 -0.0298  0.3022
 8682TIP3    H247462   5.095   6.194  10.680 -0.1245 -0.1179 -1.1558
 8683TIP3   OH247463   0.003   2.384   2.674 -0.0613 -0.1933 -0.2453
 8683TIP3    H147464   0.062   2.373   2.748  0.4463 -0.7842 -0.7239
 8683TIP3    H247465  -0.084   2.390   2.712  0.2809  0.4076  0.4553
 8684TIP3   OH247466   4.857   4.637   1.562 -1.2570  0.0798  0.1075
 8684TIP3    H147467   4.908   4.568   1.607 -3.1020 -0.4503  1.5279
 8684TIP3    H247468   4.908   4.657   1.483  2.1242  0.9381  2.2751
 8685TIP3   OH247469   1.694   0.831  16.967  0.2922 -0.1804 -0.3043
 8685TIP3    H147470   1.664   0.742  16.946 -2.0420  0.1562  1.2739
 8685TIP3    H247471   1.779   0.818  17.010 -0.0153 -1.6577 -0.0805
 8686TIP3   OH247472   1.781   5.109  11.728 -0.3895  0.4585 -0.0341
 8686TIP3    H147473   1.847   5.078  11.667 -0.9509 -0.2479 -0.3017
 8686TIP3    H247474   1.803   5.067  11.811 -0.7444 -0.1310 -0.2294
 8687TIP3   OH247475   2.133   0.705  10.728  0.1539  0.2065  0.3359
 8687TIP3    H147476   2.197   0.660  10.672 -0.1793  0.6599 -0.4283
 8687TIP3    H247477   2.092   0.635  10.779 -1.2786 -0.5621 -1.7625
 8688TIP3   OH247478   0.890   5.164  11.942 -0.5552 -0.2380 -0.6453
 8688TIP3    H147479   0.815   5.146  11.885  0.0971 -1.2110 -1.2125
 8688TIP3    H247480   0.918   5.252  11.917 -2.8877  1.1175  1.1527
 8689TIP3   OH247481   4.794   2.163  11.255  0.2350  0.7309 -0.1621
 8689TIP3    H147482   4.772   2.083  11.302  0.1857  1.9127  1.9447
 8689TIP3    H247483   4.752   2.152  11.169 -1.3622 -0.6920  0.7350
 8690TIP3   OH247484   2.832   5.755   5.637  0.5640 -0.3731  0.1412
 8690TIP3    H147485   2.830   5.665   5.605  0.3862 -0.2480 -0.2027
 8690TIP3    H247486   2.847   5.746   5.732  0.4757 -0.7637  0.1216
 8691TIP3   OH247487   0.476   0.518  11.293 -0.1215 -0.1298 -0.1267
 8691TIP3    H147488   0.458   0.549  11.204  0.3758 -0.6021 -0.3951
 8691TIP3    H247489   0.496   0.598  11.342 -1.1986  0.2221 -0.2346
 8692TIP3   OH247490   3.339   3.517   4.161 -0.2174  0.6144 -0.2899
 8692TIP3    H147491   3.432   3.513   4.141  0.1208 -1.0800  1.3613
 8692TIP3    H247492   3.330   3.471   4.245 -2.4633  1.2155 -0.1244
 8693TIP3   OH247493   1.673   5.600  11.173  0.1744  0.6418 -0.3999
 8693TIP3    H147494   1.630   5.672  11.219 -0.1682  0.4144 -0.3576
 8693TIP3    H247495   1.750   5.579  11.227  0.5305  1.2736 -0.6562
 8694TIP3   OH247496   1.121   2.199  14.715 -0.2270  0.3688 -0.0108
 8694TIP3    H147497   1.104   2.136  14.785  0.2108  1.2277  0.8959
 8694TIP3    H247498   1.120   2.284  14.759  2.5988  0.7642 -0.5254
 8695TIP3   OH247499   3.057   2.270   0.799 -0.5685  0.3826  0.7077
 8695TIP3    H147500   3.093   2.185   0.775  1.7126  1.6517 -0.7916
 8695TIP3    H247501   3.028   2.260   0.889 -1.2107 -2.1944  0.2837
 8696TIP3   OH247502   0.631   4.985   2.034 -0.7005 -0.1366 -0.3979
 8696TIP3    H147503   0.690   4.927   1.985 -0.6196 -0.7642  0.4031
 8696TIP3    H247504   0.546   4.941   2.031 -0.1747 -1.5516  2.1028
 8697TIP3   OH247505   4.943   5.215   2.997  0.6200 -0.1214 -0.1531
 8697TIP3    H147506   4.946   5.168   3.080 -2.1338 -0.7049 -0.2846
 8697TIP3    H247507   4.892   5.159   2.939 -1.5213  2.2593 -0.7867
 8698TIP3   OH247508   0.605   2.487   4.004 -0.2900 -0.2480  0.2500
 8698TIP3    H147509   0.569   2.569   4.038 -1.2945 -0.5596 -0.0455
 8698TIP3    H247510   0.585   2.489   3.910 -0.4041 -0.8693  0.2569
 8699TIP3   OH247511   2.244   1.158   4.674  0.0604  0.1551  0.1870
 8699TIP3    H147512   2.182   1.160   4.602 -0.3187  0.4558  0.5116
 8699TIP3    H247513   2.304   1.087   4.653  0.0879  0.3876 -0.5326
 8700TIP3   OH247514   6.722   6.522   0.802  0.2168 -0.4103 -0.1686
 8700TIP3    H147515   6.773   6.579   0.746  0.5215 -0.7844 -0.2721
 8700TIP3    H247516   6.757   6.434   0.786 -0.3387 -0.6457 -0.1127
 8701TIP3   OH247517   2.407   2.606  14.033 -0.1964  0.0068 -0.1844
 8701TIP3    H147518   2.370   2.604  13.944 -1.1042  0.6754  0.1596
 8701TIP3    H247519   2.355   2.673  14.078 -0.4131 -1.0349  1.1447
 8702TIP3   OH247520   2.880   6.040  15.988 -0.4137  0.4950 -0.3826
 8702TIP3    H147521   2.885   6.129  15.953 -0.4457  0.9429  0.7140
 8702TIP3    H247522   2.957   5.996  15.954 -1.3046  0.3831 -2.4056
 8703TIP3   OH247523   3.309   2.039   4.410 -0.6849 -0.2439  0.2775
 8703TIP3    H147524   3.281   1.961   4.459 -0.6641 -1.1118 -1.0589
 8703TIP3    H247525   3.386   2.009   4.361  0.5686  1.1836  1.2826
 8704TIP3   OH247526   1.973   2.200   1.758  0.0416  0.2970 -0.1512
 8704TIP3    H147527   1.884   2.235   1.762 -0.3319 -0.5277 -0.8919
 8704TIP3    H247528   2.002   2.218   1.669  0.0071 -0.8559 -0.4104
 8705TIP3   OH247529   3.951   1.911   0.287  0.6555 -0.4554 -0.0188
 8705TIP3    H147530   3.989   1.919   0.375  0.3975 -0.9916  0.1432
 8705TIP3    H247531   4.018   1.868   0.235  0.6558 -0.4941  0.0136
 8706TIP3   OH247532   6.522   3.027   0.582 -0.1192  0.1567 -0.1542
 8706TIP3    H147533   6.566   3.103   0.619  2.8170 -1.3691 -0.1930
 8706TIP3    H247534   6.552   2.953   0.636 -0.5736 -1.3165 -1.8157
 8707TIP3   OH247535   2.019   3.974  14.731 -0.4137 -0.0113  0.3700
 8707TIP3    H147536   1.999   3.977  14.825 -0.4253  0.5516  0.3497
 8707TIP3    H247537   2.048   4.063  14.710  0.1210 -0.2798 -0.0437
 8708TIP3   OH247538   5.379   3.877   0.431  0.1465 -0.0320 -0.2679
 8708TIP3    H147539   5.314   3.922   0.377  0.4470  1.4581  0.5359
 8708TIP3    H247540   5.352   3.896   0.521  1.2889  0.0187  0.0763
 8709TIP3   OH247541   3.179   6.264  12.958  0.4286  0.2741  0.1230
 8709TIP3    H147542   3.197   6.346  13.003 -0.2253  0.5456 -0.0940
 8709TIP3    H247543   3.143   6.206  13.025  1.6722 -0.1282  0.4635
 8710TIP3   OH247544   6.144   6.023  13.052  0.7330  0.1814  0.4238
 8710TIP3    H147545   6.077   5.988  13.111  1.5194  0.5824  1.5935
 8710TIP3    H247546   6.221   6.035  13.108  1.5389  0.4841 -0.7167
 8711TIP3   OH247547   2.399   3.536  15.186 -0.5781  0.0636  0.4369
 8711TIP3    H147548   2.460   3.462  15.187 -0.0454  0.4745 -0.7032
 8711TIP3    H247549   2.446   3.605  15.140 -2.2524  0.0808 -1.3771
 8712TIP3   OH247550   3.570   2.560   0.670  0.3861 -0.2580  0.2459
 8712TIP3    H147551   3.563   2.634   0.610  2.2973 -0.4875 -0.3250
 8712TIP3    H247552   3.621   2.593   0.744 -0.0120 -0.6074  0.6883
 8713TIP3   OH247553   5.056   1.455   2.756 -0.2827  0.1789  0.1664
 8713TIP3    H147554   5.070   1.363   2.737  0.1244  0.2806 -0.0416
 8713TIP3    H247555   5.141   1.487   2.787 -0.3228  0.5688 -0.1157
 8714TIP3   OH247556   6.672   6.374  13.070 -0.3662  0.6795 -0.5995
 8714TIP3    H147557   6.752   6.358  13.121  0.8823  2.9529 -1.6912
 8714TIP3    H247558   6.701   6.374  12.979 -1.5402  1.7594 -1.0058
 8715TIP3   OH247559   0.422   2.286  16.793  0.3042  0.4470 -0.1989
 8715TIP3    H147560   0.449   2.194  16.790  1.3209  0.7368 -0.1859
 8715TIP3    H247561   0.476   2.325  16.862  0.2927  1.1867 -0.5985
 8716TIP3   OH247562   1.004   4.609  13.393  0.2537 -0.4148 -0.0411
 8716TIP3    H147563   1.058   4.536  13.362  0.6220 -1.2486  2.3051
 8716TIP3    H247564   1.066   4.678  13.413  0.6422 -1.4331  2.8194
 8717TIP3   OH247565   2.611   1.539  11.921  0.4477  0.1656 -0.0865
 8717TIP3    H147566   2.597   1.471  11.855 -0.1599  0.7244 -0.5462
 8717TIP3    H247567   2.706   1.552  11.922  0.3701  1.6010 -2.3824
 8718TIP3   OH247568   6.249   4.375   5.536 -0.7498 -1.0488  0.1424
 8718TIP3    H147569   6.163   4.332   5.539  0.0152 -3.5950 -4.5322
 8718TIP3    H247570   6.310   4.308   5.564 -0.0223 -0.1729  0.7177
 8719TIP3   OH247571   2.773   1.045   0.596 -0.3027  0.1199  0.0824
 8719TIP3    H147572   2.700   1.018   0.540  0.2519 -0.5302 -0.3325
 8719TIP3    H247573   2.846   0.988   0.571 -0.3469 -1.0158  2.2291
 8720TIP3   OH247574   5.118   2.557   0.975 -0.2850 -0.1358  0.1750
 8720TIP3    H147575   5.156   2.595   0.895 -0.3636 -0.4600 -0.0201
 8720TIP3    H247576   5.188   2.504   1.012 -0.2803 -0.0658  0.2654
 8721TIP3   OH247577   1.031   3.798   3.686 -0.4017 -1.1422 -0.0868
 8721TIP3    H147578   0.998   3.887   3.673 -0.9107 -1.2571  0.3635
 8721TIP3    H247579   1.125   3.805   3.673 -0.1199 -0.0923  1.9964
 8722TIP3   OH247580   4.539   5.259   4.085  0.6346 -0.2187 -0.0519
 8722TIP3    H147581   4.535   5.298   4.172  2.6093 -1.8594  0.8455
 8722TIP3    H247582   4.587   5.323   4.032 -0.6509  0.8244 -0.0174
 8723TIP3   OH247583   2.460   4.385  15.812  0.1325 -0.1096  0.5600
 8723TIP3    H147584   2.545   4.362  15.774  0.2829 -1.3030  1.5361
 8723TIP3    H247585   2.481   4.444  15.884 -0.0178  0.7984 -0.1116
 8724TIP3   OH247586   2.658   3.244   4.749 -0.4573 -0.5137  0.1206
 8724TIP3    H147587   2.644   3.337   4.734 -1.3609 -0.6316  0.1847
 8724TIP3    H247588   2.570   3.205   4.743  0.2318 -1.8633 -3.3330
 8725TIP3   OH247589   2.756   3.760   4.170 -0.4473 -0.2710  0.0652
 8725TIP3    H147590   2.838   3.806   4.186 -1.2573  0.5743  2.0438
 8725TIP3    H247591   2.776   3.700   4.098  1.6841  0.4399  0.0030
 8726TIP3   OH247592   3.843   2.024   1.084 -0.4807  0.2118  0.7320
 8726TIP3    H147593   3.878   1.936   1.096 -0.0339  0.4947  1.5492
 8726TIP3    H247594   3.768   2.027   1.144 -1.9426 -0.3766 -0.9648
 8727TIP3   OH247595   1.112   0.555  11.786  0.3349  0.1893 -0.2646
 8727TIP3    H147596   1.039   0.589  11.733  1.3944  0.5071 -1.5833
 8727TIP3    H247597   1.148   0.484  11.733  1.1660  0.2275  0.2407
 8728TIP3   OH247598   6.556   1.895   0.370 -0.0725  0.6181  0.1867
 8728TIP3    H147599   6.618   1.889   0.443  1.7016 -0.3932 -1.3094
 8728TIP3    H247600   6.611   1.900   0.292 -1.8875 -0.0803 -1.2091
 8729TIP3   OH247601   3.348   5.303   0.544 -0.3300  0.0335 -0.4289
 8729TIP3    H147602   3.416   5.363   0.512  0.1009 -0.6557 -0.8514
 8729TIP3    H247603   3.268   5.354   0.543  0.0222  0.5909 -0.8207
 8730TIP3   OH247604   3.704   1.419  16.085 -0.3167 -0.1410 -0.9041
 8730TIP3    H147605   3.630   1.382  16.134  0.9123 -0.7925  0.5330
 8730TIP3    H247606   3.708   1.510  16.112  0.4981 -0.5535  0.4458
 8731TIP3   OH247607   2.009   0.422   1.315  0.5659 -1.2128 -0.9695
 8731TIP3    H147608   1.936   0.429   1.253  0.3404 -1.4536 -0.7365
 8731TIP3    H247609   2.063   0.350   1.280  2.0591  0.5563 -2.5217
 8732TIP3   OH247610   3.155   2.871  14.472  0.3296 -0.5939  0.1088
 8732TIP3    H147611   3.127   2.784  14.498  0.1631 -0.1718  1.3947
 8732TIP3    H247612   3.127   2.879  14.381  0.7177 -2.0228 -0.1531
 8733TIP3   OH247613   1.474   0.417   1.162  0.0076 -0.0755 -0.0007
 8733TIP3    H147614   1.490   0.325   1.140 -2.2564 -0.3615 -0.7258
 8733TIP3    H247615   1.464   0.417   1.257 -5.5554 -1.8110 -0.1982
 8734TIP3   OH247616   3.880   1.454   3.413 -0.3928  0.0029  0.1639
 8734TIP3    H147617   3.857   1.453   3.506  2.1147  0.1780  0.8401
 8734TIP3    H247618   3.894   1.362   3.391  1.6205  0.1330  0.7167
 8735TIP3   OH247619   0.388   2.359   2.139 -0.0496  0.4542 -0.0618
 8735TIP3    H147620   0.423   2.436   2.095  0.6415 -0.1173 -0.5435
 8735TIP3    H247621   0.315   2.331   2.084 -0.4711  0.9059  0.2560
 8736TIP3   OH247622   1.750   0.720  12.363 -0.3391  0.5549  0.1828
 8736TIP3    H147623   1.839   0.708  12.396  0.1415  1.5584 -0.6829
 8736TIP3    H247624   1.724   0.806  12.395 -1.3718 -0.1069  1.1984
 8737TIP3   OH247625   6.130   1.434  15.224  0.3114 -0.3379 -0.3850
 8737TIP3    H147626   6.194   1.501  15.199 -0.5002 -0.2369 -2.4272
 8737TIP3    H247627   6.045   1.472  15.201 -0.1628 -2.0770 -1.7717
 8738TIP3   OH247628   6.681   2.079   5.622  0.6270 -0.1890  0.2488
 8738TIP3    H147629   6.667   2.130   5.542  0.6257 -2.3881 -1.2270
 8738TIP3    H247630   6.767   2.038   5.610 -0.6875 -3.0435 -0.1291
 8739TIP3   OH247631   0.749   3.234   2.632  0.5303  0.1854  0.5966
 8739TIP3    H147632   0.692   3.243   2.708  0.4773 -0.5446  0.6539
 8739TIP3    H247633   0.825   3.185   2.665  0.4440 -0.2577  0.1604
 8740TIP3   OH247634   3.033   3.567   2.760 -0.6889  0.0706  0.1525
 8740TIP3    H147635   2.989   3.505   2.819  0.5995 -0.0579  1.0082
 8740TIP3    H247636   3.121   3.576   2.796 -0.6505  1.9407 -0.3168
 8741TIP3   OH247637   2.618   3.826  15.476 -0.2338 -0.3609  0.1627
 8741TIP3    H147638   2.611   3.730  15.478 -0.1770 -0.3763 -0.3566
 8741TIP3    H247639   2.544   3.854  15.422 -0.4770 -0.0857  0.6341
 8742TIP3   OH247640   3.238   1.474   6.136 -0.3334  0.2477  0.0764
 8742TIP3    H147641   3.174   1.452   6.204 -0.1848  2.5558  1.0568
 8742TIP3    H247642   3.319   1.432   6.165 -0.9113 -1.0844 -0.1658
 8743TIP3   OH247643   3.685   4.685   4.411 -0.2575 -0.0249  0.4650
 8743TIP3    H147644   3.756   4.709   4.352 -0.0940 -3.3149 -0.8947
 8743TIP3    H247645   3.606   4.693   4.357 -0.6612  1.1567  1.1983
 8744TIP3   OH247646   3.466   3.856  13.548 -0.0311  0.0193  0.0700
 8744TIP3    H147647   3.504   3.919  13.609 -0.6887 -0.2624  0.7923
 8744TIP3    H247648   3.501   3.771  13.577  2.2210  0.1546 -1.9345
 8745TIP3   OH247649   4.258   4.438   3.862 -0.3532 -0.0576 -0.3326
 8745TIP3    H147650   4.285   4.416   3.951 -0.8914  0.0717 -0.1332
 8745TIP3    H247651   4.259   4.354   3.815  4.7586  0.4061 -1.6112
 8746TIP3   OH247652   0.950   4.502   4.383  0.4584 -0.3775  0.0779
 8746TIP3    H147653   1.042   4.501   4.410  0.2581 -0.5979  0.7772
 8746TIP3    H247654   0.904   4.547   4.454 -0.1564 -1.4531  0.3979
 8747TIP3   OH247655   5.720   5.809  17.109 -0.3257 -0.6450 -0.1068
 8747TIP3    H147656   5.697   5.829  17.199 -0.0115 -1.1287  0.0832
 8747TIP3    H247657   5.809   5.844  17.098 -0.8016  0.4517 -0.5825
 8748TIP3   OH247658   3.246   1.217  14.672  0.5649  0.3401  0.5248
 8748TIP3    H147659   3.253   1.210  14.767 -0.2890  0.5441  0.6102
 8748TIP3    H247660   3.225   1.128  14.644 -1.3955  0.6799  0.7584
 8749TIP3   OH247661   1.375   1.125  15.875 -0.0500 -0.2073 -0.0701
 8749TIP3    H147662   1.388   1.068  15.951 -1.1815 -1.3359 -0.6982
 8749TIP3    H247663   1.357   1.211  15.913  1.9535 -0.1383  0.8862
 8750TIP3   OH247664   6.043   5.114   0.600 -0.2188  0.3961  0.1694
 8750TIP3    H147665   6.055   5.070   0.684 -0.2745 -2.0550 -1.0219
 8750TIP3    H247666   5.958   5.082   0.568 -0.8129  2.2811 -0.2961
 8751TIP3   OH247667   0.737   3.006  12.173  0.4051 -0.1440 -0.2173
 8751TIP3    H147668   0.669   2.973  12.114  0.3421 -0.0395 -0.2035
 8751TIP3    H247669   0.819   2.973  12.135  0.4759  0.9816 -1.1036
 8752TIP3   OH247670   1.155   6.208   5.851  0.0030  0.0039 -0.3271
 8752TIP3    H147671   1.225   6.203   5.916  0.9332 -0.0094 -1.3053
 8752TIP3    H247672   1.098   6.135   5.871 -0.1432  0.4439  0.9418
 8753TIP3   OH247673   2.475   5.154   2.818  0.7604 -0.4085  0.1468
 8753TIP3    H147674   2.568   5.143   2.798  0.8127 -2.0961  1.1431
 8753TIP3    H247675   2.474   5.210   2.896  0.9053  0.0411 -0.1690
 8754TIP3   OH247676   0.684   0.590  15.137 -0.0150 -0.1433  0.1240
 8754TIP3    H147677   0.645   0.562  15.054  0.0617 -0.8674  0.3234
 8754TIP3    H247678   0.671   0.685  15.139 -1.5045 -0.3111  0.0340
 8755TIP3   OH247679   1.261   6.589   5.770  0.1130  0.5177 -0.1690
 8755TIP3    H147680   1.329   6.607   5.704  0.7465 -0.2857  0.2398
 8755TIP3    H247681   1.209   6.669   5.774  0.1117  0.6236 -1.5837
 8756TIP3   OH247682   0.162   1.490   2.271  0.8187  0.5559 -0.1284
 8756TIP3    H147683   0.179   1.459   2.360  0.5421  0.8978  0.0446
 8756TIP3    H247684   0.186   1.417   2.215 -2.0794 -0.8972  0.3635
 8757TIP3   OH247685   3.123   2.722   4.475 -0.0301 -0.6093  0.4359
 8757TIP3    H147686   3.053   2.759   4.421 -0.7469 -2.4088  0.0611
 8757TIP3    H247687   3.095   2.633   4.493  1.8748 -1.1741  0.8365
 8758TIP3   OH247688   2.476   4.448   1.424 -0.0375 -0.7544  0.2607
 8758TIP3    H147689   2.571   4.443   1.414  0.6630  5.4345 -0.0581
 8758TIP3    H247690   2.460   4.429   1.517  1.6413 -0.8415  0.5606
 8759TIP3   OH247691   5.282   2.501  16.438 -0.2048 -0.1002 -0.1195
 8759TIP3    H147692   5.329   2.439  16.382  0.2159  0.7217 -0.7010
 8759TIP3    H247693   5.258   2.573  16.380 -3.0356 -0.8684 -0.0578
 8760TIP3   OH247694   6.010   2.330  14.393  0.0876 -0.8424 -0.0481
 8760TIP3    H147695   5.991   2.347  14.301  1.1764 -0.6792 -0.2567
 8760TIP3    H247696   5.924   2.331  14.436 -0.2933  1.0327 -0.7405
 8761TIP3   OH247697   0.263   3.900  12.770  0.4649 -0.8079 -0.2922
 8761TIP3    H147698   0.302   3.834  12.712 -0.1586 -1.2588 -0.2084
 8761TIP3    H247699   0.242   3.851  12.850  2.0926 -0.0234  0.6592
 8762TIP3   OH247700   2.108   4.652  13.561  0.7139 -0.4602 -0.2068
 8762TIP3    H147701   2.112   4.706  13.481 -1.1329 -0.2732 -0.2112
 8762TIP3    H247702   2.028   4.601  13.551 -1.2232  1.6845  2.7967
 8763TIP3   OH247703   0.043   4.756   5.918 -0.7786 -0.5571  0.4593
 8763TIP3    H147704  -0.043   4.734   5.955 -0.4170 -1.4843  0.7732
 8763TIP3    H247705   0.024   4.821   5.851 -1.9369 -1.9203 -0.5976
 8764TIP3   OH247706   6.293   3.006  14.576 -0.2377  0.2631  0.2019
 8764TIP3    H147707   6.247   3.090  14.584 -1.0017 -0.1529  0.2643
 8764TIP3    H247708   6.314   2.999  14.483  1.2535  1.2549  0.4405
 8765TIP3   OH247709   5.204   6.396  12.838 -0.1795  0.5699 -0.2082
 8765TIP3    H147710   5.228   6.397  12.930  1.2641  3.1246 -0.5166
 8765TIP3    H247711   5.273   6.346  12.795  1.7036  3.1212 -0.3709
 8766TIP3   OH247712   2.967   0.961  14.787 -0.3348 -0.0983  0.3423
 8766TIP3    H147713   2.873   0.958  14.801 -0.1216 -0.3711  1.9758
 8766TIP3    H247714   2.994   0.869  14.788  0.1217  0.0311  1.4383
 8767TIP3   OH247715   1.281   3.366   0.965  0.1134 -0.4408  0.3694
 8767TIP3    H147716   1.274   3.462   0.970  2.3368 -0.2582  1.2116
 8767TIP3    H247717   1.317   3.341   1.050 -0.1287 -2.0051  0.0364
 8768TIP3   OH247718   1.446   1.712  15.766  0.1225  0.4903 -0.0748
 8768TIP3    H147719   1.517   1.650  15.750  0.1230  0.0869  1.3082
 8768TIP3    H247720   1.374   1.680  15.712 -0.1486 -1.2628  1.2334
 8769TIP3   OH247721   6.513   2.502   2.053  0.8519 -0.0045 -0.2802
 8769TIP3    H147722   6.552   2.466   1.973  1.7962 -1.0997  0.6511
 8769TIP3    H247723   6.568   2.577   2.075  1.3447 -0.4581  0.0333
 8770TIP3   OH247724   2.866   5.613  12.165  0.5861  0.6263 -0.0723
 8770TIP3    H147725   2.855   5.682  12.230 -0.4066  0.5079 -0.0997
 8770TIP3    H247726   2.938   5.560  12.199  1.5639  1.8324 -0.2020
 8771TIP3   OH247727   0.249   6.494   6.354 -0.0974 -0.1239  0.7544
 8771TIP3    H147728   0.209   6.555   6.416 -2.0372  0.4434 -0.9287
 8771TIP3    H247729   0.324   6.542   6.319  0.7808 -0.2995  2.2974
 8772TIP3   OH247730   0.851   1.807   0.327 -0.6125 -0.3940 -0.2203
 8772TIP3    H147731   0.869   1.726   0.278  0.3983 -0.1958 -0.2069
 8772TIP3    H247732   0.763   1.833   0.299 -1.1664 -1.7699  0.1662
 8773TIP3   OH247733   0.809   0.520  12.814  0.5414  0.0179  0.3421
 8773TIP3    H147734   0.888   0.565  12.843  0.6780  1.0063 -1.4480
 8773TIP3    H247735   0.771   0.578  12.749 -1.0531 -0.9834  0.3308
 8774TIP3   OH247736   3.791   2.097   3.896  0.0271 -0.6310  0.2145
 8774TIP3    H147737   3.707   2.143   3.906  0.7009  0.7351 -0.1996
 8774TIP3    H247738   3.766   2.006   3.879 -1.3940 -0.1488 -0.4350
 8775TIP3   OH247739   1.688   3.033   2.691  0.6106  0.2337  0.2529
 8775TIP3    H147740   1.682   3.050   2.597  1.2134  0.4863  0.2554
 8775TIP3    H247741   1.742   2.955   2.698  0.3687  0.0756  0.3843
 8776TIP3   OH247742   2.737   2.007  11.882  0.8161 -0.2206 -0.6276
 8776TIP3    H147743   2.645   2.015  11.906  0.8115 -0.2946 -0.6214
 8776TIP3    H247744   2.737   1.983  11.790  0.8224 -0.5907 -0.5316
 8777TIP3   OH247745   5.183   5.856  11.721 -0.4452 -0.3375 -0.8224
 8777TIP3    H147746   5.180   5.810  11.805 -1.2662 -0.3967 -0.8806
 8777TIP3    H247747   5.266   5.828  11.681 -0.4949 -1.0341 -0.4467
 8778TIP3   OH247748   4.641   4.712   5.139 -0.4122  0.0182 -0.4018
 8778TIP3    H147749   4.658   4.805   5.123 -1.5276 -0.0814 -2.4681
 8778TIP3    H247750   4.718   4.667   5.103  0.7879  0.1235  1.8188
 8779TIP3   OH247751   6.512   1.614   0.938 -0.1440 -0.3186  0.2555
 8779TIP3    H147752   6.605   1.599   0.918 -0.2126  1.2277 -1.3829
 8779TIP3    H247753   6.487   1.537   0.990  2.1766 -0.5069  1.2225
 8780TIP3   OH247754   3.537   1.187  14.395  0.4281  0.5067  0.5133
 8780TIP3    H147755   3.453   1.156  14.427  0.5580  1.4368  1.8469
 8780TIP3    H247756   3.578   1.111  14.354 -0.3344 -0.3765  1.3776
 8781TIP3   OH247757   3.559   1.594  16.788  0.2139 -0.7994 -0.2003
 8781TIP3    H147758   3.570   1.601  16.882  0.6146 -1.6730 -0.1647
 8781TIP3    H247759   3.581   1.680  16.754  0.1398 -0.5017  0.4937
 8782TIP3   OH247760   1.747   3.844   1.412 -0.6575  0.3005 -0.4262
 8782TIP3    H147761   1.783   3.902   1.479 -0.3774 -1.1553  0.7431
 8782TIP3    H247762   1.779   3.757   1.436 -3.8097 -0.9045 -0.0955
 8783TIP3   OH247763   1.922   2.992  11.945  0.3948  0.3493  0.0684
 8783TIP3    H147764   1.969   2.915  11.977 -1.3036 -0.6341  0.3539
 8783TIP3    H247765   1.830   2.966  11.947 -0.1939  2.2378 -0.3018
 8784TIP3   OH247766   5.453   4.215   0.576  0.1017 -0.4598  1.1147
 8784TIP3    H147767   5.424   4.133   0.616  1.9390 -1.0199  1.4021
 8784TIP3    H247768   5.516   4.188   0.509 -1.1137  0.6020 -0.5195
 8785TIP3   OH247769   4.219   2.395  11.927  0.2089  0.3864 -0.5612
 8785TIP3    H147770   4.222   2.390  11.831  2.0846 -2.1017 -0.4805
 8785TIP3    H247771   4.152   2.331  11.951 -2.4187  3.0656 -0.1625
 8786TIP3   OH247772   4.943   2.168  11.673 -0.3363  0.1349 -0.2619
 8786TIP3    H147773   4.953   2.078  11.642 -1.2192  0.1174 -0.5275
 8786TIP3    H247774   4.917   2.218  11.595  0.7010  0.7374 -0.2382
 8787TIP3   OH247775   6.782   1.266  13.099  0.3824  0.7682  0.2059
 8787TIP3    H147776   6.707   1.207  13.096  0.7404  0.3037 -2.1407
 8787TIP3    H247777   6.821   1.259  13.012  2.5772  1.7485  1.0319
 8788TIP3   OH247778   4.684   4.234   5.611 -0.0550  0.0088  0.3897
 8788TIP3    H147779   4.639   4.184   5.679 -0.6815  0.6890  0.4871
 8788TIP3    H247780   4.728   4.305   5.658  0.0791  0.0825  0.1576
 8789TIP3   OH247781   3.082   5.569   2.028 -0.2762 -0.3620  0.4971
 8789TIP3    H147782   3.111   5.647   2.076 -1.5599  0.4850 -0.0441
 8789TIP3    H247783   3.163   5.525   2.003  0.6282  2.0957 -1.3081
 8790TIP3   OH247784   0.246   5.119  10.566  0.7757  0.0176 -0.1223
 8790TIP3    H147785   0.253   5.026  10.587 -0.1146 -0.0051  0.1262
 8790TIP3    H247786   0.264   5.164  10.649  1.1090  0.0588 -0.2185
 8791TIP3   OH247787   6.749   1.017  11.041  0.1760 -0.1498  0.2841
 8791TIP3    H147788   6.712   1.105  11.026  2.4859  0.9684  0.7069
 8791TIP3    H247789   6.798   0.998  10.961 -1.2169 -1.6084 -0.2742
 8792TIP3   OH247790   2.594   4.605   6.308 -0.1249 -0.0626 -0.2351
 8792TIP3    H147791   2.628   4.671   6.369  0.1190 -0.4585  0.0588
 8792TIP3    H247792   2.601   4.647   6.222 -0.3698  0.4585 -0.0081
 8793TIP3   OH247793   0.213   6.223  13.784  0.0364  0.4374  0.7127
 8793TIP3    H147794   0.251   6.143  13.749 -1.4962  0.0539 -0.2018
 8793TIP3    H247795   0.261   6.294  13.741  0.3737 -0.0141  0.3397
 8794TIP3   OH247796   3.933   2.888   1.718  0.7687 -0.5066 -0.5555
 8794TIP3    H147797   3.899   2.976   1.706 -0.3376 -1.0633 -1.7206
 8794TIP3    H247798   3.981   2.892   1.800 -0.8495  0.7072  0.3909
 8795TIP3   OH247799   5.058   1.197   3.435 -0.1585  0.8871  0.2008
 8795TIP3    H147800   4.970   1.160   3.427  0.4451 -0.4949 -0.1873
 8795TIP3    H247801   5.065   1.222   3.528 -1.6600  2.8908 -0.1573
 8796TIP3   OH247802   6.171   6.087   4.068  0.2568 -0.0514  0.1309
 8796TIP3    H147803   6.219   6.018   4.022  0.7732  0.1897  0.2900
 8796TIP3    H247804   6.206   6.085   4.157 -1.4236 -1.1672  0.8163
 8797TIP3   OH247805   1.804   0.330   0.015  0.2203  0.2559 -0.1794
 8797TIP3    H147806   1.740   0.364  -0.048 -1.4347 -0.4081  1.0672
 8797TIP3    H247807   1.797   0.235   0.007 -1.3751  0.0777  2.1672
 8798TIP3   OH247808   4.567   1.580  12.175 -0.4290 -0.2579  0.1188
 8798TIP3    H147809   4.633   1.600  12.242  0.4038 -0.2617 -0.6788
 8798TIP3    H247810   4.502   1.526  12.220  2.0726 -3.6051  0.0814
 8799TIP3   OH247811   6.402   4.609  16.916  0.5732 -0.0562  0.1170
 8799TIP3    H147812   6.356   4.526  16.900  0.5560 -0.4614  2.0088
 8799TIP3    H247813   6.332   4.673  16.929  0.5022 -0.3840  1.5738
 8800TIP3   OH247814   3.112   3.797  13.344 -0.3406 -0.0583  0.1395
 8800TIP3    H147815   3.088   3.888  13.363  0.4473 -0.1401  1.6929
 8800TIP3    H247816   3.184   3.804  13.282  0.1377  0.4161  0.7338
 8801TIP3   OH247817   3.238   1.495  11.954  0.1228  0.5778 -0.1539
 8801TIP3    H147818   3.187   1.576  11.950 -0.3952  0.2364 -0.6585
 8801TIP3    H247819   3.269   1.481  11.864 -0.0920  0.0281 -0.1470
 8802TIP3   OH247820   4.566   6.314   4.362 -0.0413  0.7481  0.3444
 8802TIP3    H147821   4.522   6.391   4.324 -0.1275  0.1636 -0.8084
 8802TIP3    H247822   4.497   6.271   4.412 -0.8976 -0.2128 -1.5279
 8803TIP3   OH247823   4.392   3.849   5.771  0.7002 -0.5150  0.4890
 8803TIP3    H147824   4.405   3.782   5.839 -0.0397 -3.2120 -1.8515
 8803TIP3    H247825   4.405   3.803   5.689  0.4006  2.3451 -1.2830
 8804TIP3   OH247826   1.844   4.927  14.433 -0.3333  0.2860  0.0173
 8804TIP3    H147827   1.769   4.984  14.417 -1.8815 -2.0316 -1.6119
 8804TIP3    H247828   1.806   4.846  14.466  1.4454 -0.9315 -0.7450
 8805TIP3   OH247829   4.318   6.273  11.717 -0.6451 -0.2093  0.1104
 8805TIP3    H147830   4.276   6.298  11.635  1.4950  0.9670 -0.7132
 8805TIP3    H247831   4.328   6.356  11.764  1.6054 -0.2534 -0.1899
 8806TIP3   OH247832   5.386   4.833   5.656 -0.2061  0.5201 -0.2142
 8806TIP3    H147833   5.433   4.888   5.594 -0.8114 -0.5154 -1.6504
 8806TIP3    H247834   5.455   4.788   5.706  0.2782  1.8355  0.3336
 8807TIP3   OH247835   0.935   3.559  14.384  0.2980  0.0662 -0.0439
 8807TIP3    H147836   0.993   3.573  14.458  1.4940 -0.5597 -0.8312
 8807TIP3    H247837   0.896   3.644  14.367  1.3465  0.6034  0.2011
 8808TIP3   OH247838   0.483   2.313  13.146 -0.0542 -0.3823 -0.6428
 8808TIP3    H147839   0.575   2.293  13.165  0.4478  1.3269 -1.0414
 8808TIP3    H247840   0.487   2.369  13.068 -1.2535  1.3438  0.4602
 8809TIP3   OH247841   3.656   4.230   4.760 -0.1007  0.0305  0.0570
 8809TIP3    H147842   3.706   4.150   4.771 -0.8450 -0.3715  0.5911
 8809TIP3    H247843   3.710   4.285   4.702  1.2175 -0.1424  1.0931
 8810TIP3   OH247844   0.163   2.969  14.155 -0.2458 -0.3419 -0.3554
 8810TIP3    H147845   0.094   3.034  14.142 -0.2538 -0.2542  0.1158
 8810TIP3    H247846   0.121   2.886  14.131 -0.1907 -0.1553 -1.0911
 8811TIP3   OH247847   0.347   4.236   3.435 -0.0012  0.4862 -0.4955
 8811TIP3    H147848   0.372   4.292   3.361  0.8865  0.7365 -0.0246
 8811TIP3    H247849   0.312   4.297   3.500  2.1353  0.7274  0.5303
 8812TIP3   OH247850   4.224   0.652   0.866 -0.5476  0.1942 -0.1546
 8812TIP3    H147851   4.191   0.582   0.810 -0.0311  0.0224 -0.2491
 8812TIP3    H247852   4.271   0.710   0.806 -0.2780  0.1875  0.0488
 8813TIP3   OH247853   5.310   4.629   6.548  0.5530  0.1542 -0.3359
 8813TIP3    H147854   5.386   4.612   6.492  1.2090  0.4069  0.4543
 8813TIP3    H247855   5.244   4.567   6.518  1.9671 -1.9743  0.6854
 8814TIP3   OH247856   4.525   6.269  15.129 -0.0253  0.1346  0.2724
 8814TIP3    H147857   4.586   6.197  15.114  0.0637  0.3571 -0.4700
 8814TIP3    H247858   4.580   6.347  15.132 -0.3230  0.4105 -1.0404
 8815TIP3   OH247859   0.219   6.174   4.659  0.0995 -0.8245 -0.2855
 8815TIP3    H147860   0.180   6.087   4.669  2.6263 -1.9262  0.8479
 8815TIP3    H247861   0.279   6.164   4.585 -0.5879  0.4007 -1.0445
 8816TIP3   OH247862   6.141   4.417  14.957 -0.5442  0.6049 -0.4210
 8816TIP3    H147863   6.092   4.338  14.979 -2.1142  1.2812 -1.3760
 8816TIP3    H247864   6.111   4.482  15.019 -0.5081  0.9027 -0.7136
 8817TIP3   OH247865   4.895   4.210   3.151  0.1549  0.1412  0.2896
 8817TIP3    H147866   4.872   4.122   3.182  2.3111  0.1826  2.3578
 8817TIP3    H247867   4.945   4.194   3.070  1.6613 -0.7291  1.3250
 8818TIP3   OH247868   4.758   6.236   0.188 -0.2780 -0.4942 -0.3997
 8818TIP3    H147869   4.705   6.270   0.116  1.6765  1.5970 -0.9561
 8818TIP3    H247870   4.842   6.279   0.179  0.5574 -1.3576  2.2546
 8819TIP3   OH247871   6.480   1.709  12.268  0.6786  0.5061 -0.1285
 8819TIP3    H147872   6.550   1.695  12.331  0.9646  3.8990  0.4534
 8819TIP3    H247873   6.496   1.796  12.232 -3.6422  1.8359  0.6253
 8820TIP3   OH247874   1.367   0.001  14.851  0.0940  0.3995  0.1549
 8820TIP3    H147875   1.409   0.079  14.888  1.3743 -0.2151  0.0837
 8820TIP3    H247876   1.431  -0.032  14.788 -1.4782  0.6726 -1.6740
 8821TIP3   OH247877   0.157   0.603  13.680 -0.7115 -0.0353 -0.2097
 8821TIP3    H147878   0.148   0.522  13.730  1.0256  0.7328  1.4763
 8821TIP3    H247879   0.104   0.667  13.729  1.1370  0.7678  0.8185
 8822TIP3   OH247880   4.606   4.644  12.949 -0.0838 -0.0822 -0.7487
 8822TIP3    H147881   4.700   4.640  12.967 -0.3619  0.7969  1.0572
 8822TIP3    H247882   4.598   4.709  12.879  0.7617 -1.4517 -2.1943
 8823TIP3   OH247883   2.378   4.985   4.837  0.5573  0.6735  0.2978
 8823TIP3    H147884   2.465   4.952   4.815  0.5843  0.6459  0.4429
 8823TIP3    H247885   2.359   4.945   4.922 -0.1683 -0.4176 -0.3455
 8824TIP3   OH247886   6.366   1.566  13.445  0.4473  0.0526 -0.2377
 8824TIP3    H147887   6.310   1.492  13.467 -1.0964  0.9448 -1.0043
 8824TIP3    H247888   6.396   1.548  13.356 -1.4534  1.1533 -1.1808
 8825TIP3   OH247889   1.933   2.200  16.487  0.2821 -0.0389 -0.1599
 8825TIP3    H147890   1.846   2.173  16.459  0.6138  0.4917 -1.8185
 8825TIP3    H247891   1.933   2.295  16.476  0.6664  0.1206  1.0707
 8826TIP3   OH247892   2.346   0.294  13.928 -0.3849  0.0839 -0.2474
 8826TIP3    H147893   2.360   0.324  13.838 -1.3425  0.4402 -0.2890
 8826TIP3    H247894   2.392   0.210  13.932  1.0491  0.8230 -0.5743
 8827TIP3   OH247895   1.522   5.117   4.697 -0.4739  0.0619  0.2397
 8827TIP3    H147896   1.493   5.027   4.715 -0.9473 -0.2194 -1.6782
 8827TIP3    H247897   1.556   5.148   4.781  1.4924 -2.5530  0.5547
 8828TIP3   OH247898   2.258   3.106  14.166  0.1076  0.0854 -0.2927
 8828TIP3    H147899   2.332   3.047  14.177  0.2033  0.3856  0.7261
 8828TIP3    H247900   2.227   3.122  14.255 -1.9838 -1.0381 -0.7558
 8829TIP3   OH247901   3.483   4.229   1.357  0.1241 -0.3256 -0.2212
 8829TIP3    H147902   3.502   4.160   1.293 -0.6603 -1.0987  0.3490
 8829TIP3    H247903   3.389   4.247   1.344  0.0407 -0.2459  0.4759
 8830TIP3   OH247904   5.277   2.968   3.354 -0.3235  0.0296 -0.0300
 8830TIP3    H147905   5.329   2.995   3.278  0.2737  0.2059  0.4317
 8830TIP3    H247906   5.338   2.974   3.428 -1.1410  0.7364  0.6053
 8831TIP3   OH247907   5.042   1.372   5.399  0.2666  0.3755 -0.1879
 8831TIP3    H147908   4.977   1.319   5.352 -0.3985  0.7599  0.2810
 8831TIP3    H247909   5.072   1.435   5.335  1.4121 -0.8319 -0.8960
 8832TIP3   OH247910   4.824   5.062  11.495  0.1226  0.8711 -0.0699
 8832TIP3    H147911   4.897   5.099  11.544 -0.8529  1.1214  1.2387
 8832TIP3    H247912   4.856   5.057  11.405  2.6313 -1.2456  0.7844
 8833TIP3   OH247913   3.306   3.757   3.573  0.0613  0.5983  0.6014
 8833TIP3    H147914   3.213   3.739   3.561 -0.4871  3.2367  0.2598
 8833TIP3    H247915   3.335   3.795   3.490  1.3370  0.2955  0.8774
 8834TIP3   OH247916   4.463   2.427  13.295 -0.3713  0.4928  0.1222
 8834TIP3    H147917   4.388   2.479  13.263 -2.3899 -2.3268 -0.0988
 8834TIP3    H247918   4.539   2.466  13.252 -1.7417  3.0688 -0.1843
 8835TIP3   OH247919   4.926   2.517  16.488 -0.2125 -0.2645  0.6096
 8835TIP3    H147920   4.882   2.464  16.554  0.5502  1.3980  2.5802
 8835TIP3    H247921   5.008   2.545  16.530  1.8507 -1.6047 -2.1633
 8836TIP3   OH247922   5.964   1.106  13.131  0.3413 -0.3610  0.1938
 8836TIP3    H147923   5.927   1.059  13.056  1.0557 -1.3322  0.4307
 8836TIP3    H247924   5.897   1.100  13.198  0.4766 -1.1796  0.2648
 8837TIP3   OH247925   2.184   0.587   1.727 -0.3192  0.4844  0.1704
 8837TIP3    H147926   2.240   0.562   1.653 -0.8862  1.4963 -0.6193
 8837TIP3    H247927   2.226   0.547   1.803 -0.8975 -2.4781 -0.9204
 8838TIP3   OH247928   3.701   3.816   2.710  0.0084 -0.1847 -0.6408
 8838TIP3    H147929   3.708   3.880   2.782 -0.3541 -0.8957  0.0401
 8838TIP3    H247930   3.622   3.842   2.663  0.0428  0.0656 -0.5636
 8839TIP3   OH247931   2.658   3.524  10.526  0.2128 -0.3262  0.0520
 8839TIP3    H147932   2.690   3.482  10.447  2.6677 -1.0257  1.3073
 8839TIP3    H247933   2.563   3.519  10.519  0.3674 -1.3251 -2.3110
 8840TIP3   OH247934   3.727   4.447  12.453 -0.1435  0.0570 -0.0063
 8840TIP3    H147935   3.731   4.356  12.484  2.7956  0.2191  0.4053
 8840TIP3    H247936   3.785   4.448  12.377  0.8905  1.8219  0.7552
 8841TIP3   OH247937   1.356   1.104  11.535  0.7125  0.1695 -0.8425
 8841TIP3    H147938   1.261   1.089  11.530  0.9107 -1.0196 -1.2604
 8841TIP3    H247939   1.383   1.062  11.617  0.6472  2.0105  0.1977
 8842TIP3   OH247940   3.099   0.723   4.315 -0.2945  0.1036 -0.2452
 8842TIP3    H147941   3.118   0.714   4.408  0.6546  1.9416 -0.2142
 8842TIP3    H247942   3.179   0.761   4.278 -0.4692 -1.0484 -1.9076
 8843TIP3   OH247943   0.315   1.225   3.127  0.3971 -0.4885  0.0405
 8843TIP3    H147944   0.333   1.241   3.219  1.3430 -0.5390 -0.1305
 8843TIP3    H247945   0.368   1.288   3.080 -0.3176 -0.2553 -0.4717
 8844TIP3   OH247946   1.066   2.970   4.933  0.2121  0.6408 -0.1705
 8844TIP3    H147947   1.113   2.966   4.850 -1.6570 -0.5895 -1.2653
 8844TIP3    H247948   0.987   2.918   4.918 -2.7041  4.3096  0.7280
 8845TIP3   OH247949   0.890   4.558   2.895 -0.4516  0.1661  0.4913
 8845TIP3    H147950   0.842   4.640   2.898 -1.0642 -0.1884  0.7890
 8845TIP3    H247951   0.951   4.563   2.969  1.0016  1.2067 -0.7220
 8846TIP3   OH247952   3.047   2.718   1.011 -0.1957  0.4443  0.3360
 8846TIP3    H147953   3.004   2.745   0.930 -0.8577  1.1751  0.9187
 8846TIP3    H247954   2.997   2.641   1.039  2.5728 -2.5429 -2.0928
 8847TIP3   OH247955   5.837   2.375   0.548 -0.3809 -0.4503  0.3381
 8847TIP3    H147956   5.788   2.331   0.618 -2.5275  0.6002 -0.4118
 8847TIP3    H247957   5.886   2.444   0.593  1.9899 -2.6448  1.3460
 8848TIP3   OH247958   0.035   0.735  16.483 -0.9127 -0.3284 -0.0856
 8848TIP3    H147959   0.054   0.663  16.422 -2.6359 -0.8538 -0.0555
 8848TIP3    H247960  -0.049   0.711  16.522 -1.0404  1.2429  0.6497
 8849TIP3   OH247961   1.129   0.595   1.424  0.0366  0.3962  0.6874
 8849TIP3    H147962   1.131   0.675   1.372  1.3790 -0.1575 -0.1726
 8849TIP3    H247963   1.126   0.525   1.359 -1.7116 -0.2746  1.4270
 8850TIP3   OH247964   4.980   5.518   4.734  0.7211 -0.2075  0.2325
 8850TIP3    H147965   5.012   5.462   4.804 -1.5641 -0.4510  1.1707
 8850TIP3    H247966   5.014   5.605   4.755  2.4362 -0.7740 -0.0075
 8851TIP3   OH247967   1.973   1.117   4.174  0.0671 -0.3032  0.0913
 8851TIP3    H147968   1.939   1.072   4.097  0.8816  0.8924 -1.0075
 8851TIP3    H247969   2.022   1.192   4.139  1.2644 -0.2572  1.7317
 8852TIP3   OH247970   2.607   1.300   5.782 -0.1749 -0.4109  0.5054
 8852TIP3    H147971   2.644   1.248   5.854  0.8206 -0.6798 -0.1954
 8852TIP3    H247972   2.523   1.256   5.763 -0.6226 -0.1298  1.7191
 8853TIP3   OH247973   5.896   5.276  11.628 -0.9243  0.6416  0.0398
 8853TIP3    H147974   5.986   5.307  11.614  0.1791 -2.3276 -0.1698
 8853TIP3    H247975   5.853   5.289  11.544 -0.3051  0.9946 -0.2298
 8854TIP3   OH247976   5.255   3.251  15.742 -0.5542  0.4132  0.3807
 8854TIP3    H147977   5.173   3.301  15.740  0.3371  1.9279 -0.3824
 8854TIP3    H247978   5.251   3.195  15.665 -0.1216  1.8018 -0.6908
 8855TIP3   OH247979   3.425   5.290   3.500  0.4739 -0.3426 -0.1438
 8855TIP3    H147980   3.408   5.290   3.594  1.1936  0.0377 -0.0028
 8855TIP3    H247981   3.384   5.210   3.468 -0.0380 -0.3214  0.4409
 8856TIP3   OH247982   0.282   0.432  17.104  0.3049  0.1840  0.7771
 8856TIP3    H147983   0.354   0.415  17.164  0.7902 -3.7554 -0.6390
 8856TIP3    H247984   0.253   0.345  17.075 -3.5450  1.6489 -0.4865
 8857TIP3   OH247985   3.084   5.751  14.047 -0.7093  0.3169 -0.0895
 8857TIP3    H147986   3.108   5.838  14.016  2.1144 -1.1760 -2.6427
 8857TIP3    H247987   3.043   5.709  13.972  1.6804 -1.7855 -0.3629
 8858TIP3   OH247988   0.938   0.384   0.740 -0.3310  0.1183 -0.3021
 8858TIP3    H147989   0.984   0.458   0.699  1.7466 -0.3638  1.0218
 8858TIP3    H247990   0.981   0.306   0.705  0.2127 -0.3451  1.3468
 8859TIP3   OH247991   4.486   0.050   2.706 -0.4803  0.1483 -0.2590
 8859TIP3    H147992   4.454   0.012   2.624 -0.0737  0.1336 -0.4128
 8859TIP3    H247993   4.429   0.012   2.773 -0.7673  0.0999 -0.5236
 8860TIP3   OH247994   0.470   2.444  10.778 -0.0509  0.4193 -0.5102
 8860TIP3    H147995   0.512   2.457  10.692  2.9496  0.0839  0.7804
 8860TIP3    H247996   0.456   2.350  10.784  0.4253  0.3565 -0.3515
 8861TIP3   OH247997   1.128   2.931   1.968 -0.1943  0.0378  0.6925
 8861TIP3    H147998   1.218   2.936   2.001 -0.2198 -0.8613  0.9474
 8861TIP3    H247999   1.138   2.905   1.876 -0.1988 -0.9219  0.9493
 8862TIP3   OH248000   1.775   6.599  12.959 -0.2494 -0.5097  0.4783
 8862TIP3    H148001   1.765   6.542  12.883 -2.0272  2.2384 -1.5230
 8862TIP3    H248002   1.687   6.609  12.993  0.5098 -1.7007  3.0677
 8863TIP3   OH248003   5.008   6.479   1.569 -0.2661 -0.0093 -0.3007
 8863TIP3    H148004   5.069   6.535   1.521 -0.7492 -0.3085 -1.2655
 8863TIP3    H248005   4.953   6.540   1.618  0.2376  0.2910 -0.0911
 8864TIP3   OH248006   0.671   6.409   5.392  0.1316  0.1962 -0.8791
 8864TIP3    H148007   0.606   6.426   5.324  0.2529  0.5995 -0.8957
 8864TIP3    H248008   0.707   6.495   5.413  0.4218  0.0161 -0.6305
 8865TIP3   OH248009   0.467   2.078  11.575 -0.0512  0.1088 -0.4667
 8865TIP3    H148010   0.454   2.173  11.581  0.0201  0.1050 -0.2304
 8865TIP3    H248011   0.558   2.068  11.549 -0.5096  0.1372 -2.2046
 8866TIP3   OH248012   3.738   5.932  11.335  0.0073 -0.1865 -0.2471
 8866TIP3    H148013   3.762   5.897  11.421 -2.3528 -3.5443 -0.7535
 8866TIP3    H248014   3.705   6.020  11.353 -0.8962 -0.9732  2.3788
 8867TIP3   OH248015   1.805   5.809   5.268  0.5641  0.3755 -0.7482
 8867TIP3    H148016   1.825   5.860   5.190  1.5263  1.7342  0.3230
 8867TIP3    H248017   1.888   5.766   5.291  0.3947  0.2828 -0.2878
 8868TIP3   OH248018   3.349   5.948   2.698  0.0254 -0.7887  0.0026
 8868TIP3    H148019   3.321   5.865   2.736 -0.6977 -0.7090 -0.3251
 8868TIP3    H248020   3.408   5.923   2.627 -0.0422 -1.0201  0.0259
 8869TIP3   OH248021   1.420   1.853  10.802  0.2520  0.0480  0.3264
 8869TIP3    H148022   1.353   1.920  10.811  0.7472  1.0395 -2.4363
 8869TIP3    H248023   1.390   1.798  10.729  1.9176 -0.0893 -0.3103
 8870TIP3   OH248024   4.990   4.872   0.222 -0.2721  0.0757  0.2667
 8870TIP3    H148025   4.960   4.786   0.193 -1.0020 -0.0505  1.3545
 8870TIP3    H248026   4.912   4.914   0.257  0.2442  0.8805  0.4844
 8871TIP3   OH248027   6.695   3.152   1.125  0.1185  0.3632 -0.2193
 8871TIP3    H148028   6.602   3.127   1.128 -0.6335  2.3041 -3.1036
 8871TIP3    H248029   6.742   3.069   1.121 -1.5598 -0.6592  0.2362
 8872TIP3   OH248030   5.767   2.102  15.367  0.5364 -0.5050  0.0284
 8872TIP3    H148031   5.824   2.070  15.437  0.0640  0.6470  0.9681
 8872TIP3    H248032   5.686   2.052  15.377  0.8673 -1.1417 -0.4191
 8873TIP3   OH248033   2.238   1.437   4.331  0.5629  0.2061 -0.0363
 8873TIP3    H148034   2.303   1.463   4.396  2.4162  2.4284 -2.5372
 8873TIP3    H248035   2.153   1.458   4.371  1.3420 -1.7990  2.9111
 8874TIP3   OH248036   1.744   0.059  11.641  0.2927  0.6441  0.0837
 8874TIP3    H148037   1.737   0.153  11.657  0.5172  0.6094  0.3992
 8874TIP3    H248038   1.672   0.039  11.581 -0.2595  0.8733  0.6546
 8875TIP3   OH248039   6.200   1.508   4.983  0.1451  0.0706 -0.2591
 8875TIP3    H148040   6.146   1.587   4.981  0.6537  0.4311 -0.1486
 8875TIP3    H248041   6.288   1.539   4.963  0.7700 -0.0879  1.9254
 8876TIP3   OH248042   5.990   1.733  15.020 -0.0916 -0.4485  0.3729
 8876TIP3    H148043   6.020   1.798  15.083  0.1403  0.7092 -0.8924
 8876TIP3    H248044   5.940   1.782  14.955  0.3057 -1.4828 -0.7627
 8877TIP3   OH248045   1.731   3.922   3.950  0.3333  0.4326  0.3649
 8877TIP3    H148046   1.669   3.850   3.959 -0.6269  1.1776 -0.0863
 8877TIP3    H248047   1.812   3.881   3.919  0.1283 -0.5728  1.1142
 8878TIP3   OH248048   6.320   3.932   1.561 -0.2564 -0.3767  0.2463
 8878TIP3    H148049   6.248   3.952   1.622 -0.3607 -0.4124  0.1362
 8878TIP3    H248050   6.293   3.974   1.479 -0.0207 -0.1573  0.2803
 8879TIP3   OH248051   0.014   1.910  15.273 -0.1368 -0.1531  0.5490
 8879TIP3    H148052   0.052   1.823  15.290  2.3974  0.9114  0.7862
 8879TIP3    H248053   0.040   1.930  15.183  0.0019  0.6910  0.7692
 8880TIP3   OH248054   4.779   6.452   1.033  0.2196  0.1054  0.2033
 8880TIP3    H148055   4.808   6.518   1.096  0.4722 -1.1328  1.4352
 8880TIP3    H248056   4.743   6.382   1.087 -0.9690 -0.3437 -1.1178
 8881TIP3   OH248057   5.658   0.116  12.105 -0.2010 -0.2372  0.1258
 8881TIP3    H148058   5.660   0.062  12.184 -0.4515 -0.0639  0.2554
 8881TIP3    H248059   5.589   0.181  12.123  0.4589  0.4573  0.1954
 8882TIP3   OH248060   4.869   6.568   4.923 -0.1701 -0.6510  0.3491
 8882TIP3    H148061   4.943   6.557   4.863 -0.0322 -0.5492  0.4978
 8882TIP3    H248062   4.849   6.662   4.919 -0.7156 -0.7871 -0.1862
 8883TIP3   OH248063   0.159   3.580   2.286  0.0963 -0.1627 -0.0042
 8883TIP3    H148064   0.243   3.625   2.297 -0.4241  0.9561 -0.4177
 8883TIP3    H248065   0.182   3.493   2.255  1.1523 -0.2888  1.0657
 8884TIP3   OH248066   3.478   3.900   4.714  0.4150 -0.1498  0.0334
 8884TIP3    H148067   3.415   3.847   4.666 -1.6362  0.1117  2.2253
 8884TIP3    H248068   3.564   3.867   4.687 -0.6991 -2.2293 -1.2040
 8885TIP3   OH248069   0.096   4.442   0.579  0.0953  0.2711 -0.3348
 8885TIP3    H148070   0.059   4.375   0.521 -1.0454 -1.2092  1.9502
 8885TIP3    H248071   0.189   4.421   0.583  0.1506  0.2462 -1.4090
 8886TIP3   OH248072   3.750   3.929   2.388 -0.2590 -0.5035 -0.2323
 8886TIP3    H148073   3.768   3.990   2.317  0.5493 -0.6109 -0.1380
 8886TIP3    H248074   3.747   3.843   2.346  2.2606 -0.8296  0.0746
 8887TIP3   OH248075   5.383   0.699  12.948 -0.2630  0.2024 -0.0884
 8887TIP3    H148076   5.460   0.654  12.984 -1.4710 -2.1257 -0.2236
 8887TIP3    H248077   5.318   0.696  13.017 -1.1193 -0.2920 -0.8918
 8888TIP3   OH248078   6.126   6.183   2.087 -0.6065 -0.3345 -0.3294
 8888TIP3    H148079   6.081   6.266   2.106  0.0017  0.1447 -0.9398
 8888TIP3    H248080   6.127   6.136   2.170  0.0098  0.7426  0.2879
 8889TIP3   OH248081   5.515   4.580  16.145  0.1901  0.2959  0.3219
 8889TIP3    H148082   5.565   4.661  16.128  0.2213 -0.0254 -1.3212
 8889TIP3    H248083   5.580   4.520  16.181  0.2340  0.9052  1.2866
 8890TIP3   OH248084   2.576   2.188   3.235  0.0345 -0.1891  0.6497
 8890TIP3    H148085   2.491   2.222   3.263 -0.6062  1.0474 -2.3779
 8890TIP3    H248086   2.619   2.263   3.194  1.4153 -1.4799 -0.3645
 8891TIP3   OH248087   5.502   5.254  14.538 -0.4352 -0.3220 -0.7824
 8891TIP3    H148088   5.505   5.225  14.630 -1.0732 -0.1594 -0.7051
 8891TIP3    H248089   5.506   5.173  14.488 -0.4575 -0.4384 -0.5999
 8892TIP3   OH248090   1.858   3.470  16.695 -0.0153 -1.0661 -0.7199
 8892TIP3    H148091   1.855   3.393  16.752 -0.1323 -0.3774  0.2301
 8892TIP3    H248092   1.784   3.524  16.723 -0.4665 -0.9971 -1.9658
 8893TIP3   OH248093   1.612   6.238  12.948  0.6772  0.6026 -0.0414
 8893TIP3    H148094   1.526   6.278  12.941  0.3948 -0.1160 -1.0507
 8893TIP3    H248095   1.664   6.281  12.879  0.3512 -0.7404 -1.1808
 8894TIP3   OH248096   1.435   0.560  10.958  0.9093  0.5859  0.4442
 8894TIP3    H148097   1.484   0.571  10.877  0.0898  1.1223  0.0083
 8894TIP3    H248098   1.351   0.522  10.931  0.1913  1.7892  0.8876
 8895TIP3   OH248099   1.965   4.702  16.867 -0.3914  0.2697  0.4852
 8895TIP3    H148100   1.938   4.771  16.807 -0.0285 -0.2894 -0.3413
 8895TIP3    H248101   2.060   4.694  16.855 -0.5345 -0.9226 -0.0421
 8896TIP3   OH248102   0.068   3.842   5.486  0.2672 -0.1324 -0.0957
 8896TIP3    H148103   0.074   3.747   5.495 -1.6859 -0.2369  0.4883
 8896TIP3    H248104   0.052   3.857   5.393  0.3752 -0.3841 -0.1534
 8897TIP3   OH248105   2.538   5.031  12.167  0.6625 -0.5699 -0.3725
 8897TIP3    H148106   2.616   5.067  12.124 -0.5991 -0.5670 -2.8367
 8897TIP3    H248107   2.541   4.937  12.149  0.6775 -0.7583  0.5516
 8898TIP3   OH248108   6.183   0.107  11.010  0.9493  0.0140  0.1231
 8898TIP3    H148109   6.263   0.118  11.061  0.2703  0.3501  1.1667
 8898TIP3    H248110   6.124   0.060  11.069  0.4332 -0.3635 -0.6851
 8899TIP3   OH248111   1.586   1.727   3.012 -0.1240 -0.0938  0.1063
 8899TIP3    H148112   1.606   1.677   3.092 -0.6117  0.1252  0.3715
 8899TIP3    H248113   1.668   1.726   2.962  1.2586  2.4740  2.0535
 8900TIP3   OH248114   4.588   5.613   0.106  0.4824 -0.2903 -0.0735
 8900TIP3    H148115   4.547   5.551   0.165 -0.7761 -0.1794 -0.8083
 8900TIP3    H248116   4.574   5.577   0.019 -2.2988  2.0242 -0.7509
 8901TIP3   OH248117   2.201   3.890   0.691  0.2623  0.0890 -0.2492
 8901TIP3    H148118   2.208   3.949   0.766 -0.2361 -1.9652  1.4942
 8901TIP3    H248119   2.284   3.842   0.689  0.9904  1.2894 -2.1371
 8902TIP3   OH248120   6.686   3.612   5.023 -0.0650  0.1965 -0.0368
 8902TIP3    H148121   6.709   3.685   5.081  0.4807 -1.8572  2.5246
 8902TIP3    H248122   6.764   3.556   5.023 -1.2093 -1.4551 -0.1198
 8903TIP3   OH248123   6.465   5.386   0.955  0.0821  0.4269  0.1193
 8903TIP3    H148124   6.520   5.308   0.970 -0.0222  0.0308 -1.3738
 8903TIP3    H248125   6.485   5.412   0.865 -2.1642  0.2739 -0.4785
 8904TIP3   OH248126   1.529   5.098   1.694  0.0951  0.5457  0.4406
 8904TIP3    H148127   1.565   5.186   1.709  0.9416  0.3295 -0.2086
 8904TIP3    H248128   1.516   5.094   1.599 -1.0996  0.3971  0.6035
 8905TIP3   OH248129   5.425   4.920   0.049 -0.3865  0.5364 -0.8578
 8905TIP3    H148130   5.346   4.952   0.092  0.4720 -1.9291  3.0925
 8905TIP3    H248131   5.488   4.991   0.060 -1.2783  1.4879 -1.6840
 8906TIP3   OH248132   2.606   5.818   1.066 -0.4324  0.0703 -0.1786
 8906TIP3    H148133   2.607   5.911   1.088 -0.6915  0.0407 -0.0314
 8906TIP3    H248134   2.634   5.815   0.974  2.7808  0.0116  0.6803
 8907TIP3   OH248135   5.809   2.789   5.759  0.2911 -0.0286 -0.6105
 8907TIP3    H148136   5.905   2.796   5.762  0.2224  0.6714  0.3264
 8907TIP3    H248137   5.778   2.879   5.770 -0.4998 -0.5443  2.1038
 8908TIP3   OH248138   6.126   0.880   3.300 -0.9784 -0.4256  0.1089
 8908TIP3    H148139   6.103   0.790   3.325  3.7446 -1.8008  0.5010
 8908TIP3    H248140   6.145   0.875   3.206 -3.2385  0.9044 -0.4769
 8909TIP3   OH248141   5.313   3.318   3.755 -0.0457  0.3943 -0.0951
 8909TIP3    H148142   5.290   3.275   3.837  0.8982  0.5427  0.2664
 8909TIP3    H248143   5.292   3.410   3.769  1.4323  0.6717  0.5338
 8910TIP3   OH248144   0.384   0.662  13.935 -0.5478 -0.2392  0.1618
 8910TIP3    H148145   0.326   0.738  13.927 -0.7823 -0.5319 -1.1906
 8910TIP3    H248146   0.447   0.673  13.863 -0.8480 -1.5371 -0.3234
 8911TIP3   OH248147   0.322   5.103  12.827  0.2257  0.0237 -0.4254
 8911TIP3    H148148   0.279   5.035  12.879  1.4876 -0.1122  0.4695
 8911TIP3    H248149   0.276   5.183  12.850  0.0607 -0.2059  0.0659
 8912TIP3   OH248150   4.629   1.780  12.872  0.2385  0.2318  0.2226
 8912TIP3    H148151   4.629   1.789  12.777  0.7557  1.0723  0.2957
 8912TIP3    H248152   4.538   1.791  12.898  0.0852 -0.0782 -0.1791
 8913TIP3   OH248153   0.639   3.126  16.807  0.2276 -0.2017 -0.1833
 8913TIP3    H148154   0.673   3.201  16.856  0.2781  0.6585 -1.4897
 8913TIP3    H248155   0.576   3.164  16.746 -2.4200 -1.6245  1.4625
 8914TIP3   OH248156   0.714   1.203  12.918  0.4418  0.1132  0.2208
 8914TIP3    H148157   0.657   1.218  12.994  0.1281  3.1432 -0.4784
 8914TIP3    H248158   0.655   1.209  12.843  1.1414 -0.2597 -0.3665
 8915TIP3   OH248159   2.714   1.339  12.367 -0.2581  0.0827  0.1498
 8915TIP3    H148160   2.703   1.410  12.305  0.3315  0.4250  0.4225
 8915TIP3    H248161   2.787   1.287  12.332  0.6948  0.7982  1.0010
 8916TIP3   OH248162   5.126   6.661   0.440 -0.1161 -0.2711 -0.7288
 8916TIP3    H148163   5.222   6.663   0.446 -0.1627 -0.4125  0.2622
 8916TIP3    H248164   5.105   6.727   0.374  0.6365  0.1776 -0.5306
 8917TIP3   OH248165   6.017   0.767  11.713  0.6385 -0.1302 -0.5052
 8917TIP3    H148166   6.067   0.701  11.666  1.2866  0.8672 -1.2446
 8917TIP3    H248167   6.081   0.833  11.738 -0.2408  1.0234 -1.1973
 8918TIP3   OH248168   5.704   4.281   4.816 -0.5333 -0.2606 -0.2955
 8918TIP3    H148169   5.615   4.254   4.839 -0.5075 -0.2860 -0.2281
 8918TIP3    H248170   5.738   4.209   4.762 -0.4974 -0.3223 -0.1915
 8919TIP3   OH248171   2.400   2.973  10.527  0.3245  0.2844 -0.5091
 8919TIP3    H148172   2.324   2.966  10.585  1.4262 -1.0504  0.8642
 8919TIP3    H248173   2.401   3.065  10.499 -1.2725  0.5252  0.1403
 8920TIP3   OH248174   0.577   2.458   3.403 -0.1191  0.5193 -0.8424
 8920TIP3    H148175   0.664   2.454   3.443 -0.1787  1.6644 -0.5629
 8920TIP3    H248176   0.586   2.408   3.322  0.6558  0.1982 -0.5747
 8921TIP3   OH248177   2.820   4.580   2.002 -0.4085 -0.2277  0.8161
 8921TIP3    H148178   2.895   4.537   2.041  0.6974  0.4926 -0.4192
 8921TIP3    H248179   2.774   4.620   2.075  0.7638 -0.1470  1.5311
 8922TIP3   OH248180   2.208   0.961   5.130 -0.1804  0.1232 -0.4333
 8922TIP3    H148181   2.119   0.996   5.133 -0.6934 -1.1779  0.3855
 8922TIP3    H248182   2.221   0.937   5.039 -0.9605 -0.3605 -0.4292
 8923TIP3   OH248183   2.661   1.054  14.828 -0.0133 -0.1142 -0.1737
 8923TIP3    H148184   2.652   1.117  14.756  1.0188 -0.5084 -0.6623
 8923TIP3    H248185   2.591   0.991  14.812  0.9677 -0.9036 -1.5964
 8924TIP3   OH248186   4.746   5.413  14.438 -0.6743 -0.7198 -0.3968
 8924TIP3    H148187   4.787   5.353  14.375  2.9520 -1.0853  2.0000
 8924TIP3    H248188   4.767   5.500  14.406  2.4666 -0.8999  0.8827
 8925TIP3   OH248189   6.748   1.836  15.748  0.0933  0.4574  0.4046
 8925TIP3    H148190   6.783   1.784  15.677 -2.5614 -0.3255 -0.4608
 8925TIP3    H248191   6.754   1.780  15.825 -0.0113  0.0229  0.0967
 8926TIP3   OH248192   5.861   0.327  10.832 -0.8544 -0.3591  0.2066
 8926TIP3    H148193   5.891   0.241  10.862 -0.2334 -0.3901 -0.4589
 8926TIP3    H248194   5.774   0.311  10.797 -1.0594 -0.5634  0.7974
 8927TIP3   OH248195   0.966   6.012  13.479 -0.7654  0.2966  0.0804
 8927TIP3    H148196   1.046   6.019  13.531 -1.1163 -0.7055  0.7748
 8927TIP3    H248197   0.905   5.964  13.535 -2.5664  2.7592  0.3957
 8928TIP3   OH248198   5.519   0.265   0.343  0.3294 -0.1527  0.2416
 8928TIP3    H148199   5.504   0.341   0.399  1.5811  1.2385 -1.2541
 8928TIP3    H248200   5.501   0.296   0.254  1.5596 -1.3851 -0.4736
 8929TIP3   OH248201   0.567   5.613   2.238 -0.4518 -0.0494 -0.3593
 8929TIP3    H148202   0.537   5.649   2.155 -0.5918  2.6092  0.7370
 8929TIP3    H248203   0.659   5.590   2.223 -0.2369  1.1984 -1.0288
 8930TIP3   OH248204   2.939   0.832  13.712  0.2290 -0.1730  0.0084
 8930TIP3    H148205   3.015   0.789  13.752 -1.2393 -2.0246  0.9509
 8930TIP3    H248206   2.912   0.897  13.776  0.8084  0.2701 -0.1880
 8931TIP3   OH248207   0.949   2.255  16.318  0.2307 -0.0076 -0.8047
 8931TIP3    H148208   1.028   2.216  16.356 -0.1321  0.2563  0.2625
 8931TIP3    H248209   0.973   2.346  16.303 -0.1252  0.2952  0.3518
 8932TIP3   OH248210   3.395   0.406   3.136 -0.5084 -0.0692  0.1630
 8932TIP3    H148211   3.469   0.415   3.075 -1.0420  0.2144 -0.4517
 8932TIP3    H248212   3.320   0.389   3.080 -0.9564 -0.1285  0.7731
 8933TIP3   OH248213   2.066   3.035  16.701  0.2028 -0.1063  0.1314
 8933TIP3    H148214   2.128   3.027  16.773  1.3464  1.5103 -0.6054
 8933TIP3    H248215   2.007   2.960  16.711  2.2194 -1.6662  0.9041
 8934TIP3   OH248216   4.682   1.424  15.589  0.3441 -0.2323 -0.0539
 8934TIP3    H148217   4.725   1.342  15.615 -2.1578 -0.8430  2.7085
 8934TIP3    H248218   4.753   1.486  15.578  2.2952 -2.5490 -1.5339
 8935TIP3   OH248219   1.123   0.523   3.735  0.0681  0.2858  0.9707
 8935TIP3    H148220   1.055   0.572   3.689 -0.5821 -0.6671  0.8779
 8935TIP3    H248221   1.190   0.588   3.756  0.4633  0.7616 -1.4222
 8936TIP3   OH248222   1.864   3.624  11.968 -0.3017 -0.5240 -0.1286
 8936TIP3    H148223   1.951   3.599  11.936  0.5625 -0.2309  1.8547
 8936TIP3    H248224   1.829   3.544  12.007  0.7391  0.2024  2.5035
 8937TIP3   OH248225   5.698   6.753  14.391  0.9170 -0.5320 -0.3279
 8937TIP3    H148226   5.781   6.765  14.344  1.2162  0.7611  0.4666
 8937TIP3    H248227   5.650   6.834  14.374  0.7007 -0.3849  0.9156
 8938TIP3   OH248228   5.715   5.296  11.809  0.3282  0.1025  0.1290
 8938TIP3    H148229   5.751   5.291  11.898 -0.0219 -0.6273  0.2384
 8938TIP3    H248230   5.791   5.288  11.752  0.3126 -2.3180  0.3504
 8939TIP3   OH248231   2.048   5.684  15.050 -0.2228 -0.5587  0.3916
 8939TIP3    H148232   2.006   5.598  15.054  1.8500 -1.6665 -0.3111
 8939TIP3    H248233   2.069   5.705  15.141 -0.3739 -0.9857  0.5288
 8940TIP3   OH248234   4.714   1.845   3.451 -0.0286  0.5135  0.2600
 8940TIP3    H148235   4.693   1.921   3.505  2.3550  0.1450  1.8799
 8940TIP3    H248236   4.803   1.862   3.420  0.0820 -1.0569 -0.3958
 8941TIP3   OH248237   5.927   4.260   4.085 -0.3780 -0.2392  0.3064
 8941TIP3    H148238   5.903   4.244   3.993  0.5987  1.5772 -0.3126
 8941TIP3    H248239   5.953   4.174   4.118  1.4514 -0.6046 -1.8118
 8942TIP3   OH248240   6.532   4.435   0.453  0.6072 -0.0206 -0.2675
 8942TIP3    H148241   6.611   4.391   0.424 -1.5796 -3.2465 -1.9216
 8942TIP3    H248242   6.510   4.394   0.537  0.2751  0.2836 -0.2019
 8943TIP3   OH248243   1.038   4.853   2.758  0.2511  0.2598 -0.0972
 8943TIP3    H148244   1.122   4.809   2.743  0.6352  0.9945 -0.1893
 8943TIP3    H248245   1.049   4.938   2.715 -0.1925  0.7318  0.7052
 8944TIP3   OH248246   5.544   0.187  14.404  0.0951 -0.2023  0.0308
 8944TIP3    H148247   5.546   0.259  14.467  2.7910 -0.2186  0.1047
 8944TIP3    H248248   5.502   0.224  14.326  0.4254  1.1227  0.4558
 8945TIP3   OH248249   0.455   2.113   1.393  0.1822  0.1318 -0.0907
 8945TIP3    H148250   0.477   2.021   1.380 -0.9415 -0.0585 -0.7163
 8945TIP3    H248251   0.414   2.140   1.311  0.2054  1.1063  0.2060
 8946TIP3   OH248252   6.460   1.114   2.163 -0.1631 -0.4461  0.0882
 8946TIP3    H148253   6.476   1.060   2.241  0.6391 -0.4820 -0.0874
 8946TIP3    H248254   6.520   1.188   2.173  0.5693 -0.8761 -0.8919
 8947TIP3   OH248255   5.856   0.483  14.065 -0.1568  0.2379  0.3954
 8947TIP3    H148256   5.951   0.478  14.057 -0.1530  0.6251  0.1460
 8947TIP3    H248257   5.830   0.398  14.101  0.3047  0.2292  0.7140
 8948TIP3   OH248258   4.241   1.250   0.494  0.3082 -0.6224  0.5101
 8948TIP3    H148259   4.213   1.249   0.403  2.1830  3.1307 -0.3103
 8948TIP3    H248260   4.176   1.305   0.538  1.4887  0.8175  0.5145
 8949TIP3   OH248261   2.449   2.813  14.439 -0.1414 -0.0640 -0.5633
 8949TIP3    H148262   2.503   2.889  14.418 -2.4875  1.8996  0.1238
 8949TIP3    H248263   2.487   2.777  14.519  1.2777  0.0472 -1.1663
 8950TIP3   OH248264   0.612   2.363  16.374 -0.0516  0.4877 -0.0561
 8950TIP3    H148265   0.597   2.398  16.462  0.8953  0.9635 -0.0675
 8950TIP3    H248266   0.622   2.269  16.387 -0.7739  0.4390  0.2237
 8951TIP3   OH248267   1.325   4.037   1.751 -0.0901 -0.6093 -0.4535
 8951TIP3    H148268   1.362   4.114   1.708 -1.2239  0.4695  0.4140
 8951TIP3    H248269   1.382   4.023   1.827 -2.3425  2.2871  2.0521
 8952TIP3   OH248270   4.587   2.647  12.458  0.8169  0.3145  0.4855
 8952TIP3    H148271   4.568   2.704  12.383 -0.6048 -0.2777  0.3682
 8952TIP3    H248272   4.562   2.559  12.429 -0.1027  0.1288  1.7559
 8953TIP3   OH248273   2.422   4.657   2.112  0.2120  0.9168  0.8298
 8953TIP3    H148274   2.392   4.570   2.135 -1.0530  0.7394 -1.2045
 8953TIP3    H248275   2.370   4.681   2.034  3.0287  1.9971 -0.8873
 8954TIP3   OH248276   6.697   0.338   2.503 -0.0925  0.5921 -0.1076
 8954TIP3    H148277   6.635   0.358   2.434 -0.0869  2.4773  0.3644
 8954TIP3    H248278   6.648   0.285   2.566 -1.2636  2.0577  0.2637
 8955TIP3   OH248279   1.184   6.035   5.314 -0.4249  0.5905 -0.1971
 8955TIP3    H148280   1.109   6.036   5.374 -0.2941 -0.1874 -0.0074
 8955TIP3    H248281   1.146   6.021   5.228 -0.5397  0.7869 -0.1802
 8956TIP3   OH248282   0.988   0.840  11.355  0.1034 -0.3063 -0.0944
 8956TIP3    H148283   1.016   0.884  11.274  0.2531 -2.3542 -1.2434
 8956TIP3    H248284   0.899   0.809  11.335 -0.4153  0.3818  1.0760
 8957TIP3   OH248285   6.052   2.516   4.594 -0.0605  0.2099  0.3691
 8957TIP3    H148286   6.097   2.586   4.642  1.0317 -1.1016  1.3085
 8957TIP3    H248287   6.089   2.521   4.506 -0.4151  1.1603  0.2544
 8958TIP3   OH248288   1.312   0.419  16.626  0.2096  0.0361  0.2874
 8958TIP3    H148289   1.373   0.399  16.554 -1.0855 -1.3600 -0.4875
 8958TIP3    H248290   1.270   0.336  16.645  0.0764  0.5200  2.2952
 8959TIP3   OH248291   6.584   0.376  11.604  0.4219  0.5915  0.0232
 8959TIP3    H148292   6.598   0.361  11.698  2.6373  0.5928 -0.2403
 8959TIP3    H248293   6.613   0.466  11.589  0.0805  0.5956 -0.6505
 8960TIP3   OH248294   5.920   6.649   3.388 -0.5450  0.0303 -0.2165
 8960TIP3    H148295   5.943   6.686   3.473 -0.6003  3.0600 -1.3947
 8960TIP3    H248296   5.843   6.699   3.361  0.2212  0.0216 -2.5834
 8961TIP3   OH248297   0.046   6.542  11.115 -0.1960  0.1287 -0.3481
 8961TIP3    H148298   0.087   6.459  11.142 -2.9878 -1.3159 -0.1469
 8961TIP3    H248299   0.024   6.528  11.023  0.2927  1.1195 -0.6272
 8962TIP3   OH248300   6.261   2.087   2.543 -0.4872  0.2087 -0.5953
 8962TIP3    H148301   6.257   2.112   2.636  0.9006  0.9668 -0.7200
 8962TIP3    H248302   6.176   2.114   2.508 -2.2704 -2.7320  1.0264
 8963TIP3   OH248303   1.346   6.369  16.439  0.5465  0.3523  0.2228
 8963TIP3    H148304   1.271   6.425  16.421  0.3333 -0.1960 -0.6727
 8963TIP3    H248305   1.321   6.283  16.405  2.7994  0.8831 -3.2250
 8964TIP3   OH248306   1.647   5.475  16.694 -0.1557 -0.2524  0.1555
 8964TIP3    H148307   1.699   5.406  16.653 -2.1382 -1.0741 -1.1440
 8964TIP3    H248308   1.655   5.550  16.635 -0.1111 -0.2439  0.1726
 8965TIP3   OH248309   6.184   5.254   0.895  0.2521  0.5180 -0.1306
 8965TIP3    H148310   6.220   5.194   0.829 -1.2996 -0.8222  0.1845
 8965TIP3    H248311   6.245   5.247   0.969  0.5113 -0.0800 -0.3909
 8966TIP3   OH248312   5.532   5.265   5.471 -0.5496 -0.5973  0.2013
 8966TIP3    H148313   5.534   5.337   5.534  1.1831 -0.1424 -0.3007
 8966TIP3    H248314   5.597   5.203   5.503  2.3849  0.8657 -2.3769
 8967TIP3   OH248315   0.755   3.409  14.267 -0.3635  0.5048 -0.2854
 8967TIP3    H148316   0.675   3.460  14.277  0.2222  1.3596  0.1856
 8967TIP3    H248317   0.816   3.448  14.330  0.3450 -0.2857 -0.4665
 8968TIP3   OH248318   6.195   2.185   3.764  0.1109  0.1576 -0.1239
 8968TIP3    H148319   6.212   2.273   3.728 -1.3322 -0.5156 -2.7197
 8968TIP3    H248320   6.100   2.179   3.768  0.1618 -1.6160 -0.9052
 8969TIP3   OH248321   0.452   4.139  15.193  0.7596  0.4641 -0.3355
 8969TIP3    H148322   0.516   4.160  15.125 -0.2923  1.5369 -1.0199
 8969TIP3    H248323   0.387   4.084  15.150  1.8006 -1.6986  0.6658
 8970TIP3   OH248324   4.343   2.116   1.620 -0.1594 -0.4981  0.0388
 8970TIP3    H148325   4.417   2.059   1.599  0.4176  0.1952  0.1684
 8970TIP3    H248326   4.291   2.065   1.681  0.2224 -0.9832 -0.0326
 8971TIP3   OH248327   4.734   5.270   2.278 -0.5932 -0.3074  0.0849
 8971TIP3    H148328   4.694   5.349   2.316 -2.9132 -0.8091 -1.1515
 8971TIP3    H248329   4.730   5.205   2.348 -1.4281 -0.1638  0.1825
 8972TIP3   OH248330   4.108   2.500  16.965  0.5808 -0.2598 -0.1353
 8972TIP3    H148331   4.020   2.473  16.992  0.7413 -0.8996 -0.2209
 8972TIP3    H248332   4.094   2.568  16.899  0.1501 -0.3411 -0.1267
 8973TIP3   OH248333   1.185   4.344   0.847  0.4169  0.1619 -0.3882
 8973TIP3    H148334   1.143   4.310   0.926 -0.8614  0.7973 -0.7676
 8973TIP3    H248335   1.279   4.344   0.868  0.1228  0.1287  1.0485
 8974TIP3   OH248336   0.035   1.512  11.413  0.1076 -0.2073 -0.0384
 8974TIP3    H148337   0.044   1.419  11.395  0.3434  0.0761 -1.4880
 8974TIP3    H248338   0.125   1.545  11.416  0.1605 -0.3476  2.5831
 8975TIP3   OH248339   5.959   1.869  16.878 -1.0158  0.3958  1.2955
 8975TIP3    H148340   5.903   1.897  16.950 -2.0240  1.1358  0.2544
 8975TIP3    H248341   6.035   1.829  16.921 -1.1727  1.6050  2.7904
 8976TIP3   OH248342   3.493   0.266   4.344 -0.7709 -0.0783  0.3412
 8976TIP3    H148343   3.436   0.335   4.309 -2.0898 -1.7023 -0.9248
 8976TIP3    H248344   3.439   0.220   4.408 -0.9519 -1.5760 -0.8008
 8977TIP3   OH248345   0.834   6.528  13.314 -0.1173 -0.1092  0.2598
 8977TIP3    H148346   0.806   6.597  13.253  0.4832  0.0750  0.1828
 8977TIP3    H248347   0.762   6.466  13.315 -1.0594  0.9460  0.9812
 8978TIP3   OH248348   6.662   3.730  14.256 -0.0262 -0.5484  0.3044
 8978TIP3    H148349   6.683   3.752  14.165 -1.1780 -1.0861 -0.1051
 8978TIP3    H248350   6.585   3.673  14.250  0.9075 -2.0050  1.5227
 8979TIP3   OH248351   1.836   4.702   1.300 -0.0001 -0.2595  1.0122
 8979TIP3    H148352   1.820   4.680   1.392 -0.4109 -1.4415  0.6672
 8979TIP3    H248353   1.842   4.618   1.256  0.0433  0.3022 -0.0729
 8980TIP3   OH248354   1.001   0.742   3.567  0.2092 -0.1179  0.0776
 8980TIP3    H148355   0.987   0.823   3.518 -3.3156 -0.5129  0.1830
 8980TIP3    H248356   1.014   0.771   3.657  0.6752  0.3654 -0.1401
 8981TIP3   OH248357   1.397   6.405   9.945 -0.7880 -0.2017 -0.3876
 8981TIP3    H148358   1.392   6.432  10.037 -0.2421 -1.2888 -0.0265
 8981TIP3    H248359   1.306   6.409   9.914 -1.1616 -1.0098  0.5616
 8982TIP3   OH248360   0.182   3.810  10.571 -0.0663  0.3079  0.0209
 8982TIP3    H148361   0.235   3.885  10.545  2.1503 -1.5545 -1.1081
 8982TIP3    H248362   0.234   3.765  10.638 -0.4643 -1.2552 -0.6735
 8983TIP3   OH248363   3.679   3.229  11.410 -0.1915 -0.7022 -0.2522
 8983TIP3    H148364   3.629   3.281  11.346 -1.5738 -0.5342  0.9199
 8983TIP3    H248365   3.695   3.146  11.366  1.1620  0.3208 -1.7833
 8984TIP3   OH248366   1.049   3.123  16.561 -0.4790  0.5525  0.4595
 8984TIP3    H148367   0.991   3.133  16.485 -1.3707  1.4964  1.2495
 8984TIP3    H248368   1.003   3.165  16.633 -0.4090 -1.7258  1.9526
 8985TIP3   OH248369   5.211   0.949   5.180  0.1986  0.3481  0.3698
 8985TIP3    H148370   5.267   0.940   5.257 -0.6692  0.7382  1.0540
 8985TIP3    H248371   5.165   0.866   5.174  0.7097  0.0878 -0.1007
 8986TIP3   OH248372   5.643   6.495  14.069  0.5972 -0.7490 -0.2747
 8986TIP3    H148373   5.612   6.455  14.150  2.1940  1.0358  1.3185
 8986TIP3    H248374   5.699   6.429  14.029  3.5007 -0.1696  2.4896
 8987TIP3   OH248375   3.999   3.195  11.967  0.8591 -0.4038 -0.3606
 8987TIP3    H148376   3.999   3.147  12.050  1.1601  0.3159  0.0605
 8987TIP3    H248377   3.909   3.190  11.937  0.4784  0.3648  0.6168
 8988TIP3   OH248378   2.558   2.391  11.763 -0.5995 -0.5167  0.2505
 8988TIP3    H148379   2.517   2.319  11.716 -1.3317 -0.7658  1.2504
 8988TIP3    H248380   2.541   2.373  11.855 -2.9309  2.1458  0.4741
 8989TIP3   OH248381   4.856   3.952  14.824 -0.7294 -0.2889 -0.2866
 8989TIP3    H148382   4.814   3.963  14.910  0.2661 -0.7111  0.2669
 8989TIP3    H248383   4.881   4.041  14.798  1.2063 -0.3742  1.0408
 8990TIP3   OH248384   0.935   3.441  15.140 -0.0280  0.3742 -0.1354
 8990TIP3    H148385   0.902   3.530  15.152 -1.6672 -0.0909 -0.9174
 8990TIP3    H248386   1.029   3.448  15.157 -0.5689  1.6002  3.1207
 8991TIP3   OH248387   5.729   3.177  13.600  0.2761 -0.7609  0.0008
 8991TIP3    H148388   5.707   3.161  13.691  0.2260 -2.2429 -0.2457
 8991TIP3    H248389   5.768   3.096  13.570  1.2557  0.0570 -1.0225
 8992TIP3   OH248390   5.568   1.245   1.524 -0.4000  0.4578  0.2346
 8992TIP3    H148391   5.506   1.180   1.490  1.3013 -0.0360 -2.1635
 8992TIP3    H248392   5.641   1.193   1.558 -0.5298  1.0635  1.4890
 8993TIP3   OH248393   2.225   2.549  16.414 -0.1157 -0.5282  0.0105
 8993TIP3    H148394   2.130   2.550  16.402  0.1582 -0.6206 -3.0247
 8993TIP3    H248395   2.261   2.553  16.325  2.7449 -1.1173  1.0088
 8994TIP3   OH248396   3.466   5.070  12.454  1.0009  0.0124 -0.1847
 8994TIP3    H148397   3.386   5.091  12.502  0.9849  1.2857 -0.7349
 8994TIP3    H248398   3.442   4.996  12.398 -0.3388  1.5449 -1.7075
 8995TIP3   OH248399   5.618   3.324  14.625  0.3251 -0.2294  0.2496
 8995TIP3    H148400   5.674   3.264  14.578  0.1716 -0.1710 -0.0090
 8995TIP3    H248401   5.571   3.269  14.688  0.5576 -0.3006  0.3606
 8996TIP3   OH248402   1.215   0.613  13.455  0.0410  0.4296  0.3502
 8996TIP3    H148403   1.148   0.582  13.517 -1.4322  0.1452 -1.3109
 8996TIP3    H248404   1.297   0.582  13.492 -1.0786 -3.1726  0.2517
 8997TIP3   OH248405   6.485   4.038  15.253  0.4652 -0.4376 -0.2108
 8997TIP3    H148406   6.531   4.002  15.177  0.8758  0.4931 -0.4202
 8997TIP3    H248407   6.397   4.003  15.246  0.9432 -1.7290 -0.1693
 8998TIP3   OH248408   3.273   1.394  13.945 -0.2181  0.1316  0.0366
 8998TIP3    H148409   3.331   1.470  13.946 -0.9921  0.7377  0.0919
 8998TIP3    H248410   3.265   1.370  14.038 -0.4475  0.3643  0.0800
 8999TIP3   OH248411   3.367   5.081   0.077 -0.0467  0.0024 -0.0600
 8999TIP3    H148412   3.350   5.115   0.165 -0.0814  0.0074 -0.0685
 8999TIP3    H248413   3.358   5.157   0.020  2.9791  0.6971  0.2458
 9000TIP3   OH248414   6.604   4.060  16.285 -0.0992 -0.0286 -0.2275
 9000TIP3    H148415   6.643   4.040  16.370  0.3090  3.1891  0.4853
 9000TIP3    H248416   6.656   4.134  16.252  0.6217 -1.9585 -3.9774
 9001TIP3   OH248417   1.529   1.149   0.555 -0.3650 -0.4733 -0.0663
 9001TIP3    H148418   1.533   1.206   0.478 -0.4696 -1.0754 -0.5222
 9001TIP3    H248419   1.436   1.128   0.564 -0.2882 -0.8279 -0.0891
 9002TIP3   OH248420   1.779   0.896  10.869  0.3733  0.6538  0.3559
 9002TIP3    H148421   1.773   0.889  10.774  0.4767  0.3638  0.3697
 9002TIP3    H248422   1.716   0.831  10.901  0.1476  0.9327  0.4866
 9003TIP3   OH248423   1.499   0.133   1.147  0.0253 -0.4728  0.2104
 9003TIP3    H148424   1.553   0.057   1.127  1.5751  0.7373 -0.4939
 9003TIP3    H248425   1.434   0.101   1.209 -0.3190 -2.6846 -1.1887
 9004TIP3   OH248426   2.817   2.244   6.040  0.6968  0.4907 -0.1234
 9004TIP3    H148427   2.824   2.149   6.035  1.0401  0.5037  0.0467
 9004TIP3    H248428   2.755   2.260   6.111  1.8658  0.4067  0.9618
 9005TIP3   OH248429   5.054   2.318  12.445 -0.3577 -0.0315 -0.2473
 9005TIP3    H148430   5.067   2.308  12.539 -1.8686 -0.1311 -0.0245
 9005TIP3    H248431   5.023   2.232  12.415  0.4798 -0.1152 -0.9116
 9006TIP3   OH248432   2.157   4.760   3.543 -0.3705  0.1497  0.3954
 9006TIP3    H148433   2.244   4.729   3.517  1.2309  1.3991  3.6787
 9006TIP3    H248434   2.138   4.832   3.483  1.5975  0.8731  0.5775
 9007TIP3   OH248435   5.104   2.077  11.858  0.1000  0.6706 -0.6786
 9007TIP3    H148436   5.043   2.102  11.788 -0.6696  0.3353 -0.1378
 9007TIP3    H248437   5.191   2.085  11.818 -0.3410  0.2513 -1.7459
 9008TIP3   OH248438   5.270   6.113  11.819  0.5680  0.6604 -0.3829
 9008TIP3    H148439   5.338   6.176  11.843 -0.2632  1.7458 -0.7510
 9008TIP3    H248440   5.293   6.033  11.866  2.0032  1.0473 -0.3868
 9009TIP3   OH248441   1.209   2.311  12.572 -0.0174 -0.4219 -0.4027
 9009TIP3    H148442   1.180   2.395  12.606 -1.0256 -1.1465  0.5917
 9009TIP3    H248443   1.128   2.264  12.551  0.4263 -1.9744  1.1516
 9010TIP3   OH248444   5.035   2.202   3.661 -0.2647 -0.0058  0.4066
 9010TIP3    H148445   5.026   2.256   3.740  0.9133  0.2634  0.3783
 9010TIP3    H248446   4.961   2.227   3.606 -1.2320 -0.3619  1.5119
 9011TIP3   OH248447   6.015   0.167   4.159 -0.3405  0.4362  0.2440
 9011TIP3    H148448   5.927   0.140   4.182 -0.8132  1.2125 -0.5739
 9011TIP3    H248449   6.065   0.161   4.240 -1.7294  2.2510  1.3047
 9012TIP3   OH248450   0.434   6.148   0.095 -0.1818 -0.1176 -0.5042
 9012TIP3    H148451   0.447   6.066   0.143 -0.7742  0.4358  0.6574
 9012TIP3    H248452   0.479   6.135   0.012  1.9624 -0.6798  0.6670
 9013TIP3   OH248453   4.657   6.262   2.030  0.2547 -0.0686  0.3597
 9013TIP3    H148454   4.670   6.331   2.095 -0.1415  2.5396 -2.1272
 9013TIP3    H248455   4.562   6.252   2.024  0.3016 -0.5723  0.4507
 9014TIP3   OH248456   4.926   3.495   4.262  0.0709  0.2715  0.6272
 9014TIP3    H148457   4.842   3.489   4.307  0.2577 -3.0734  0.7819
 9014TIP3    H248458   4.986   3.533   4.326 -0.9288  1.0662  1.1085
 9015TIP3   OH248459   1.080   6.559   2.347 -0.5132 -0.2371 -0.0941
 9015TIP3    H148460   1.075   6.589   2.437 -0.6237 -1.3162  0.2711
 9015TIP3    H248461   1.173   6.563   2.325 -0.6308  1.5373 -0.4947
 9016TIP3   OH248462   2.832   0.694   4.212  0.2891  0.6760 -0.1385
 9016TIP3    H148463   2.800   0.634   4.144 -3.0084  0.2366  1.6261
 9016TIP3    H248464   2.910   0.651   4.247  1.2857  0.2573 -2.6184
 9017TIP3   OH248465   5.700   2.697  15.703  0.1375 -0.2940 -0.1140
 9017TIP3    H148466   5.773   2.666  15.651 -0.2780 -0.4840 -0.5881
 9017TIP3    H248467   5.678   2.782  15.664  1.2550  0.6217  1.1586
 9018TIP3   OH248468   6.129   3.052   4.569 -0.2639 -0.7595 -0.3539
 9018TIP3    H148469   6.146   3.029   4.478 -2.4678 -1.5385 -0.6145
 9018TIP3    H248470   6.216   3.069   4.606  0.6447  0.1150 -2.7123
 9019TIP3   OH248471   5.860   1.028   0.670 -0.1025 -0.3141 -0.6598
 9019TIP3    H148472   5.767   1.010   0.682  0.2741 -0.7997  2.6320
 9019TIP3    H248473   5.904   0.946   0.693  1.1679  0.1386 -1.3632
 9020TIP3   OH248474   4.953   4.999  16.858  0.4852  0.4818 -0.2151
 9020TIP3    H148475   4.873   5.037  16.894  0.4960  0.5018 -0.2124
 9020TIP3    H248476   4.979   5.059  16.788 -0.5913 -0.5477 -1.5601
 9021TIP3   OH248477   5.349   5.536  13.015  0.1303  0.3177 -0.0682
 9021TIP3    H148478   5.367   5.545  13.109  0.2781  1.5344 -0.1974
 9021TIP3    H248479   5.392   5.453  12.991  0.1101  0.0019  0.9250
 9022TIP3   OH248480   3.484   5.902   2.447  0.9061  0.0187  0.1623
 9022TIP3    H148481   3.453   5.883   2.359 -0.5401 -0.3959  0.7257
 9022TIP3    H248482   3.525   5.821   2.476 -1.7125 -1.1154  1.0874
 9023TIP3   OH248483   3.183   0.441   2.244  0.2797 -0.2528  0.5099
 9023TIP3    H148484   3.130   0.512   2.206  0.4459 -0.1844  0.4029
 9023TIP3    H248485   3.140   0.361   2.215 -2.4026 -0.3117  3.9732
 9024TIP3   OH248486   5.504   6.304   1.664  1.0247  0.8161  0.0645
 9024TIP3    H148487   5.421   6.315   1.709  1.3793  0.3859  0.8403
 9024TIP3    H248488   5.571   6.330   1.728  1.6215 -1.3017  0.3816
 9025TIP3   OH248489   4.308   3.695   4.379  0.2861 -0.2533  0.8179
 9025TIP3    H148490   4.238   3.694   4.314 -0.5222 -0.0385  1.6699
 9025TIP3    H248491   4.297   3.777   4.426  0.1688 -0.8937  1.9557
 9026TIP3   OH248492   1.080   2.897  16.730 -0.1732  0.6160  0.7164
 9026TIP3    H148493   1.037   2.953  16.665 -0.0421 -0.8521 -0.6869
 9026TIP3    H248494   1.076   2.948  16.811 -0.7480  2.3139 -0.3192
 9027TIP3   OH248495   4.661   4.988  13.027  0.1948  0.3072 -0.2999
 9027TIP3    H148496   4.662   4.927  12.954  0.0693 -0.0879  0.0273
 9027TIP3    H248497   4.598   5.056  13.000  0.1449  0.1610 -0.5554
 9028TIP3   OH248498   0.362   4.225  13.360  0.1605 -0.0669 -0.0016
 9028TIP3    H148499   0.382   4.247  13.269  1.2356 -0.7509  0.0490
 9028TIP3    H248500   0.348   4.130  13.359 -1.3255  0.1286  0.3037
 9029TIP3   OH248501   4.669   2.559  12.894 -0.4678 -0.6232  0.5187
 9029TIP3    H148502   4.622   2.548  12.811 -0.5161 -0.4591  0.5238
 9029TIP3    H248503   4.651   2.649  12.920  2.2581  0.4992 -1.0249
 9030TIP3   OH248504   5.422   5.802  15.047  0.0332 -0.2279  0.1258
 9030TIP3    H148505   5.486   5.740  15.012 -0.8078 -0.0024 -1.9699
 9030TIP3    H248506   5.459   5.831  15.130  2.1926 -0.7968 -0.5820
 9031TIP3   OH248507   4.276   0.306   4.832  0.0234  0.7964 -0.0097
 9031TIP3    H148508   4.361   0.350   4.826 -0.5885  2.1356  0.6261
 9031TIP3    H248509   4.284   0.247   4.906  0.2311  1.3337  0.3982
 9032TIP3   OH248510   0.580   5.928  13.548 -0.2556  0.3443 -0.1572
 9032TIP3    H148511   0.525   5.953  13.623  1.0164  0.5254  0.7595
 9032TIP3    H248512   0.638   5.860  13.583 -1.4822 -1.6150 -1.7539
 9033TIP3   OH248513   3.847   3.639  14.708  0.6729  0.5412 -0.2667
 9033TIP3    H148514   3.915   3.633  14.641  1.1126  0.4537  0.1858
 9033TIP3    H248515   3.880   3.703  14.771  0.6190  0.0357  0.2807
 9034TIP3   OH248516   4.454   4.155   3.769  0.7455  0.2643 -0.3099
 9034TIP3    H148517   4.502   4.082   3.730  0.9177  0.1172  0.1660
 9034TIP3    H248518   4.521   4.204   3.817  0.8389  1.3479 -1.4900
 9035TIP3   OH248519   6.773   2.269  13.444  0.3168  0.1193  0.3732
 9035TIP3    H148520   6.814   2.285  13.359 -0.5709 -1.0638 -0.3106
 9035TIP3    H248521   6.679   2.276  13.427 -0.1178 -3.5558  0.3727
 9036TIP3   OH248522   3.473   2.947  12.710  0.1944 -0.3017  0.1273
 9036TIP3    H148523   3.398   2.965  12.767 -1.0720  1.4489 -1.9363
 9036TIP3    H248524   3.442   2.881  12.649  0.1285  0.7781 -1.0406
 9037TIP3   OH248525   5.651   1.126   4.397 -0.7331 -0.3798  0.3128
 9037TIP3    H148526   5.615   1.162   4.316 -1.3593  0.4211  0.9363
 9037TIP3    H248527   5.741   1.157   4.399 -0.5139 -0.9352 -0.3820
 9038TIP3   OH248528   6.522   5.206  16.361 -0.6858 -0.1102  0.4276
 9038TIP3    H148529   6.455   5.170  16.304  0.8634 -2.0910 -0.2959
 9038TIP3    H248530   6.545   5.290  16.322 -1.2711 -0.3785 -0.5222
 9039TIP3   OH248531   1.495   4.737  15.043 -0.3165  0.5095 -0.6063
 9039TIP3    H148532   1.413   4.691  15.062 -0.6430  1.1211 -0.5026
 9039TIP3    H248533   1.478   4.780  14.959 -0.9065  2.4377  0.4405
 9040TIP3   OH248534   0.670   5.707   4.662 -0.0379 -0.0220  0.1402
 9040TIP3    H148535   0.753   5.704   4.708  0.0893  1.8953  0.0931
 9040TIP3    H248536   0.692   5.735   4.573 -0.5815 -1.0143 -0.3302
 9041TIP3   OH248537   6.250   6.333  16.505 -0.0590 -0.7844 -0.1856
 9041TIP3    H148538   6.194   6.395  16.457 -0.7389 -0.4418  1.0119
 9041TIP3    H248539   6.233   6.352  16.597  2.0606 -0.6541  0.2256
 9042TIP3   OH248540   5.289   5.584  15.333  0.2975 -0.2544 -0.2488
 9042TIP3    H148541   5.384   5.594  15.340  0.2803  0.3920 -0.8695
 9042TIP3    H248542   5.275   5.549  15.244  0.0114 -1.2081  0.1529
 9043TIP3   OH248543   1.068   3.502   6.023 -0.2723  0.0268 -0.5017
 9043TIP3    H148544   1.069   3.446   5.945 -0.5429 -0.8450  0.1034
 9043TIP3    H248545   1.013   3.455   6.085 -0.5828  1.0247 -0.0049
 9044TIP3   OH248546   6.210   0.765   1.312 -0.2277 -0.9208  0.0843
 9044TIP3    H148547   6.166   0.696   1.261 -1.2623  0.2717 -0.6858
 9044TIP3    H248548   6.286   0.789   1.260 -0.2685 -0.9775 -0.0024
 9045TIP3   OH248549   4.127   4.893  11.433  0.2913 -0.1629 -0.1854
 9045TIP3    H148550   4.161   4.839  11.504  0.0743 -0.0320  0.0224
 9045TIP3    H248551   4.091   4.831  11.370  1.3212 -0.3287 -0.6323
 9046TIP3   OH248552   5.321   0.362  10.600  0.5068 -0.1093 -0.2075
 9046TIP3    H148553   5.400   0.324  10.640  0.6814  0.2611 -0.2020
 9046TIP3    H248554   5.354   0.415  10.527  0.2342 -0.2601 -0.4448
 9047TIP3   OH248555   1.729   3.350   3.313  0.2256 -0.0265  0.4367
 9047TIP3    H148556   1.802   3.405   3.342  3.2419 -3.4882  0.1787
 9047TIP3    H248557   1.705   3.299   3.391 -0.9598  0.0128  0.1244
 9048TIP3   OH248558   3.608   4.695   4.093 -0.5827  0.3552 -0.4861
 9048TIP3    H148559   3.670   4.632   4.129 -0.1090  0.9384 -0.2731
 9048TIP3    H248560   3.595   4.667   4.002 -0.1491  0.1279 -0.4788
 9049TIP3   OH248561   2.629   2.082   5.477  0.4725 -0.6289 -0.2195
 9049TIP3    H148562   2.722   2.079   5.455  0.3183  0.4082 -1.0757
 9049TIP3    H248563   2.601   2.170   5.453 -0.2929 -0.2354  1.8906
 9050TIP3   OH248564   5.164   1.624   3.965 -0.1397 -0.0963  0.2730
 9050TIP3    H148565   5.068   1.634   3.965  0.0778  3.1260  0.2518
 9050TIP3    H248566   5.187   1.614   3.873 -0.3735  0.3611  0.1638
 9051TIP3   OH248567   3.966   6.370   5.716 -0.3896  0.2257 -0.2299
 9051TIP3    H148568   3.887   6.325   5.687 -0.0634  0.2188 -1.1490
 9051TIP3    H248569   4.014   6.389   5.635  0.2552  0.7732  0.2663
 9052TIP3   OH248570   4.190   1.641   4.845  0.3747 -0.1325  0.4392
 9052TIP3    H148571   4.267   1.658   4.792  1.3234 -0.1028  1.7861
 9052TIP3    H248572   4.213   1.673   4.932 -2.1353  2.4331  0.3266
 9053TIP3   OH248573   2.775   4.409   5.119  0.1838  0.3356  0.6036
 9053TIP3    H148574   2.815   4.326   5.148 -0.5180  0.0853  0.8662
 9053TIP3    H248575   2.812   4.475   5.178 -0.2827  0.0079  1.2777
 9054TIP3   OH248576   3.676   2.655   5.754 -0.0221 -0.1009 -0.2984
 9054TIP3    H148577   3.619   2.601   5.700 -0.0329  1.4581 -1.9591
 9054TIP3    H248578   3.622   2.680   5.829 -0.7025 -0.6522 -0.6021
 9055TIP3   OH248579   1.452   0.641   0.182 -0.4911 -0.2176  0.1630
 9055TIP3    H148580   1.470   0.569   0.242  0.2272  1.0653  1.5805
 9055TIP3    H248581   1.449   0.719   0.239  1.8437  1.3013 -1.6097
 9056TIP3   OH248582   4.853   1.317  13.572 -0.1366  0.2273 -0.2373
 9056TIP3    H148583   4.805   1.291  13.493 -2.0246  2.4163  0.0885
 9056TIP3    H248584   4.944   1.320  13.544 -0.3475 -2.0474 -1.4484
 9057TIP3   OH248585   0.465   3.814   5.633  0.3177  0.6274  0.0136
 9057TIP3    H148586   0.459   3.903   5.599  2.5208  0.8737  0.1113
 9057TIP3    H248587   0.506   3.824   5.719 -0.3135 -0.4093  0.4491
 9058TIP3   OH248588   0.193   2.619   5.046 -0.1219  0.0169 -0.2105
 9058TIP3    H148589   0.157   2.650   4.963 -0.7919 -1.2874 -0.4422
 9058TIP3    H248590   0.274   2.573   5.021  0.8641  1.5189  0.1264
 9059TIP3   OH248591   2.193   4.602  15.829 -0.5221  0.3067  0.2488
 9059TIP3    H148592   2.234   4.665  15.770  0.3286 -0.2296  0.2634
 9059TIP3    H248593   2.111   4.578  15.786 -0.3362  0.6020 -0.2720
 9060TIP3   OH248594   2.860   3.886   2.015 -0.0232  0.1577  0.6177
 9060TIP3    H148595   2.831   3.879   1.924  0.5714  0.4108  0.4041
 9060TIP3    H248596   2.886   3.797   2.039 -0.7133 -0.0215  0.7278
 9061TIP3   OH248597   0.983   5.948   4.250  0.5030 -0.3138  0.9578
 9061TIP3    H148598   0.968   6.042   4.251  0.4598 -0.2377 -1.4344
 9061TIP3    H248599   1.006   5.926   4.340 -1.1368  1.6795  1.9334
 9062TIP3   OH248600   0.249   6.652  17.133  0.6572  0.1034 -0.0747
 9062TIP3    H148601   0.162   6.685  17.156  0.6873  1.0418 -1.1912
 9062TIP3    H248602   0.310   6.720  17.163  1.2355 -1.4436  2.5355
 9063TIP3   OH248603   0.140   6.043  12.228 -0.1088  0.2601  0.4192
 9063TIP3    H148604   0.110   6.123  12.186  0.8250  0.0253 -0.7679
 9063TIP3    H248605   0.232   6.059  12.247 -0.0406 -0.3410  0.6234
 9064TIP3   OH248606   4.000   0.472   4.974  0.3759  0.1621 -0.1446
 9064TIP3    H148607   4.087   0.454   4.940  0.3157 -0.6057  0.0884
 9064TIP3    H248608   4.013   0.541   5.039  0.6292  0.9138 -0.9791
 9065TIP3   OH248609   5.429   5.519  12.356 -0.4014 -0.3745 -0.9290
 9065TIP3    H148610   5.461   5.597  12.310 -0.4654  0.4924  0.4367
 9065TIP3    H248611   5.500   5.456  12.347  0.0024  0.1276 -1.3644
 9066TIP3   OH248612   0.609   3.693   6.051 -0.2677  1.0044 -0.3322
 9066TIP3    H148613   0.652   3.632   5.991  0.9734 -0.3132  1.7730
 9066TIP3    H248614   0.592   3.771   5.998  0.8085 -0.0617 -2.3503
 9067TIP3   OH248615   4.062   3.211  13.245  0.1076 -0.3486 -0.2727
 9067TIP3    H148616   4.075   3.291  13.295  0.2567 -0.8968  0.5909
 9067TIP3    H248617   3.972   3.216  13.212 -0.5335 -0.6780  1.3603
 9068TIP3   OH248618   4.579   6.351  16.947  0.0963  0.4763 -0.0952
 9068TIP3    H148619   4.615   6.284  16.889  2.5004  0.0528  1.7322
 9068TIP3    H248620   4.531   6.302  17.014 -0.2089  0.7612 -0.1017
 9069TIP3   OH248621   2.365   0.947  17.222 -0.0337  0.2478  0.4278
 9069TIP3    H148622   2.329   1.036  17.232 -0.3144  0.1625  0.1792
 9069TIP3    H248623   2.295   0.897  17.181  0.7544  0.3481 -1.0780
 9070TIP3   OH248624   1.458   1.872  13.761 -0.0973  0.3798  0.0089
 9070TIP3    H148625   1.502   1.794  13.796 -0.5235 -1.0746 -2.4439
 9070TIP3    H248626   1.495   1.883  13.673  0.6619  3.6037  0.6073
 9071TIP3   OH248627   1.813   2.701   5.499 -0.4622 -0.0883  0.2055
 9071TIP3    H148628   1.763   2.620   5.494 -0.3103 -0.2049  0.5556
 9071TIP3    H248629   1.753   2.768   5.466  0.5207 -0.7884 -3.5082
 9072TIP3   OH248630   1.213   3.693   3.385  0.6162 -0.0267  0.1490
 9072TIP3    H148631   1.143   3.629   3.370 -1.1577  1.6581  0.7523
 9072TIP3    H248632   1.285   3.664   3.329 -0.8359 -1.4224 -1.0956
 9073TIP3   OH248633   3.917   2.933  12.605 -0.2203  0.3056  0.8145
 9073TIP3    H148634   3.997   2.979  12.633 -0.4394  1.2402 -0.0469
 9073TIP3    H248635   3.947   2.844  12.586  0.2464  0.1012  2.3364
 9074TIP3   OH248636   4.064   1.027   4.017 -0.3373 -0.1713 -0.3358
 9074TIP3    H148637   4.064   1.070   4.103 -0.5206 -0.2167 -0.3128
 9074TIP3    H248638   4.006   1.082   3.964 -0.9008 -0.6250 -0.1912
 9075TIP3   OH248639   5.286   2.544   4.326  0.6099 -0.6084  0.0202
 9075TIP3    H148640   5.231   2.573   4.399  0.4137  1.9585 -1.0565
 9075TIP3    H248641   5.374   2.571   4.351  0.6316 -0.2830 -0.4094
 9076TIP3   OH248642   6.756   1.088   1.341  0.4669 -0.1961  0.5087
 9076TIP3    H148643   6.835   1.035   1.333  0.0802 -0.8135  0.7220
 9076TIP3    H248644   6.742   1.123   1.253  1.4293  0.5840  0.6522
 9077TIP3   OH248645   6.731   4.865  13.128  0.4353  0.2083 -0.5394
 9077TIP3    H148646   6.656   4.865  13.187  1.3823 -0.6919  0.7176
 9077TIP3    H248647   6.694   4.847  13.042 -0.6514 -1.8798  0.2885
 9078TIP3   OH248648   4.238   1.973  15.859 -0.7298  0.0421  0.5338
 9078TIP3    H148649   4.193   2.057  15.861 -0.7371  0.0304  1.9215
 9078TIP3    H248650   4.324   1.992  15.822 -0.8602  0.6055  0.5186
 9079TIP3   OH248651   5.741   6.482  12.481 -0.3216 -0.7226 -0.4763
 9079TIP3    H148652   5.668   6.432  12.518 -0.5483 -0.1992 -0.2133
 9079TIP3    H248653   5.810   6.476  12.546 -1.1600  1.2921  0.6896
 9080TIP3   OH248654   2.541   6.256  13.382  1.1901 -0.9345 -0.6164
 9080TIP3    H148655   2.611   6.218  13.329  1.2560  0.9701 -1.9844
 9080TIP3    H248656   2.582   6.332  13.425  0.2304 -0.3620 -0.6863
 9081TIP3   OH248657   4.659   4.268  15.376  0.0573 -0.2648 -0.2825
 9081TIP3    H148658   4.618   4.276  15.462  0.6796 -1.6058  0.1749
 9081TIP3    H248659   4.716   4.345  15.370 -0.5439  0.2357  0.1740
 9082TIP3   OH248660   4.677   3.250  16.637  0.0100  0.1329  0.2394
 9082TIP3    H148661   4.634   3.313  16.578 -0.3729 -0.6427 -0.3217
 9082TIP3    H248662   4.768   3.278  16.640 -0.6398  2.4044  2.1985
 9083TIP3   OH248663   3.969   1.858  16.273  0.1170 -0.0252  0.3131
 9083TIP3    H148664   3.975   1.889  16.183  0.7847 -1.1833 -0.0664
 9083TIP3    H248665   3.879   1.825  16.281 -0.0663  0.4424  0.1995
 9084TIP3   OH248666   4.189   1.767   2.971  0.2432  0.2425 -0.1052
 9084TIP3    H148667   4.282   1.786   2.960 -0.2299  1.8761 -1.6687
 9084TIP3    H248668   4.157   1.755   2.882 -0.8440 -1.4862  0.4739
 9085TIP3   OH248669   2.555   0.998  14.331 -0.3089  0.0393  0.1094
 9085TIP3    H148670   2.501   0.956  14.264  1.0422 -1.4667 -0.1185
 9085TIP3    H248671   2.548   0.941  14.407  1.7077 -0.7978 -0.2577
 9086TIP3   OH248672   6.354   1.260   0.219  0.3336 -0.1587  0.1239
 9086TIP3    H148673   6.354   1.260   0.314 -2.3492  2.4006  0.2687
 9086TIP3    H248674   6.264   1.237   0.195 -0.2683  3.3662 -1.5436
 9087TIP3   OH248675   4.686   1.877   1.863 -0.5510 -0.6474 -0.2217
 9087TIP3    H148676   4.716   1.912   1.947  1.3453 -1.2588 -0.5911
 9087TIP3    H248677   4.673   1.783   1.879 -3.3098 -0.2807  0.1566
 9088TIP3   OH248678   5.304   5.325   0.153 -0.2041 -0.7496 -0.6458
 9088TIP3    H148679   5.220   5.299   0.190  0.1786  0.1172  0.9435
 9088TIP3    H248680   5.312   5.418   0.174  0.0989 -0.1864 -2.9109
 9089TIP3   OH248681   2.351   2.740   1.153 -0.4316 -0.0896 -0.2584
 9089TIP3    H148682   2.278   2.684   1.124  0.4871 -0.9228 -1.0477
 9089TIP3    H248683   2.380   2.699   1.234 -0.7627  0.1788 -0.0011
 9090TIP3   OH248684   4.783   4.820   5.841 -0.3458  0.1796 -0.0256
 9090TIP3    H148685   4.819   4.801   5.927 -0.2671  0.0867 -0.0787
 9090TIP3    H248686   4.859   4.827   5.784 -0.4408 -0.6529 -0.2650
 9091TIP3   OH248687   6.575   0.654  14.826  0.3098  0.7363  0.0482
 9091TIP3    H148688   6.500   0.595  14.841  2.7376 -2.5609  0.4012
 9091TIP3    H248689   6.564   0.684  14.736  0.0908 -2.2778 -1.0640
 9092TIP3   OH248690   1.722   6.305   2.201  0.3751 -0.2384 -0.0036
 9092TIP3    H148691   1.684   6.279   2.285 -0.2629 -0.6122 -0.3976
 9092TIP3    H248692   1.791   6.241   2.185  0.3473 -0.3027  0.1272
 9093TIP3   OH248693   5.101   3.590   0.033  0.1412 -0.2685  0.1726
 9093TIP3    H148694   5.098   3.677  -0.007 -0.9633 -0.1034  0.5858
 9093TIP3    H248695   5.147   3.535  -0.030 -1.5480 -0.0235 -1.3419
 9094TIP3   OH248696   2.510   4.168   5.109 -0.4142 -0.2113  0.0580
 9094TIP3    H148697   2.487   4.179   5.201  2.4491 -1.6539  1.0785
 9094TIP3    H248698   2.494   4.076   5.090 -0.7847  0.0236 -0.8404
 9095TIP3   OH248699   2.950   0.551   3.378 -0.2168 -0.3929  0.4618
 9095TIP3    H148700   2.920   0.482   3.320 -0.3212 -0.6203  0.7841
 9095TIP3    H248701   3.010   0.604   3.325  0.1548 -0.9501  0.3245
 9096TIP3   OH248702   5.435   3.956   4.901 -0.6942 -0.0893  0.0202
 9096TIP3    H148703   5.502   3.907   4.853 -0.0629 -0.7517  1.4993
 9096TIP3    H248704   5.381   3.888   4.940 -1.4425  0.4403 -0.0896
 9097TIP3   OH248705   3.627   6.403   4.253 -0.0521 -0.2385 -0.5912
 9097TIP3    H148706   3.615   6.458   4.176  2.6861  0.1285 -0.8546
 9097TIP3    H248707   3.638   6.466   4.325 -1.1761 -0.5655 -0.0995
 9098TIP3   OH248708   5.467   3.913  10.581 -0.4128 -0.2614 -0.3260
 9098TIP3    H148709   5.415   3.978  10.535  0.9471  0.5480 -0.7811
 9098TIP3    H248710   5.478   3.948  10.669 -2.0988 -1.2943  0.3482
 9099TIP3   OH248711   6.219   6.603   4.391  0.1978 -0.0386  0.5543
 9099TIP3    H148712   6.261   6.685   4.418 -0.0288 -0.6193  2.8723
 9099TIP3    H248713   6.287   6.536   4.403 -0.2799 -0.4799  0.8652
 9100TIP3   OH248714   6.680   1.579  15.942 -0.2780  0.4782 -0.5270
 9100TIP3    H148715   6.748   1.599  16.007  1.1750  3.6020 -2.7490
 9100TIP3    H248716   6.597   1.599  15.987  0.5460  0.7425  0.9289
 9101TIP3   OH248717   6.675   3.000  15.393  0.4637 -0.1362 -0.8781
 9101TIP3    H148718   6.597   3.040  15.431 -0.0247 -0.4677 -1.5280
 9101TIP3    H248719   6.748   3.051  15.429 -0.0442  0.1404 -0.2282
 9102TIP3   OH248720   5.511   0.795  16.163 -0.6776  0.3277 -0.8314
 9102TIP3    H148721   5.502   0.728  16.096 -0.8870  1.3183 -1.8249
 9102TIP3    H248722   5.524   0.747  16.245 -1.3842 -0.9117 -1.4346
 9103TIP3   OH248723   6.650   4.869   0.379  0.9060  0.1340  0.1838
 9103TIP3    H148724   6.704   4.929   0.431  1.5177  0.4366 -0.7849
 9103TIP3    H248725   6.583   4.926   0.339  0.0567 -0.1859  1.0940
 9104TIP3   OH248726   0.610   4.218  15.953  0.2915  0.3565  0.0574
 9104TIP3    H148727   0.625   4.294  15.897 -1.5730  1.9854  1.6308
 9104TIP3    H248728   0.599   4.254  16.041  0.9725 -1.9148  1.1463
 9105TIP3   OH248729   2.938   6.172  12.271 -0.1457 -0.9617  0.0545
 9105TIP3    H148730   2.897   6.255  12.247 -0.4838 -1.3105 -0.6000
 9105TIP3    H248731   2.879   6.134  12.336  0.6833 -0.0959  1.3487
 9106TIP3   OH248732   6.362   2.366   3.516  0.3450 -0.4159 -0.0383
 9106TIP3    H148733   6.327   2.410   3.593  1.5598 -1.3051  1.0636
 9106TIP3    H248734   6.357   2.432   3.446 -0.4108  0.5290  0.8847
 9107TIP3   OH248735   1.050   4.290   1.552  0.1056  0.5914 -0.2829
 9107TIP3    H148736   1.038   4.206   1.596 -2.5177  0.4556 -1.0777
 9107TIP3    H248737   1.139   4.287   1.518  1.0895 -0.6341  2.1642
 9108TIP3   OH248738   0.639   0.333   0.355 -0.2079  0.5788  0.4196
 9108TIP3    H148739   0.581   0.312   0.282 -1.1537  1.9654  0.7508
 9108TIP3    H248740   0.695   0.404   0.322 -0.2899  0.8566  0.8689
 9109TIP3   OH248741   4.570   0.788  10.946 -0.5631  0.0631 -0.9821
 9109TIP3    H148742   4.628   0.828  11.011 -2.5283  0.2587  0.7653
 9109TIP3    H248743   4.626   0.725  10.900  0.7873 -0.6564  1.4296
 9110TIP3   OH248744   3.334   6.065  12.612  0.5993  0.0695 -0.0167
 9110TIP3    H148745   3.331   5.999  12.681  0.6689  1.0730  0.9801
 9110TIP3    H248746   3.411   6.043  12.560  0.1519 -1.1044 -0.2117
 9111TIP3   OH248747   4.290   3.927   2.807  0.2381  1.1804 -0.8250
 9111TIP3    H148748   4.316   3.936   2.898  1.4279 -0.4798 -0.9534
 9111TIP3    H248749   4.195   3.939   2.807 -0.3326 -2.1691  1.1974
 9112TIP3   OH248750   0.797   2.836  16.528 -0.2405  0.1051  0.4393
 9112TIP3    H148751   0.725   2.898  16.516 -0.9260 -1.1292 -2.8479
 9112TIP3    H248752   0.858   2.855  16.457  0.4691 -1.7449  0.4977
 9113TIP3   OH248753   1.275   3.002  14.338  0.2397  0.1358  0.6409
 9113TIP3    H148754   1.190   3.007  14.294 -0.3451 -2.0258  1.3955
 9113TIP3    H248755   1.306   3.092  14.340 -0.7119  0.6352 -2.1820
 9114TIP3   OH248756   4.706   5.742  15.450  0.5642  0.2085  0.1169
 9114TIP3    H148757   4.771   5.760  15.383  1.0016 -1.8085 -0.0677
 9114TIP3    H248758   4.748   5.769  15.532  1.8924 -1.4830  0.0585
 9115TIP3   OH248759   5.706   0.890  13.276  0.1466 -0.0660  0.5400
 9115TIP3    H148760   5.774   0.825  13.297  1.7953  0.5463 -2.3890
 9115TIP3    H248761   5.686   0.875  13.184 -1.6080  1.7196  0.5531
 9116TIP3   OH248762   0.070   5.402  13.802  0.7933  0.0657  0.1951
 9116TIP3    H148763   0.071   5.367  13.891 -0.2821  0.6304  0.4459
 9116TIP3    H248764   0.156   5.380  13.766  1.2750 -0.0768  1.4111
 9117TIP3   OH248765   5.747   1.393  14.970  0.0769  0.1922  0.4309
 9117TIP3    H148766   5.805   1.328  15.009 -0.0938 -0.1002  0.2069
 9117TIP3    H248767   5.734   1.362  14.880  0.1418  0.6368  0.2690
 9118TIP3   OH248768   0.785   2.941   3.914  0.5159  0.2405 -0.3484
 9118TIP3    H148769   0.858   2.879   3.919 -0.1395 -0.6587 -1.2825
 9118TIP3    H248770   0.825   3.027   3.918  1.4207 -0.2309  1.5036
 9119TIP3   OH248771   5.082   0.900  16.649  1.0222 -0.4395  0.1836
 9119TIP3    H148772   5.148   0.842  16.609  1.5953  1.0475 -1.1290
 9119TIP3    H248773   5.132   0.973  16.684  0.2421 -0.3751  1.1979
 9120TIP3   OH248774   1.845   1.989  14.690  0.2226  0.1699 -0.1732
 9120TIP3    H148775   1.811   1.974  14.778  0.6845  2.1138  0.3804
 9120TIP3    H248776   1.930   1.945  14.690  0.0352 -0.2038  0.1878
 9121TIP3   OH248777   5.642   2.072  16.324  0.7433 -0.0150 -0.6009
 9121TIP3    H148778   5.702   2.141  16.353  1.8496 -0.3488 -1.9790
 9121TIP3    H248779   5.638   2.083  16.229  0.1619 -1.2405 -0.7319
 9122TIP3   OH248780   3.761   4.316   0.149  0.3048  0.2650 -0.4968
 9122TIP3    H148781   3.680   4.283   0.186  1.1786 -2.0229 -0.4615
 9122TIP3    H248782   3.761   4.409   0.170 -0.2111 -0.4647  3.5300
 9123TIP3   OH248783   0.485   0.220  14.796  0.1229  0.1323  0.0961
 9123TIP3    H148784   0.474   0.158  14.868  1.1668 -0.5118 -0.2863
 9123TIP3    H248785   0.572   0.258  14.810  0.0752  0.4666 -0.4831
 9124TIP3   OH248786   3.754   5.754   5.826 -0.4682 -0.1318 -0.0324
 9124TIP3    H148787   3.698   5.739   5.750 -0.8501 -1.6292  0.5029
 9124TIP3    H248788   3.701   5.809   5.884  0.1678  1.7882 -1.1791
 9125TIP3   OH248789   0.588   2.035   5.018  0.2773  0.5126  0.2599
 9125TIP3    H148790   0.613   2.111   5.071  1.2475  2.5805 -2.9187
 9125TIP3    H248791   0.502   2.059   4.982 -1.3797 -1.7688  2.3127
 9126TIP3   OH248792   2.264   6.583  12.833 -0.4237  0.8110  0.2933
 9126TIP3    H148793   2.333   6.519  12.850 -1.6118 -1.5004 -2.4988
 9126TIP3    H248794   2.308   6.668  12.834  1.7209 -0.2361  1.9092
 9127TIP3   OH248795   5.042   0.757   2.430 -0.3083  0.2732 -1.1555
 9127TIP3    H148796   5.100   0.693   2.470 -0.3523 -0.7847 -2.7049
 9127TIP3    H248797   5.085   0.781   2.348 -0.1294  2.5232 -0.4784
 9128TIP3   OH248798   3.594   0.014   5.211  0.5354 -0.1939 -0.4229
 9128TIP3    H148799   3.669  -0.016   5.261 -0.5904 -0.9766  0.8801
 9128TIP3    H248800   3.605   0.109   5.206  0.8598 -0.1276  1.0579
 9129TIP3   OH248801   5.105   1.597   2.201  0.3497 -0.2018 -0.9193
 9129TIP3    H148802   5.129   1.549   2.122  0.5021  0.2823 -1.1668
 9129TIP3    H248803   5.014   1.624   2.186  0.7867  1.0029 -1.4868
 9130TIP3   OH248804   6.407   3.827  16.091  0.0359  0.3105  0.2394
 9130TIP3    H148805   6.370   3.831  16.003 -0.2467  1.1614  0.3924
 9130TIP3    H248806   6.332   3.806  16.147  0.0461  0.6350  0.3778
 9131TIP3   OH248807   3.009   3.311   4.240 -0.0951  0.0897 -0.2774
 9131TIP3    H148808   2.937   3.252   4.221 -1.3906  1.2914  0.6948
 9131TIP3    H248809   3.073   3.257   4.287 -1.5237 -0.4314  1.1658
 9132TIP3   OH248810   1.689   2.910  11.418  0.3045  0.0208  0.4600
 9132TIP3    H148811   1.608   2.961  11.413  1.1521  1.3104 -1.1902
 9132TIP3    H248812   1.705   2.900  11.512 -0.4072  2.0002  0.8466
 9133TIP3   OH248813   5.778   5.708  14.225 -0.2653  0.0211 -0.5104
 9133TIP3    H148814   5.775   5.766  14.149 -1.8439  1.7230  0.7696
 9133TIP3    H248815   5.690   5.674  14.234  0.1033 -0.8231  0.0804
 9134TIP3   OH248816   4.113   6.223  13.888  0.4384 -0.3660  0.6300
 9134TIP3    H148817   4.084   6.308  13.857 -0.3952 -0.8109  0.1624
 9134TIP3    H248818   4.198   6.240  13.929  1.0335  0.4148 -0.8754
 9135TIP3   OH248819   4.824   3.292  13.881 -0.2403  0.7394 -0.2542
 9135TIP3    H148820   4.763   3.236  13.931 -0.9338  1.0186 -0.7713
 9135TIP3    H248821   4.846   3.363  13.942 -0.7374  0.8421 -0.1878
 9136TIP3   OH248822   3.111   0.923  15.991  0.1501  0.4145  0.2905
 9136TIP3    H148823   3.153   1.002  16.024  1.1894  0.4332 -0.9968
 9136TIP3    H248824   3.069   0.951  15.909 -0.1590 -0.1911  0.2372
 9137TIP3   OH248825   1.003   1.175   2.320 -0.0693  0.0418 -0.7225
 9137TIP3    H148826   1.086   1.178   2.272 -0.4620 -1.1727 -1.5448
 9137TIP3    H248827   1.006   1.250   2.379  1.9096 -0.3912 -0.2225
 9138TIP3   OH248828   1.637   0.546   4.953 -0.0516  0.0535 -0.0136
 9138TIP3    H148829   1.596   0.632   4.962  1.2962  0.5193  2.3981
 9138TIP3    H248830   1.723   0.565   4.915  0.0555 -0.3033  0.0502
 9139TIP3   OH248831   1.356   2.924  12.953  0.0840 -0.1668 -0.2687
 9139TIP3    H148832   1.369   2.966  13.037  1.7199 -0.7775 -0.1880
 9139TIP3    H248833   1.289   2.858  12.969  0.9049 -0.7771  0.7476
 9140TIP3   OH248834   0.040   0.957   4.227  0.1978 -0.5988  0.3275
 9140TIP3    H148835   0.009   1.026   4.169 -0.1556 -0.7316  0.3586
 9140TIP3    H248836   0.093   0.901   4.171  0.0481 -0.5976  0.1852
 9141TIP3   OH248837   3.131   6.541  12.811  0.0201 -0.4816  0.0813
 9141TIP3    H148838   3.182   6.546  12.892 -0.5523  0.8177  0.3765
 9141TIP3    H248839   3.196   6.552  12.741  0.3135 -0.0776  0.4107
 9142TIP3   OH248840   2.816   1.465   0.278 -0.1642  0.2014 -0.4222
 9142TIP3    H148841   2.771   1.475   0.193 -0.6214  1.5609 -0.0444
 9142TIP3    H248842   2.890   1.407   0.259 -0.0517  0.7731 -1.8368
 9143TIP3   OH248843   3.187   1.764   2.557 -0.7309 -0.1165  0.1397
 9143TIP3    H148844   3.222   1.676   2.544  0.7188  0.6218 -1.4243
 9143TIP3    H248845   3.214   1.812   2.479 -2.0851  1.5470  0.6295
 9144TIP3   OH248846   0.946   5.292   1.740 -0.1983  0.2496 -0.2885
 9144TIP3    H148847   1.040   5.301   1.729  0.8553 -1.9564  4.4008
 9144TIP3    H248848   0.915   5.380   1.761  0.4736  1.2107 -2.9902
 9145TIP3   OH248849   3.717   3.746   4.116  0.0867 -0.2044 -0.4092
 9145TIP3    H148850   3.799   3.790   4.137 -0.7277  1.6069 -0.8719
 9145TIP3    H248851   3.739   3.689   4.042  0.7666  0.8339 -1.0238
 9146TIP3   OH248852   2.975   5.905  15.039 -0.1462 -0.7161 -0.9052
 9146TIP3    H148853   2.987   5.900  15.134 -0.6503 -0.8960 -0.8431
 9146TIP3    H248854   2.888   5.944  15.028  0.9662  1.8180 -1.3411
 9147TIP3   OH248855   1.185   4.433  12.757  0.2500 -0.0092 -0.5909
 9147TIP3    H148856   1.167   4.525  12.739  0.3417 -0.2037 -1.7272
 9147TIP3    H248857   1.230   4.401  12.679 -0.9651 -1.3489 -0.7935
 9148TIP3   OH248858   1.567   4.191   1.058  1.0434  0.2205  0.1110
 9148TIP3    H148859   1.628   4.232   0.996 -0.7496  0.7365 -1.3855
 9148TIP3    H248860   1.561   4.100   1.030 -0.8296  0.7573 -1.4598
 9149TIP3   OH248861   1.489   0.437  13.965  0.3219  0.6503 -0.2023
 9149TIP3    H148862   1.529   0.487  13.894 -0.7888  0.7524 -0.7700
 9149TIP3    H248863   1.541   0.460  14.042  1.7169  0.3172 -1.0129
 9150TIP3   OH248864   0.647   1.017   0.325 -0.3559  0.4207 -0.5294
 9150TIP3    H148865   0.695   0.946   0.367 -0.9748  0.4146  0.1840
 9150TIP3    H248866   0.598   1.059   0.396 -1.4142  0.4100 -1.2256
 9151TIP3   OH248867   1.418   3.697   4.718  0.5026  1.1049  0.0960
 9151TIP3    H148868   1.420   3.696   4.814  1.8981  1.4762  0.1032
 9151TIP3    H248869   1.369   3.619   4.694 -0.0585  1.1210  1.1132
 9152TIP3   OH248870   6.578   0.899   3.399  0.3400  0.0301  0.0432
 9152TIP3    H148871   6.637   0.955   3.449 -0.6675  1.3256 -0.1787
 9152TIP3    H248872   6.505   0.883   3.459  1.1302 -2.0798  0.5476
 9153TIP3   OH248873   1.763   4.514  15.440  0.1287 -0.0263  0.0477
 9153TIP3    H148874   1.824   4.445  15.415  1.4263  1.4958 -1.1569
 9153TIP3    H248875   1.742   4.559  15.358  0.4833  1.9320  0.9752
 9154TIP3   OH248876   1.438   5.798   1.173 -0.1727  0.4495  0.5050
 9154TIP3    H148877   1.464   5.717   1.130  1.5021  0.8089  0.7457
 9154TIP3    H248878   1.470   5.790   1.263  0.3830  1.5011  0.4294
 9155TIP3   OH248879   2.941   2.791   0.493  0.4267  0.5549 -0.1868
 9155TIP3    H148880   3.003   2.863   0.483 -0.0704  0.8923 -0.9350
 9155TIP3    H248881   2.872   2.810   0.430 -0.7087  0.4603  0.9917
 9156TIP3   OH248882   1.696   0.770  14.285  0.1317  0.0450 -0.4382
 9156TIP3    H148883   1.669   0.853  14.245 -0.2485 -0.6096 -1.5950
 9156TIP3    H248884   1.712   0.792  14.377 -1.2466  1.1344 -0.4178
 9157TIP3   OH248885   1.104   3.954   6.838 -0.0505  0.3862  0.6677
 9157TIP3    H148886   1.024   3.902   6.836 -0.4786  0.9036  2.6360
 9157TIP3    H248887   1.079   4.036   6.880  1.3273  0.8956  0.5499
 9158TIP3   OH248888   1.494   1.222   5.675 -0.3540 -0.5438  0.1802
 9158TIP3    H148889   1.424   1.209   5.739  0.4660  1.0887  1.4863
 9158TIP3    H248890   1.571   1.245   5.728 -0.1332  2.9913 -1.4129
 9159TIP3   OH248891   0.992   0.226  11.350 -0.8210 -0.4358  0.5514
 9159TIP3    H148892   0.948   0.306  11.378  2.6352  2.0059 -0.2302
 9159TIP3    H248893   1.051   0.255  11.280  0.2157 -3.8102 -0.1516
 9160TIP3   OH248894   4.003   6.704   2.575 -0.2449  0.0248 -0.2208
 9160TIP3    H148895   3.929   6.682   2.632  0.4585  0.4395  0.8876
 9160TIP3    H248896   3.980   6.666   2.491 -0.5110 -2.1941  0.7858
 9161TIP3   OH248897   4.340   0.077   3.392  0.0044 -0.2077 -0.5392
 9161TIP3    H148898   4.333   0.019   3.468 -1.3986  0.9471  0.2794
 9161TIP3    H248899   4.415   0.044   3.343 -0.6707 -2.6609 -0.0877
 9162TIP3   OH248900   0.321   2.332  11.179 -0.7335  0.0750  0.5971
 9162TIP3    H148901   0.375   2.374  11.247  1.0065  0.6980 -1.0709
 9162TIP3    H248902   0.372   2.255  11.153 -1.2524 -0.0188 -0.1761
 9163TIP3   OH248903   3.110   4.181   5.914  0.1467  0.2682 -0.5432
 9163TIP3    H148904   3.080   4.260   5.869 -0.9039  0.2282  0.0614
 9163TIP3    H248905   3.126   4.209   6.004 -3.9480 -0.8934  0.7615
 9164TIP3   OH248906   3.251   2.307  13.029 -0.2450  0.7955 -0.2971
 9164TIP3    H148907   3.244   2.355  13.111  0.9584 -0.1870  0.4245
 9164TIP3    H248908   3.168   2.323  12.984 -0.4576  2.2890  0.5785
 9165TIP3   OH248909   3.263   3.131   0.535 -0.4941  0.2649 -0.2667
 9165TIP3    H148910   3.314   3.107   0.613  0.0528 -1.8533 -1.1866
 9165TIP3    H248911   3.227   3.047   0.504 -1.2366  1.1556 -1.9116
 9166TIP3   OH248912   5.405   3.938  14.673  0.2545  0.0506  0.2752
 9166TIP3    H148913   5.313   3.964  14.681  0.0267 -0.4216 -0.6103
 9166TIP3    H248914   5.430   3.909  14.761 -1.1783 -2.1020  0.0491
 9167TIP3   OH248915   6.338   4.850  11.602 -0.2926  0.4546 -0.7038
 9167TIP3    H148916   6.348   4.760  11.570 -1.2772 -0.8469  2.3227
 9167TIP3    H248917   6.425   4.874  11.632 -0.5529 -0.6754  1.1279
 9168TIP3   OH248918   0.153   5.998   1.678  0.5750  0.5179  0.1240
 9168TIP3    H148919   0.219   5.969   1.741  0.4484  0.5305  0.2651
 9168TIP3    H248920   0.197   5.996   1.593  0.5591 -0.1132  0.1275
 9169TIP3   OH248921   0.688   6.178   4.375  0.0979 -0.3157 -0.2882
 9169TIP3    H148922   0.652   6.259   4.411  3.7814  0.9556  1.0245
 9169TIP3    H248923   0.717   6.128   4.451  2.3481 -0.5057 -1.1874
 9170TIP3   OH248924   6.497   3.612  13.713  0.7698 -0.0769 -0.5645
 9170TIP3    H148925   6.557   3.567  13.654  1.4132  0.3418 -0.2507
 9170TIP3    H248926   6.423   3.637  13.658  2.1782  1.9541 -1.6748
 9171TIP3   OH248927   4.366   5.283   1.109  0.1775 -0.0066 -0.1216
 9171TIP3    H148928   4.379   5.329   1.192  0.7975  0.9251 -0.7168
 9171TIP3    H248929   4.275   5.253   1.112  0.0321  0.4918  0.6624
 9172TIP3   OH248930   3.386   5.695  15.364 -0.6496  0.7344 -0.3762
 9172TIP3    H148931   3.445   5.768  15.380  0.6059 -0.5881  1.5164
 9172TIP3    H248932   3.310   5.713  15.419 -0.5218  0.7947 -0.2208
 9173TIP3   OH248933   2.561   0.520   6.331 -0.3813 -0.1945  0.2440
 9173TIP3    H148934   2.468   0.527   6.309 -0.0464  1.3565 -0.8206
 9173TIP3    H248935   2.599   0.467   6.261 -0.1784  0.6315 -0.2862
 9174TIP3   OH248936   0.580   1.141   2.857  0.0142  0.1856  0.3739
 9174TIP3    H148937   0.623   1.221   2.888 -1.3409  0.7734  0.8312
 9174TIP3    H248938   0.560   1.092   2.937 -2.6175  1.2437  0.4536
 9175TIP3   OH248939   3.535   2.543  11.930  0.1211  0.5585  0.1232
 9175TIP3    H148940   3.599   2.518  11.996  1.0739  2.4485  0.0002
 9175TIP3    H248941   3.491   2.619  11.968 -1.8327 -0.4762  0.0436
 9176TIP3   OH248942   1.664   1.347   2.426 -0.0237  0.0050  0.2631
 9176TIP3    H148943   1.574   1.367   2.403 -0.1821 -0.1484  0.7315
 9176TIP3    H248944   1.676   1.386   2.513  0.5128  0.4555 -0.0028
 9177TIP3   OH248945   4.098   1.552  14.383  1.0778 -0.1100 -0.4083
 9177TIP3    H148946   4.068   1.487  14.447 -0.3570  1.1722  0.2703
 9177TIP3    H248947   4.111   1.501  14.303 -0.7528 -1.1537 -0.1067
 9178TIP3   OH248948   0.023   6.779   2.095  0.3336  0.2351  0.2962
 9178TIP3    H148949   0.003   6.872   2.103  1.7542  0.4430  2.0803
 9178TIP3    H248950   0.000   6.742   2.181  0.1139 -1.0062 -0.2697
 9179TIP3   OH248951   1.812   3.150   0.357  0.1203  0.3272  0.2928
 9179TIP3    H148952   1.828   3.093   0.281 -0.9651  0.0487  0.2436
 9179TIP3    H248953   1.891   3.202   0.366  0.6551 -0.3396 -0.4240
 9180TIP3   OH248954   2.902   4.024   3.277  0.2633  0.1828  0.2640
 9180TIP3    H148955   2.934   4.099   3.328 -2.1071  1.4100  0.1244
 9180TIP3    H248956   2.900   4.055   3.187 -1.8857  0.4681  0.3547
 9181TIP3   OH248957   4.400   1.321  12.924  0.3641 -0.2128 -0.2512
 9181TIP3    H148958   4.378   1.320  12.830 -0.3356  1.3795 -0.1479
 9181TIP3    H248959   4.445   1.405  12.936 -2.9120  1.5300  1.4559
 9182TIP3   OH248960   1.410   1.417   2.378 -1.1873 -0.3374 -0.2487
 9182TIP3    H148961   1.469   1.488   2.356 -0.7401 -1.0839 -1.5503
 9182TIP3    H248962   1.327   1.441   2.337 -0.9376 -0.7090 -1.0003
 9183TIP3   OH248963   2.308   6.244   4.514 -0.1370  0.1704 -0.1867
 9183TIP3    H148964   2.343   6.298   4.442  0.2204  1.3522  0.8292
 9183TIP3    H248965   2.386   6.211   4.558 -0.3582 -0.6153 -0.3676
 9184TIP3   OH248966   6.664   4.210   3.355 -0.5310 -0.1465 -0.2499
 9184TIP3    H148967   6.666   4.282   3.293 -2.6929  0.3446  0.1580
 9184TIP3    H248968   6.704   4.137   3.309  2.7620  1.5174 -0.2863
 9185TIP3   OH248969   6.400   1.898   5.365  0.0590  0.5145  0.0487
 9185TIP3    H148970   6.314   1.884   5.324 -0.0299  1.0487  0.0490
 9185TIP3    H248971   6.442   1.813   5.360 -0.4227  0.2768 -0.0691
 9186TIP3   OH248972   2.040   5.663  16.405  0.6396 -0.4796  0.0833
 9186TIP3    H148973   2.060   5.751  16.374 -0.0867  0.4412  2.0543
 9186TIP3    H248974   2.080   5.605  16.340  1.2843  1.2786 -1.1716
 9187TIP3   OH248975   3.194   5.019  12.324  0.5161 -0.3685 -0.1487
 9187TIP3    H148976   3.130   4.986  12.387 -0.5503  0.5653 -0.6904
 9187TIP3    H248977   3.171   4.976  12.242 -0.1849  0.8222 -0.6087
 9188TIP3   OH248978   6.528   4.270   1.679  0.5104  0.0628 -0.0294
 9188TIP3    H148979   6.585   4.227   1.742 -0.9296  0.2585  1.4864
 9188TIP3    H248980   6.493   4.346   1.726 -0.5022  0.3027 -1.1111
 9189TIP3   OH248981   6.205   1.795  16.966 -0.4389  0.6310 -0.1814
 9189TIP3    H148982   6.171   1.821  17.051  0.4115  0.5538  0.1966
 9189TIP3    H248983   6.291   1.757  16.985 -0.3098  0.4512 -1.0551
 9190TIP3   OH248984   0.771   2.688   0.430  0.2098  0.3575 -0.6480
 9190TIP3    H148985   0.768   2.774   0.472 -3.2578  0.0440  0.0765
 9190TIP3    H248986   0.787   2.707   0.337  0.0613  1.7485 -0.4101
 9191TIP3   OH248987   3.651   4.764  16.743 -0.2859  0.2362 -0.0584
 9191TIP3    H148988   3.687   4.698  16.802  1.8485  1.1419 -0.2231
 9191TIP3    H248989   3.651   4.845  16.794  0.3386  0.7589 -0.8566
 9192TIP3   OH248990   3.692   6.316   3.329  0.0843 -0.0420 -0.0517
 9192TIP3    H148991   3.765   6.365   3.368 -1.8650  0.9326  2.6606
 9192TIP3    H248992   3.623   6.382   3.316 -0.3814 -0.9071 -2.6667
 9193TIP3   OH248993   6.426   2.822  16.284 -0.4061  0.4458 -0.0148
 9193TIP3    H148994   6.469   2.755  16.338  0.7365  0.1899 -1.1877
 9193TIP3    H248995   6.492   2.845  16.219 -1.3064  1.6736 -0.5189
 9194TIP3   OH248996   4.131   5.837  11.492 -0.7270 -0.5064 -0.2813
 9194TIP3    H148997   4.205   5.879  11.535 -0.4485  0.7915 -1.9442
 9194TIP3    H248998   4.169   5.788  11.420 -1.3708 -0.9450 -0.3340
 9195TIP3   OH248999   3.701   4.709   4.663  0.5259  0.4191 -0.7512
 9195TIP3    H149000   3.771   4.645   4.675 -0.2342 -0.2366  0.3407
 9195TIP3    H249001   3.663   4.687   4.578 -0.1968 -1.1044 -0.0889
 9196TIP3   OH249002   4.074   3.570   5.803 -0.4237 -0.8150 -0.0310
 9196TIP3    H149003   4.007   3.568   5.735 -1.3863 -0.6209  0.8748
 9196TIP3    H249004   4.137   3.503   5.777 -0.2626 -0.1138 -1.5795
 9197TIP3   OH249005   1.555   1.677   2.392 -0.0723 -0.2649 -0.7394
 9197TIP3    H149006   1.541   1.679   2.487 -2.5675  0.3097 -1.0612
 9197TIP3    H249007   1.649   1.660   2.383  0.8095  2.2565  1.8737
 9198TIP3   OH249008   6.054   4.838   4.365 -0.5809  0.2151  0.1593
 9198TIP3    H149009   6.053   4.753   4.321 -0.2669 -0.5959  1.6488
 9198TIP3    H249010   6.132   4.836   4.420  0.3519  2.1368 -0.9561
 9199TIP3   OH249011   2.855   2.351  13.204 -0.2194  0.1707 -0.3484
 9199TIP3    H149012   2.937   2.310  13.232  0.5889  1.0276 -1.3973
 9199TIP3    H249013   2.790   2.281  13.213  0.1929  0.0477  2.4283
 9200TIP3   OH249014   5.903   1.028   0.062 -0.0669 -0.2020 -0.2809
 9200TIP3    H149015   5.819   1.020   0.107 -1.4027  1.8914 -2.1857
 9200TIP3    H249016   5.921   0.940   0.028 -1.2203 -0.7886  0.5646
 9201TIP3   OH249017   2.842   6.462  14.934 -0.0817  0.3175 -0.1421
 9201TIP3    H149018   2.757   6.493  14.964 -0.5607  1.0211 -2.0686
 9201TIP3    H249019   2.823   6.386  14.880  0.4236  0.7931 -1.0294
 9202TIP3   OH249020   0.285   1.081   5.364 -0.3236 -0.0171 -0.4251
 9202TIP3    H149021   0.323   1.115   5.283 -0.8216  1.3616 -0.1065
 9202TIP3    H249022   0.347   1.015   5.394 -0.7575 -1.4757 -2.5695
 9203TIP3   OH249023   2.469   4.103  10.836 -0.1751  0.7525 -0.3261
 9203TIP3    H149024   2.512   4.154  10.905  0.6103  0.0002 -0.2527
 9203TIP3    H249025   2.385   4.077  10.875  1.1239 -1.4709  1.1875
 9204TIP3   OH249026   0.319   1.571   4.627 -0.2191  0.0202 -0.3126
 9204TIP3    H149027   0.276   1.639   4.679 -0.3534  0.5002 -1.0426
 9204TIP3    H249028   0.335   1.500   4.689 -0.3704  0.5865  0.3864
 9205TIP3   OH249029   2.214   0.118  13.715 -0.4497 -0.4657  0.4689
 9205TIP3    H149030   2.257   0.165  13.786 -2.0185  0.5035  0.8388
 9205TIP3    H249031   2.247   0.160  13.636 -1.6818  1.2274  0.7885
 9206TIP3   OH249032   0.428   2.337   2.420  0.5398 -0.0404  0.2942
 9206TIP3    H149033   0.386   2.344   2.335 -0.3028 -0.9901  0.6061
 9206TIP3    H249034   0.518   2.309   2.401 -0.4745 -3.2960 -0.2050
 9207TIP3   OH249035   6.272   2.342  12.043 -1.0043 -0.0268  0.1216
 9207TIP3    H149036   6.311   2.429  12.052 -0.8853 -0.1700  1.0938
 9207TIP3    H249037   6.184   2.358  12.009 -0.4147  0.3547 -1.2772
 9208TIP3   OH249038   3.793   6.400  12.373  0.0453 -0.1975  0.6231
 9208TIP3    H149039   3.859   6.392  12.304 -0.4420 -0.3246  0.1631
 9208TIP3    H249040   3.832   6.359  12.449  0.6961  0.1706  0.4939
 9209TIP3   OH249041   5.066   0.366  13.633 -1.3650  0.4284  0.4496
 9209TIP3    H149042   5.031   0.449  13.602 -3.3798 -0.0659  1.2145
 9209TIP3    H249043   4.993   0.305  13.625  0.3053 -1.5249 -0.9326
 9210TIP3   OH249044   4.629   3.817  14.951  0.2117 -0.3898 -0.2893
 9210TIP3    H149045   4.698   3.805  15.017 -0.7062 -0.8230  0.6219
 9210TIP3    H249046   4.587   3.899  14.975 -1.1427 -1.3168  0.6561
 9211TIP3   OH249047   4.042   1.769  15.812  0.2656 -0.6576  0.3730
 9211TIP3    H149048   4.005   1.808  15.890 -1.2405 -0.5433 -0.3655
 9211TIP3    H249049   4.132   1.802  15.809  0.0738  0.0269  1.5764
 9212TIP3   OH249050   5.077   2.915   0.501  0.6243 -0.2560 -0.4518
 9212TIP3    H149051   5.067   3.002   0.464 -0.5524  1.1722  2.8347
 9212TIP3    H249052   5.168   2.912   0.531  0.2854  0.4570  0.7045
 9213TIP3   OH249053   4.531   3.972  12.294 -0.1367 -0.2674  0.5044
 9213TIP3    H149054   4.542   3.904  12.361  2.4058  0.7524  1.2326
 9213TIP3    H249055   4.541   4.054  12.342  0.9086  0.5160 -0.9757
 9214TIP3   OH249056   0.489   5.430  11.610  0.0410 -0.0506  0.6118
 9214TIP3    H149057   0.457   5.351  11.654  0.0879 -0.6960 -0.4701
 9214TIP3    H249058   0.577   5.406  11.581 -0.3694 -0.0181 -0.7233
 9215TIP3   OH249059   6.386   3.877   4.708 -0.1754  0.4141 -0.1856
 9215TIP3    H149060   6.410   3.959   4.751 -0.9113  0.5864 -0.0751
 9215TIP3    H249061   6.442   3.811   4.749 -0.6044  0.6310  0.8050
 9216TIP3   OH249062   4.622   0.775  14.242  0.1539 -0.1374 -0.1849
 9216TIP3    H149063   4.608   0.827  14.163 -1.0742 -0.7519 -0.4041
 9216TIP3    H249064   4.661   0.693  14.210 -3.5341 -1.9083 -0.7568
 9217TIP3   OH249065   1.494   4.597  15.561 -0.2757  0.3447  0.5988
 9217TIP3    H149066   1.537   4.673  15.601  0.2607  0.5093 -0.2591
 9217TIP3    H249067   1.562   4.530  15.560  0.1140  0.7109 -1.0743
 9218TIP3   OH249068   0.767   2.576   3.748  0.0708  0.1581 -0.0319
 9218TIP3    H149069   0.675   2.568   3.773  0.0897  1.1284  0.4122
 9218TIP3    H249070   0.792   2.489   3.718 -1.4729  0.2546 -1.7983
 9219TIP3   OH249071   5.517   1.076  16.132 -0.4550  0.4376 -0.3823
 9219TIP3    H149072   5.511   0.980  16.133 -0.9024  0.4474  1.0912
 9219TIP3    H249073   5.593   1.095  16.077 -0.8440 -0.7124 -1.3647
 9220TIP3   OH249074   4.748   6.749  12.342  0.4310  0.3235  1.1465
 9220TIP3    H149075   4.811   6.691  12.385  0.9912  0.8127  1.0111
 9220TIP3    H249076   4.679   6.762  12.407 -0.2662 -1.3507  0.7822
 9221TIP3   OH249077   4.686   0.579  13.186 -0.6666  0.1648  0.1845
 9221TIP3    H149078   4.680   0.490  13.152 -0.0782 -0.5715  1.8746
 9221TIP3    H249079   4.613   0.586  13.247  0.0881  0.3130  1.1073
 9222TIP3   OH249080   4.321   1.976   4.343 -0.4124  0.0257 -0.2012
 9222TIP3    H149081   4.318   2.012   4.432 -3.7556  0.3124 -0.2808
 9222TIP3    H249082   4.273   1.893   4.350  0.3971 -0.5735 -1.5101
 9223TIP3   OH249083   0.034   3.140  13.739  0.1885  0.3348 -0.1315
 9223TIP3    H149084  -0.022   3.066  13.714 -0.3741  0.3931  0.8906
 9223TIP3    H249085  -0.028   3.210  13.759  0.7262  1.2043 -1.3871
 9224TIP3   OH249086   1.760   5.139   4.564 -0.2970  0.2208 -0.5996
 9224TIP3    H149087   1.787   5.047   4.565  0.0113  0.2969  1.0289
 9224TIP3    H249088   1.666   5.136   4.585  0.0947  0.3348  1.3725
 9225TIP3   OH249089   1.871   4.242   1.672  0.1022  0.4508 -0.1870
 9225TIP3    H149090   1.820   4.297   1.731  0.5484 -0.7558  1.3871
 9225TIP3    H249091   1.846   4.271   1.585 -3.9160 -0.5855  0.4205
 9226TIP3   OH249092   0.077   3.565   1.842  0.1502 -0.5773 -0.0642
 9226TIP3    H149093   0.014   3.517   1.788  1.3853 -0.8511 -1.2984
 9226TIP3    H249094   0.095   3.506   1.916 -2.5320  0.3185  1.4778
 9227TIP3   OH249095   4.413   1.954  16.441 -0.1684  0.2754  0.8185
 9227TIP3    H149096   4.424   1.867  16.481  1.5556 -0.0538 -0.2408
 9227TIP3    H249097   4.321   1.957  16.416 -0.0564 -1.6856 -0.0171
 9228TIP3   OH249098   5.211   2.229  11.469 -0.3674  0.7156  0.3541
 9228TIP3    H149099   5.137   2.286  11.449 -0.0598  1.3019  0.8452
 9228TIP3    H249100   5.266   2.281  11.527  0.4467  0.2971 -0.0285
 9229TIP3   OH249101   3.720   5.589  14.848  0.5179  0.1264 -0.7958
 9229TIP3    H149102   3.661   5.590  14.772  1.2646  1.5743 -1.4151
 9229TIP3    H249103   3.807   5.579  14.810  0.7554 -1.0843  0.0367
 9230TIP3   OH249104   5.803   3.578  17.178  0.1216 -0.2796  0.6070
 9230TIP3    H149105   5.826   3.506  17.119  1.1180  0.1222  0.4940
 9230TIP3    H249106   5.795   3.538  17.264 -2.7704 -1.1582  0.0596
 9231TIP3   OH249107   0.997   5.658   4.796  0.2472 -0.2167  0.7144
 9231TIP3    H149108   1.049   5.738   4.792  0.5973 -0.4745 -0.0979
 9231TIP3    H249109   1.028   5.605   4.722  1.0664 -1.7437  2.0861
 9232TIP3   OH249110   3.674   2.574  17.110 -0.0852  0.4660 -0.1883
 9232TIP3    H149111   3.751   2.522  17.088  0.1293  0.0512  1.4707
 9232TIP3    H249112   3.709   2.652  17.153 -0.5674  0.5152  0.1220
 9233TIP3   OH249113   3.290   5.089   4.322 -0.1664  0.0116  0.3608
 9233TIP3    H149114   3.312   4.996   4.329 -1.3910 -0.2746  0.7065
 9233TIP3    H249115   3.220   5.102   4.387  0.1623  1.2325  0.4982
 9234TIP3   OH249116   0.057   5.901   1.309 -0.3466  0.7077 -0.3233
 9234TIP3    H149117   0.101   5.947   1.381  0.8565  1.0029 -1.2245
 9234TIP3    H249118  -0.036   5.907   1.331 -0.1313  2.3348  0.3149
 9235TIP3   OH249119   6.479   0.870  13.886  0.6023  0.2851 -0.3292
 9235TIP3    H149120   6.414   0.849  13.819  0.7297  1.0761 -0.7093
 9235TIP3    H249121   6.529   0.943  13.849  1.1730  0.2272  0.3062
 9236TIP3   OH249122   1.458   2.858  15.993 -0.1348  0.4612  0.1759
 9236TIP3    H149123   1.499   2.859  15.906  0.8467 -2.9420  0.4265
 9236TIP3    H249124   1.368   2.827  15.976 -1.0041  2.7911  0.1629
 9237TIP3   OH249125   4.499   1.098   4.085  0.1594  0.3672 -0.4557
 9237TIP3    H149126   4.530   1.144   4.163 -0.4287 -2.3738  1.5451
 9237TIP3    H249127   4.564   1.028   4.071  0.7043  1.2834 -3.0038
 9238TIP3   OH249128   1.724   4.491  16.221  0.1703  0.1748 -0.0975
 9238TIP3    H149129   1.746   4.571  16.173 -1.2831  0.3324 -0.5457
 9238TIP3    H249130   1.725   4.422  16.155  1.5131 -0.2293  0.3065
 9239TIP3   OH249131   4.271   2.656   5.102 -0.1754  0.2899  0.4199
 9239TIP3    H149132   4.209   2.656   5.029 -0.2876 -0.2975  0.5066
 9239TIP3    H249133   4.215   2.667   5.180 -0.3631 -1.7436  0.6246
 9240TIP3   OH249134   2.595   1.277   1.608 -0.7799 -0.3857  0.1588
 9240TIP3    H149135   2.676   1.321   1.631 -0.8437 -0.5339  0.6866
 9240TIP3    H249136   2.617   1.223   1.532 -0.8475  0.9860 -0.8554
 9241TIP3   OH249137   4.022   5.555  17.130  0.1272 -0.3965  0.8557
 9241TIP3    H149138   4.054   5.607  17.056 -0.7201 -0.6220  0.3187
 9241TIP3    H249139   3.976   5.618  17.185  0.2760 -0.3321  0.9064
 9242TIP3   OH249140   1.882   1.429  16.805  0.5095  0.5120  0.3366
 9242TIP3    H149141   1.976   1.433  16.822  0.7538  0.0895 -0.7709
 9242TIP3    H249142   1.851   1.353  16.854  1.2273 -0.8198 -1.1585
 9243TIP3   OH249143   1.942   3.743   1.860  0.2614 -0.2066  0.6973
 9243TIP3    H149144   1.922   3.836   1.867 -2.0680 -0.6853  1.0317
 9243TIP3    H249145   1.921   3.721   1.769  0.0178 -0.5671  0.8394
 9244TIP3   OH249146   2.254   1.874  11.176  0.2869 -0.0476 -0.0886
 9244TIP3    H149147   2.221   1.952  11.131 -0.2601  0.1241  0.6083
 9244TIP3    H249148   2.176   1.823  11.197 -0.0524  1.9229  4.5704
 9245TIP3   OH249149   1.099   3.393   3.520  0.4640 -0.3581  0.1324
 9245TIP3    H149150   1.031   3.453   3.489  0.6889  0.3540  0.9747
 9245TIP3    H249151   1.098   3.321   3.457  0.0745  0.4475 -0.8103
 9246TIP3   OH249152   6.110   2.858  11.992 -0.2037 -0.5138 -0.3801
 9246TIP3    H149153   6.178   2.925  11.993  0.6377 -1.2379 -2.7310
 9246TIP3    H249154   6.045   2.889  11.929 -0.0299 -1.6514 -1.1592
 9247TIP3   OH249155   3.896   5.298   6.519 -0.4528  0.4299  0.7428
 9247TIP3    H149156   3.941   5.370   6.561  0.9242 -0.3256  0.6289
 9247TIP3    H249157   3.882   5.326   6.429  0.5191  0.3699  0.5716
 9248TIP3   OH249158   3.432   6.292  12.039 -0.2233  0.1136  0.3342
 9248TIP3    H149159   3.488   6.364  12.070  0.7793  0.0632 -1.2773
 9248TIP3    H249160   3.385   6.264  12.118  0.0966  1.8651  1.2076
 9249TIP3   OH249161   1.537   6.642   3.861 -0.0862 -0.5697 -0.2346
 9249TIP3    H149162   1.506   6.727   3.893  0.5695 -0.4465  0.0933
 9249TIP3    H249163   1.479   6.578   3.903 -0.6169 -0.2825 -0.5242
 9250TIP3   OH249164   1.598   5.970  16.381  0.0982 -0.1877 -0.4498
 9250TIP3    H149165   1.605   5.876  16.371 -0.1531 -0.2935  0.2805
 9250TIP3    H249166   1.514   5.983  16.426  0.7747  0.2693  0.7482
 9251TIP3   OH249167   2.061   1.909  12.921  0.3206 -0.1174 -0.1380
 9251TIP3    H149168   2.013   1.852  12.982  1.9493 -0.7946  0.5792
 9251TIP3    H249169   1.997   1.974  12.894 -0.5119  0.1764  2.2577
 9252TIP3   OH249170   6.070   3.354   4.645 -0.3261 -0.4420 -0.2733
 9252TIP3    H149171   6.083   3.259   4.641 -0.5681 -0.5706  1.2990
 9252TIP3    H249172   6.093   3.385   4.557  1.5252 -1.7179 -0.3027
 9253TIP3   OH249173   0.231   5.936  15.588  0.4853 -0.0095 -0.2198
 9253TIP3    H149174   0.311   5.914  15.635  0.7675 -1.2355 -1.2261
 9253TIP3    H249175   0.261   5.984  15.511  0.3677 -1.3894 -1.1546
 9254TIP3   OH249176   3.612   2.078   0.910 -0.3989  0.5794 -0.1030
 9254TIP3    H149177   3.706   2.092   0.917 -0.3970 -0.4194  3.0927
 9254TIP3    H249178   3.598   1.989   0.941 -2.4852  1.0817  0.5858
 9255TIP3   OH249179   2.893   0.490  13.740  0.2683  0.3444  0.0150
 9255TIP3    H149180   2.879   0.398  13.715 -1.4114  0.4534  0.4241
 9255TIP3    H249181   2.824   0.538  13.694  0.2316  1.1989  0.9138
 9256TIP3   OH249182   4.518   6.641   1.742 -0.2616 -0.0442  0.4230
 9256TIP3    H149183   4.521   6.719   1.687 -1.9077 -0.7625 -0.7993
 9256TIP3    H249184   4.473   6.669   1.821 -2.3203 -0.0261 -0.6665
 9257TIP3   OH249185   4.034   1.855   0.872 -0.0798 -0.2242  0.2072
 9257TIP3    H149186   4.010   1.770   0.835 -1.1947  0.0177  0.3516
 9257TIP3    H249187   3.986   1.919   0.820  1.7031  0.4376 -0.7165
 9258TIP3   OH249188   1.098   2.193   5.512  0.2715  0.3089  0.1932
 9258TIP3    H149189   1.134   2.206   5.599  0.3237 -0.0418  0.2265
 9258TIP3    H249190   1.172   2.162   5.460  0.3661  1.0120 -0.1072
 9259TIP3   OH249191   3.690   2.001  15.066  0.8784  0.4017 -0.2482
 9259TIP3    H149192   3.717   1.910  15.057  0.6514  0.4172 -1.2199
 9259TIP3    H249193   3.646   2.021  14.983  0.0981  1.1159  0.3252
 9260TIP3   OH249194   3.426   5.198  14.931  0.4315 -0.0739 -0.0678
 9260TIP3    H149195   3.377   5.270  14.973  0.0042 -0.6868  0.4981
 9260TIP3    H249196   3.367   5.123  14.937 -0.0916  0.0271 -2.6820
 9261TIP3   OH249197   3.822   5.887   3.672  0.5023 -0.8322 -0.3470
 9261TIP3    H149198   3.900   5.835   3.654  1.7149 -0.2219  2.6642
 9261TIP3    H249199   3.837   5.926   3.758 -1.6042  2.1769 -1.1535
 9262TIP3   OH249200   2.661   5.159  13.276 -0.0505 -0.6661  0.4296
 9262TIP3    H149201   2.749   5.139  13.309 -0.4828 -1.4133  1.1629
 9262TIP3    H249202   2.612   5.078  13.289 -0.4331 -0.7777 -1.4485
 9263TIP3   OH249203   3.218   2.281  14.180  0.3992 -0.0003 -0.3508
 9263TIP3    H149204   3.164   2.217  14.225  1.7385 -1.8300 -1.1951
 9263TIP3    H249205   3.177   2.293  14.095  0.1011  0.3445 -0.1608
 9264TIP3   OH249206   0.264   4.518   2.090  0.1406  0.1164 -0.0917
 9264TIP3    H149207   0.286   4.525   2.183 -0.5338 -1.4699  0.2135
 9264TIP3    H249208   0.349   4.509   2.047  0.3745 -1.7533  0.6582
 9265TIP3   OH249209   6.588   4.734   0.860 -0.0811  1.1017  0.2542
 9265TIP3    H149210   6.493   4.724   0.865  0.0664 -0.1056  1.0195
 9265TIP3    H249211   6.611   4.701   0.774 -0.2192  0.0618  0.6069
 9266TIP3   OH249212   3.375   6.249  16.032  0.7602  0.2277 -0.2932
 9266TIP3    H149213   3.403   6.170  16.080 -0.3674 -0.2789 -0.4413
 9266TIP3    H249214   3.342   6.307  16.100 -0.4780 -0.3346 -0.3977
 9267TIP3   OH249215   0.957   3.464  12.062  0.3270 -0.0071  0.3143
 9267TIP3    H149216   0.946   3.536  12.001  1.5923  1.6049  1.8767
 9267TIP3    H249217   1.032   3.415  12.027 -1.3027 -1.3969 -1.4350
 9268TIP3   OH249218   2.742   3.830  14.499  0.0455 -0.5290  0.4471
 9268TIP3    H149219   2.764   3.898  14.563  0.0628 -0.9155  0.8584
 9268TIP3    H249220   2.815   3.768  14.505 -0.2521 -0.8801  0.4961
 9269TIP3   OH249221   6.154   3.273  12.675 -0.2752  0.5929 -0.3430
 9269TIP3    H149222   6.216   3.262  12.603  0.8776  1.3892  0.5001
 9269TIP3    H249223   6.188   3.218  12.745 -0.3725  1.2085  0.2044
 9270TIP3   OH249224   2.788   6.126   0.797  0.2196 -0.0028  0.3737
 9270TIP3    H149225   2.820   6.037   0.785 -0.1671  0.1248 -2.1756
 9270TIP3    H249226   2.858   6.182   0.764  1.0155  0.7932  3.1511
 9271TIP3   OH249227   0.926   3.303   5.497 -0.1166 -0.5102  0.8290
 9271TIP3    H149228   0.922   3.323   5.591  2.8290 -0.3017  0.9873
 9271TIP3    H249229   0.909   3.386   5.454  0.1362 -0.2523  1.2221
 9272TIP3   OH249230   6.749   6.360  17.225  0.0137 -0.3167 -0.1783
 9272TIP3    H149231   6.741   6.429  17.291  1.5442 -1.2435  1.0360
 9272TIP3    H249232   6.679   6.299  17.246  0.7812 -0.8549  0.9618
 9273TIP3   OH249233   3.775   1.340   2.569  0.2256  0.2136 -0.2346
 9273TIP3    H149234   3.863   1.375   2.555  0.5207 -0.5970 -0.4617
 9273TIP3    H249235   3.717   1.414   2.554  0.9534  1.3527  2.0023
 9274TIP3   OH249236   0.958   5.932   4.814  0.4746 -0.2282 -0.0523
 9274TIP3    H149237   0.927   5.890   4.895  0.6976 -2.4175 -1.0410
 9274TIP3    H249238   0.960   6.025   4.836 -1.5208 -0.5156  1.7832
 9275TIP3   OH249239   1.818   1.858   3.459  0.3586 -0.1755 -0.2492
 9275TIP3    H149240   1.912   1.863   3.475 -0.0294  2.8023  1.9693
 9275TIP3    H249241   1.806   1.905   3.376  0.8286 -0.9180 -0.7496
 9276TIP3   OH249242   1.052   1.627  12.652 -0.2651  0.8423  0.2192
 9276TIP3    H149243   1.084   1.560  12.591  0.5426  1.8843 -0.5545
 9276TIP3    H249244   1.131   1.671  12.683 -0.6715  0.4154  1.9747
 9277TIP3   OH249245   0.366   5.320   3.816 -0.2709  0.7127 -0.0564
 9277TIP3    H149246   0.317   5.337   3.735 -0.0996 -0.9735 -0.5381
 9277TIP3    H249247   0.447   5.278   3.786 -2.0528 -4.1441  1.1134
 9278TIP3   OH249248   5.297   1.144  13.643 -0.1357 -0.0522  0.8596
 9278TIP3    H149249   5.264   1.058  13.666 -1.1463  0.0744 -0.0329
 9278TIP3    H249250   5.390   1.130  13.625 -0.3518 -1.0146  0.4557
 9279TIP3   OH249251   4.282   1.469  16.583  0.4038 -0.3888  0.2434
 9279TIP3    H149252   4.346   1.432  16.523  2.6272  0.7204  1.8004
 9279TIP3    H249253   4.284   1.563  16.566 -2.1601 -0.4222 -0.8303
 9280TIP3   OH249254   5.454   5.114  15.910 -0.0626 -0.4389 -0.5791
 9280TIP3    H149255   5.509   5.082  15.839 -0.6851 -1.5492 -0.5727
 9280TIP3    H249256   5.428   5.036  15.958 -2.4277 -0.0676 -1.1412
 9281TIP3   OH249257   0.023   5.466  13.174  0.3576 -0.0513  0.4583
 9281TIP3    H149258   0.004   5.416  13.254  1.1724  1.1891  1.4676
 9281TIP3    H249259  -0.063   5.492  13.142  0.0228 -0.3453  1.0799
 9282TIP3   OH249260   6.138   4.049   2.136 -0.1394 -0.2724  0.5445
 9282TIP3    H149261   6.054   4.029   2.095 -0.7607  0.5839  1.3548
 9282TIP3    H249262   6.200   3.989   2.095 -1.0581 -0.6020 -0.3965
 9283TIP3   OH249263   0.007   0.127  13.911 -0.3002  0.3255  0.1141
 9283TIP3    H149264   0.028   0.033  13.912 -1.2286  0.1027 -0.4604
 9283TIP3    H249265  -0.088   0.131  13.908 -0.2577  1.2675 -0.8074
 9284TIP3   OH249266   3.516   3.856  15.014  0.0519 -0.3106 -0.0586
 9284TIP3    H149267   3.602   3.863  14.974 -0.1801 -0.2650 -0.5624
 9284TIP3    H249268   3.460   3.912  14.961 -0.7481 -1.9924 -1.0806
 9285TIP3   OH249269   2.838   0.812   4.485 -0.2623  0.5272  0.3517
 9285TIP3    H149270   2.911   0.757   4.510 -0.7185 -0.3367 -0.1666
 9285TIP3    H249271   2.823   0.792   4.392 -0.8233  1.0605  0.3200
 9286TIP3   OH249272   6.776   3.970   2.529  0.1648 -0.1617 -0.0635
 9286TIP3    H149273   6.728   3.982   2.448  0.2798 -2.9267 -0.6306
 9286TIP3    H249274   6.837   3.899   2.511  0.8658 -0.2083  2.1775
 9287TIP3   OH249275   3.947   5.278   3.806  0.7512  0.2349 -0.0651
 9287TIP3    H149276   3.893   5.264   3.728  1.0980 -1.2264 -0.0863
 9287TIP3    H249277   4.037   5.261   3.776  1.0194  0.8222  0.3864
 9288TIP3   OH249278   0.961   5.073   5.198  0.7900 -0.0422  0.1877
 9288TIP3    H149279   1.006   5.022   5.265 -0.6380  0.3151  1.4600
 9288TIP3    H249280   1.023   5.075   5.124  2.3011 -0.6186  1.3875
 9289TIP3   OH249281   4.908   1.808  11.245  0.0931 -0.4662 -0.1773
 9289TIP3    H149282   4.959   1.875  11.200 -1.7144  0.4292 -0.9955
 9289TIP3    H249283   4.888   1.743  11.177 -1.1159 -0.0348 -0.2446
 9290TIP3   OH249284   1.560   3.163   5.171 -0.4378  0.2084  0.1899
 9290TIP3    H149285   1.537   3.234   5.231 -0.5575  0.7935 -0.5394
 9290TIP3    H249286   1.478   3.144   5.124 -0.0909  0.4912 -0.5438
 9291TIP3   OH249287   4.549   4.579   4.581 -0.5229  0.3304 -0.0940
 9291TIP3    H149288   4.544   4.654   4.522 -1.5676  0.7237  0.4699
 9291TIP3    H249289   4.470   4.529   4.562 -0.9240  0.5179  1.0205
 9292TIP3   OH249290   0.562   1.824  14.109  0.1178  0.1808 -0.3019
 9292TIP3    H149291   0.549   1.899  14.167 -0.2551 -2.3199  3.1711
 9292TIP3    H249292   0.475   1.805  14.075  0.3989  1.8913 -2.1679
 9293TIP3   OH249293   2.165   6.073  12.524  0.6122 -0.0733  0.7050
 9293TIP3    H149294   2.109   6.004  12.489 -1.6080  2.0520 -0.2327
 9293TIP3    H249295   2.214   6.031  12.594  0.9404 -3.0751 -1.1460
 9294TIP3   OH249296   5.875   6.649   4.498 -0.3648  0.0919  0.0244
 9294TIP3    H149297   5.898   6.738   4.524  0.4214  0.1223 -0.7339
 9294TIP3    H249298   5.846   6.658   4.407  1.1746 -0.6105 -0.5746
 9295TIP3   OH249299   4.197   0.957   4.820 -0.3184  0.1726  0.0541
 9295TIP3    H149300   4.199   0.883   4.880 -0.9831  2.7375  3.4967
 9295TIP3    H249301   4.104   0.971   4.802 -0.4830  1.9163  1.9336
 9296TIP3   OH249302   0.590   4.461  15.843 -0.1912 -0.5409 -0.3172
 9296TIP3    H149303   0.590   4.543  15.892  0.0598 -2.1469  2.5606
 9296TIP3    H249304   0.662   4.470  15.780  0.1484  1.2149  0.2763
 9297TIP3   OH249305   0.325   5.582   3.899  0.1323  0.2485  0.4205
 9297TIP3    H149306   0.371   5.501   3.877  0.6215  0.1556  1.6506
 9297TIP3    H249307   0.247   5.582   3.845  0.9523 -0.2302 -0.8001
 9298TIP3   OH249308   3.088   4.266  16.395 -0.1415 -0.4603 -0.1756
 9298TIP3    H149309   3.084   4.175  16.364  1.4642 -0.7414  0.3395
 9298TIP3    H249310   3.153   4.264  16.465  1.8648  1.5161 -1.8238
 9299TIP3   OH249311   5.808   0.075  15.621  0.4111 -0.0640 -0.2659
 9299TIP3    H149312   5.879   0.116  15.572  0.4029 -0.7507 -0.8656
 9299TIP3    H249313   5.842  -0.010  15.646  0.1674  0.0151  0.3531
 9300TIP3   OH249314   3.329   0.434  16.516  0.9996  0.1560 -0.5252
 9300TIP3    H149315   3.342   0.340  16.530 -0.2261 -0.0153 -0.3980
 9300TIP3    H249316   3.376   0.476  16.588 -2.5351 -0.5928  2.5188
 9301TIP3   OH249317   2.213   0.535   3.144  0.1111  0.4345  0.3680
 9301TIP3    H149318   2.164   0.453   3.132  0.6904  0.3665 -1.9078
 9301TIP3    H249319   2.147   0.603   3.133  0.3226  0.3266 -2.0098
 9302TIP3   OH249320   0.693   5.258  10.628  0.0940  0.3240  0.0958
 9302TIP3    H149321   0.750   5.297  10.694  1.5654  0.3669 -1.1491
 9302TIP3    H249322   0.753   5.212  10.568 -1.3881 -1.8082  0.1495
 9303TIP3   OH249323   5.069   1.545   5.767  0.6556  0.1162 -0.0357
 9303TIP3    H149324   5.110   1.591   5.694 -0.4308  0.4514 -0.4486
 9303TIP3    H249325   5.003   1.488   5.726 -0.6689  1.0481  0.7129
 9304TIP3   OH249326   3.249   3.144  11.721 -0.1285  0.5055 -0.2508
 9304TIP3    H149327   3.281   3.080  11.656 -0.1863  0.0331  0.1779
 9304TIP3    H249328   3.159   3.163  11.693  0.6097  2.1257 -1.6818
 9305TIP3   OH249329   1.106   5.954   6.041 -0.0665 -0.6580  0.1682
 9305TIP3    H149330   1.201   5.943   6.037  0.3326  1.9383  0.9613
 9305TIP3    H249331   1.082   5.916   6.126  0.6503  0.6848  1.0147
 9306TIP3   OH249332   1.418   3.860   4.482 -0.1679 -0.1281  0.0978
 9306TIP3    H149333   1.424   3.800   4.408  1.5781 -0.6534  0.6058
 9306TIP3    H249334   1.429   3.803   4.559  0.3014  0.6892  0.6432
 9307TIP3   OH249335   3.610   5.965   3.878 -0.3698 -0.0125 -0.0765
 9307TIP3    H149336   3.554   5.945   3.802  0.5327  1.9663 -1.3487
 9307TIP3    H249337   3.674   5.893   3.880 -1.3740 -0.9413 -0.1651
 9308TIP3   OH249338   6.127   6.620  11.842  0.1006  0.4195 -0.2302
 9308TIP3    H149339   6.178   6.577  11.910  0.5738  2.1595  0.5532
 9308TIP3    H249340   6.094   6.699  11.882 -0.7916  0.7946 -1.6195
 9309TIP3   OH249341   0.996   2.662   0.683  0.1536 -0.2238  0.6299
 9309TIP3    H149342   0.919   2.699   0.726  0.4363  0.0670  0.8917
 9309TIP3    H249343   0.973   2.658   0.590  0.5806  1.8403  0.3891
 9310TIP3   OH249344   2.093   4.497   5.741  0.6977  0.0595 -0.2357
 9310TIP3    H149345   2.094   4.401   5.734  0.4250  0.1243 -1.4149
 9310TIP3    H249346   2.000   4.520   5.741  0.7376  0.2844  0.9898
 9311TIP3   OH249347   6.518   4.729   4.066  0.0029 -0.4733 -0.5432
 9311TIP3    H149348   6.601   4.705   4.106 -0.1244 -0.1470 -0.0691
 9311TIP3    H249349   6.541   4.794   3.999  0.1085 -0.1692 -0.2186
 9312TIP3   OH249350   2.621   6.623   2.175 -0.1217 -0.2920 -0.5045
 9312TIP3    H149351   2.640   6.689   2.108  0.8145  0.3334  0.3426
 9312TIP3    H249352   2.598   6.675   2.253 -1.8110 -1.0085 -0.4991
 9313TIP3   OH249353   1.903   1.752  13.287 -0.3483 -0.1663  0.0775
 9313TIP3    H149354   1.957   1.714  13.218  0.1097  0.2245  0.2153
 9313TIP3    H249355   1.965   1.798  13.344 -0.7183 -0.4439  0.7243
 9314TIP3   OH249356   3.825   1.223  14.476 -0.5777  0.0980  0.0273
 9314TIP3    H149357   3.857   1.186  14.394 -0.2674 -0.0228  0.1990
 9314TIP3    H249358   3.730   1.214  14.472 -0.6151  0.6784 -0.5958
 9315TIP3   OH249359   2.596   5.139   4.725 -0.8235  0.4767  0.2460
 9315TIP3    H149360   2.670   5.089   4.692 -0.4054  0.2112  1.5056
 9315TIP3    H249361   2.519   5.084   4.707 -0.4881 -0.1401  0.6558
 9316TIP3   OH249362   2.762   0.810   2.219 -0.0557 -0.7794  0.1026
 9316TIP3    H149363   2.715   0.880   2.266 -0.3522 -1.3761  0.7114
 9316TIP3    H249364   2.705   0.787   2.146  0.7391  0.6663 -1.0414
 9317TIP3   OH249365   3.741   1.389  15.113  0.2568 -0.3895  0.0924
 9317TIP3    H149366   3.664   1.382  15.057 -0.5429 -0.2207  1.1361
 9317TIP3    H249367   3.764   1.481  15.112  2.6560 -0.8814 -3.0310
 9318TIP3   OH249368   2.382   0.207  14.467  0.1748 -0.0697  0.4009
 9318TIP3    H149369   2.416   0.216  14.378 -1.0011 -1.1906 -0.1870
 9318TIP3    H249370   2.305   0.264  14.469  0.8756  0.9010  1.1131
 9319TIP3   OH249371   0.206   4.464   2.920  0.0506  0.6662 -0.4127
 9319TIP3    H149372   0.168   4.474   2.833 -1.8444 -0.7225  0.1893
 9319TIP3    H249373   0.232   4.552   2.945  1.1197  1.0232 -2.5567
 9320TIP3   OH249374   5.395   6.199   3.394  0.3351 -0.1774 -0.1999
 9320TIP3    H149375   5.443   6.148   3.459  0.7309  1.0246  0.4686
 9320TIP3    H249376   5.461   6.221   3.328  0.1093 -0.7037 -0.6177
 9321TIP3   OH249377   0.558   0.907  12.610  0.1015  0.2991 -0.3227
 9321TIP3    H149378   0.492   0.918  12.542  1.0966 -1.5841 -1.6792
 9321TIP3    H249379   0.518   0.944  12.688 -0.5587  3.8618 -2.1353
 9322TIP3   OH249380   5.151   4.666  14.191  0.5459 -0.3034 -0.0735
 9322TIP3    H149381   5.143   4.717  14.271 -0.8946  0.0820 -0.4319
 9322TIP3    H249382   5.062   4.660  14.157  1.1454 -0.2807 -1.7614
 9323TIP3   OH249383   4.149   1.987   5.817  0.3684  0.0191  0.2989
 9323TIP3    H149384   4.102   1.980   5.900 -1.9061  0.3093 -0.9132
 9323TIP3    H249385   4.120   2.071   5.780  3.0049  0.9603  0.1469
 9324TIP3   OH249386   4.524   0.778   1.520  0.0827  0.0883 -0.2675
 9324TIP3    H149387   4.544   0.697   1.568 -0.4119  0.3075  0.3181
 9324TIP3    H249388   4.454   0.819   1.571  0.0604  0.6908 -0.7809
 9325TIP3   OH249389   1.231   0.267   1.418 -0.0635  0.1555 -0.6188
 9325TIP3    H149390   1.298   0.334   1.435 -0.3217 -0.1901  2.3058
 9325TIP3    H249391   1.162   0.314   1.371 -1.3227  2.7833  3.3534
 9326TIP3   OH249392   0.363   6.349   0.983  0.2734  0.0638  0.2231
 9326TIP3    H149393   0.365   6.259   0.951  0.4485  0.2038 -0.1671
 9326TIP3    H249394   0.347   6.402   0.905  2.8311  0.5896 -0.0280
 9327TIP3   OH249395   4.425   6.505   4.227  0.1697  0.6163 -0.4577
 9327TIP3    H149396   4.381   6.497   4.142 -1.0534 -1.8627  0.3027
 9327TIP3    H249397   4.360   6.548   4.283  0.3910  0.8808 -0.4056
 9328TIP3   OH249398   3.231   3.375  13.933 -0.1145 -0.4795 -0.1195
 9328TIP3    H149399   3.310   3.365  13.987 -0.5854  0.0452  0.6872
 9328TIP3    H249400   3.193   3.458  13.961 -1.3317 -1.0529 -0.0107
 9329TIP3   OH249401   5.063   5.477  15.930 -0.0877  0.0589  0.0523
 9329TIP3    H149402   5.143   5.425  15.933  0.0193  0.2654  0.9877
 9329TIP3    H249403   5.083   5.546  15.866 -0.2372 -1.0158 -1.2056
 9330TIP3   OH249404   4.896   3.964  12.545  0.1899  0.1422 -0.2905
 9330TIP3    H149405   4.954   3.960  12.469 -1.0639  0.3277 -1.2908
 9330TIP3    H249406   4.849   4.046  12.535 -1.7586 -0.9590 -0.6829
 9331TIP3   OH249407   1.006   6.769   1.561 -0.0222  0.2895  0.5124
 9331TIP3    H149408   0.925   6.718   1.563  0.5448 -0.9965 -2.7815
 9331TIP3    H249409   1.066   6.718   1.506  2.9190  1.4355  2.3872
 9332TIP3   OH249410   0.345   3.233  13.753  0.0885  0.1798  0.0969
 9332TIP3    H149411   0.342   3.271  13.841 -0.1080 -0.4434  0.3669
 9332TIP3    H249412   0.258   3.195  13.741  0.0112  0.5325 -0.4969
 9333TIP3   OH249413   0.901   1.790  12.474  0.0323 -0.2915 -1.0545
 9333TIP3    H149414   0.930   1.761  12.560 -1.7648  1.4122  0.2007
 9333TIP3    H249415   0.895   1.709  12.422  2.1659 -1.2309  0.0164
 9334TIP3   OH249416   0.091   5.520   1.424 -0.5484 -0.0970 -0.2475
 9334TIP3    H149417   0.022   5.563   1.373  0.2599 -0.1208 -1.3698
 9334TIP3    H249418   0.068   5.427   1.422 -1.0791  0.0087  0.3281
 9335TIP3   OH249419   2.152   0.026  16.666 -0.0767 -0.3975  0.4089
 9335TIP3    H149420   2.188   0.096  16.613  0.6492 -1.0842 -0.0359
 9335TIP3    H249421   2.192  -0.054  16.631 -0.3019 -0.9581  1.3762
 9336TIP3   OH249422   4.306   1.737  15.304  0.1939  0.1531 -0.6049
 9336TIP3    H149423   4.335   1.718  15.215  1.5939 -2.6310  0.3408
 9336TIP3    H249424   4.382   1.775  15.347  0.1639 -0.3761 -0.0671
 9337TIP3   OH249425   4.737   0.501   1.218 -0.5758 -0.0015  0.3533
 9337TIP3    H149426   4.725   0.462   1.131 -1.1760  0.7005  0.1104
 9337TIP3    H249427   4.677   0.452   1.274  0.5128 -1.1058  0.5929
 9338TIP3   OH249428   1.898   6.168  15.423 -1.1562  0.5150 -0.4794
 9338TIP3    H149429   1.853   6.092  15.386 -0.0356 -0.8555  0.8488
 9338TIP3    H249430   1.879   6.164  15.517  2.9669 -1.2194  0.5355
 9339TIP3   OH249431   6.417   1.455  15.144 -0.2216 -0.5918 -0.0976
 9339TIP3    H149432   6.364   1.417  15.074  0.2788 -0.8184 -0.3536
 9339TIP3    H249433   6.489   1.499  15.099 -1.5918  2.0138  0.0755
 9340TIP3   OH249434   5.009   0.690   5.918 -0.0510  0.0207 -0.2126
 9340TIP3    H149435   5.020   0.627   5.846 -2.5429 -3.2354  1.9359
 9340TIP3    H249436   4.923   0.728   5.903 -1.3259 -1.8766  1.6560
 9341TIP3   OH249437   5.555   6.025  14.567  0.2086 -0.3883  0.1960
 9341TIP3    H149438   5.494   6.015  14.640 -0.8172  1.2096 -0.4085
 9341TIP3    H249439   5.620   6.088  14.598 -0.2699  0.3487 -0.2813
 9342TIP3   OH249440   2.871   3.071   4.118 -0.4573 -0.1518  0.0847
 9342TIP3    H149441   2.951   3.097   4.074  0.0260 -1.6781 -0.0046
 9342TIP3    H249442   2.834   3.002   4.063 -1.5417  0.1444  0.4100
 9343TIP3   OH249443   5.989   0.735   5.750 -0.1675 -0.0183  0.1761
 9343TIP3    H149444   5.992   0.829   5.733 -4.2581  0.3221  0.3027
 9343TIP3    H249445   5.998   0.695   5.663  0.6728  0.5087  0.0063
 9344TIP3   OH249446   0.817   4.301   4.156 -0.1242 -0.6356 -0.1128
 9344TIP3    H149447   0.775   4.344   4.082  2.8794  0.4041 -1.3717
 9344TIP3    H249448   0.848   4.373   4.211 -1.5559 -1.3830  1.8009
 9345TIP3   OH249449   5.417   0.553  14.311 -0.0734 -0.6395 -0.2295
 9345TIP3    H149450   5.446   0.632  14.265 -1.1901  0.5016  0.9474
 9345TIP3    H249451   5.488   0.491  14.298  1.4072  0.9573 -0.2001
 9346TIP3   OH249452   3.007   6.207  11.515  0.7388 -0.6383  0.5777
 9346TIP3    H149453   3.039   6.117  11.508  0.0414 -0.8494  0.0165
 9346TIP3    H249454   2.970   6.227  11.428  0.4820  0.0329  0.8305
 9347TIP3   OH249455   5.532   1.617   5.229  0.7320  0.0593  0.4573
 9347TIP3    H149456   5.584   1.540   5.207  0.5065 -0.0202  0.1995
 9347TIP3    H249457   5.466   1.622   5.160 -0.9332 -1.0595  1.8683
 9348TIP3   OH249458   5.885   0.654  11.422  0.4686 -0.1034 -0.4471
 9348TIP3    H149459   5.840   0.699  11.351  0.5440 -0.6589 -0.8534
 9348TIP3    H249460   5.837   0.572  11.434  0.7700 -0.2498 -0.2088
 9349TIP3   OH249461   4.040   4.464  15.322  0.4695 -0.5289 -0.0558
 9349TIP3    H149462   3.964   4.433  15.371  1.6309 -0.4922  1.8987
 9349TIP3    H249463   4.103   4.392  15.328  1.5106  0.3936  0.5798
 9350TIP3   OH249464   2.414   0.652  13.427 -0.2479  0.7604 -0.2919
 9350TIP3    H149465   2.445   0.742  13.434  0.2814  0.7551 -1.9579
 9350TIP3    H249466   2.469   0.602  13.487  1.4528  1.1267 -1.4607
 9351TIP3   OH249467   6.619   6.603   5.445 -0.0056 -0.6893  0.1257
 9351TIP3    H149468   6.549   6.561   5.494 -1.3709  0.7476 -0.4849
 9351TIP3    H249469   6.617   6.694   5.475 -0.9821  0.2860 -2.5567
 9352TIP3   OH249470   0.346   2.210   1.165 -0.1472  0.0310  0.4832
 9352TIP3    H149471   0.274   2.174   1.113  0.5506 -0.3362 -0.2538
 9352TIP3    H249472   0.342   2.305   1.150 -0.4023 -0.0015  0.3485
 9353TIP3   OH249473   6.557   3.574  16.121 -0.1092  0.4245 -0.0051
 9353TIP3    H149474   6.504   3.653  16.109 -0.7853 -0.2361 -1.5673
 9353TIP3    H249475   6.496   3.509  16.156 -0.6405 -0.6187 -2.7029
 9354TIP3   OH249476   0.278   6.054   1.427  0.0502 -0.1556  0.5941
 9354TIP3    H149477   0.372   6.055   1.408 -0.1055 -0.3764 -0.2175
 9354TIP3    H249478   0.242   6.128   1.378 -0.1980 -0.0422  0.9395
 9355TIP3   OH249479   3.332   0.477   4.876  0.0552 -0.0527 -0.0218
 9355TIP3    H149480   3.361   0.428   4.799  0.2415 -0.8238  0.5236
 9355TIP3    H249481   3.352   0.419   4.949 -1.7208 -0.0850  0.4725
 9356TIP3   OH249482   0.522   5.304   4.384  0.0897 -0.0163  0.1340
 9356TIP3    H149483   0.555   5.294   4.295  3.2893  1.3452  1.0382
 9356TIP3    H249484   0.531   5.397   4.403 -0.7877 -0.2353  1.8193
 9357TIP3   OH249485   6.595   0.580  12.333  0.7561  0.2179  0.0980
 9357TIP3    H149486   6.678   0.543  12.302  1.1051  0.3296  0.8812
 9357TIP3    H249487   6.538   0.504  12.347  1.1658  0.0320  0.8159
 9358TIP3   OH249488   4.044   4.920   4.834  0.6244  0.3558  0.2453
 9358TIP3    H149489   3.995   4.839   4.847  1.0635  0.2905  1.6238
 9358TIP3    H249490   4.068   4.919   4.741  0.4938 -1.0135  0.2049
 9359TIP3   OH249491   5.472   4.246  14.396  0.0079  0.8275 -0.4702
 9359TIP3    H149492   5.492   4.259  14.489  0.0984 -0.0330 -0.3685
 9359TIP3    H249493   5.400   4.182  14.396  2.8192 -2.6255 -1.0963
 9360TIP3   OH249494   0.976   3.020  15.709  0.0919  0.0810  0.4780
 9360TIP3    H149495   1.050   3.011  15.649  1.0546 -0.2310  1.6635
 9360TIP3    H249496   0.982   3.111  15.740  0.4147 -0.1443  1.0980
 9361TIP3   OH249497   6.587   6.610  13.978  0.7376  0.3612 -0.0402
 9361TIP3    H149498   6.678   6.602  13.948  0.6177 -0.8899 -0.1022
 9361TIP3    H249499   6.592   6.602  14.073  0.6581 -0.0941 -0.0721
 9362TIP3   OH249500   3.131   2.173   3.277 -0.8892  0.2397 -0.0996
 9362TIP3    H149501   3.125   2.262   3.312 -0.7110  0.6463 -1.0774
 9362TIP3    H249502   3.040   2.149   3.257 -0.9153  0.2754 -0.0251
 9363TIP3   OH249503   3.425   3.443  12.261  0.0913 -0.2254 -0.0784
 9363TIP3    H149504   3.407   3.535  12.282 -0.1592 -0.7451  2.2731
 9363TIP3    H249505   3.458   3.445  12.171 -0.9321  2.0331 -0.4695
 9364TIP3   OH249506   0.742   6.007   5.792 -0.0752  0.7271 -0.0317
 9364TIP3    H149507   0.708   6.046   5.711  1.5082  2.1071 -0.0833
 9364TIP3    H249508   0.764   6.082   5.847 -1.3181 -0.1870  1.8067
 9365TIP3   OH249509   0.549   5.464   1.757  0.0195 -0.0435 -0.7712
 9365TIP3    H149510   0.567   5.498   1.669  0.0476 -0.9894 -1.1556
 9365TIP3    H249511   0.580   5.373   1.753  0.4556  0.0451  0.3719
 9366TIP3   OH249512   0.838   5.254  13.279  0.2481  0.0007  0.3075
 9366TIP3    H149513   0.761   5.198  13.293 -0.8250  0.9787 -1.4616
 9366TIP3    H249514   0.803   5.339  13.254  1.8533  1.4932  2.6329
 9367TIP3   OH249515   6.776   6.638  15.945  0.4594 -0.4418  0.1598
 9367TIP3    H149516   6.785   6.658  15.851 -0.3773 -2.3151 -0.3724
 9367TIP3    H249517   6.846   6.576  15.963  0.0834 -0.7513  0.5703
 9368TIP3   OH249518   1.132   2.566   3.023 -0.0124 -0.5755  0.1119
 9368TIP3    H149519   1.202   2.620   2.986  0.2580  0.4100  1.9437
 9368TIP3    H249520   1.169   2.531   3.103 -0.7055 -2.3453 -0.3005
 9369TIP3   OH249521   1.270   1.756  12.852  0.5019  0.3433  0.0080
 9369TIP3    H149522   1.317   1.833  12.884  1.2068 -0.0235 -0.1125
 9369TIP3    H249523   1.267   1.697  12.927  1.1802 -0.0685 -0.2850
 9370TIP3   OH249524   3.008   4.582  14.375  0.4439 -0.1828  0.0190
 9370TIP3    H149525   2.948   4.652  14.351 -0.3396 -0.5250  0.9031
 9370TIP3    H249526   2.965   4.502  14.346  1.1999 -0.3396 -0.7260
 9371TIP3   OH249527   2.510   6.586   3.501  0.3303 -0.0420  0.4139
 9371TIP3    H149528   2.425   6.584   3.543  0.3523 -0.4646  0.4422
 9371TIP3    H249529   2.532   6.679   3.495 -0.8377  0.1935 -1.0207
 9372TIP3   OH249530   3.641   4.237   4.143  0.1034 -0.2591  0.4841
 9372TIP3    H149531   3.682   4.192   4.068  0.0870 -0.7599  0.7691
 9372TIP3    H249532   3.673   4.327   4.137  2.6248 -0.9838  1.6247
 9373TIP3   OH249533   4.780   1.575   2.777  0.5899  0.2150 -0.1067
 9373TIP3    H149534   4.864   1.530   2.766 -0.3561 -1.9635  0.8022
 9373TIP3    H249535   4.797   1.641   2.845  1.6260  0.0053 -0.1459
 9374TIP3   OH249536   4.937   1.709  12.615 -0.0597 -0.0140  0.6399
 9374TIP3    H149537   4.846   1.679  12.610 -0.6726  1.7462  0.3477
 9374TIP3    H249538   4.955   1.743  12.527  0.8955 -0.3638  0.6943
 9375TIP3   OH249539   0.851   5.997  13.236 -0.2097 -0.3101 -0.5254
 9375TIP3    H149540   0.926   6.027  13.184 -0.3752  1.7492  0.3338
 9375TIP3    H249541   0.883   5.994  13.326 -0.5221 -1.8092 -0.4246
 9376TIP3   OH249542   4.245   1.127  13.764 -0.1396 -0.1044 -0.1016
 9376TIP3    H149543   4.328   1.172  13.751 -0.4959  1.2809  1.9073
 9376TIP3    H249544   4.182   1.197  13.781 -1.6497 -1.1490 -1.1238
 9377TIP3   OH249545   0.748   2.300   0.089  0.0053 -0.2678 -0.0584
 9377TIP3    H149546   0.653   2.292   0.084  0.1976 -2.2283 -1.7162
 9377TIP3    H249547   0.781   2.232   0.030  2.4710 -1.4107  2.4084
 9378TIP3   OH249548   3.380   2.681  14.880 -0.1066  0.2496 -0.0097
 9378TIP3    H149549   3.435   2.639  14.815  0.7843  1.0088  0.2432
 9378TIP3    H249550   3.418   2.656  14.964 -1.4317 -0.9850  0.2741
 9379TIP3   OH249551   4.118   0.564  16.337 -0.3374 -0.4471 -0.3139
 9379TIP3    H149552   4.067   0.641  16.362 -0.4959 -0.8736  0.7321
 9379TIP3    H249553   4.186   0.598  16.279  0.3375  0.6802  1.0875
 9380TIP3   OH249554   5.391   4.952   5.020  0.0353  0.1846 -0.5403
 9380TIP3    H149555   5.450   4.922   4.950 -1.0139  1.3175 -1.9827
 9380TIP3    H249556   5.307   4.912   4.999 -0.3645  0.7740 -0.0938
 9381TIP3   OH249557   5.299   5.210  13.699 -0.1735 -0.0191 -0.0148
 9381TIP3    H149558   5.385   5.243  13.727 -0.7512  0.6565  1.0158
 9381TIP3    H249559   5.258   5.285  13.656  0.1468 -0.6457 -1.4800
 9382TIP3   OH249560   4.785   0.834  14.950 -0.3135 -0.3085  0.3445
 9382TIP3    H149561   4.824   0.912  14.911 -1.3748 -0.8918 -2.0575
 9382TIP3    H249562   4.859   0.774  14.962  0.2464  0.4118  0.5852
 9383TIP3   OH249563   6.511   2.875   1.605 -0.4734  0.2458 -0.4057
 9383TIP3    H149564   6.465   2.919   1.676  1.4735  1.5770  0.1075
 9383TIP3    H249565   6.577   2.938   1.577  3.5361 -2.8077  1.3674
 9384TIP3   OH249566   0.544   3.888  14.785 -0.3580  0.0015  0.1653
 9384TIP3    H149567   0.634   3.875  14.814 -0.2867 -0.9494 -0.4495
 9384TIP3    H249568   0.545   3.866  14.692 -1.6265 -1.9970  0.5768
 9385TIP3   OH249569   5.459   4.964   1.889 -0.0876 -0.3025 -0.2883
 9385TIP3    H149570   5.485   4.884   1.842 -0.2402 -0.0324 -0.8377
 9385TIP3    H249571   5.462   5.033   1.823 -0.2059  0.1043  0.1259
 9386TIP3   OH249572   4.734   2.673  16.362  0.6066 -0.2267 -0.5669
 9386TIP3    H149573   4.663   2.611  16.380  0.3436  0.0344 -0.6857
 9386TIP3    H249574   4.809   2.637  16.408  0.4159 -0.5479 -0.4975
 9387TIP3   OH249575   4.564   2.025   6.531 -0.2069 -0.0692  0.1474
 9387TIP3    H149576   4.520   1.960   6.476  0.7102  0.1545 -0.8973
 9387TIP3    H249577   4.495   2.083   6.561 -0.6812  0.0141 -1.0743
 9388TIP3   OH249578   3.524   4.462   6.703  0.1349  0.1125  0.0034
 9388TIP3    H149579   3.572   4.481   6.783  1.9777 -0.8616 -0.8058
 9388TIP3    H249580   3.542   4.370   6.685 -0.8270  0.1211 -1.1596
 9389TIP3   OH249581   0.180   1.145   0.151  0.2242 -0.3790 -0.1085
 9389TIP3    H149582   0.110   1.208   0.136 -0.9058 -1.3459  0.9941
 9389TIP3    H249583   0.201   1.112   0.063  1.2246  1.8612 -0.7945
 9390TIP3   OH249584   2.828   2.921   0.238  0.4423 -0.4198  0.2690
 9390TIP3    H149585   2.776   3.001   0.249  0.4380 -0.3816 -0.0208
 9390TIP3    H249586   2.769   2.860   0.193  1.7809  0.9222 -3.8133
 9391TIP3   OH249587   2.383   6.419  15.407  0.0017 -0.3760 -0.3379
 9391TIP3    H149588   2.448   6.446  15.342  1.2668 -1.0943  0.5924
 9391TIP3    H249589   2.313   6.379  15.355  0.1571  0.6319 -1.3817
 9392TIP3   OH249590   4.505   1.626   0.323 -0.0480 -0.2067 -0.3937
 9392TIP3    H149591   4.508   1.585   0.410 -1.9283 -0.0358 -0.2091
 9392TIP3    H249592   4.592   1.611   0.287  0.1692 -2.0137  0.7350
 9393TIP3   OH249593   4.874   2.195   3.954 -0.0409  0.7393 -0.6674
 9393TIP3    H149594   4.836   2.276   3.920 -1.4071  0.4437  0.1036
 9393TIP3    H249595   4.957   2.222   3.992 -0.3272  1.7231 -0.7040
 9394TIP3   OH249596   0.357   6.033   1.944 -0.0888 -0.1844 -0.0298
 9394TIP3    H149597   0.405   6.056   1.864  0.0586 -0.4511 -0.0169
 9394TIP3    H249598   0.350   5.938   1.942 -1.6242 -0.0814 -0.6098
 9395TIP3   OH249599   5.782   1.420  16.355  1.0691  0.3733 -0.8619
 9395TIP3    H149600   5.692   1.399  16.328  1.0251  0.5573 -0.8620
 9395TIP3    H249601   5.802   1.358  16.425  0.2285  1.5886  0.5235
 9396TIP3   OH249602   0.537   5.301  12.786 -0.0857 -0.3230  0.4363
 9396TIP3    H149603   0.497   5.284  12.871 -1.4892  1.4669  0.2025
 9396TIP3    H249604   0.529   5.218  12.738 -0.7423 -0.8799  1.4841
 9397TIP3   OH249605   5.654   2.915  14.864  0.4301 -0.0522  0.7063
 9397TIP3    H149606   5.732   2.970  14.870  0.8136 -0.5534  0.4064
 9397TIP3    H249607   5.670   2.859  14.787 -0.3746  0.0752  0.4387
 9398TIP3   OH249608   4.974   3.404   0.568  0.4841 -0.2324 -0.2978
 9398TIP3    H149609   4.899   3.420   0.625  0.3115  0.4159 -0.6978
 9398TIP3    H249610   4.986   3.486   0.520  0.8290 -0.6625 -0.9603
 9399TIP3   OH249611   5.876   3.144   6.231 -0.1148 -0.1151  0.2400
 9399TIP3    H149612   5.819   3.157   6.307  0.8168  1.4376  0.7221
 9399TIP3    H249613   5.955   3.193   6.252  0.9163 -1.2096 -0.9501
 9400TIP3   OH249614   5.014   0.856   3.938  0.3283  0.6429 -0.3780
 9400TIP3    H149615   4.988   0.768   3.911 -0.9685  1.2599 -1.2239
 9400TIP3    H249616   5.110   0.851   3.946  0.3894 -0.5442 -1.5387
 9401TIP3   OH249617   3.292   4.703   6.068  0.0962 -0.4791  0.4564
 9401TIP3    H149618   3.362   4.724   6.006 -1.2021 -0.8094 -1.2026
 9401TIP3    H249619   3.322   4.739   6.151  0.9329  2.0226 -0.8167
 9402TIP3   OH249620   4.991   1.339   4.024 -0.3440  0.0564 -0.2773
 9402TIP3    H149621   4.986   1.434   4.036  0.2969  0.3609 -2.0756
 9402TIP3    H249622   5.040   1.307   4.100 -0.5874  1.1518  0.3568
 9403TIP3   OH249623   0.904   5.945  12.774  0.3471 -0.3304 -0.3080
 9403TIP3    H149624   0.826   5.893  12.755  0.2437 -0.5046  0.5580
 9403TIP3    H249625   0.976   5.897  12.734  0.4117 -1.7646  1.3931
 9404TIP3   OH249626   2.326   0.436  16.244 -0.1206 -0.3409  0.4348
 9404TIP3    H149627   2.340   0.530  16.230  0.5973 -0.3799  0.8776
 9404TIP3    H249628   2.371   0.394  16.171  0.9600 -0.4081  1.1311
 9405TIP3   OH249629   3.593   2.160   5.580 -0.8508  0.1279  0.4569
 9405TIP3    H149630   3.571   2.073   5.612  3.0172 -0.3577  2.3627
 9405TIP3    H249631   3.596   2.214   5.659 -0.5584  1.3413 -0.3620
 9406TIP3   OH249632   3.415   1.057  11.980  0.4707 -0.1619  0.1727
 9406TIP3    H149633   3.478   0.993  12.011  0.9444  0.1077 -0.2206
 9406TIP3    H249634   3.335   1.039  12.030  0.8167 -0.5898  0.5721
 9407TIP3   OH249635   1.240   6.762   0.157 -0.3719 -0.7390  1.0068
 9407TIP3    H149636   1.186   6.725   0.087 -2.8619  2.7438  0.8306
 9407TIP3    H249637   1.322   6.713   0.153 -1.0383 -1.8925 -3.1372
 9408TIP3   OH249638   0.434   5.011  14.727  0.7023  0.2236  0.1205
 9408TIP3    H149639   0.495   4.982  14.795 -0.9069  1.3482  2.1523
 9408TIP3    H249640   0.410   4.930  14.681  1.0021 -0.7587  1.6197
 9409TIP3   OH249641   6.133   5.362   2.552 -0.4953  0.1339 -0.1737
 9409TIP3    H149642   6.194   5.421   2.507 -2.6663  2.0583 -0.8047
 9409TIP3    H249643   6.085   5.319   2.481 -0.8120 -0.3064  0.3029
 9410TIP3   OH249644   5.922   2.533   5.844 -0.6021  0.3375 -0.2045
 9410TIP3    H149645   6.015   2.544   5.863 -0.6713 -0.0353  0.3604
 9410TIP3    H249646   5.901   2.606   5.785  0.2226 -0.0341 -0.9852
 9411TIP3   OH249647   0.678   0.514   3.496 -0.2030  0.4584  0.2485
 9411TIP3    H149648   0.767   0.525   3.462 -0.1299 -0.8234 -0.0234
 9411TIP3    H249649   0.690   0.479   3.584 -0.4336 -0.0335  0.0872
 9412TIP3   OH249650   0.302   1.034   3.458 -0.3568  0.0300 -0.6057
 9412TIP3    H149651   0.314   1.105   3.521 -0.4261 -1.6635  1.4179
 9412TIP3    H249652   0.218   1.055   3.416 -0.0173  1.5178 -0.6146
 9413TIP3   OH249653   5.990   4.841  16.898  0.1398  0.2712 -0.2008
 9413TIP3    H149654   6.069   4.797  16.865 -0.1595 -1.1436  0.8491
 9413TIP3    H249655   5.975   4.801  16.984 -2.0711  0.0446 -0.6432
 9414TIP3   OH249656   4.396   1.257   4.536  0.1840 -0.4746  0.0488
 9414TIP3    H149657   4.376   1.340   4.494 -0.9429 -0.8136 -0.1160
 9414TIP3    H249658   4.360   1.190   4.478  1.4685 -1.1283 -0.0537
 9415TIP3   OH249659   1.469   2.250   1.388  0.4034  0.7083 -0.5088
 9415TIP3    H149660   1.430   2.164   1.408 -1.5702  0.9268 -3.0303
 9415TIP3    H249661   1.548   2.229   1.339  1.5356  0.3562  1.3382
 9416TIP3   OH249662   6.347   6.511  12.007  0.2568  0.5450 -0.3402
 9416TIP3    H149663   6.331   6.540  12.096  0.5991  1.0819 -0.4431
 9416TIP3    H249664   6.379   6.421  12.015 -1.8912 -0.2408 -0.0852
 9417TIP3   OH249665   0.018   5.885  16.525  0.6068  0.1795 -0.2055
 9417TIP3    H149666   0.067   5.929  16.594  0.9901 -1.2078  0.4534
 9417TIP3    H249667  -0.074   5.892  16.552  0.7512 -0.3399  0.4585
 9418TIP3   OH249668   4.326   4.157  12.033  0.6084  0.7047 -0.3400
 9418TIP3    H149669   4.378   4.095  11.982  1.1814  0.0402  0.9975
 9418TIP3    H249670   4.386   4.229  12.051  0.8834  0.2548  0.6203
 9419TIP3   OH249671   4.673   1.888   0.409 -0.2743 -0.1865 -0.3531
 9419TIP3    H149672   4.711   1.961   0.457  3.2010 -1.3025 -1.1268
 9419TIP3    H249673   4.690   1.812   0.464 -0.7007 -0.8578 -1.1241
 9420TIP3   OH249674   6.267   2.348  10.983 -0.4778 -0.1482 -0.2967
 9420TIP3    H149675   6.295   2.306  11.064 -0.7343  1.7972  0.8673
 9420TIP3    H249676   6.349   2.371  10.938 -0.3178 -2.6870 -1.4779
 9421TIP3   OH249677   1.288   1.452  16.768 -0.2914 -0.7002 -0.6701
 9421TIP3    H149678   1.341   1.483  16.695  0.2172 -0.6894 -0.2938
 9421TIP3    H249679   1.312   1.509  16.841 -0.2238 -1.2181 -0.2877
 9422TIP3   OH249680   4.302   3.306   5.986 -0.0728  0.4151 -0.4888
 9422TIP3    H149681   4.247   3.328   6.062  0.8358  0.4928  0.1690
 9422TIP3    H249682   4.379   3.263   6.025  1.1221  1.7994 -1.2319
 9423TIP3   OH249683   5.911   2.070   3.724 -0.4394 -0.1273 -0.1095
 9423TIP3    H149684   5.966   2.020   3.665  1.9016  2.0615  0.0550
 9423TIP3    H249685   5.867   2.134   3.668  1.2285  1.4779  0.3221
 9424TIP3   OH249686   2.816   2.836   2.625 -0.2158 -0.3265 -0.6277
 9424TIP3    H149687   2.823   2.931   2.619 -0.7256 -0.3053 -0.9713
 9424TIP3    H249688   2.798   2.808   2.535 -1.3642 -0.6292 -0.3127
 9425TIP3   OH249689   5.293   2.455  16.075 -0.6103 -0.0362  0.2477
 9425TIP3    H149690   5.255   2.534  16.037 -0.5169 -0.3014 -0.4086
 9425TIP3    H249691   5.328   2.406  16.000  0.4221 -0.1159  0.7655
 9426TIP3   OH249692   5.490   3.725  14.002  0.1236  0.6865  0.9361
 9426TIP3    H149693   5.511   3.647  14.053 -0.2254  1.4653  2.3277
 9426TIP3    H249694   5.395   3.724  13.996  0.2303 -0.2613 -1.1528
 9427TIP3   OH249695   2.245   0.938  12.487  0.2605  0.0542  0.4616
 9427TIP3    H149696   2.192   0.994  12.430 -0.0192  1.1953  1.8006
 9427TIP3    H249697   2.253   0.856  12.438  0.0773  0.9984 -1.2350
 9428TIP3   OH249698   6.549   4.907  16.707  0.2992 -0.7167  0.7122
 9428TIP3    H149699   6.538   4.873  16.619 -0.9082 -0.6242  0.8182
 9428TIP3    H249700   6.557   5.002  16.696 -1.1086 -0.5747  0.7848
 9429TIP3   OH249701   2.747   1.333   2.699  0.2119  0.7668 -0.6533
 9429TIP3    H149702   2.746   1.274   2.624 -1.7561  0.8489 -0.7580
 9429TIP3    H249703   2.839   1.337   2.726  0.8057 -0.0556 -2.4125
 9430TIP3   OH249704   1.340   6.746  15.139  0.4611  0.0647 -0.7786
 9430TIP3    H149705   1.368   6.773  15.052  1.6790  3.5986  0.5192
 9430TIP3    H249706   1.274   6.810  15.164  1.2422  0.1242  1.4118
 9431TIP3   OH249707   0.158   3.191  16.804 -0.3463  0.3586 -0.2266
 9431TIP3    H149708   0.078   3.148  16.835  0.7352 -1.6513 -0.0524
 9431TIP3    H249709   0.220   3.183  16.877  0.3419  0.9838 -0.7181
 9432TIP3   OH249710   4.403   2.624  16.166 -0.4565  0.5521  0.5369
 9432TIP3    H149711   4.324   2.655  16.120 -1.5287 -1.4909  0.8746
 9432TIP3    H249712   4.391   2.653  16.256 -0.7434  0.3982  0.5500
 9433TIP3   OH249713   1.539   3.071  16.160  0.6115 -0.3619  0.5186
 9433TIP3    H149714   1.521   3.000  16.099 -1.3462  0.1893  0.3809
 9433TIP3    H249715   1.595   3.131  16.111  2.0229 -1.6114  0.5314
 9434TIP3   OH249716   4.788   2.593  11.381  0.8563  0.0617  0.1009
 9434TIP3    H149717   4.858   2.580  11.318  0.4434 -1.4288 -0.0771
 9434TIP3    H249718   4.790   2.515  11.437  0.2531  0.6598  0.9931
 9435TIP3   OH249719   5.787   3.140   3.126 -0.2071  0.5372 -0.1700
 9435TIP3    H149720   5.749   3.062   3.086  1.4434 -0.8565  0.8190
 9435TIP3    H249721   5.878   3.140   3.096  0.8722 -0.0961  2.7276
 9436TIP3   OH249722   2.225   2.002  10.868 -0.0549 -0.6446 -0.5049
 9436TIP3    H149723   2.182   2.053  10.798  0.1861 -0.8622 -0.8142
 9436TIP3    H249724   2.154   1.951  10.907 -0.3726  0.2241  0.0742
 9437TIP3   OH249725   3.796   3.528   4.783  0.6286 -0.2613 -0.0906
 9437TIP3    H149726   3.825   3.437   4.788 -1.1274 -0.8332  0.5388
 9437TIP3    H249727   3.833   3.570   4.860  0.0694 -0.8957  0.5404
 9438TIP3   OH249728   5.344   0.481  16.407 -0.2218  0.3110  0.2965
 9438TIP3    H149729   5.336   0.398  16.454 -2.0264 -1.3514 -2.6404
 9438TIP3    H249730   5.334   0.457  16.315 -0.5789  3.8095 -0.7044
 9439TIP3   OH249731   1.667   6.246   4.902 -0.2040  0.8322  0.1323
 9439TIP3    H149732   1.751   6.203   4.887 -0.5666 -0.1325  0.8263
 9439TIP3    H249733   1.659   6.309   4.829  0.8917  0.6062 -0.1951
 9440TIP3   OH249734   0.153   5.988   6.746 -0.6538  0.1938 -0.0826
 9440TIP3    H149735   0.078   5.936   6.715 -0.3433 -2.5092  3.0997
 9440TIP3    H249736   0.114   6.060   6.795 -1.1141  0.7988 -1.3041
 9441TIP3   OH249737   1.707   6.035  13.076 -0.0075  0.6468  0.1241
 9441TIP3    H149738   1.661   6.111  13.040 -1.1190 -0.2987 -0.5293
 9441TIP3    H249739   1.669   6.022  13.163 -0.0880  0.6266  0.0858
 9442TIP3   OH249740   0.605   3.017  15.386  0.1291 -0.3206 -0.2083
 9442TIP3    H149741   0.682   3.073  15.401 -0.4863  0.1701  1.3596
 9442TIP3    H249742   0.638   2.944  15.334  1.1200  1.0996 -1.6592
 9443TIP3   OH249743   0.598   5.255   0.777 -0.5031  0.0356 -0.0011
 9443TIP3    H149744   0.684   5.266   0.817 -0.6959  0.7506  0.2417
 9443TIP3    H249745   0.549   5.332   0.806 -0.9600  0.0591 -0.8092
 9444TIP3   OH249746   0.047   4.888   5.013 -0.4021  0.0629 -0.1335
 9444TIP3    H149747   0.110   4.936   5.067 -0.3508  0.2463 -0.3538
 9444TIP3    H249748   0.064   4.918   4.923  0.3894 -1.1877 -0.4356
 9445TIP3   OH249749   0.283   1.860   1.998 -0.2588  0.4176  0.7042
 9445TIP3    H149750   0.220   1.888   1.931 -0.2507 -0.1473  0.4606
 9445TIP3    H249751   0.290   1.936   2.057 -0.7957  0.6595  0.4621
 9446TIP3   OH249752   1.078   2.301  11.757  0.8814 -0.7782  0.0705
 9446TIP3    H149753   1.055   2.389  11.728  1.0413 -0.7950 -0.1144
 9446TIP3    H249754   1.092   2.309  11.851 -0.5585 -0.9105  0.3186
 9447TIP3   OH249755   0.024   6.048  12.475  1.0675  0.4654  0.1254
 9447TIP3    H149756   0.078   6.008  12.407 -0.3497 -0.6565 -0.3944
 9447TIP3    H249757  -0.004   6.131  12.437 -0.4548 -0.5512 -1.0947
 9448TIP3   OH249758   5.981   3.760   2.360  0.4284  0.2423  0.3645
 9448TIP3    H149759   5.926   3.837   2.346  1.3436  0.7713 -0.4297
 9448TIP3    H249760   5.947   3.695   2.299  0.5149  0.4765  0.0662
 9449TIP3   OH249761   3.253   6.402  11.501  0.1414  0.1109 -0.4856
 9449TIP3    H149762   3.283   6.400  11.591 -0.1338  1.1116 -0.3507
 9449TIP3    H249763   3.188   6.332  11.495 -1.3716  1.3370  0.6835
 9450TIP3   OH249764   2.404   3.654   0.363  0.1180 -0.1399  0.0013
 9450TIP3    H149765   2.310   3.670   0.368  0.4709  2.5462 -0.3696
 9450TIP3    H249766   2.432   3.641   0.454 -0.5476 -0.6609  0.1351
 9451TIP3   OH249767   5.864   1.563  14.699  0.3182 -0.1850  0.2629
 9451TIP3    H149768   5.825   1.645  14.728  0.5351 -0.2093  0.6238
 9451TIP3    H249769   5.948   1.558  14.745  0.8807 -0.0050 -0.7002
 9452TIP3   OH249770   3.299   3.635  16.507 -0.0431  0.0473 -0.1680
 9452TIP3    H149771   3.223   3.585  16.538  0.5493 -0.6841  0.1400
 9452TIP3    H249772   3.271   3.727  16.513 -0.5444 -0.1601  0.9196
 9453TIP3   OH249773   5.928   2.676   2.112 -0.4236 -0.0570  0.2171
 9453TIP3    H149774   5.885   2.599   2.074  1.6805 -1.6053  0.8130
 9453TIP3    H249775   6.002   2.694   2.054  0.4168  0.0989  1.2997
 9454TIP3   OH249776   2.619   4.857   0.594 -0.4979  0.1231  0.3411
 9454TIP3    H149777   2.664   4.854   0.509 -0.7156 -0.9020  0.2496
 9454TIP3    H249778   2.560   4.932   0.586 -0.3427  0.1894 -0.3251
 9455TIP3   OH249779   5.046   0.057  10.332 -0.2256 -0.2344 -0.0801
 9455TIP3    H149780   5.085   0.116  10.397  0.8526 -1.0465  0.0329
 9455TIP3    H249781   4.967   0.024  10.375  0.2240 -0.3934  0.6445
 9456TIP3   OH249782   1.620   5.509   6.026  0.3135 -0.0305 -0.1051
 9456TIP3    H149783   1.540   5.505   6.078  0.0584 -0.1014 -0.4947
 9456TIP3    H249784   1.600   5.457   5.948  0.2247  1.1831 -0.9033
 9457TIP3   OH249785   5.013   0.627  13.563  0.7670 -0.5773  0.4093
 9457TIP3    H149786   5.009   0.657  13.472  0.4465  0.2754  0.6878
 9457TIP3    H249787   5.020   0.708  13.614 -0.1468 -0.9772  1.2032
 9458TIP3   OH249788   1.846   3.146   3.164 -0.0959 -0.4237  0.0892
 9458TIP3    H149789   1.892   3.224   3.132  0.6592 -0.7850  0.2739
 9458TIP3    H249790   1.798   3.177   3.241  1.8311 -0.5432  1.4144
 9459TIP3   OH249791   2.634   6.732  12.895  0.4432  0.3366  0.3968
 9459TIP3    H149792   2.707   6.749  12.954  0.0485 -0.2316  1.0609
 9459TIP3    H249793   2.633   6.637  12.884 -1.6325  0.0590  2.3100
 9460TIP3   OH249794   2.478   5.153   2.441 -0.1504 -0.3972 -0.4340
 9460TIP3    H149795   2.539   5.205   2.493 -0.3583  0.2862 -0.8580
 9460TIP3    H249796   2.523   5.071   2.425 -0.3548 -0.9403  1.4550
 9461TIP3   OH249797   0.353   1.111  15.589  0.6302  0.0111 -0.4117
 9461TIP3    H149798   0.366   1.199  15.553  2.8706 -0.9998 -2.3462
 9461TIP3    H249799   0.261   1.092  15.571  0.6813  1.1153 -2.0948
 9462TIP3   OH249800   1.182   1.686   4.472 -0.1021  0.4207  0.3162
 9462TIP3    H149801   1.135   1.729   4.544 -0.4162 -0.4837  0.6594
 9462TIP3    H249802   1.193   1.596   4.501  0.3191  0.1976 -0.5151
 9463TIP3   OH249803   1.941   1.549   3.733  0.1397  0.3615  0.0469
 9463TIP3    H149804   1.925   1.576   3.823  1.0378 -0.5067  0.4918
 9463TIP3    H249805   1.857   1.561   3.689  0.0492  2.1808  0.6177
 9464TIP3   OH249806   2.157   1.583   0.840 -0.4559  0.2129  0.3604
 9464TIP3    H149807   2.125   1.583   0.749 -0.4837 -0.9492  0.3471
 9464TIP3    H249808   2.251   1.572   0.831 -0.3407  1.1168  0.4542
 9465TIP3   OH249809   1.885   4.703   3.585 -0.0329 -0.2628  0.1245
 9465TIP3    H149810   1.829   4.711   3.508  1.1799 -1.0477 -0.8948
 9465TIP3    H249811   1.971   4.735   3.555  0.4370 -0.4781  1.1811
 9466TIP3   OH249812   4.612   1.555   4.297  0.3319 -0.3778 -0.5484
 9466TIP3    H149813   4.699   1.549   4.338  0.0826  0.0547  0.0554
 9466TIP3    H249814   4.612   1.640   4.253  0.0496 -0.1737 -0.1584
 9467TIP3   OH249815   5.208   5.179  13.382 -0.4597 -0.5954  0.3283
 9467TIP3    H149816   5.286   5.219  13.421  0.7600  0.9729 -3.1993
 9467TIP3    H249817   5.140   5.188  13.448  0.8245  3.7806  1.3856
 9468TIP3   OH249818   2.175   0.434  14.534 -0.2931 -0.4428  0.1146
 9468TIP3    H149819   2.108   0.366  14.527  0.2779 -1.0195  0.2195
 9468TIP3    H249820   2.158   0.475  14.619 -1.4825  0.4678 -0.5168
 9469TIP3   OH249821   5.145   4.035  16.922 -0.2119  0.4795 -0.0523
 9469TIP3    H149822   5.082   4.083  16.976  0.9291  1.7065  0.2418
 9469TIP3    H249823   5.141   4.077  16.837  1.1869  1.4905  0.3594
 9470TIP3   OH249824   4.542   0.684   5.124 -0.1478  0.6428  0.7085
 9470TIP3    H149825   4.531   0.775   5.097  0.2368  0.9750  1.6501
 9470TIP3    H249826   4.523   0.684   5.218  0.5662 -0.1092  0.8621
 9471TIP3   OH249827   1.710   3.143  10.705  0.1071  0.1757 -0.0142
 9471TIP3    H149828   1.668   3.169  10.787  0.7002  0.5677  0.1728
 9471TIP3    H249829   1.653   3.075  10.669 -0.7493  0.7775  0.1753
 9472TIP3   OH249830   6.728   3.606   2.779  0.3194 -0.2735 -0.0365
 9472TIP3    H149831   6.804   3.660   2.802 -0.2316  0.0384  1.1357
 9472TIP3    H249832   6.652   3.658   2.806 -0.3410 -0.4795 -1.4094
 9473TIP3   OH249833   1.283   5.339  17.124  0.4134  0.0667  0.0686
 9473TIP3    H149834   1.315   5.394  17.052  0.2194  1.3561  0.9299
 9473TIP3    H249835   1.189   5.330  17.106  0.7194 -1.4422 -0.9831
 9474TIP3   OH249836   2.367   4.314  14.029 -0.1526 -0.8709 -0.7737
 9474TIP3    H149837   2.461   4.301  14.018 -0.1364 -0.7995 -0.7238
 9474TIP3    H249838   2.352   4.301  14.123 -0.0399  0.0606 -0.6195
 9475TIP3   OH249839   5.624   3.986  14.448 -0.0142 -0.4297  0.6582
 9475TIP3    H149840   5.591   4.068  14.411  2.4233 -0.0031 -0.8365
 9475TIP3    H249841   5.649   3.933  14.373  1.3368 -1.2430  1.6179
 9476TIP3   OH249842   6.135   5.727  12.553  0.1435  0.1888  0.3947
 9476TIP3    H149843   6.203   5.773  12.503 -0.1677 -0.6533 -0.8547
 9476TIP3    H249844   6.182   5.684  12.624  0.9342 -0.3226 -0.4107
 9477TIP3   OH249845   0.851   4.568  15.783 -0.2031 -0.3500  0.2596
 9477TIP3    H149846   0.944   4.559  15.801  0.3161  0.5543 -1.6811
 9477TIP3    H249847   0.812   4.591  15.867  1.2101 -1.3555  1.2253
 9478TIP3   OH249848   5.755   6.024   4.900 -0.1765  0.2682  0.4471
 9478TIP3    H149849   5.751   6.089   4.970  1.2420  3.1992 -1.9428
 9478TIP3    H249850   5.840   6.039   4.859 -0.4790 -2.0739 -1.2253
 9479TIP3   OH249851   5.112   4.300  12.530  0.1191 -0.7823  0.0300
 9479TIP3    H149852   5.128   4.216  12.574  2.2158 -0.1004  0.6768
 9479TIP3    H249853   5.194   4.348  12.539 -1.3463  1.7883  0.6074
 9480TIP3   OH249854   2.268   4.829  16.670 -0.1058 -0.5071 -0.4063
 9480TIP3    H149855   2.183   4.821  16.625 -1.0402 -1.2310  1.4065
 9480TIP3    H249856   2.262   4.912  16.717  1.2671  0.7531 -2.2931
 9481TIP3   OH249857   5.527   0.597   1.893  0.0740  0.0491 -0.1263
 9481TIP3    H149858   5.502   0.510   1.860 -1.6021 -0.6498  2.6536
 9481TIP3    H249859   5.507   0.657   1.822  0.2973 -1.7066 -1.7443
 9482TIP3   OH249860   4.272   3.251   3.676 -0.1868 -0.2976  0.4276
 9482TIP3    H149861   4.190   3.225   3.633  1.0412 -0.2982 -2.0693
 9482TIP3    H249862   4.260   3.343   3.698 -0.6871 -0.1649 -0.3714
 9483TIP3   OH249863   3.828   5.151  15.640 -0.1935  0.0784  0.2417
 9483TIP3    H149864   3.869   5.178  15.722  0.6866 -0.9907  0.1845
 9483TIP3    H249865   3.775   5.226  15.613 -1.4109  0.0506  2.3420
 9484TIP3   OH249866   0.182   0.155  17.024  0.1889 -0.2967 -0.0181
 9484TIP3    H149867   0.122   0.109  17.082 -2.1855  0.7633 -1.4628
 9484TIP3    H249868   0.213   0.088  16.963 -2.1055 -0.3854 -1.2084
 9485TIP3   OH249869   1.891   6.689   2.006 -0.1499 -0.0816 -0.2015
 9485TIP3    H149870   1.879   6.647   2.091  1.4757 -1.2899 -0.5202
 9485TIP3    H249871   1.962   6.752   2.020  0.0278 -0.1856 -0.6249
 9486TIP3   OH249872   4.092   1.915   3.664 -0.0197 -0.2546  0.4632
 9486TIP3    H149873   4.048   1.896   3.747 -0.9712 -0.8416 -0.1555
 9486TIP3    H249874   4.077   1.837   3.610  0.4072  0.1929 -0.3295
 9487TIP3   OH249875   3.039   2.775  15.522 -0.6588 -0.2557  0.5474
 9487TIP3    H149876   3.007   2.690  15.554 -2.8879 -0.0398 -0.8710
 9487TIP3    H249877   3.069   2.758  15.433  1.3982 -0.0071  1.1392
 9488TIP3   OH249878   0.067   1.250   5.224 -0.6883 -0.2257  0.1955
 9488TIP3    H149879   0.049   1.191   5.298 -0.4983 -1.5082 -0.7508
 9488TIP3    H249880   0.158   1.234   5.202 -0.5650  0.6114  0.0556
 9489TIP3   OH249881   3.958   3.284   5.312  0.2131 -0.3400  0.5758
 9489TIP3    H149882   3.887   3.342   5.341 -0.3461 -2.1721  3.2041
 9489TIP3    H249883   3.926   3.248   5.229  0.0592  2.0966 -0.5192
 9490TIP3   OH249884   4.055   0.801   3.637  0.1802 -0.8092  0.0899
 9490TIP3    H149885   4.130   0.745   3.617  0.0158 -0.8099 -0.5696
 9490TIP3    H249886   4.075   0.884   3.592 -0.1795 -0.7887 -0.0336
 9491TIP3   OH249887   6.358   6.170  15.094  0.3775  0.2790  0.5919
 9491TIP3    H149888   6.275   6.213  15.072 -1.0374 -2.2869  0.5284
 9491TIP3    H249889   6.333   6.100  15.155  2.2536 -1.6061 -0.6728
 9492TIP3   OH249890   2.757   6.080  12.486  0.0635 -0.4102 -0.3625
 9492TIP3    H149891   2.786   6.159  12.531  1.2872 -0.7974 -0.4329
 9492TIP3    H249892   2.664   6.095  12.467  0.6279  1.7007 -1.8003
 9493TIP3   OH249893   5.354   4.935  16.064  0.1845  0.0198  0.4948
 9493TIP3    H149894   5.260   4.951  16.054  0.1797 -0.9763 -1.7063
 9493TIP3    H249895   5.360   4.849  16.106  0.1611  0.7968  2.1588
 9494TIP3   OH249896   2.339   0.432  11.963 -0.1871 -0.2595 -0.0737
 9494TIP3    H149897   2.302   0.499  11.905  1.5198 -0.2919 -1.2653
 9494TIP3    H249898   2.365   0.361  11.904  0.9627 -0.5928  0.7976
 9495TIP3   OH249899   1.105   6.681   0.848 -0.9376  0.4102 -0.0445
 9495TIP3    H149900   1.148   6.598   0.830 -1.6548 -0.0709  0.3923
 9495TIP3    H249901   1.151   6.717   0.924 -0.9890  0.1415  0.1126
 9496TIP3   OH249902   4.653   3.560  16.737  0.3968  0.4967 -0.4469
 9496TIP3    H149903   4.743   3.530  16.730 -0.1134 -1.1877 -0.3629
 9496TIP3    H249904   4.606   3.513  16.668 -1.3379 -2.7609  2.6010
 9497TIP3   OH249905   5.066   3.025   3.530 -0.2860  0.0223 -0.1492
 9497TIP3    H149906   4.984   3.017   3.480  0.1635  0.4001 -0.9662
 9497TIP3    H249907   5.134   2.998   3.468  0.0435 -2.3876  1.1876
 9498TIP3   OH249908   6.420   5.914   0.487  0.1394  0.4103  0.0553
 9498TIP3    H149909   6.361   5.977   0.528  1.0172  2.2486 -1.3800
 9498TIP3    H249910   6.363   5.861   0.431 -0.3554  1.2308 -0.2389
 9499TIP3   OH249911   3.216   1.128  11.281  0.0834 -0.7357 -0.3761
 9499TIP3    H149912   3.165   1.192  11.331  1.9292  0.2472  0.3474
 9499TIP3    H249913   3.151   1.081  11.229 -1.5685  0.2842  0.6685
 9500TIP3   OH249914   1.785   6.563   4.232  0.6277 -0.4480  0.4815
 9500TIP3    H149915   1.861   6.590   4.180 -0.9464 -0.5482 -2.0284
 9500TIP3    H249916   1.759   6.479   4.193 -0.6026 -0.5545  1.4877
 9501TIP3   OH249917   6.513   5.953   5.462  0.4215 -0.4702  0.0497
 9501TIP3    H149918   6.561   5.871   5.471  1.5164 -0.0084 -1.2510
 9501TIP3    H249919   6.566   6.006   5.403 -1.3653  0.3368 -0.9299
 9502TIP3   OH249920   6.720   1.183  12.345  0.2426 -0.4163 -0.3863
 9502TIP3    H149921   6.732   1.250  12.277  0.6561 -0.7976 -0.6866
 9502TIP3    H249922   6.678   1.231  12.417  1.6184  0.4449 -0.1285
 9503TIP3   OH249923   2.178   3.617   5.276  0.2651  0.2078 -0.3193
 9503TIP3    H149924   2.193   3.552   5.345  0.8903  0.9102  0.2251
 9503TIP3    H249925   2.103   3.667   5.306  0.8673  0.8613  0.1330
 9504TIP3   OH249926   3.291   1.931   5.743  0.0848  0.1966 -0.0523
 9504TIP3    H149927   3.247   1.849   5.764 -0.5119  1.0855  2.5188
 9504TIP3    H249928   3.376   1.903   5.707 -0.5090 -1.5385 -0.2119
 9505TIP3   OH249929   5.425   2.078   1.687  0.5006  0.9535  0.1855
 9505TIP3    H149930   5.404   2.098   1.778  3.4480  0.5461  1.0373
 9505TIP3    H249931   5.402   1.986   1.677  2.5447  0.2546  1.3731
 9506TIP3   OH249932   3.399   3.720  16.271 -0.0951  0.8446 -0.6809
 9506TIP3    H149933   3.349   3.684  16.344  1.0513 -1.6002 -0.9925
 9506TIP3    H249934   3.477   3.759  16.311  0.5892 -0.5969 -0.5626
 9507TIP3   OH249935   1.291   0.906   0.848 -0.2710 -0.0087 -0.4083
 9507TIP3    H149936   1.292   0.918   0.943 -1.0643  0.5572 -0.4555
 9507TIP3    H249937   1.382   0.920   0.821  0.0777 -0.8058  0.3329
 9508TIP3   OH249938   2.665   1.083   2.564  0.0893  0.1190 -0.0074
 9508TIP3    H149939   2.696   1.141   2.495  0.5951 -1.9131 -1.5961
 9508TIP3    H249940   2.629   1.007   2.518  0.7931 -1.5230  1.9495
 9509TIP3   OH249941   3.832   0.268  14.032 -0.2600 -0.1472  0.6499
 9509TIP3    H149942   3.914   0.258  13.983  0.2435  0.4695  1.3389
 9509TIP3    H249943   3.821   0.362  14.040 -0.2617 -0.2344  1.8271
 9510TIP3   OH249944   3.670   1.296   0.431 -0.2340 -0.1710 -0.2187
 9510TIP3    H149945   3.608   1.345   0.484 -0.2915  0.3081 -0.7271
 9510TIP3    H249946   3.668   1.207   0.467 -0.4957  0.0757  0.3813
 9511TIP3   OH249947   2.849   0.239  14.420 -0.3031 -0.4578 -0.3570
 9511TIP3    H149948   2.881   0.328  14.409  0.0806 -0.4922  0.4116
 9511TIP3    H249949   2.926   0.184  14.405 -0.5857 -0.6822 -1.0509
 9512TIP3   OH249950   3.496   0.050   4.155 -0.0362  0.0754 -0.2355
 9512TIP3    H149951   3.529   0.120   4.212  1.7011 -0.6062 -0.3447
 9512TIP3    H249952   3.417   0.018   4.198 -1.2468  2.4741 -0.4790
 9513TIP3   OH249953   0.449   5.095   4.758 -0.2237  0.4744  0.1751
 9513TIP3    H149954   0.375   5.034   4.764  0.0186  0.0652 -0.8447
 9513TIP3    H249955   0.457   5.114   4.665  1.1207  0.3193  0.2403
 9514TIP3   OH249956   4.960   6.246  17.017  0.1309 -0.0364  0.0379
 9514TIP3    H149957   4.997   6.329  16.986 -0.8753  0.3975 -0.0368
 9514TIP3    H249958   4.941   6.197  16.936 -1.6898  0.7440 -0.0597
 9515TIP3   OH249959   1.763   0.233  13.996  0.5172  0.5000 -0.2408
 9515TIP3    H149960   1.762   0.328  13.984  0.5526  0.6355  0.7837
 9515TIP3    H249961   1.853   0.208  13.976  0.6772  0.7718  0.1264
 9516TIP3   OH249962   5.052   3.419  15.689  0.2040 -0.0403 -0.2757
 9516TIP3    H149963   5.006   3.491  15.732  2.3959  0.7877  0.8749
 9516TIP3    H249964   5.064   3.448  15.599  0.8042  0.9674  0.1010
 9517TIP3   OH249965   4.442   6.648  14.105  0.3734 -0.8155  0.4064
 9517TIP3    H149966   4.499   6.577  14.077  1.1057  0.7268 -2.3788
 9517TIP3    H249967   4.499   6.708  14.153  0.8108  0.0016 -1.0909
 9518TIP3   OH249968   5.670   1.718  16.687 -0.2223 -0.3137  0.2794
 9518TIP3    H149969   5.731   1.775  16.640 -1.8530  1.3985  0.1305
 9518TIP3    H249970   5.616   1.679  16.619 -1.1462  0.4337  0.5726
 9519TIP3   OH249971   2.065   0.309   2.738  0.4629  0.1194 -0.0990
 9519TIP3    H149972   1.999   0.352   2.683 -0.0909 -1.0685 -0.4059
 9519TIP3    H249973   2.015   0.251   2.795  1.1473  0.2618  0.6625
 9520TIP3   OH249974   2.592   2.555   3.676 -0.4564  0.3544 -0.0853
 9520TIP3    H149975   2.515   2.609   3.659 -2.1446 -1.4614  1.3141
 9520TIP3    H249976   2.570   2.469   3.641  1.4828  0.0922 -0.7858
 9521TIP3   OH249977   4.904   3.026   5.559 -0.2350 -0.5625  0.4355
 9521TIP3    H149978   4.877   3.086   5.490  0.2594  0.6225  1.2327
 9521TIP3    H249979   4.990   2.995   5.531 -0.4432 -0.8217  0.0742
 9522TIP3   OH249980   3.121   0.018  10.886  0.5407 -0.2149 -0.1027
 9522TIP3    H149981   3.141  -0.030  10.806  2.5736  1.4342 -0.6546
 9522TIP3    H249982   3.101   0.107  10.856 -2.6648 -0.4578  0.9235
 9523TIP3   OH249983   5.874   3.974  11.963  0.2311  0.0531  0.5471
 9523TIP3    H149984   5.829   3.984  11.878  1.8231 -0.2946 -0.3813
 9523TIP3    H249985   5.805   3.949  12.024 -0.7662 -0.9740 -0.9285
 9524TIP3   OH249986   5.032   4.668   1.341  0.2024 -0.3874 -0.4586
 9524TIP3    H149987   5.091   4.598   1.370 -0.5141 -0.3545  1.1516
 9524TIP3    H249988   5.040   4.667   1.245  1.4738 -1.5421 -0.3797
 9525TIP3   OH249989   1.793   2.978  14.348  0.4869  0.6231  0.0863
 9525TIP3    H149990   1.718   2.920  14.358 -0.4484  1.7118 -0.4804
 9525TIP3    H249991   1.856   2.947  14.414 -0.7430  0.1718  1.0845
 9526TIP3   OH249992   3.005   5.815   5.169 -0.5515 -0.2286  0.0973
 9526TIP3    H149993   3.059   5.801   5.092  0.5909  1.4059  0.5519
 9526TIP3    H249994   3.067   5.825   5.241 -1.5221  0.0892  0.9170
 9527TIP3   OH249995   1.647   2.066   4.153 -0.0587 -0.0795 -0.4101
 9527TIP3    H149996   1.553   2.077   4.162 -0.2562 -2.2625  1.0812
 9527TIP3    H249997   1.683   2.095   4.237  0.6546  0.9003 -1.0271
 9528TIP3   OH249998   0.587   5.782   6.269 -0.2280  0.1120  0.0092
 9528TIP3    H149999   0.596   5.730   6.348  0.4145  0.2815  0.0562
 9528TIP3    H250000   0.530   5.855   6.294 -0.5554 -0.1842  0.1314
 9529TIP3   OH250001   1.186   5.762   5.387 -0.6583 -0.1719  0.0858
 9529TIP3    H150002   1.117   5.817   5.424 -0.0800  0.5369  0.1540
 9529TIP3    H250003   1.198   5.796   5.298  0.3990  0.5138  0.4617
 9530TIP3   OH250004   4.026   4.856  15.008  0.0135 -0.5604 -0.1651
 9530TIP3    H150005   3.945   4.804  15.008 -1.3911  1.5315 -0.0618
 9530TIP3    H250006   4.002   4.938  15.051  2.5567 -0.3753  1.0555
 9531TIP3   OH250007   0.880   2.010   5.498 -0.6536  0.5893 -0.4178
 9531TIP3    H150008   0.962   2.056   5.485 -0.2485 -0.7813 -3.8529
 9531TIP3    H250009   0.817   2.078   5.521  1.1972  1.7900  1.3674
 9532TIP3   OH250010   5.731   3.634   2.615  0.0814  0.0452 -0.0876
 9532TIP3    H150011   5.814   3.586   2.607  1.2171  1.7738  0.6325
 9532TIP3    H250012   5.715   3.669   2.528 -0.3058 -0.9107 -0.4104
 9533TIP3   OH250013   1.592   0.528  10.704 -0.4666  0.1899 -0.0397
 9533TIP3    H150014   1.633   0.491  10.626  2.2274 -0.4278  1.5443
 9533TIP3    H250015   1.596   0.623  10.691 -0.3177  0.0928 -0.7458
 9534TIP3   OH250016   2.550   0.721  14.031  0.7342 -0.3481  0.4874
 9534TIP3    H150017   2.475   0.754  14.081  0.9217  0.7701  0.0564
 9534TIP3    H250018   2.601   0.799  14.009  2.1069 -1.0891  0.8774
 9535TIP3   OH250019   0.456   5.714   5.708 -0.4158 -0.1708  0.1110
 9535TIP3    H150020   0.404   5.693   5.786  2.3324  0.7793  2.3940
 9535TIP3    H250021   0.421   5.798   5.678  0.2907  0.9329  2.1722
 9536TIP3   OH250022   2.783   6.778   1.319 -0.1647  0.2038 -0.1924
 9536TIP3    H150023   2.826   6.851   1.274 -0.2380  0.1016 -0.4285
 9536TIP3    H250024   2.810   6.787   1.410 -0.5656  0.8123 -0.1303
 9537TIP3   OH250025   4.303   3.084   6.925  0.8478  0.7339  0.6333
 9537TIP3    H150026   4.316   3.103   6.832 -1.6795 -1.8132 -0.3732
 9537TIP3    H250027   4.382   3.036   6.951  0.9649  0.2285 -0.6085
 9538TIP3   OH250028   5.950   5.242  10.343 -0.0871 -0.1218  0.4994
 9538TIP3    H150029   5.920   5.190  10.418 -0.1432  0.2190  0.7175
 9538TIP3    H250030   5.933   5.333  10.369 -1.0660 -0.0426 -0.3439
 9539TIP3   OH250031   1.794   5.617   3.001 -0.0325  0.5869  0.0180
 9539TIP3    H150032   1.720   5.678   3.003 -0.7517 -0.2650  1.9973
 9539TIP3    H250033   1.766   5.549   2.939  0.7323  2.0891 -2.1320
 9540TIP3   OH250034   3.068   6.563  17.136  0.3325 -0.2202  0.6339
 9540TIP3    H150035   3.122   6.492  17.101 -1.3688 -1.0956 -0.3864
 9540TIP3    H250036   2.992   6.518  17.175 -0.1036  0.9866  1.2363
 9541TIP3   OH250037   0.230   2.772  15.657  0.3664  0.2200  0.1564
 9541TIP3    H150038   0.268   2.840  15.602  0.5359 -0.6040 -0.7949
 9541TIP3    H250039   0.138   2.769  15.630  0.3202  0.1975  0.3195
 9542TIP3   OH250040   1.838   6.074  16.239 -0.3136 -0.4374 -0.3909
 9542TIP3    H150041   1.831   6.170  16.240  2.2678 -0.1715  0.7573
 9542TIP3    H250042   1.764   6.044  16.294 -0.5710  0.9558  0.0675
 9543TIP3   OH250043   4.123   2.874   0.407 -0.4600  0.4631  0.5957
 9543TIP3    H150044   4.174   2.948   0.439 -0.7230  0.6576  0.5744
 9543TIP3    H250045   4.101   2.824   0.486  0.4558 -0.0774  0.5212
 9544TIP3   OH250046   5.355   5.255   6.025  0.1303 -0.5651 -0.2430
 9544TIP3    H150047   5.447   5.234   6.040 -0.2301 -1.5947  0.6984
 9544TIP3    H250048   5.307   5.183   6.066 -1.1342  0.9459  1.0821
 9545TIP3   OH250049   4.040   6.570  15.842  0.0678  0.0590 -0.9511
 9545TIP3    H150050   4.065   6.624  15.767  1.2504  0.4589 -0.2868
 9545TIP3    H250051   3.948   6.591  15.857  0.8713  3.2133  0.3237
 9546TIP3   OH250052   5.162   2.347   2.358 -0.2499 -0.0664  0.1024
 9546TIP3    H150053   5.225   2.417   2.374 -0.1042  0.0101 -0.7758
 9546TIP3    H250054   5.169   2.328   2.264 -0.6739 -0.8821  0.2182
 9547TIP3   OH250055   5.999   5.642   2.649  0.1163 -0.4207 -0.6101
 9547TIP3    H150056   5.990   5.564   2.703 -0.7697 -0.9138 -1.4497
 9547TIP3    H250057   6.078   5.626   2.597  1.6223  0.5362  1.2688
 9548TIP3   OH250058   5.063   5.385   1.938  0.5792  0.5258  0.5618
 9548TIP3    H150059   5.082   5.331   2.016  0.8561  1.6705  1.3125
 9548TIP3    H250060   5.135   5.448   1.935  0.9999 -0.0021 -1.1120
 9549TIP3   OH250061   0.995   0.877  11.915  0.0500  0.0612 -0.1436
 9549TIP3    H150062   1.078   0.837  11.887  0.9982  1.3005  0.7960
 9549TIP3    H250063   0.992   0.961  11.869 -0.0378  0.5987  0.8160
 9550TIP3   OH250064   0.086   2.728   1.025 -0.6222 -0.6896 -0.3983
 9550TIP3    H150065   0.138   2.809   1.020 -0.6734 -0.5943  0.4113
 9550TIP3    H250066   0.081   2.697   0.935 -0.4443  0.1146 -0.6951
 9551TIP3   OH250067   4.271   5.631  15.224  0.3148  0.8135  0.7415
 9551TIP3    H150068   4.238   5.649  15.312 -2.0924  1.2962 -0.1727
 9551TIP3    H250069   4.213   5.681  15.166  1.0178 -0.4798 -1.1807
 9552TIP3   OH250070   0.772   5.894   3.744  0.7216  0.0397  0.4334
 9552TIP3    H150071   0.694   5.938   3.710  0.5115 -1.2513 -0.7957
 9552TIP3    H250072   0.821   5.867   3.667  1.5972 -0.5812  1.1836
 9553TIP3   OH250073   1.829   6.012  16.937 -0.2079 -0.4058 -0.2344
 9553TIP3    H150074   1.925   6.008  16.938 -0.1396  0.8286 -0.6817
 9553TIP3    H250075   1.808   6.083  16.876 -1.3491  1.1152  1.7863
 9554TIP3   OH250076   2.692   0.516  16.304 -0.1086  0.1516  0.3433
 9554TIP3    H150077   2.634   0.587  16.333  1.2278  1.0601  0.9060
 9554TIP3    H250078   2.673   0.506  16.211 -1.1787  0.4012  0.5190
 9555TIP3   OH250079   2.058   3.916  12.479 -0.6023  0.6297  0.0769
 9555TIP3    H150080   2.009   3.837  12.457  1.6167 -1.3464  1.7219
 9555TIP3    H250081   2.145   3.902  12.443  0.4214  1.3770  2.0911
 9556TIP3   OH250082   3.755   2.112  15.926 -0.2593 -0.2599 -0.2330
 9556TIP3    H150083   3.747   2.186  15.865 -0.6554 -1.3925 -1.5971
 9556TIP3    H250084   3.665   2.084  15.943 -0.0736 -0.9991 -0.4446
 9557TIP3   OH250085   3.930   0.310   5.869  0.1522 -0.1754  1.2383
 9557TIP3    H150086   3.860   0.341   5.926 -0.6268 -0.4288  0.4301
 9557TIP3    H250087   3.886   0.260   5.800  1.1058 -0.2315  0.6442
 9558TIP3   OH250088   1.577   6.771  13.932 -0.3303  0.6059  0.2297
 9558TIP3    H150089   1.589   6.731  13.846 -0.2866  1.8301 -0.3480
 9558TIP3    H250090   1.657   6.748  13.980  0.3847  1.2689 -0.6124
 9559TIP3   OH250091   4.391   1.421   4.042  0.0864  0.1170  0.1540
 9559TIP3    H150092   4.443   1.345   4.018  1.6968  0.7937  1.2834
 9559TIP3    H250093   4.442   1.496   4.009 -0.4892  0.7813  0.7390
 9560TIP3   OH250094   3.234   4.786  15.210  0.0185 -0.2731 -0.0850
 9560TIP3    H150095   3.156   4.744  15.245 -0.8446  1.4639  0.1791
 9560TIP3    H250096   3.297   4.785  15.282 -0.4647  0.0286  0.3533
 9561TIP3   OH250097   4.332   0.321   2.913  0.0218 -0.2261 -0.4424
 9561TIP3    H150098   4.292   0.391   2.861 -1.3454 -2.5982 -2.8507
 9561TIP3    H250099   4.420   0.311   2.876  0.3269  0.3776  0.1040
 9562TIP3   OH250100   3.243   4.520   5.468  0.0574 -0.2740 -0.0647
 9562TIP3    H150101   3.294   4.539   5.546  0.8487 -0.2649 -0.5696
 9562TIP3    H250102   3.300   4.463   5.416 -0.4496 -0.2685 -0.6370
 9563TIP3   OH250103   2.054   0.256  14.821  0.0583 -0.1387 -0.3048
 9563TIP3    H150104   2.149   0.263  14.828 -0.1187  1.0043  1.9643
 9563TIP3    H250105   2.022   0.285  14.906 -2.2926 -1.6573 -0.5718
 9564TIP3   OH250106   5.154   4.107   0.014 -0.3476 -0.1760 -0.6338
 9564TIP3    H150107   5.249   4.096   0.009 -0.4454 -0.9992 -0.8980
 9564TIP3    H250108   5.126   4.041   0.077 -0.8753 -0.8019 -1.5021
 9565TIP3   OH250109   2.510   1.093   3.459  0.4696 -0.2016 -0.2658
 9565TIP3    H150110   2.458   1.055   3.388 -1.5671 -0.8912  1.4798
 9565TIP3    H250111   2.580   1.028   3.475 -0.2678 -1.0292 -0.3252
 9566TIP3   OH250112   3.185   0.496   3.642  0.2366  0.3009  0.1224
 9566TIP3    H150113   3.108   0.446   3.615  1.0156  0.0257 -1.7538
 9566TIP3    H250114   3.228   0.519   3.560  2.3660  0.1239  1.1283
 9567TIP3   OH250115   4.691   5.863  14.876  0.2745 -0.6680  0.2614
 9567TIP3    H150116   4.617   5.832  14.824 -0.0060  0.2704  0.0893
 9567TIP3    H250117   4.660   5.944  14.917  1.1870 -0.2806  0.2187
 9568TIP3   OH250118   2.476   3.306  12.672 -0.2231  0.6363  0.0449
 9568TIP3    H150119   2.401   3.306  12.612 -0.2875 -0.4818  0.1150
 9568TIP3    H250120   2.512   3.218  12.667  1.4492  1.3043 -0.4021
 9569TIP3   OH250121   6.399   6.571  12.847 -0.3043  0.2915  0.5452
 9569TIP3    H150122   6.473   6.572  12.908 -0.1614  0.5902  0.3716
 9569TIP3    H250123   6.337   6.633  12.883  0.3525  1.4804 -0.2951
 9570TIP3   OH250124   4.908   5.471   1.723 -0.2908 -0.2329 -0.1098
 9570TIP3    H150125   4.918   5.566   1.730  1.1807 -0.2239 -1.5138
 9570TIP3    H250126   4.984   5.436   1.770 -1.1635 -0.7471  0.9369
 9571TIP3   OH250127   0.777   3.271  15.303 -0.0249 -0.1726  0.2048
 9571TIP3    H150128   0.816   3.330  15.239  1.6403 -1.8901 -0.4825
 9571TIP3    H250129   0.705   3.320  15.341  1.4710  2.3942 -0.0645
 9572TIP3   OH250130   2.018   2.085  16.027  0.3939  0.3752 -0.3451
 9572TIP3    H150131   1.964   2.155  15.990 -0.1621 -0.1175 -0.4873
 9572TIP3    H250132   2.108   2.118  16.022 -0.0078  1.8521  1.3077
 9573TIP3   OH250133   6.210   0.118   0.330 -0.1966  0.2859 -0.5967
 9573TIP3    H150134   6.183   0.026   0.325  0.5369 -0.0689  1.3218
 9573TIP3    H250135   6.181   0.155   0.246 -2.0423 -1.2645 -0.7368
 9574TIP3   OH250136   2.673   6.452  16.195  0.5860 -0.1533 -0.1587
 9574TIP3    H150137   2.583   6.423  16.181  0.6079 -0.1761 -0.2496
 9574TIP3    H250138   2.666   6.515  16.267  0.2593  1.1537 -1.3113
 9575TIP3   OH250139   4.690   2.417   3.929  0.5842  0.4441  0.0579
 9575TIP3    H150140   4.748   2.465   3.871 -1.3354  3.2785  0.2503
 9575TIP3    H250141   4.618   2.388   3.872  1.3335 -1.6298  0.0993
 9576TIP3   OH250142   4.294   2.351  14.640 -0.3115 -0.2355  0.3293
 9576TIP3    H150143   4.280   2.407  14.716 -0.1258 -1.9628  1.6740
 9576TIP3    H250144   4.383   2.319  14.649 -0.7302 -1.5247  0.1397
 9577TIP3   OH250145   5.150   5.721  12.958  0.0927  0.2163 -0.1764
 9577TIP3    H150146   5.221   5.657  12.961  0.8987  1.0959  2.7962
 9577TIP3    H250147   5.080   5.677  12.908  1.1720 -2.3366  0.3843
 9578TIP3   OH250148   5.941   3.444  11.219  0.1399 -0.3982  0.9285
 9578TIP3    H150149   5.877   3.374  11.230 -0.2467 -0.2378 -0.1546
 9578TIP3    H250150   5.889   3.523  11.208  0.4716 -0.3929 -0.8467
 9579TIP3   OH250151   5.755   1.323  14.710 -0.0102 -0.1735 -0.1773
 9579TIP3    H150152   5.708   1.329  14.627 -0.2502 -0.9299 -0.1090
 9579TIP3    H250153   5.800   1.407  14.719  0.1817 -0.1546 -1.1738
 9580TIP3   OH250154   3.051   4.586  15.382  0.2238 -0.0363  0.0147
 9580TIP3    H150155   3.000   4.626  15.451 -0.3031  1.0086 -0.9576
 9580TIP3    H250156   3.072   4.498  15.416  0.4479  0.6307  1.6997
 9581TIP3   OH250157   5.771   5.062   0.326  0.2613  0.7651 -0.0090
 9581TIP3    H150158   5.757   5.137   0.384 -1.0105  1.1116 -0.7234
 9581TIP3    H250159   5.702   5.069   0.261  1.3838  0.1234 -1.3123
 9582TIP3   OH250160   6.019   0.636  12.486  0.5601 -0.3595  0.0082
 9582TIP3    H150161   6.048   0.723  12.461 -0.0963 -0.0695  0.2481
 9582TIP3    H250162   6.074   0.613  12.561 -0.4358  0.5780  1.0570
 9583TIP3   OH250163   5.459   3.415  15.195 -0.2553  0.1383 -0.2241
 9583TIP3    H150164   5.373   3.393  15.231 -0.6039 -0.9904 -1.6680
 9583TIP3    H250165   5.450   3.507  15.167 -1.1087 -0.0519 -0.6317
 9584TIP3   OH250166   5.893   2.606  15.978  0.4233  0.4709  0.0312
 9584TIP3    H150167   5.801   2.580  15.977  0.5946 -0.1365  0.1091
 9584TIP3    H250168   5.918   2.601  16.070  0.1803  1.9313  0.2127
 9585TIP3   OH250169   4.705   2.896   3.638  0.1467  0.3318 -0.3652
 9585TIP3    H150170   4.713   2.846   3.719  1.2238 -2.0794 -1.8573
 9585TIP3    H250171   4.674   2.832   3.573  1.0953  1.7165 -2.2820
 9586TIP3   OH250172   1.135   3.899   3.182 -0.6305  0.3004  0.5288
 9586TIP3    H150173   1.042   3.908   3.204 -0.7259 -1.4180  0.9153
 9586TIP3    H250174   1.165   3.826   3.235  0.5650 -0.1921 -0.7833
 9587TIP3   OH250175   5.104   4.787  13.872 -0.3794  0.1139  0.9545
 9587TIP3    H150176   5.146   4.869  13.845 -2.9157  1.5312  0.9870
 9587TIP3    H250177   5.026   4.782  13.817 -0.9206 -1.6812  1.8229
 9588TIP3   OH250178   4.494   5.326  14.773 -0.3644  0.2001  0.0056
 9588TIP3    H150179   4.581   5.363  14.761 -0.2221 -0.1953 -0.2167
 9588TIP3    H250180   4.508   5.231  14.770 -0.2828 -0.0146  3.2950
 9589TIP3   OH250181   5.327   6.199  14.393  0.3459  0.4225  0.0114
 9589TIP3    H150182   5.380   6.211  14.315  0.8209 -0.1515  0.2371
 9589TIP3    H250183   5.370   6.252  14.460  0.0850  0.7123 -0.0469
 9590TIP3   OH250184   0.339   1.292  12.045  0.5381 -0.1986 -0.2987
 9590TIP3    H150185   0.424   1.289  12.090  0.7747  0.4499 -0.6854
 9590TIP3    H250186   0.285   1.227  12.090  2.0476 -2.5844 -1.6856
 9591TIP3   OH250187   4.000   2.405  14.927  0.0233 -0.5034 -0.3256
 9591TIP3    H150188   3.963   2.432  15.011 -1.2500  0.1655 -1.0662
 9591TIP3    H250189   3.982   2.479  14.868 -1.8687 -2.1554 -1.9623
 9592TIP3   OH250190   0.955   5.617  11.692 -0.0773  0.1947 -0.9156
 9592TIP3    H150191   1.028   5.666  11.731  0.3296 -0.2863 -1.0543
 9592TIP3    H250192   0.877   5.665  11.718  0.2184  0.1457  0.1129
 9593TIP3   OH250193   2.247   4.248  11.925  0.0648  0.0658 -0.4717
 9593TIP3    H150194   2.199   4.178  11.969 -1.6621  0.7917 -1.0795
 9593TIP3    H250195   2.309   4.280  11.990  0.4924 -1.6323 -0.0045
 9594TIP3   OH250196   0.161   5.319   1.939  0.3398 -0.1755 -0.2981
 9594TIP3    H150197   0.084   5.349   1.890  0.2734 -1.7242 -1.2216
 9594TIP3    H250198   0.125   5.265   2.009  0.5568 -1.6467 -1.2629
 9595TIP3   OH250199   6.053   5.907  15.958  0.3133  0.1780 -0.3434
 9595TIP3    H150200   6.018   5.932  16.043  0.9749 -0.5490  0.1570
 9595TIP3    H250201   5.980   5.863  15.914  0.0065  0.4425 -0.0987
 9596TIP3   OH250202   3.828   4.612  16.911  0.5449  0.3041  0.0929
 9596TIP3    H150203   3.904   4.644  16.864  0.8807  0.7172  0.8908
 9596TIP3    H250204   3.857   4.532  16.955 -0.3861 -1.3689 -2.1673
 9597TIP3   OH250205   1.867   4.933   2.252 -0.2948  0.7544 -0.2456
 9597TIP3    H150206   1.810   5.004   2.281 -1.1477  0.2877 -0.7452
 9597TIP3    H250207   1.854   4.929   2.157  1.6534  1.5683 -0.5879
 9598TIP3   OH250208   5.326   0.087   2.020 -0.2777  0.0033 -0.6139
 9598TIP3    H150209   5.311   0.056   1.930 -0.1030 -0.3195 -0.5356
 9598TIP3    H250210   5.242   0.124   2.047 -0.6268 -0.7818 -0.5703
 9599TIP3   OH250211   0.928   0.371   5.882 -0.0424  0.1257  0.0305
 9599TIP3    H150212   0.905   0.355   5.973  2.5841 -2.5886  0.3625
 9599TIP3    H250213   0.875   0.309   5.832 -0.5567  0.7343 -0.1936
 9600TIP3   OH250214   6.573   5.459  14.324 -0.4601 -0.8303  0.4662
 9600TIP3    H150215   6.625   5.448  14.245 -0.7590 -2.1391  0.4164
 9600TIP3    H250216   6.543   5.550  14.321  1.3507 -0.2005  0.2356
 9601TIP3   OH250217   6.702   4.693   4.279 -0.4815 -0.1320  0.0812
 9601TIP3    H150218   6.796   4.696   4.297 -0.3913  0.7711 -0.5362
 9601TIP3    H250219   6.666   4.646   4.355  0.3288  0.4642  0.8646
 9602TIP3   OH250220   4.012   2.322  13.054  0.0200 -0.1969  0.1220
 9602TIP3    H150221   3.939   2.332  13.115  0.2536  0.5176  0.2946
 9602TIP3    H250222   3.995   2.386  12.986  0.2139 -0.3957 -0.1152
 9603TIP3   OH250223   2.444   4.708   2.869  0.2339  0.0770  0.6214
 9603TIP3    H150224   2.372   4.646   2.863 -1.1109  1.6176 -0.1511
 9603TIP3    H250225   2.523   4.654   2.871 -0.8512 -1.6261 -0.1742
 9604TIP3   OH250226   3.772   6.458   6.066  0.2850  0.4545  0.0369
 9604TIP3    H150227   3.805   6.477   5.978  1.1397  3.5692  0.8911
 9604TIP3    H250228   3.848   6.470   6.123 -0.2708 -1.4272  1.2546
 9605TIP3   OH250229   4.471   0.588   5.621 -0.2264  0.2367  0.1976
 9605TIP3    H150230   4.531   0.553   5.686  0.9194  1.4958 -0.1144
 9605TIP3    H250231   4.527   0.643   5.565 -1.4808  0.5536 -0.7844
 9606TIP3   OH250232   2.220   2.657  13.366 -0.2437  0.2461  0.0699
 9606TIP3    H150233   2.177   2.584  13.411 -0.8609  1.5051  1.6328
 9606TIP3    H250234   2.286   2.688  13.428  0.1110  0.9207 -0.6307
 9607TIP3   OH250235   5.049   0.953   5.767  0.2498  0.3046  0.7652
 9607TIP3    H150236   5.082   0.890   5.832 -2.9050 -0.7993  1.5046
 9607TIP3    H250237   4.972   0.910   5.730  0.7493  1.7958 -2.2861
 9608TIP3   OH250238   2.671   0.636  12.442  0.0222  0.1614 -0.2073
 9608TIP3    H150239   2.668   0.695  12.367 -0.4425 -0.1123 -0.4098
 9608TIP3    H250240   2.594   0.658  12.494 -0.8171 -1.0174 -0.8810
 9609TIP3   OH250241   5.894   3.160   3.395 -0.1153 -0.3672 -0.8614
 9609TIP3    H150242   5.833   3.141   3.467  0.8127 -0.6162 -0.1243
 9609TIP3    H250243   5.837   3.182   3.321 -1.0984 -0.4100 -0.1421
 9610TIP3   OH250244   5.362   1.549   5.909  0.6028  0.2148  0.1413
 9610TIP3    H150245   5.393   1.598   5.986  0.0876  1.9015 -0.6771
 9610TIP3    H250246   5.351   1.616   5.841 -1.8853 -0.7339 -0.5101
 9611TIP3   OH250247   1.150   5.318  12.621 -0.6442  0.3414 -0.4053
 9611TIP3    H150248   1.058   5.293  12.612  0.0638 -2.0031 -1.9862
 9611TIP3    H250249   1.165   5.320  12.715 -2.1855  0.2530 -0.1357
 9612TIP3   OH250250   1.851   1.910   5.621  0.4669 -0.5961 -0.4302
 9612TIP3    H150251   1.836   1.871   5.534  1.7630 -1.2495 -0.3935
 9612TIP3    H250252   1.794   1.987   5.623 -1.1545 -1.7313 -1.0434
 9613TIP3   OH250253   0.501   3.885   0.346  0.2156 -0.3446 -0.2363
 9613TIP3    H150254   0.428   3.831   0.378  0.4743  1.6165  4.5516
 9613TIP3    H250255   0.580   3.841   0.378  0.5460  1.4498  1.6510
 9614TIP3   OH250256   1.575   6.478  16.630 -0.0657 -0.2071 -0.1941
 9614TIP3    H150257   1.578   6.394  16.583  0.3518 -1.0548  1.2879
 9614TIP3    H250258   1.493   6.518  16.601 -0.2521 -1.0982 -0.9717
 9615TIP3   OH250259   5.230   2.882  10.363 -0.2205  0.0756 -0.3562
 9615TIP3    H150260   5.272   2.801  10.391 -0.2721  0.5018  1.0725
 9615TIP3    H250261   5.299   2.948  10.366 -0.5819  0.4409  0.3316
 9616TIP3   OH250262   6.219   2.249  14.527  0.0785  0.7366  0.3937
 9616TIP3    H150263   6.130   2.277  14.507 -0.0849 -0.6998 -1.1341
 9616TIP3    H250264   6.273   2.297  14.464  0.2546  0.8291  0.6189
 9617TIP3   OH250265   0.519   0.679   1.732  0.0482 -0.4071  0.2061
 9617TIP3    H150266   0.508   0.584   1.723  0.2304 -0.3024 -1.7651
 9617TIP3    H250267   0.430   0.713   1.739  0.0359 -0.8322  3.3886
 9618TIP3   OH250268   6.288   1.312  16.424  0.2294 -0.1736  0.2001
 9618TIP3    H150269   6.295   1.308  16.329  0.8629  0.2060  0.2267
 9618TIP3    H250270   6.365   1.361  16.452 -0.6697  0.9454  0.8099
 9619TIP3   OH250271   6.733   4.316   5.139  0.0275  0.1217  0.2181
 9619TIP3    H150272   6.651   4.360   5.158 -0.4974 -1.2334  1.2898
 9619TIP3    H250273   6.769   4.294   5.225 -0.9156 -3.5505 -0.1460
 9620TIP3   OH250274   6.039   1.952  15.173 -0.3133 -0.0080 -0.2100
 9620TIP3    H150275   6.127   1.981  15.197  0.1165 -0.7033 -0.8936
 9620TIP3    H250276   5.991   2.032  15.155 -0.0366  0.4170  0.8710
 9621TIP3   OH250277   2.644   1.503  14.325  0.0760 -0.2344  0.2765
 9621TIP3    H150278   2.573   1.500  14.260 -1.6408 -2.7905  2.0587
 9621TIP3    H250279   2.719   1.463  14.281 -0.2977  0.2955 -0.8838
 9622TIP3   OH250280   2.037   0.167   2.065  0.5345 -0.2255 -0.1692
 9622TIP3    H150281   1.968   0.199   2.123 -0.9811 -0.4579 -1.7831
 9622TIP3    H250282   2.068   0.246   2.020 -0.2259 -0.3920 -1.0216
 9623TIP3   OH250283   3.990   1.501  16.554 -0.0335  0.0200 -0.1806
 9623TIP3    H150284   4.067   1.549  16.584  1.2659 -1.7725 -0.4761
 9623TIP3    H250285   4.017   1.409  16.555 -2.1774 -0.6726 -0.3048
 9624TIP3   OH250286   1.485   5.211   4.980  0.1502  0.3877  0.3649
 9624TIP3    H150287   1.507   5.255   5.063  2.1086  1.0206 -0.4323
 9624TIP3    H250288   1.428   5.139   5.006 -1.4095  2.0759  1.9590
 9625TIP3   OH250289   4.460   5.894   0.182  0.2516 -0.6681 -0.1156
 9625TIP3    H150290   4.521   5.937   0.241  0.1151  1.1196 -1.2243
 9625TIP3    H250291   4.505   5.814   0.154  1.7803  0.2357 -0.3324
 9626TIP3   OH250292   1.520   3.951   4.201 -0.3770  0.4543  0.1488
 9626TIP3    H150293   1.508   3.910   4.115 -0.5548 -1.0179  0.8491
 9626TIP3    H250294   1.610   3.929   4.225 -0.3741  0.7497  0.4026
 9627TIP3   OH250295   6.593   0.799  16.966 -0.3118 -0.6962  0.3645
 9627TIP3    H150296   6.635   0.811  17.051 -1.6134  0.2097  0.9164
 9627TIP3    H250297   6.544   0.881  16.951  1.2489 -0.0992 -2.0782
 9628TIP3   OH250298   5.825   5.643   1.191 -0.5747 -0.1646 -0.0605
 9628TIP3    H150299   5.747   5.588   1.200  0.4540 -1.3881  2.3724
 9628TIP3    H250300   5.824   5.699   1.269 -0.3879  1.7037 -1.3483
 9629TIP3   OH250301   5.978   2.021   5.647  0.2436  0.0730  0.0354
 9629TIP3    H150302   6.057   2.063   5.683  0.6826 -0.2821 -0.4936
 9629TIP3    H250303   5.931   2.092   5.604 -0.3230  0.5175  1.3402
 9630TIP3   OH250304   1.309   6.523   3.982  0.2710  0.0308  0.0671
 9630TIP3    H150305   1.220   6.550   4.000  0.8091  1.0113  1.4171
 9630TIP3    H250306   1.305   6.427   3.976 -0.6546 -0.0315  1.4152
 9631TIP3   OH250307   0.109   3.385   4.578  1.2909  0.3111 -0.4303
 9631TIP3    H150308   0.145   3.335   4.650 -1.2698 -2.1296 -0.6809
 9631TIP3    H250309   0.017   3.398   4.601  0.9999  1.6711 -2.1223
 9632TIP3   OH250310   4.220   4.836   2.236  0.0469  0.3027  0.4353
 9632TIP3    H150311   4.208   4.755   2.186 -0.6297 -0.0454  1.1351
 9632TIP3    H250312   4.300   4.821   2.286  0.5995  0.5616 -0.3543
 9633TIP3   OH250313   2.112   2.242   1.448 -0.4846  0.0420  0.0510
 9633TIP3    H150314   2.096   2.326   1.405  0.2967  0.2675  0.1760
 9633TIP3    H250315   2.193   2.256   1.498  0.9504 -1.4262 -1.7206
 9634TIP3   OH250316   4.679   2.456   6.462 -0.2665 -0.3202 -0.0864
 9634TIP3    H150317   4.692   2.424   6.551  0.7484 -0.2974 -0.2072
 9634TIP3    H250318   4.651   2.379   6.412  0.0769 -0.5502  0.0684
 9635TIP3   OH250319   0.382   2.954   4.814 -0.4113  0.2448  0.8302
 9635TIP3    H150320   0.328   2.915   4.882  0.8672  0.2243  1.8761
 9635TIP3    H250321   0.467   2.912   4.824 -0.0274  0.6953 -0.3808
 9636TIP3   OH250322   2.933   5.998  13.748  0.4651  1.0476  0.3496
 9636TIP3    H150323   2.989   6.063  13.706  0.1584  2.6809  2.3351
 9636TIP3    H250324   2.971   5.914  13.723  1.7837  2.0084 -1.0458
 9637TIP3   OH250325   6.153   2.639  16.834  0.2345 -0.5880 -0.5652
 9637TIP3    H150326   6.098   2.709  16.798  0.3416 -0.7552 -1.0674
 9637TIP3    H250327   6.125   2.561  16.786  1.3029 -0.5733 -1.2277
 9638TIP3   OH250328   6.526   3.810   2.787 -0.0042  0.3498 -0.4118
 9638TIP3    H150329   6.590   3.880   2.795  2.2881 -1.4136 -2.0045
 9638TIP3    H250330   6.496   3.813   2.696 -0.1337 -0.5172 -0.4126
 9639TIP3   OH250331   3.825   6.721   3.254  0.1924 -0.0503 -0.4095
 9639TIP3    H150332   3.801   6.812   3.234  1.6386  0.4193 -0.1018
 9639TIP3    H250333   3.848   6.683   3.169 -0.9984 -0.3302 -0.6246
 9640TIP3   OH250334   5.309   3.301  14.767 -0.0239 -0.0750  0.1763
 9640TIP3    H150335   5.384   3.264  14.814 -1.4879 -0.6449  2.1861
 9640TIP3    H250336   5.241   3.235  14.774 -0.9275  0.6799 -1.0916
 9641TIP3   OH250337   6.667   0.264   3.270  0.0013 -0.4267  0.1918
 9641TIP3    H150338   6.585   0.230   3.235 -0.1883 -0.1466  0.3649
 9641TIP3    H250339   6.735   0.210   3.229 -0.0922  1.0030 -1.9903
 9642TIP3   OH250340   1.668   1.263   3.778 -0.0977  0.4007 -0.4767
 9642TIP3    H150341   1.756   1.273   3.815  0.6904  0.8366 -2.3692
 9642TIP3    H250342   1.674   1.298   3.689 -2.0204 -0.1725 -0.8974
 9643TIP3   OH250343   0.922   1.569  14.359 -0.3352 -0.0713 -0.4581
 9643TIP3    H150344   0.969   1.557  14.441 -1.3034 -0.4698  0.0517
 9643TIP3    H250345   0.873   1.651  14.370 -1.7041 -0.9179 -0.0037
 9644TIP3   OH250346   6.647   3.848  13.011 -0.3337 -0.0363  0.3493
 9644TIP3    H150347   6.558   3.881  13.015 -0.3358 -0.1865  2.6792
 9644TIP3    H250348   6.640   3.767  12.960 -1.3751  0.3030 -0.0810
 9645TIP3   OH250349   2.161   3.062   0.996  0.1601  0.3553 -0.5693
 9645TIP3    H150350   2.255   3.044   0.990 -0.1068 -2.1426  1.2110
 9645TIP3    H250351   2.156   3.156   1.017  2.3649  0.2330  0.8768
 9646TIP3   OH250352   6.656   2.211   2.518 -0.1199 -0.0941  0.9749
 9646TIP3    H150353   6.655   2.117   2.534  0.4600  0.0111  1.6937
 9646TIP3    H250354   6.723   2.245   2.578 -0.0167  0.7182  0.4161
 9647TIP3   OH250355   4.295   1.565  11.376 -0.6249 -0.3238 -0.0973
 9647TIP3    H150356   4.260   1.652  11.394 -1.2802 -0.7122  0.5640
 9647TIP3    H250357   4.225   1.521  11.326  0.8031  0.4423 -2.9663
 9648TIP3   OH250358   4.087   0.464  15.727  0.2180 -0.0111  0.0621
 9648TIP3    H150359   4.002   0.424  15.747  0.2287 -0.4851 -0.8084
 9648TIP3    H250360   4.129   0.404  15.666  0.8222  0.6478 -0.1952
 9649TIP3   OH250361   0.378   0.710  16.749 -0.1062 -0.1326 -0.7149
 9649TIP3    H150362   0.471   0.689  16.755  0.2765  1.1370 -1.6140
 9649TIP3    H250363   0.364   0.777  16.816 -0.3104 -0.1035 -0.7862
 9650TIP3   OH250364   1.827   6.146  12.528 -0.3368 -0.5200  0.5605
 9650TIP3    H150365   1.880   6.183  12.458 -0.1858  0.1113  1.0009
 9650TIP3    H250366   1.877   6.070  12.559 -1.0435 -1.6496 -0.9095
 9651TIP3   OH250367   6.541   2.618   5.301 -0.2758  0.7074  0.6361
 9651TIP3    H150368   6.497   2.649   5.380 -1.9556 -2.4695  1.1303
 9651TIP3    H250369   6.475   2.626   5.232  0.9588  2.8245 -0.3774
 9652TIP3   OH250370   1.989   5.873  12.459 -0.9579 -0.0873 -0.0334
 9652TIP3    H150371   1.962   5.866  12.551  1.6264  0.7593  0.8605
 9652TIP3    H250372   1.982   5.783  12.426 -2.9355 -0.2382  0.6175
 9653TIP3   OH250373   1.468   4.932   6.596  0.4398 -0.1334 -0.3137
 9653TIP3    H150374   1.422   4.848   6.606 -0.5896  0.3125 -1.0703
 9653TIP3    H250375   1.405   4.988   6.550  0.5389  1.5147  1.4000
 9654TIP3   OH250376   6.132   0.988  11.901 -0.1912  0.3557 -0.2520
 9654TIP3    H150377   6.212   1.039  11.917 -0.2883  0.0125  1.5359
 9654TIP3    H250378   6.073   1.016  11.971 -1.0653 -0.5504 -0.6212
 9655TIP3   OH250379   2.445   4.718   0.087 -0.0542 -0.2138  0.0373
 9655TIP3    H150380   2.413   4.648   0.031 -2.4790  1.8060 -1.2873
 9655TIP3    H250381   2.493   4.673   0.156 -0.3853 -3.0582 -1.4503
 9656TIP3   OH250382   1.074   4.842  15.057  0.0339 -0.2206  0.0064
 9656TIP3    H150383   1.014   4.802  15.119  1.6312 -2.9578 -0.0738
 9656TIP3    H250384   1.019   4.869  14.984 -1.6499  1.5553  1.7835
 9657TIP3   OH250385   4.394   5.874  14.797 -0.2656  0.5719  0.8225
 9657TIP3    H150386   4.401   5.961  14.756  2.1083  0.1469  0.1764
 9657TIP3    H250387   4.373   5.892  14.888 -1.8824  1.7081  0.2743
 9658TIP3   OH250388   6.099   3.267  14.055 -0.0281  0.6741  0.1468
 9658TIP3    H150389   6.117   3.310  13.971 -1.1201 -0.1785 -0.5545
 9658TIP3    H250390   6.017   3.307  14.084 -0.8175 -0.5790 -0.2941
 9659TIP3   OH250391   3.113   1.922  15.707 -0.1153  0.5466 -0.2845
 9659TIP3    H150392   3.041   1.940  15.646 -1.3694  1.0341  1.2854
 9659TIP3    H250393   3.129   2.005  15.751  0.5865  0.1335  0.2505
 9660TIP3   OH250394   5.190   3.890  14.257  0.4457 -0.1794  0.1366
 9660TIP3    H150395   5.133   3.814  14.247 -1.6294  0.9329  2.2704
 9660TIP3    H250396   5.256   3.863  14.320  0.6525 -0.6790 -0.2941
 9661TIP3   OH250397   2.453   0.075   1.375 -0.1427 -0.3531  0.1847
 9661TIP3    H150398   2.423   0.007   1.314 -2.2415  1.2140 -0.6210
 9661TIP3    H250399   2.516   0.126   1.324  2.2456 -2.1610  1.1067
 9662TIP3   OH250400   3.302   2.682   5.562  0.3552  0.4989  0.0145
 9662TIP3    H150401   3.290   2.602   5.511  0.8682  0.1027  0.5035
 9662TIP3    H250402   3.353   2.739   5.505 -0.8615  0.8855 -0.7368
 9663TIP3   OH250403   6.504   3.987   2.061 -0.2466  0.0449  0.2263
 9663TIP3    H150404   6.522   3.893   2.064 -1.2254 -0.1966 -0.7025
 9663TIP3    H250405   6.540   4.015   1.977 -0.7306  0.3123  0.1049
 9664TIP3   OH250406   4.334   3.120  13.452  0.4978 -0.0557  0.0817
 9664TIP3    H150407   4.250   3.081  13.475 -0.0234 -0.0253 -1.5943
 9664TIP3    H250408   4.350   3.092  13.362  1.7605  0.8170 -0.0035
 9665TIP3   OH250409   3.722   5.963   3.146 -0.1622 -0.6759 -0.0020
 9665TIP3    H150410   3.748   5.921   3.063 -1.2443 -1.1327 -0.1229
 9665TIP3    H250411   3.800   5.956   3.201  0.0957 -1.6800 -0.4747
 9666TIP3   OH250412   2.542   3.297  15.279 -0.4079  0.2029 -0.6403
 9666TIP3    H150413   2.484   3.296  15.354 -0.6013  2.2881 -0.7006
 9666TIP3    H250414   2.627   3.323  15.314 -0.4572  1.0173 -1.0937
 9667TIP3   OH250415   3.804   3.514   3.617 -0.5403 -0.3638 -0.1952
 9667TIP3    H150416   3.876   3.575   3.631 -1.3723  0.7094 -0.4544
 9667TIP3    H250417   3.741   3.562   3.563 -2.4716 -0.4133  1.8529
 9668TIP3   OH250418   1.966   5.767   2.298 -0.0607 -0.0308 -0.4390
 9668TIP3    H150419   2.031   5.715   2.345 -0.7427 -0.4131  0.0927
 9668TIP3    H250420   1.962   5.849   2.346 -0.5608 -0.3190  0.0195
 9669TIP3   OH250421   5.178   6.391  13.879 -0.2288  0.4717  0.3345
 9669TIP3    H150422   5.270   6.414  13.883  0.8075 -3.0648  0.1187
 9669TIP3    H250423   5.151   6.386  13.971 -0.4822  2.1513  0.3933
 9670TIP3   OH250424   1.164   5.342   5.627  0.0718 -0.3021 -0.0628
 9670TIP3    H150425   1.135   5.254   5.605 -1.2468 -0.1957  1.1476
 9670TIP3    H250426   1.184   5.338   5.721  2.0563  0.1721 -0.4165
 9671TIP3   OH250427   4.773   3.193   0.355 -0.1430  0.1486  0.1479
 9671TIP3    H150428   4.726   3.249   0.293 -0.5193 -0.3265 -0.0024
 9671TIP3    H250429   4.740   3.220   0.441  1.0194  1.4132  0.2251
 9672TIP3   OH250430   6.389   1.267  13.173  0.2448  0.6112 -0.1528
 9672TIP3    H150431   6.301   1.235  13.194  0.1985  0.6800 -0.2423
 9672TIP3    H250432   6.382   1.363  13.181  0.7861  0.5353  1.6906
 9673TIP3   OH250433   3.288   1.057  10.446 -0.0415  0.2649  0.0755
 9673TIP3    H150434   3.382   1.072  10.453 -0.4427  2.2825  2.2604
 9673TIP3    H250435   3.253   1.141  10.416 -1.3224  0.1770  1.2457
 9674TIP3   OH250436   6.144   5.632  15.737  0.0276  0.0093 -0.3436
 9674TIP3    H150437   6.133   5.727  15.727  0.3145  0.1939  0.9247
 9674TIP3    H250438   6.061   5.603  15.775  0.2925 -0.0815  0.1826
 9675TIP3   OH250439   2.362   6.284   3.109 -0.3253  0.6322 -0.6397
 9675TIP3    H150440   2.287   6.274   3.050  0.4233 -0.6420 -1.4099
 9675TIP3    H250441   2.433   6.313   3.053  0.5355 -1.1097 -0.4958
 9676TIP3   OH250442   2.949   1.923   4.733 -0.1298 -0.2403  0.3466
 9676TIP3    H150443   2.951   1.827   4.723 -0.4720 -0.0375 -2.2535
 9676TIP3    H250444   2.909   1.955   4.653  1.7151  2.2153  0.2921
 9677TIP3   OH250445   0.905   5.693   2.409 -0.1021 -0.5454  0.4878
 9677TIP3    H150446   0.904   5.756   2.481 -0.0040  2.7326 -2.1125
 9677TIP3    H250447   0.932   5.744   2.333 -0.0987 -3.7893 -1.9185
 9678TIP3   OH250448   0.133   0.559  12.459  0.4663  0.5582 -0.4218
 9678TIP3    H150449   0.105   0.536  12.370  0.7104  0.6398 -0.5204
 9678TIP3    H250450   0.224   0.528  12.464  0.1480 -0.3550  0.1323
 9679TIP3   OH250451   4.949   0.580  16.247 -0.1242  0.1049  0.2988
 9679TIP3    H150452   4.886   0.537  16.190 -1.6147  1.4598  0.8493
 9679TIP3    H250453   4.911   0.574  16.335 -0.6808  2.8442  0.3558
 9680TIP3   OH250454   2.195   1.496   4.753  0.1661 -0.1744  0.3357
 9680TIP3    H150455   2.138   1.533   4.820 -0.4297 -1.6762  0.6970
 9680TIP3    H250456   2.263   1.449   4.802  1.0500  0.6054 -0.1088
 9681TIP3   OH250457   2.475   5.839   0.046 -0.2810  0.3784 -1.0032
 9681TIP3    H150458   2.422   5.905   0.089  1.2290 -0.6729  2.8445
 9681TIP3    H250459   2.522   5.887  -0.023 -1.4157  2.6356 -0.2747
 9682TIP3   OH250460   3.722   3.975  14.769  0.1420 -0.3138 -0.4008
 9682TIP3    H150461   3.711   4.061  14.810 -1.3813  0.0587 -1.5331
 9682TIP3    H250462   3.738   3.916  14.843 -0.3792  0.6836  0.5433
 9683TIP3   OH250463   1.795   5.371  16.897 -0.5660  0.7107  0.7814
 9683TIP3    H150464   1.769   5.380  16.989 -0.9305 -1.2546  0.9090
 9683TIP3    H250465   1.728   5.421  16.849 -1.4098  0.2903  1.4759
 9684TIP3   OH250466   1.050   1.654  11.262  0.0456 -0.7720 -0.5913
 9684TIP3    H150467   1.119   1.720  11.271 -0.8018 -0.0798  1.2501
 9684TIP3    H250468   1.006   1.677  11.180 -0.7518  1.5085  0.4136
 9685TIP3   OH250469   1.122   3.736  16.417 -0.2673 -0.1267 -0.3425
 9685TIP3    H150470   1.195   3.680  16.391  0.8138 -0.0710  2.2278
 9685TIP3    H250471   1.052   3.717  16.354  1.3752 -1.4662 -1.8294
 9686TIP3   OH250472   4.776   2.401   5.529 -0.0819 -0.4582 -0.0478
 9686TIP3    H150473   4.709   2.335   5.510  1.0670 -1.7902  0.3211
 9686TIP3    H250474   4.743   2.481   5.488 -1.3497 -1.3432 -0.8516
 9687TIP3   OH250475   5.008   2.533  14.468  0.0424  0.8409 -0.4276
 9687TIP3    H150476   4.984   2.440  14.467 -0.6957  0.9509  1.5111
 9687TIP3    H250477   5.052   2.548  14.384 -2.7159 -0.4758 -2.2527
 9688TIP3   OH250478   4.977   5.466  16.965  0.1280  0.5783 -0.8117
 9688TIP3    H150479   4.920   5.390  16.952 -0.6857  1.1463 -0.6790
 9688TIP3    H250480   5.057   5.430  17.003 -1.2607  0.0753  1.9175
 9689TIP3   OH250481   6.687   2.738   4.392  0.4823 -0.1441  0.5360
 9689TIP3    H150482   6.731   2.816   4.426  1.4452 -0.9878  1.2893
 9689TIP3    H250483   6.704   2.740   4.298  0.9446  0.2807  0.6234
 9690TIP3   OH250484   6.261   5.720  13.657 -0.1434 -0.2917  0.0943
 9690TIP3    H150485   6.317   5.703  13.733 -0.0545 -2.6658 -0.4229
 9690TIP3    H250486   6.174   5.737  13.695  0.0622 -0.6464  0.7425
 9691TIP3   OH250487   0.445   5.867   3.754 -0.1223  0.8873 -0.5151
 9691TIP3    H150488   0.402   5.826   3.679 -0.1718  2.9930 -1.7153
 9691TIP3    H250489   0.489   5.795   3.799  2.4810 -0.1388 -4.2718
 9692TIP3   OH250490   5.177   0.185   0.856 -0.5644 -0.2041 -0.3162
 9692TIP3    H150491   5.145   0.095   0.851  0.6088 -0.5923 -0.9969
 9692TIP3    H250492   5.272   0.178   0.847 -0.5746  1.2346 -2.0285
 9693TIP3   OH250493   3.235   1.985  14.148  0.5106  0.5621 -0.5982
 9693TIP3    H150494   3.198   1.898  14.162  0.9235  0.5883  0.7724
 9693TIP3    H250495   3.318   1.969  14.103  1.3292  0.1163  1.0138
 9694TIP3   OH250496   3.937   3.918   3.373 -0.1022 -0.4208 -0.2546
 9694TIP3    H150497   3.864   3.953   3.322 -0.1319 -0.8008 -0.4817
 9694TIP3    H250498   3.960   3.988   3.434  0.2962  0.2699 -1.1658
 9695TIP3   OH250499   0.936   1.022   5.512  0.3077 -0.2917 -0.2441
 9695TIP3    H150500   0.938   1.050   5.420 -1.1531  1.3937  0.1970
 9695TIP3    H250501   1.011   1.066   5.552  0.2953 -0.1364 -0.3888
 9696TIP3   OH250502   3.402   5.788  16.816  0.1749 -0.2416  0.2891
 9696TIP3    H150503   3.375   5.875  16.845 -0.2585 -0.4962  0.6707
 9696TIP3    H250504   3.322   5.748  16.782  0.6813  0.0617 -1.3283
 9697TIP3   OH250505   6.620   3.279  11.999 -0.3441 -0.8853  1.0523
 9697TIP3    H150506   6.642   3.349  11.938  1.1024 -1.7444  0.5493
 9697TIP3    H250507   6.573   3.215  11.945 -0.5900 -0.8670  1.2416
 9698TIP3   OH250508   1.193   4.005   5.254  0.1817  0.1503  0.2119
 9698TIP3    H150509   1.262   4.044   5.201  0.1564 -0.1055 -0.0123
 9698TIP3    H250510   1.227   4.009   5.344  0.1575  0.7188  0.1981
 9699TIP3   OH250511   0.015   6.594   0.417 -0.0910  0.1993 -0.4201
 9699TIP3    H150512   0.024   6.582   0.323 -1.2717 -1.9453 -0.3376
 9699TIP3    H250513   0.057   6.516   0.455 -0.9822  0.2578  0.7402
 9700TIP3   OH250514   1.165   0.260  16.796  0.1139  0.1460 -0.2623
 9700TIP3    H150515   1.126   0.172  16.801  1.4530 -0.3990  1.8710
 9700TIP3    H250516   1.250   0.251  16.838  0.1472  2.5651  0.3408
 9701TIP3   OH250517   2.320   6.060  13.725 -0.0266 -0.7066  0.1412
 9701TIP3    H150518   2.333   6.148  13.691  0.2189 -1.5759 -2.1661
 9701TIP3    H250519   2.407   6.033  13.756 -0.2211  0.0388  1.3910
 9702TIP3   OH250520   5.280   1.459   4.435  0.0065  0.4239 -0.6397
 9702TIP3    H150521   5.255   1.523   4.369 -0.8170  0.7798  0.0065
 9702TIP3    H250522   5.199   1.415   4.459  0.5105 -0.6458 -0.8316
 9703TIP3   OH250523   2.767   5.631  13.187 -0.2053  0.5540  0.0444
 9703TIP3    H150524   2.689   5.649  13.135 -0.1975 -0.4801 -0.3485
 9703TIP3    H250525   2.840   5.648  13.127 -0.1588  0.4431  0.0714
 9704TIP3   OH250526   4.434   3.264  11.958 -0.1198 -0.0863  0.4074
 9704TIP3    H150527   4.420   3.172  11.934 -0.0728 -0.0205  0.1200
 9704TIP3    H250528   4.359   3.287  12.012 -0.2712 -0.2178  0.2557
 9705TIP3   OH250529   1.697   2.162   4.415 -0.7730 -0.1450 -0.3153
 9705TIP3    H150530   1.655   2.248   4.424  0.1396  0.1744  1.3156
 9705TIP3    H250531   1.735   2.145   4.501 -0.0886 -1.7523 -0.8962
 9706TIP3   OH250532   0.439   1.438   0.210 -0.0571 -0.2283  0.2437
 9706TIP3    H150533   0.452   1.366   0.148  0.0635  1.1159 -1.3453
 9706TIP3    H250534   0.501   1.420   0.281  1.4989 -0.5829 -1.1559
 9707TIP3   OH250535   4.291   2.198   6.290  0.1618 -0.1665 -0.0485
 9707TIP3    H150536   4.343   2.196   6.370 -0.9836 -1.4788  0.6967
 9707TIP3    H250537   4.321   2.123   6.240  0.3783  0.2414 -0.5368
 9708TIP3   OH250538   0.295   5.148  11.200 -0.2061  0.6147  0.0350
 9708TIP3    H150539   0.309   5.179  11.290 -0.1135  0.5949  0.0274
 9708TIP3    H250540   0.202   5.165  11.183 -0.2669  0.4530  0.1985
 9709TIP3   OH250541   6.307   6.054  17.066  0.2861 -0.3365  0.2457
 9709TIP3    H150542   6.232   6.096  17.107 -0.8795 -0.5540 -1.5514
 9709TIP3    H250543   6.327   6.109  16.991  1.4434 -0.7139  0.2582
 9710TIP3   OH250544   0.210   5.671  14.134 -0.2308  0.0615  0.1107
 9710TIP3    H150545   0.122   5.706  14.120 -0.5345 -0.7541 -0.0786
 9710TIP3    H250546   0.239   5.646  14.046  0.7153  1.4938 -0.0292
 9711TIP3   OH250547   4.485   4.822  14.188  0.0795  0.0088  0.0901
 9711TIP3    H150548   4.503   4.874  14.109  0.4170 -0.6806 -0.2884
 9711TIP3    H250549   4.409   4.865  14.227  0.9043  1.3463  0.2861
 9712TIP3   OH250550   5.580   6.039  11.764  0.4404  0.3725 -0.0613
 9712TIP3    H150551   5.558   6.127  11.796 -1.8592  0.0853 -0.7137
 9712TIP3    H250552   5.540   6.034  11.678  2.9788 -0.3644 -1.2994
 9713TIP3   OH250553   5.281   1.035   1.034 -0.6032 -0.5285 -0.1943
 9713TIP3    H150554   5.363   1.063   1.074 -1.0101 -3.5422  3.1960
 9713TIP3    H250555   5.295   1.049   0.940  2.7619  1.3793  0.3984
 9714TIP3   OH250556   3.152   0.371   2.547  0.3929 -0.6178  0.2263
 9714TIP3    H150557   3.176   0.432   2.477 -0.1744 -1.3168 -0.6111
 9714TIP3    H250558   3.056   0.364   2.540  0.0222  1.0479  2.5640
 9715TIP3   OH250559   1.302   4.748   0.667  0.5709 -0.5831  0.1489
 9715TIP3    H150560   1.244   4.676   0.643  1.3073 -1.4629  0.9167
 9715TIP3    H250561   1.341   4.776   0.585 -0.9376  0.0405 -0.3851
 9716TIP3   OH250562   5.825   6.446  11.967  0.3059 -0.4027 -0.6430
 9716TIP3    H150563   5.746   6.394  11.953 -0.3805  0.5599 -0.4158
 9716TIP3    H250564   5.795   6.537  11.971  1.3590 -0.0523 -0.0671
 9717TIP3   OH250565   1.774   5.042  12.506 -0.5589  0.4469 -0.0038
 9717TIP3    H150566   1.840   5.002  12.450 -0.8707 -0.3646  0.2022
 9717TIP3    H250567   1.700   5.061  12.447 -0.8998 -0.4365  0.1249
 9718TIP3   OH250568   2.867   6.598   0.348 -0.0234  0.2259  0.0869
 9718TIP3    H150569   2.914   6.537   0.290  0.6483 -0.3925  1.2396
 9718TIP3    H250570   2.928   6.670   0.361 -1.7528  2.5599 -3.3399
 9719TIP3   OH250571   0.409   0.607  12.658  0.7014 -0.4590  0.1222
 9719TIP3    H150572   0.500   0.619  12.687  0.6974  0.6453 -0.2626
 9719TIP3    H250573   0.370   0.694  12.668  0.6788  0.0160 -3.0831
 9720TIP3   OH250574   2.115   3.494   6.272 -0.7967 -0.0228 -0.2436
 9720TIP3    H150575   2.034   3.452   6.300 -1.6893  1.7066 -0.1539
 9720TIP3    H250576   2.108   3.584   6.303  0.8837  0.3272 -0.7905
 9721TIP3   OH250577   3.084   4.283  15.803  0.2205  0.2027 -0.4432
 9721TIP3    H150578   3.054   4.369  15.773  1.0894 -0.4991 -3.7071
 9721TIP3    H250579   3.175   4.279  15.775  0.5603 -1.3470  0.7571
 9722TIP3   OH250580   5.305   0.564  14.578 -0.4318  0.0712  0.0689
 9722TIP3    H150581   5.344   0.609  14.503  1.4402 -0.5366  0.6171
 9722TIP3    H250582   5.366   0.493  14.597 -2.6630 -2.0133 -0.0162
 9723TIP3   OH250583   5.670   1.046  15.701 -0.5038  0.2574  0.7722
 9723TIP3    H150584   5.666   1.047  15.606  0.6372 -0.4233  0.6949
 9723TIP3    H250585   5.721   1.124  15.724  0.9988 -0.6495  0.6760
 9724TIP3   OH250586   2.060   5.389   0.059 -0.0348 -0.7071 -0.0441
 9724TIP3    H150587   2.077   5.377  -0.034 -0.5022 -1.4736 -0.0388
 9724TIP3    H250588   1.965   5.394   0.066  0.0350  0.6400  0.2531
 9725TIP3   OH250589   0.910   0.914  16.297  0.0838 -0.6835 -0.1030
 9725TIP3    H150590   0.924   1.005  16.324  1.3535 -1.1501  0.9469
 9725TIP3    H250591   0.822   0.893  16.328  0.4636 -0.3383  1.3177
 9726TIP3   OH250592   2.163   1.405  15.283 -0.4693  1.0458  0.1533
 9726TIP3    H150593   2.090   1.367  15.331  1.4458 -0.4120  2.1076
 9726TIP3    H250594   2.240   1.382  15.334  1.3672  2.7514 -1.6593
 9727TIP3   OH250595   1.366   2.506  14.676  0.0001  0.0724 -0.0728
 9727TIP3    H150596   1.275   2.514  14.648 -0.0501  1.7526  0.4619
 9727TIP3    H250597   1.414   2.486  14.596 -0.9397 -2.2148 -0.1661
 9728TIP3   OH250598   2.692   5.242  15.851 -0.4719  0.3654 -0.4546
 9728TIP3    H150599   2.760   5.190  15.894  0.4208  1.3182 -0.6360
 9728TIP3    H250600   2.660   5.187  15.780 -1.5543 -1.0037  1.0222
 9729TIP3   OH250601   1.177   4.435  11.316 -0.1085 -0.4949  0.1613
 9729TIP3    H150602   1.119   4.371  11.273  1.4649 -2.1298  0.3858
 9729TIP3    H250603   1.265   4.401  11.303  0.7024  0.9951  1.3969
 9730TIP3   OH250604   4.314   3.140   6.659  0.9731 -0.3038  0.4031
 9730TIP3    H150605   4.381   3.208   6.655 -0.1705  0.8089 -1.8490
 9730TIP3    H250606   4.312   3.103   6.571 -0.5563 -1.1385  0.7476
 9731TIP3   OH250607   6.737   1.879  16.204 -0.1247 -0.4062 -0.0563
 9731TIP3    H150608   6.830   1.889  16.187 -0.4672 -1.8383 -3.5323
 9731TIP3    H250609   6.695   1.950  16.156 -0.9122 -0.4029  0.5984
 9732TIP3   OH250610   3.884   4.660  12.564 -0.4074  0.2909  0.1780
 9732TIP3    H150611   3.911   4.589  12.622 -0.9595 -0.2786 -0.2440
 9732TIP3    H250612   3.840   4.616  12.491  0.7290  0.9455 -0.9445
 9733TIP3   OH250613   5.161   0.356  15.072 -0.3923 -0.2227 -0.1094
 9733TIP3    H150614   5.197   0.268  15.085  2.4287  0.5820 -1.6026
 9733TIP3    H250615   5.163   0.369  14.977  0.4402  1.8542  0.1481
 9734TIP3   OH250616   3.303   6.027   4.109 -0.0453  0.1472  0.3968
 9734TIP3    H150617   3.337   6.109   4.072 -1.6821  1.2423  1.2023
 9734TIP3    H250618   3.371   5.998   4.170 -0.2494  2.0025  1.5871
 9735TIP3   OH250619   0.104   0.975   4.879  0.4282 -0.2304  0.6091
 9735TIP3    H150620   0.183   1.027   4.893 -0.2325  0.8652  0.4033
 9735TIP3    H250621   0.104   0.913   4.952  1.3186 -0.0497  0.7838
 9736TIP3   OH250622   0.260   2.059  12.094  0.1460  0.1210 -0.5122
 9736TIP3    H150623   0.247   2.006  12.172 -0.4347  0.6455 -0.2547
 9736TIP3    H250624   0.331   2.119  12.117  0.4961 -0.2375 -0.6506
 9737TIP3   OH250625   4.131   3.181  14.856  0.4113 -0.5701  0.1244
 9737TIP3    H150626   4.162   3.257  14.905  0.6394 -2.0704  2.4519
 9737TIP3    H250627   4.048   3.210  14.818  0.4033  0.8012  1.0831
 9738TIP3   OH250628   1.542   5.099  15.657  0.9469 -0.2949 -0.5881
 9738TIP3    H150629   1.623   5.113  15.707  0.0474 -0.8286  1.1173
 9738TIP3    H250630   1.520   5.007  15.673 -0.2683 -0.0174 -0.5762
 9739TIP3   OH250631   0.270   3.806   1.178 -0.5629  0.0844 -0.6313
 9739TIP3    H150632   0.273   3.811   1.082 -1.5589 -2.5655 -0.8795
 9739TIP3    H250633   0.189   3.851   1.201 -0.7280  0.0384 -1.0978
 9740TIP3   OH250634   0.544   4.621  14.543  0.2106  0.2750 -0.0828
 9740TIP3    H150635   0.497   4.614  14.626 -0.6269  1.9349 -0.3663
 9740TIP3    H250636   0.622   4.566  14.554 -1.3624 -1.9334  0.6964
 9741TIP3   OH250637   1.130   0.495   5.351 -0.3864 -0.1741 -0.3034
 9741TIP3    H150638   1.087   0.471   5.268  0.5561 -0.6740 -0.6686
 9741TIP3    H250639   1.086   0.575   5.378 -0.6165  0.0827 -1.3653
 9742TIP3   OH250640   0.947   5.796   1.547 -0.3595  0.1474 -0.3558
 9742TIP3    H150641   0.924   5.707   1.570 -0.6252 -0.3892 -2.5159
 9742TIP3    H250642   0.997   5.788   1.466 -0.5357  1.9753 -0.6941
 9743TIP3   OH250643   2.598   4.491  13.506  0.7160  0.2609 -0.3788
 9743TIP3    H150644   2.623   4.534  13.424  0.2630  0.5314 -0.3812
 9743TIP3    H250645   2.502   4.486  13.502  0.8046 -1.9392 -0.9762
 9744TIP3   OH250646   3.899   5.113   1.783  0.0672  0.7218  0.4723
 9744TIP3    H150647   3.911   5.189   1.839 -0.5256  0.6445  0.7062
 9744TIP3    H250648   3.980   5.063   1.793 -0.2973  0.3660  1.7828
 9745TIP3   OH250649   1.978   3.619  11.492  0.4404 -0.2349  0.5767
 9745TIP3    H150650   1.976   3.526  11.516 -0.4650 -0.5525 -0.6496
 9745TIP3    H250651   1.946   3.664  11.570  0.4449 -0.9939  1.0270
 9746TIP3   OH250652   0.875   6.560   2.176 -0.2687 -0.7390  0.9439
 9746TIP3    H150653   0.959   6.535   2.213 -0.3704 -1.8269  0.4471
 9746TIP3    H250654   0.810   6.511   2.227 -0.5550 -0.5890  0.7303
 9747TIP3   OH250655   4.792   6.078  15.202  0.4423 -0.1724  0.1919
 9747TIP3    H150656   4.819   6.168  15.218 -0.1169  0.6561 -2.8616
 9747TIP3    H250657   4.836   6.054  15.121 -2.3849 -1.2342 -1.1629
 9748TIP3   OH250658   0.829   5.582   2.152  0.6287  0.2141 -0.5431
 9748TIP3    H150659   0.830   5.487   2.136 -2.2521 -0.3264  1.6025
 9748TIP3    H250660   0.872   5.591   2.237  0.3931  0.7251 -0.4775
 9749TIP3   OH250661   6.046   3.143   0.604 -0.6267  0.3619 -0.1610
 9749TIP3    H150662   6.075   3.104   0.687 -1.0935  1.1052  0.3633
 9749TIP3    H250663   6.126   3.171   0.561 -0.3463 -0.4249 -0.1643
 9750TIP3   OH250664   2.924   3.014  13.979 -0.6834  0.4423  0.0250
 9750TIP3    H150665   2.861   3.082  14.001 -1.8006 -0.3225 -0.7025
 9750TIP3    H250666   2.996   3.060  13.936 -0.9219  1.2693  0.4899
 9751TIP3   OH250667   6.706   0.570  15.416 -0.4534 -0.1417 -0.3023
 9751TIP3    H150668   6.789   0.522  15.418  0.0645  0.3668 -3.6685
 9751TIP3    H250669   6.673   0.564  15.506  2.8195 -1.0185  1.0050
 9752TIP3   OH250670   6.241   1.476   3.836 -0.2194  0.1065 -0.2121
 9752TIP3    H150671   6.182   1.546   3.866 -1.0188 -0.3892 -0.5868
 9752TIP3    H250672   6.183   1.414   3.793  0.2220 -1.5770  1.4838
 9753TIP3   OH250673   0.162   3.736  12.998 -0.2823  0.5087  0.0500
 9753TIP3    H150674   0.100   3.806  13.020 -1.6496 -0.9123  0.9568
 9753TIP3    H250675   0.196   3.707  13.083  0.3998  0.1893 -0.3287
 9754TIP3   OH250676   6.481   1.041   0.780 -0.2516  0.5353 -0.1561
 9754TIP3    H150677   6.473   0.975   0.711 -1.4319 -3.0872  3.0549
 9754TIP3    H250678   6.575   1.055   0.788  0.0361 -0.7175 -1.0125
 9755TIP3   OH250679   5.839   4.468  13.576 -0.2627 -0.9175 -0.0988
 9755TIP3    H150680   5.853   4.380  13.543  1.0941 -0.1910 -1.5755
 9755TIP3    H250681   5.819   4.521  13.499  3.9067  1.0245 -0.1272
 9756TIP3   OH250682   5.250   2.188  15.685 -0.0038 -0.2537 -0.4809
 9756TIP3    H150683   5.241   2.178  15.779 -2.1881  0.5451 -0.5677
 9756TIP3    H250684   5.198   2.265  15.663  0.4602 -0.4218 -2.3438
 9757TIP3   OH250685   2.301   0.656   4.111  0.0125  0.2228 -0.3702
 9757TIP3    H150686   2.274   0.748   4.115 -0.9001 -0.0722  0.6275
 9757TIP3    H250687   2.388   0.655   4.152  1.1746  1.0000 -2.6273
 9758TIP3   OH250688   4.708   4.453   3.611  0.2945 -0.3436  0.0167
 9758TIP3    H150689   4.685   4.526   3.669  1.0697  1.0242 -1.3229
 9758TIP3    H250690   4.699   4.375   3.666 -2.0164  0.5912  1.0842
 9759TIP3   OH250691   5.542   4.763  12.594  0.2620  0.3060 -0.3618
 9759TIP3    H150692   5.466   4.713  12.622 -0.1736  0.9269 -0.4354
 9759TIP3    H250693   5.608   4.696  12.575 -0.4319 -0.2693 -0.8184
 9760TIP3   OH250694   1.820   5.721  10.939  0.0551  0.5538 -0.0883
 9760TIP3    H150695   1.908   5.702  10.971 -0.3089 -0.6524  0.2625
 9760TIP3    H250696   1.763   5.703  11.014 -0.5862  0.2304 -0.6445
 9761TIP3   OH250697   5.604   2.582   5.065 -0.1388  0.4034  0.0029
 9761TIP3    H150698   5.637   2.579   5.155 -2.0211 -0.5251  0.7230
 9761TIP3    H250699   5.682   2.571   5.010  0.8962 -0.3303  1.5525
 9762TIP3   OH250700   5.628   5.109  13.477  0.3434  0.8687  0.1708
 9762TIP3    H150701   5.633   5.018  13.508 -1.3106  0.9840  0.8897
 9762TIP3    H250702   5.691   5.113  13.405  1.4183 -0.4789  0.9829
 9763TIP3   OH250703   6.727   0.007  15.462 -1.1646  0.0799  0.5953
 9763TIP3    H150704   6.784   0.084  15.473  0.8563 -1.3752  0.9321
 9763TIP3    H250705   6.784  -0.059  15.423 -3.4148 -0.6335 -1.7818
 9764TIP3   OH250706   4.114   3.860   0.158  0.2818 -0.0280  0.1269
 9764TIP3    H150707   4.139   3.939   0.207 -4.5678  1.7103  0.4164
 9764TIP3    H250708   4.076   3.893   0.077  2.0314 -2.4893 -1.8490
 9765TIP3   OH250709   3.720   1.629   4.978  0.0203 -0.7407  0.6771
 9765TIP3    H150710   3.759   1.681   5.049  1.2599 -0.3545 -0.2466
 9765TIP3    H250711   3.780   1.555   4.966 -0.4535 -1.0855  0.3799
 9766TIP3   OH250712   1.126   4.161  13.268 -0.2159  0.4204 -0.1140
 9766TIP3    H150713   1.034   4.136  13.277 -0.3549  0.5668 -0.9835
 9766TIP3    H250714   1.175   4.080  13.278 -0.3564  0.4860  1.3420
 9767TIP3   OH250715   4.610   0.923   3.263  0.0720 -0.0141  0.0116
 9767TIP3    H150716   4.672   0.854   3.241 -0.7203 -1.0015  0.8077
 9767TIP3    H250717   4.652   0.972   3.334  0.5979  0.2900 -0.4992
 9768TIP3   OH250718   5.027   1.009  14.125  0.2638 -0.2589 -0.5542
 9768TIP3    H150719   5.006   1.047  14.211  0.1879 -0.4623 -0.4813
 9768TIP3    H250720   5.064   1.082  14.075 -0.4762  0.0672 -0.6320
 9769TIP3   OH250721   2.828   2.682   4.209 -0.2596 -0.1681 -0.1160
 9769TIP3    H150722   2.799   2.594   4.232  0.6963 -0.4749 -0.0661
 9769TIP3    H250723   2.846   2.676   4.115  0.7727 -0.3027  0.0852
 9770TIP3   OH250724   5.625   2.860   5.488  0.1237 -0.3176 -0.1506
 9770TIP3    H150725   5.584   2.945   5.504 -0.8170 -0.4999 -1.4219
 9770TIP3    H250726   5.704   2.879   5.439 -1.1300 -0.2494 -2.2644
 9771TIP3   OH250727   6.242   0.738   2.837  0.1527 -0.3822 -0.3632
 9771TIP3    H150728   6.197   0.816   2.804  1.3943  0.6282  0.2555
 9771TIP3    H250729   6.298   0.771   2.907  0.6538 -1.8558 -0.0428
 9772TIP3   OH250730   0.031   5.541   0.599  0.2560  0.5641 -0.7401
 9772TIP3    H150731  -0.010   5.603   0.538 -0.4633 -0.6125 -1.5005
 9772TIP3    H250732   0.090   5.489   0.544 -1.1968 -1.2214 -0.7065
 9773TIP3   OH250733   1.501   1.432  14.394 -0.0050  0.6302 -0.1126
 9773TIP3    H150734   1.428   1.480  14.356  0.4632  0.2420 -1.5688
 9773TIP3    H250735   1.519   1.361  14.332 -0.8112 -1.6219  2.0464
 9774TIP3   OH250736   5.972   1.361  11.996 -0.3747 -0.2769  0.3962
 9774TIP3    H150737   6.057   1.361  11.950  0.3899 -0.6827  1.7547
 9774TIP3    H250738   5.968   1.276  12.039  0.0086  0.8946  2.9463
 9775TIP3   OH250739   0.313   0.734   4.985 -0.1499  0.1572 -0.2944
 9775TIP3    H150740   0.240   0.794   4.996 -0.3505 -0.2942  1.0280
 9775TIP3    H250741   0.378   0.763   5.049  0.4375 -0.0443 -0.7837
 9776TIP3   OH250742   0.823   0.473  14.816  0.2603 -0.4144  0.3682
 9776TIP3    H150743   0.833   0.567  14.799  0.3607 -0.6139 -0.7383
 9776TIP3    H250744   0.732   0.454  14.793  0.4628 -0.7361 -0.1810
 9777TIP3   OH250745   1.770   2.517   6.653 -0.1825  0.0592 -0.0317
 9777TIP3    H150746   1.857   2.488   6.625 -0.5384 -0.0695 -1.0300
 9777TIP3    H250747   1.762   2.606   6.618  0.0932  0.6159  1.2701
 9778TIP3   OH250748   5.685   4.486   4.627  0.7219  0.3141  0.1186
 9778TIP3    H150749   5.705   4.428   4.701  0.0044  1.3721  1.1967
 9778TIP3    H250750   5.621   4.438   4.575  0.2065  0.0844  0.9432
 9779TIP3   OH250751   2.715   1.652   0.874 -0.2849  0.0983  0.1185
 9779TIP3    H150752   2.796   1.700   0.858  0.2850  0.0687  2.5252
 9779TIP3    H250753   2.737   1.561   0.854 -0.2334  0.2998 -0.7901
 9780TIP3   OH250754   4.658   0.481   2.915  0.3432  0.7640  0.3930
 9780TIP3    H150755   4.624   0.557   2.868  3.3535  1.9168 -0.1635
 9780TIP3    H250756   4.647   0.408   2.854 -0.9964  1.0834  0.2320
 9781TIP3   OH250757   6.275   3.919  10.508  0.0718  0.0605  0.0632
 9781TIP3    H150758   6.207   3.982  10.486 -0.7900  0.1364  2.5789
 9781TIP3    H250759   6.346   3.972  10.544  0.0810 -0.2421  0.5034
 9782TIP3   OH250760   0.627   6.657   2.922 -0.1098 -0.0630  0.2982
 9782TIP3    H150761   0.583   6.724   2.871  1.1319 -0.2940 -1.1333
 9782TIP3    H250762   0.710   6.643   2.877 -0.6491 -3.1224  0.0531
 9783TIP3   OH250763   1.323   0.677   3.693 -0.1889 -0.3618  0.2854
 9783TIP3    H150764   1.327   0.679   3.598  2.4408  2.4023  0.2638
 9783TIP3    H250765   1.315   0.769   3.718  4.3127 -0.3197  2.6244
 9784TIP3   OH250766   3.335   1.298   1.623 -0.3657 -0.3150 -0.1097
 9784TIP3    H150767   3.330   1.216   1.574 -0.0666  0.5098 -1.6224
 9784TIP3    H250768   3.422   1.298   1.662 -0.2174 -0.5522 -0.4393
 9785TIP3   OH250769   3.241   5.684   4.269  0.2135 -0.0328  0.2812
 9785TIP3    H150770   3.320   5.652   4.225 -0.3032 -0.1281 -0.5797
 9785TIP3    H250771   3.172   5.624   4.243 -0.2719  0.3964  0.5616
 9786TIP3   OH250772   1.562   6.150   5.595 -0.2034  0.4381 -0.4023
 9786TIP3    H150773   1.581   6.156   5.689  0.7172  1.0182 -0.6100
 9786TIP3    H250774   1.616   6.219   5.556 -0.8629  0.4444 -1.3213
 9787TIP3   OH250775   1.858   0.636  14.591  0.4088 -0.4968 -0.0050
 9787TIP3    H150776   1.815   0.604  14.670 -1.6405  0.6702 -0.5696
 9787TIP3    H250777   1.909   0.712  14.621  0.4792 -0.6803  0.3502
 9788TIP3   OH250778   5.357   0.741  12.678 -0.2371  0.5348 -0.5553
 9788TIP3    H150779   5.369   0.715  12.770  2.4504 -2.9462 -1.6823
 9788TIP3    H250780   5.405   0.823  12.670  2.0804 -0.6173  0.5941
 9789TIP3   OH250781   3.063   2.238  13.344  0.3772 -0.3070 -0.1849
 9789TIP3    H150782   3.154   2.268  13.337  0.0508  0.4827 -1.2119
 9789TIP3    H250783   3.070   2.152  13.387  1.4559  0.4951  1.3543
 9790TIP3   OH250784   0.798   6.145   0.798 -0.2552  0.0447 -0.1063
 9790TIP3    H150785   0.816   6.166   0.890 -0.3486  1.2970 -0.3582
 9790TIP3    H250786   0.885   6.145   0.756 -0.2597 -0.0207 -0.1153
 9791TIP3   OH250787   3.074   2.531   5.680 -0.0516  0.4137  1.2417
 9791TIP3    H150788   2.986   2.519   5.646  0.1703 -0.4198  0.9345
 9791TIP3    H250789   3.131   2.521   5.603  0.4139 -0.8633  1.7164
 9792TIP3   OH250790   4.365   3.592   4.648  0.1987  0.2776  0.1837
 9792TIP3    H150791   4.279   3.571   4.684  0.6730  0.4889  1.4913
 9792TIP3    H250792   4.356   3.578   4.554 -1.0441 -0.4330  0.3931
 9793TIP3   OH250793   0.981   4.080   1.966  0.8428  0.0988 -0.4589
 9793TIP3    H150794   0.908   4.035   1.924  1.0353  0.6037 -1.3538
 9793TIP3    H250795   1.025   4.012   2.018  0.1841 -0.3694 -0.5049
 9794TIP3   OH250796   2.381   4.547  14.978 -0.4989 -0.0045  0.2390
 9794TIP3    H150797   2.301   4.587  14.944  0.2870  0.7717 -0.7579
 9794TIP3    H250798   2.381   4.458  14.940 -0.7383  0.0959 -0.0048
 9795TIP3   OH250799   6.340   0.846  16.427 -0.5517  0.1834 -0.1664
 9795TIP3    H150800   6.344   0.941  16.417  1.8299  0.1514 -0.0517
 9795TIP3    H250801   6.267   0.819  16.372 -0.0177  1.9065 -1.8308
 9796TIP3   OH250802   4.890   2.461   4.890  0.0736  0.7183  0.0290
 9796TIP3    H150803   4.976   2.488   4.923 -0.2829  1.2497  0.5301
 9796TIP3    H250804   4.828   2.519   4.934 -0.8569 -1.7474  2.2356
 9797TIP3   OH250805   3.374   0.832  16.089 -0.3323  0.1037  0.2863
 9797TIP3    H150806   3.394   0.864  16.177 -1.2532 -0.3230  0.6662
 9797TIP3    H250807   3.287   0.867  16.070 -0.5281 -0.5559 -0.0809
 9798TIP3   OH250808   5.370   4.676  11.953  0.0658 -0.0463 -0.2749
 9798TIP3    H150809   5.321   4.758  11.950 -1.8201 -1.1533 -1.4877
 9798TIP3    H250810   5.406   4.673  12.042  0.1189  2.0249 -0.1821
 9799TIP3   OH250811   4.918   1.749  15.109  0.7944 -0.5881 -0.0004
 9799TIP3    H150812   4.915   1.812  15.181  1.2670  0.1375 -0.6082
 9799TIP3    H250813   4.895   1.666  15.150 -0.4287  0.0605  0.7072
 9800TIP3   OH250814   4.508   2.460  11.817  0.4072  0.1751  0.1895
 9800TIP3    H150815   4.505   2.556  11.825  1.3727  0.3119 -0.8618
 9800TIP3    H250816   4.601   2.439  11.816  0.2025 -0.8397  0.9034
 9801TIP3   OH250817   1.758   4.805  13.599  0.1432  0.0167  0.3612
 9801TIP3    H150818   1.665   4.789  13.615 -0.5271  3.6981  1.1722
 9801TIP3    H250819   1.762   4.832  13.507  0.6619 -1.2912 -0.0224
 9802TIP3   OH250820   2.276   2.148   0.496  0.6059  0.0602 -0.1309
 9802TIP3    H150821   2.371   2.137   0.493  0.4132 -1.6544 -0.7714
 9802TIP3    H250822   2.249   2.150   0.405 -0.2014 -1.9500  0.0170
 9803TIP3   OH250823   0.830   6.306   4.645 -0.0210  0.1677 -0.0448
 9803TIP3    H150824   0.747   6.349   4.626 -0.8845 -1.0312  0.8902
 9803TIP3    H250825   0.895   6.355   4.594 -1.3380  0.9089 -1.0629
 9804TIP3   OH250826   1.688   5.748  16.900 -0.2335 -0.0441  0.2465
 9804TIP3    H150827   1.628   5.821  16.918  1.0844  0.5637  2.6422
 9804TIP3    H250828   1.714   5.761  16.809 -0.2835  2.3475  0.4938
 9805TIP3   OH250829   1.028   1.126  14.602  0.2832 -0.9174 -0.1899
 9805TIP3    H150830   1.102   1.072  14.574 -0.0069 -1.1556 -0.5117
 9805TIP3    H250831   0.998   1.169  14.522  0.3574 -0.4585  0.0198
 9806TIP3   OH250832   5.104   3.689   5.685  0.6374 -0.1458 -0.0951
 9806TIP3    H150833   5.155   3.661   5.760  3.0987  0.4091 -1.4470
 9806TIP3    H250834   5.097   3.784   5.694  1.1791 -0.0403 -0.6481
 9807TIP3   OH250835   6.673   2.542  11.100 -0.2851  0.2349  0.2583
 9807TIP3    H150836   6.735   2.581  11.038 -1.7059  1.7288 -0.2861
 9807TIP3    H250837   6.646   2.460  11.059 -2.5391  1.9839 -2.0941
 9808TIP3   OH250838   6.485   0.920   6.083 -0.6936 -0.1975 -0.3297
 9808TIP3    H150839   6.420   0.977   6.123 -1.5004 -1.8441  0.8288
 9808TIP3    H250840   6.468   0.926   5.989 -0.0929  2.1712 -0.3591
 9809TIP3   OH250841   6.527   2.342  13.374 -0.4331 -0.2640  0.4104
 9809TIP3    H150842   6.469   2.295  13.433  0.3861 -0.3897  1.1355
 9809TIP3    H250843   6.534   2.430  13.413 -1.6225  0.3532 -0.7025
 9810TIP3   OH250844   0.052   4.989   2.330 -0.4918 -0.2352 -0.4026
 9810TIP3    H150845   0.034   5.065   2.385 -1.1560  0.3702 -1.4220
 9810TIP3    H250846   0.098   4.928   2.388 -1.7264  0.1010  1.0034
 9811TIP3   OH250847   1.607   0.054  11.183 -0.2532  0.7521 -0.0611
 9811TIP3    H150848   1.668   0.070  11.112  0.3682  0.1463  0.3182
 9811TIP3    H250849   1.580  -0.037  11.172  0.0125  0.5878  0.5915
 9812TIP3   OH250850   3.143   2.257  15.612 -0.1799 -0.1829  0.1705
 9812TIP3    H150851   3.076   2.251  15.543 -2.0890 -0.8317  1.9688
 9812TIP3    H250852   3.203   2.185  15.593  0.0394  0.3916 -1.4831
 9813TIP3   OH250853   1.418   6.500  11.552 -0.2085 -0.5585 -0.0306
 9813TIP3    H150854   1.449   6.590  11.542  0.7827 -0.4569  2.9591
 9813TIP3    H250855   1.335   6.498  11.504 -0.1413  1.8626 -0.3995
 9814TIP3   OH250856   4.930   2.362  12.891  0.3345  0.4031 -0.1034
 9814TIP3    H150857   4.870   2.421  12.846  0.9887  1.0980 -0.0968
 9814TIP3    H250858   4.885   2.340  12.972 -0.2471  0.2739 -0.4539
 9815TIP3   OH250859   0.621   5.105  15.120  0.1456  0.2287 -0.2324
 9815TIP3    H150860   0.625   5.099  15.216  0.9430 -2.2463 -0.3737
 9815TIP3    H250861   0.700   5.153  15.096  0.2036  0.4072  0.2909
 9816TIP3   OH250862   1.808   5.984   5.801  0.1161  0.5652 -0.0849
 9816TIP3    H150863   1.808   6.054   5.736  0.3992  1.6723  1.0569
 9816TIP3    H250864   1.727   5.997   5.849 -0.0857 -0.2343 -0.1993
 9817TIP3   OH250865   2.961   2.924  15.145  0.0628 -0.2711 -0.3561
 9817TIP3    H150866   2.992   3.014  15.157 -0.0888  0.0466 -2.1537
 9817TIP3    H250867   2.900   2.929  15.072 -0.4583 -1.7407 -0.0516
 9818TIP3   OH250868   1.101   2.044  14.391  0.3078  0.5665 -0.0867
 9818TIP3    H150869   1.095   2.049  14.296 -0.9781 -2.3255 -0.2716
 9818TIP3    H250870   1.066   2.127  14.423 -1.8667  0.5235 -2.1195
 9819TIP3   OH250871   4.193   2.803  11.953 -0.0729  0.7120  0.2710
 9819TIP3    H150872   4.133   2.790  11.880  0.5263  3.0604 -0.7534
 9819TIP3    H250873   4.145   2.858  12.015  0.1667  0.5324  0.6200
 9820TIP3   OH250874   0.701   6.164   1.318 -0.2279 -0.0929  0.1538
 9820TIP3    H150875   0.645   6.230   1.278  1.2856  0.1399 -1.7290
 9820TIP3    H250876   0.680   6.169   1.412 -2.2089  1.0093 -0.2904
 9821TIP3   OH250877   6.753   1.825  14.496 -0.1388  0.1374 -0.0370
 9821TIP3    H150878   6.777   1.872  14.416  1.3136  0.4675  0.5692
 9821TIP3    H250879   6.746   1.733  14.469  3.2116 -0.2209 -0.0463
 9822TIP3   OH250880   6.090   0.124   4.484 -0.1691  0.2889 -0.3621
 9822TIP3    H150881   6.106   0.104   4.576 -1.3655 -2.1628 -0.6019
 9822TIP3    H250882   6.005   0.168   4.482 -1.6149 -2.3156 -0.4390
 9823TIP3   OH250883   2.882   5.593  17.214 -0.4241 -0.4929 -0.6335
 9823TIP3    H150884   2.884   5.498  17.204 -2.5087 -0.6925  0.2881
 9823TIP3    H250885   2.957   5.612  17.270  0.5338 -1.4662 -1.5393
 9824TIP3   OH250886   1.533   1.874   4.810 -0.2041  0.2211 -0.6052
 9824TIP3    H150887   1.537   1.897   4.902 -1.6855 -0.8709 -0.2292
 9824TIP3    H250888   1.483   1.945   4.769  0.0600  0.4728 -0.4924
 9825TIP3   OH250889   4.886   1.229  16.861 -0.0194 -0.2827  0.0455
 9825TIP3    H150890   4.800   1.268  16.873  0.7167  1.5282 -0.2369
 9825TIP3    H250891   4.917   1.208  16.949 -0.9449 -1.4320  0.1101
 9826TIP3   OH250892   2.473   1.481  11.390 -0.6617  0.1638  0.0320
 9826TIP3    H150893   2.560   1.475  11.350  0.0170  0.1533  1.4555
 9826TIP3    H250894   2.433   1.558  11.349  0.6462  1.1337  0.5377
 9827TIP3   OH250895   5.451   2.976   0.200  0.3834  0.1121  0.1005
 9827TIP3    H150896   5.470   2.944   0.288  0.1046  1.0308  0.5037
 9827TIP3    H250897   5.356   2.986   0.198  0.5752  3.3377  0.9025
 9828TIP3   OH250898   0.798   1.601   1.591  0.0607 -0.7085  0.0118
 9828TIP3    H150899   0.727   1.662   1.572  0.1034 -0.5975  0.2029
 9828TIP3    H250900   0.763   1.543   1.659 -0.7265 -2.2466 -1.6348
 9829TIP3   OH250901   4.850   0.253  16.049  0.1820 -0.0377  0.4633
 9829TIP3    H150902   4.833   0.237  16.142 -3.2465 -0.8971 -0.1756
 9829TIP3    H250903   4.815   0.340  16.033 -0.9408 -0.6093 -0.3356
 9830TIP3   OH250904   6.213   4.386  12.778 -0.2720 -0.0371  0.0308
 9830TIP3    H150905   6.217   4.430  12.863  0.1938 -0.7372  0.3811
 9830TIP3    H250906   6.293   4.334  12.774 -0.1375  0.2214 -0.9726
 9831TIP3   OH250907   0.964   3.076   5.225  0.0685 -0.0202 -0.4022
 9831TIP3    H150908   1.018   3.072   5.146  0.1697  2.0778 -0.5037
 9831TIP3    H250909   0.885   3.124   5.198 -0.9906 -1.3256  0.2275
 9832TIP3   OH250910   4.482   0.942   4.665  0.4638  0.0259 -0.1840
 9832TIP3    H150911   4.390   0.955   4.640  0.3681 -0.8236 -0.3153
 9832TIP3    H250912   4.532   0.983   4.595  0.1844  1.0026  0.1812
 9833TIP3   OH250913   1.370   3.758  13.231  0.0178  0.0641 -0.3641
 9833TIP3    H150914   1.276   3.772  13.239  0.1623  1.0045 -0.2199
 9833TIP3    H250915   1.406   3.845  13.217  0.8946 -0.2621 -0.2014
 9834TIP3   OH250916   3.632   2.858   5.197  0.1375  0.0721 -0.0407
 9834TIP3    H150917   3.684   2.796   5.249  0.9663  0.3131 -0.5640
 9834TIP3    H250918   3.550   2.867   5.246 -0.0747 -1.5630 -0.0514
 9835TIP3   OH250919   2.368   6.456  11.110 -0.5332  0.1145 -0.4181
 9835TIP3    H150920   2.414   6.529  11.150  1.0509 -1.0815  0.0664
 9835TIP3    H250921   2.387   6.464  11.016  2.2090 -1.2864 -0.0743
 9836TIP3   OH250922   4.042   4.539   3.976 -0.1841  0.3861  0.2009
 9836TIP3    H150923   4.112   4.496   3.926  0.3528  2.3537 -0.8568
 9836TIP3    H250924   4.087   4.602   4.032 -1.0007  0.4256  0.8384
 9837TIP3   OH250925   6.059   1.854   1.149  0.3372 -0.2207 -0.0603
 9837TIP3    H150926   6.096   1.836   1.063 -0.7598  0.3834 -0.6702
 9837TIP3    H250927   6.003   1.931   1.137  0.3712  0.0477  1.2469
 9838TIP3   OH250928   1.610   1.953   1.796  0.8499  0.0319  0.9089
 9838TIP3    H150929   1.635   1.937   1.887  1.5239  1.4549  1.0066
 9838TIP3    H250930   1.515   1.941   1.794  0.7285  0.7221  1.9758
 9839TIP3   OH250931   1.710   6.169   2.762 -0.2386  0.0987  0.6913
 9839TIP3    H150932   1.642   6.236   2.759 -0.6506 -0.2290  1.8714
 9839TIP3    H250933   1.789   6.216   2.787 -0.4692  0.1958  1.2571
 9840TIP3   OH250934   3.746   1.550  13.618 -0.8268 -0.5936 -0.5668
 9840TIP3    H150935   3.798   1.484  13.572  0.3422  1.0607 -1.7415
 9840TIP3    H250936   3.767   1.538  13.710  2.0857  0.2637 -1.0234
 9841TIP3   OH250937   1.984   6.612  11.376 -0.1683 -0.3785 -0.3811
 9841TIP3    H150938   1.935   6.694  11.370  1.0773  0.3448 -1.2908
 9841TIP3    H250939   2.007   6.591  11.285  1.2613 -0.6153  0.0054
 9842TIP3   OH250940   3.758   5.190   1.277 -1.0418  0.0078  0.0182
 9842TIP3    H150941   3.763   5.141   1.196 -1.9843  1.3695 -0.9126
 9842TIP3    H250942   3.792   5.130   1.344 -0.1285 -1.0865 -1.3802
 9843TIP3   OH250943   5.839   6.346   3.154  0.8518 -0.0928  0.2716
 9843TIP3    H150944   5.833   6.356   3.059  2.2094  0.3785  0.2156
 9843TIP3    H250945   5.869   6.256   3.168 -2.3060 -1.2519  0.4223
 9844TIP3   OH250946   3.365   0.934  11.459 -0.3503  0.8751  0.0486
 9844TIP3    H150947   3.327   1.018  11.484  1.2725  1.5627  0.3083
 9844TIP3    H250948   3.382   0.889  11.542  0.1073  0.9051 -0.0246
 9845TIP3   OH250949   4.838   5.730   4.937  0.1084 -0.0452 -0.0749
 9845TIP3    H150950   4.932   5.717   4.924  0.3646  2.6584 -1.7330
 9845TIP3    H250951   4.797   5.694   4.858 -0.1567 -0.2144  0.1359
 9846TIP3   OH250952   2.489   6.108  11.466  0.0577 -0.1933 -0.1889
 9846TIP3    H150953   2.464   6.180  11.524 -1.1797  0.0849 -1.0146
 9846TIP3    H250954   2.485   6.146  11.378  3.6061 -0.0969 -0.4417
 9847TIP3   OH250955   0.746   4.962  13.861  0.3177  0.4763 -0.4366
 9847TIP3    H150956   0.702   5.026  13.804 -1.8325 -1.1444 -0.7446
 9847TIP3    H250957   0.710   4.980  13.948  0.3498  0.2509 -0.3759
 9848TIP3   OH250958   1.953   1.205   2.723  0.5785  0.4672 -0.0548
 9848TIP3    H150959   1.997   1.158   2.794 -1.1269 -0.8172  0.2116
 9848TIP3    H250960   1.982   1.159   2.644  1.5629  1.1587 -0.1127
 9849TIP3   OH250961   1.227   1.849  14.897  0.0503  0.2956 -0.1286
 9849TIP3    H150962   1.240   1.796  14.977  0.8121 -0.0483 -0.4703
 9849TIP3    H250963   1.141   1.889  14.909 -0.5233 -0.9718  0.1830
 9850TIP3   OH250964   6.488   0.101   4.908 -0.1817  0.5027  0.3121
 9850TIP3    H150965   6.417   0.148   4.952 -0.9444  1.0256 -1.3898
 9850TIP3    H250966   6.554   0.167   4.891 -0.1616  0.4374  0.1293
 9851TIP3   OH250967   1.313   5.851   4.583 -0.5408  0.0321  0.1103
 9851TIP3    H150968   1.247   5.793   4.544 -0.9228  1.2336 -1.1151
 9851TIP3    H250969   1.293   5.937   4.548  1.8699  0.4073 -0.5747
 9852TIP3   OH250970   1.773   1.203  13.782 -0.1886  0.2758 -0.2843
 9852TIP3    H150971   1.750   1.263  13.711 -0.5156  0.2454 -0.2072
 9852TIP3    H250972   1.808   1.259  13.850 -0.7429  0.4150 -0.1073
 9853TIP3   OH250973   4.421   2.295  16.842  0.0502  0.0573  0.0720
 9853TIP3    H150974   4.471   2.359  16.893 -0.3689 -0.1841  0.7998
 9853TIP3    H250975   4.487   2.250  16.789  0.7688 -0.8388  1.6380
 9854TIP3   OH250976   0.049   4.461   0.034 -0.6376  0.3351  0.3606
 9854TIP3    H150977   0.075   4.475  -0.057 -0.8204 -0.4181  0.1866
 9854TIP3    H250978   0.063   4.368   0.050  1.3676  0.8173  1.7496
 9855TIP3   OH250979   0.176   4.793   5.394  0.3999  0.3756 -0.0529
 9855TIP3    H150980   0.167   4.709   5.441  1.8113  0.6706  0.8270
 9855TIP3    H250981   0.154   4.859   5.460 -1.3142  0.6969 -0.9226
 9856TIP3   OH250982   5.647   5.228  15.674  0.0275  0.2295  0.4642
 9856TIP3    H150983   5.561   5.240  15.633 -0.5415 -0.7157  1.3231
 9856TIP3    H250984   5.709   5.269  15.614 -0.9602  0.3482 -0.4960
 9857TIP3   OH250985   4.846   3.856   4.324 -0.2499  0.4343  0.0521
 9857TIP3    H150986   4.790   3.779   4.322 -1.5594  1.2954  1.5323
 9857TIP3    H250987   4.927   3.828   4.280 -1.4412 -1.1283 -1.2849
 9858TIP3   OH250988   2.773   1.019  13.470  0.6310  0.4778  0.4814
 9858TIP3    H150989   2.780   1.049  13.560  0.6217  0.1144  0.6038
 9858TIP3    H250990   2.776   0.924  13.476 -2.3306  0.2916  0.3811
 9859TIP3   OH250991   2.403   3.800   6.021  0.2264  0.1983 -0.2993
 9859TIP3    H150992   2.332   3.846   5.977 -0.8062  0.5274  1.6421
 9859TIP3    H250993   2.434   3.860   6.088 -1.0289 -1.7675  2.1880
 9860TIP3   OH250994   1.375   1.493   4.552  0.2387 -0.1301  0.2988
 9860TIP3    H150995   1.417   1.556   4.494  1.3145 -0.6775  0.4657
 9860TIP3    H250996   1.368   1.538   4.636 -0.6507  0.3992 -0.0441
 9861TIP3   OH250997   0.229   4.798  11.503 -0.5635  0.3283  0.1762
 9861TIP3    H150998   0.150   4.851  11.512 -2.0156 -1.7662  0.7263
 9861TIP3    H250999   0.301   4.859  11.517 -1.9709  2.6556 -1.9156
 9862TIP3   OH251000   4.348   6.024  13.901 -0.4742 -0.3210  0.4040
 9862TIP3    H151001   4.254   6.032  13.915 -0.4859  3.1200 -0.7255
 9862TIP3    H251002   4.358   6.017  13.806  0.4023 -3.4181  0.6165
 9863TIP3   OH251003   0.359   1.032   5.800  0.6988 -0.1512 -0.2006
 9863TIP3    H151004   0.363   1.089   5.723 -0.9548 -1.2698 -1.1552
 9863TIP3    H251005   0.426   1.068   5.859  2.9554 -0.0265 -2.6468
 9864TIP3   OH251006   4.338   1.198   5.755 -0.3456  0.0664 -0.0652
 9864TIP3    H151007   4.273   1.191   5.685 -0.7965  1.3231  0.1980
 9864TIP3    H251008   4.290   1.175   5.835 -0.6304  1.4559  0.1936
 9865TIP3   OH251009   6.469   1.826   1.910 -0.1570  0.3290 -0.3196
 9865TIP3    H151010   6.490   1.905   1.860  1.2935  0.0853 -0.1373
 9865TIP3    H251011   6.501   1.844   1.998  0.6945 -0.6621 -0.4142
 9866TIP3   OH251012   4.136   0.925   2.651  0.7636  0.0494 -0.1421
 9866TIP3    H151013   4.131   1.005   2.598  1.1235  1.1767  1.4618
 9866TIP3    H251014   4.190   0.949   2.726 -0.3539 -1.2785  1.1432
 9867TIP3   OH251015   1.218   4.372   3.102 -0.0729 -0.1055  0.3007
 9867TIP3    H151016   1.228   4.398   3.194  0.8422  0.8207 -0.0365
 9867TIP3    H251017   1.268   4.291   3.095 -1.6136 -1.1663  0.9981
 9868TIP3   OH251018   2.926   1.893  16.527  0.2695 -0.8480  0.4231
 9868TIP3    H151019   2.851   1.923  16.477 -0.2673 -2.1431  0.4273
 9868TIP3    H251020   2.904   1.913  16.618  0.6705  0.2774  0.2973
 9869TIP3   OH251021   1.250   1.685   6.092 -0.2133  0.3029  0.2737
 9869TIP3    H151022   1.325   1.630   6.074  0.1841  0.8349  0.2667
 9869TIP3    H251023   1.245   1.689   6.187  0.3463  1.0298  0.2792
 9870TIP3   OH251024   5.663   4.731   2.697  0.0132 -0.2219  0.0381
 9870TIP3    H151025   5.655   4.671   2.770  1.0256 -1.3658 -0.7353
 9870TIP3    H251026   5.710   4.806   2.733 -3.5388  1.4270  1.6839
 9871TIP3   OH251027   1.702   5.958   4.668 -0.2204  0.0662  0.1152
 9871TIP3    H151028   1.720   5.896   4.598 -2.4605 -0.6825  0.1219
 9871TIP3    H251029   1.683   5.904   4.744  2.4883  0.8731  1.4739
 9872TIP3   OH251030   2.704   1.806  10.988  0.2528  0.4019 -0.0209
 9872TIP3    H151031   2.756   1.727  10.999 -0.6354  0.0514  2.2526
 9872TIP3    H251032   2.726   1.838  10.901  0.4419 -2.4833 -1.1376
 9873TIP3   OH251033   2.710   0.502   0.707  0.3222  0.1206 -0.5744
 9873TIP3    H151034   2.786   0.527   0.654  1.2436  0.0102  0.6665
 9873TIP3    H251035   2.747   0.457   0.783 -1.0119 -0.2781 -0.1415
 9874TIP3   OH251036   1.653   2.446  10.965 -0.3417 -0.3232 -0.0384
 9874TIP3    H151037   1.635   2.469  10.874  0.8937  1.8391  0.1993
 9874TIP3    H251038   1.594   2.373  10.983 -2.4224  0.8217 -1.8010
 9875TIP3   OH251039   0.219   5.909   0.061 -0.1205 -0.0135  0.0630
 9875TIP3    H151040   0.195   5.890  -0.029  1.3971 -1.2346 -0.1406
 9875TIP3    H251041   0.173   5.843   0.113 -0.0385 -0.0873  0.0428
 9876TIP3   OH251042   4.143   5.932   1.661 -0.6656 -0.0273  0.0520
 9876TIP3    H151043   4.215   5.870   1.663 -0.9129 -0.2864  1.3546
 9876TIP3    H251044   4.171   6.004   1.717 -1.1871  0.1379  0.1109
 9877TIP3   OH251045   0.627   1.494  12.525 -0.5973  0.0126  0.0778
 9877TIP3    H151046   0.645   1.444  12.445 -0.2302 -0.9357  0.7300
 9877TIP3    H251047   0.532   1.498  12.530 -0.8154 -3.4280  1.6306
 9878TIP3   OH251048   3.994   5.321  15.067  0.2659  0.4131 -0.2849
 9878TIP3    H151049   3.949   5.321  15.152  0.4474 -0.3442 -0.1791
 9878TIP3    H251050   3.939   5.266  15.011  1.3946 -1.1188  0.0465
 9879TIP3   OH251051   3.408   3.703  13.207  0.0380  0.4610 -0.0979
 9879TIP3    H151052   3.368   3.683  13.123 -0.8164  0.2161  0.3571
 9879TIP3    H251053   3.458   3.784  13.192 -0.0938  0.4058 -0.8368
 9880TIP3   OH251054   5.184   0.236  15.889 -0.5474  0.3226  0.1265
 9880TIP3    H151055   5.147   0.160  15.932 -0.8301  1.0584  1.2209
 9880TIP3    H251056   5.118   0.263  15.825 -0.9087  0.2903  0.4894
 9881TIP3   OH251057   1.623   3.718  15.035  0.0216 -0.1919  0.0651
 9881TIP3    H151058   1.630   3.668  14.953  2.3704 -1.5673  0.9931
 9881TIP3    H251059   1.711   3.752  15.050 -0.9111  2.0637  0.8699
 9882TIP3   OH251060   2.153   1.356   1.119 -0.0671 -0.0629  0.2163
 9882TIP3    H151061   2.073   1.311   1.091  0.7889 -0.3101 -2.0389
 9882TIP3    H251062   2.121   1.431   1.170 -1.8659  0.7109 -1.8780
 9883TIP3   OH251063   5.589   0.681  12.058  0.1367 -0.0080 -0.0647
 9883TIP3    H151064   5.661   0.647  12.111  0.2240 -1.3928 -1.0205
 9883TIP3    H251065   5.626   0.758  12.014  1.0452 -0.6991 -0.5437
 9884TIP3   OH251066   5.397   6.613   1.598 -0.1564  0.2662 -0.6524
 9884TIP3    H151067   5.446   6.623   1.516  0.2641  0.3266 -0.3993
 9884TIP3    H251068   5.460   6.575   1.659 -0.0888  1.3580 -0.0106
 9885TIP3   OH251069   4.230   5.302   0.341 -0.0055 -0.2304  0.1260
 9885TIP3    H151070   4.194   5.213   0.343  0.3145 -0.3459  0.9519
 9885TIP3    H251071   4.159   5.355   0.305 -0.0060 -0.9002 -0.9040
 9886TIP3   OH251072   0.524   3.192   1.928  0.2170  0.3985 -0.1690
 9886TIP3    H151073   0.596   3.171   1.987 -0.2138 -0.2550  0.1358
 9886TIP3    H251074   0.521   3.118   1.867 -0.1540  0.4562 -0.2217
 9887TIP3   OH251075   0.178   2.063  12.368  0.3320  0.1484  0.1361
 9887TIP3    H151076   0.132   2.142  12.397 -0.5366 -1.2019  2.7405
 9887TIP3    H251077   0.235   2.040  12.441 -1.6970 -3.2712  0.8698
 9888TIP3   OH251078   0.830   2.995   1.450 -0.2632  0.1183  0.5265
 9888TIP3    H151079   0.768   3.067   1.453 -1.1984 -0.5738 -0.8109
 9888TIP3    H251080   0.777   2.919   1.425  0.7082 -1.0300  1.7973
 9889TIP3   OH251081   1.665   0.585   6.721  0.3855  0.6859  0.0950
 9889TIP3    H151082   1.759   0.604   6.730  0.8208 -0.8300 -0.8182
 9889TIP3    H251083   1.632   0.658   6.668  1.7070 -0.2493 -2.1645
 9890TIP3   OH251084   0.098   1.372  15.152  0.1528  0.0340 -0.2153
 9890TIP3    H151085   0.171   1.321  15.118  0.4790  0.1286  0.3203
 9890TIP3    H251086   0.129   1.403  15.237 -0.9230 -0.8402  0.5176
 9891TIP3   OH251087   0.378   0.820   5.442  0.1591 -0.2408 -0.5329
 9891TIP3    H151088   0.381   0.728   5.467 -0.6460 -0.1891 -0.2145
 9891TIP3    H251089   0.470   0.846   5.436  0.4333 -1.3507 -1.7297
 9892TIP3   OH251090   4.465   1.593   2.669  0.3895  0.5087  1.2564
 9892TIP3    H151091   4.371   1.598   2.655  0.6675 -0.4250 -1.7531
 9892TIP3    H251092   4.498   1.680   2.644  0.5911 -0.3258 -1.9049
 9893TIP3   OH251093   1.877   3.068  15.372  0.6188  0.2592  0.1662
 9893TIP3    H151094   1.932   3.122  15.430  0.2056  1.3083 -0.4004
 9893TIP3    H251095   1.847   3.129  15.305  1.1503 -0.9529 -1.2114
 9894TIP3   OH251096   2.534   0.950  13.774 -0.2210  0.2431 -0.8619
 9894TIP3    H151097   2.610   0.999  13.806 -0.2701 -0.4028  0.2989
 9894TIP3    H251098   2.459   0.993  13.817 -0.2404 -0.9910  0.4094
 9895TIP3   OH251099   4.379   6.279   2.047  0.1691 -0.2303  0.3518
 9895TIP3    H151100   4.317   6.218   2.087  0.4725 -0.6326  0.2206
 9895TIP3    H251101   4.325   6.338   1.995 -0.0556 -0.9819 -0.2869
 9896TIP3   OH251102   4.259   3.362  15.026  0.0083  0.0613 -0.2299
 9896TIP3    H151103   4.315   3.333  14.954  0.7418 -0.3065  0.4701
 9896TIP3    H251104   4.292   3.316  15.103 -2.3925 -1.5771 -0.0665
 9897TIP3   OH251105   0.689   6.079  14.320  0.1920 -0.0950 -0.6106
 9897TIP3    H151106   0.668   6.167  14.291  0.4079 -0.4925 -2.0228
 9897TIP3    H251107   0.610   6.051  14.367  0.4117  1.1034  0.5301
 9898TIP3   OH251108   1.207   4.176  13.007  0.5579  0.5921 -0.1295
 9898TIP3    H151109   1.162   4.199  13.089 -0.1079 -0.4012 -0.1987
 9898TIP3    H251110   1.139   4.180  12.940  0.4791 -1.1541 -0.2022
 9899TIP3   OH251111   4.616   3.033   5.426  0.1749 -0.6530 -0.1872
 9899TIP3    H151112   4.604   3.108   5.483  0.5630 -1.2821  0.7477
 9899TIP3    H251113   4.575   2.960   5.473 -2.1972 -0.6530 -2.0546
 9900TIP3   OH251114   4.834   3.729  14.683 -0.1764  0.3185 -0.2717
 9900TIP3    H151115   4.779   3.679  14.743  1.6029 -1.4732 -0.0389
 9900TIP3    H251116   4.844   3.814  14.726 -0.6194 -0.2252  0.9647
 9901TIP3   OH251117   0.555   1.634  13.095  0.0214 -0.5444  0.4037
 9901TIP3    H151118   0.641   1.622  13.134  0.6818  0.1639 -0.7739
 9901TIP3    H251119   0.533   1.549  13.058  0.3372 -0.6615  0.4858
 9902TIP3   OH251120   1.110   1.826  10.933  0.1643 -0.7414 -0.0513
 9902TIP3    H151121   1.152   1.896  10.884 -0.4102 -1.1262 -1.1267
 9902TIP3    H251122   1.074   1.767  10.866 -2.9268  0.0580  0.7179
 9903TIP3   OH251123   5.828   2.375   5.240  0.1589  0.3013  0.0240
 9903TIP3    H151124   5.815   2.463   5.277 -1.3450  0.3304 -0.5193
 9903TIP3    H251125   5.917   2.377   5.204 -0.4753  2.2365 -1.6222
 9904TIP3   OH251126   0.346   1.732  12.100  0.8073 -0.1353  0.1414
 9904TIP3    H151127   0.413   1.800  12.112 -0.9156  1.3487  2.1985
 9904TIP3    H251128   0.333   1.727  12.005  1.8308  1.5787 -0.1269
 9905TIP3   OH251129   5.761   3.124  15.081  0.0313 -0.0307 -0.0263
 9905TIP3    H151130   5.687   3.081  15.124  0.8583 -1.0253  0.4410
 9905TIP3    H251131   5.793   3.188  15.146 -1.4725  1.6930 -0.8851
 9906TIP3   OH251132   5.905   3.789  14.730  0.1699 -0.3498 -0.2491
 9906TIP3    H151133   5.926   3.833  14.648 -0.2265 -0.7613 -0.5790
 9906TIP3    H251134   5.970   3.821  14.793  0.3573  0.1095 -0.6765
 9907TIP3   OH251135   4.268   5.351  14.622 -0.3432  0.1520 -0.2616
 9907TIP3    H151136   4.349   5.338  14.671 -0.1707 -0.7031 -0.7558
 9907TIP3    H251137   4.244   5.442  14.639  0.9175  0.5296 -0.4027
 9908TIP3   OH251138   5.044   2.198   0.237  0.0015  0.5233 -0.3327
 9908TIP3    H151139   5.059   2.157   0.152  0.6609  0.4694 -0.1943
 9908TIP3    H251140   5.129   2.195   0.281  0.0308  1.9030 -0.2591
 9909TIP3   OH251141   5.707   1.783   6.146 -0.8536  0.4186 -1.2985
 9909TIP3    H151142   5.702   1.866   6.194  0.9588  0.4102 -1.0226
 9909TIP3    H251143   5.621   1.773   6.106 -1.5641  1.7250 -0.1748
 9910TIP3   OH251144   3.534   6.740   2.238 -0.0349 -0.3627  0.2714
 9910TIP3    H151145   3.480   6.682   2.291  0.9740 -1.1364  0.5022
 9910TIP3    H251146   3.592   6.782   2.301  0.5753 -0.6191 -0.1081
 9911TIP3   OH251147   4.854   0.726   1.633  0.6694 -0.8178 -0.0965
 9911TIP3    H151148   4.810   0.792   1.579  1.5086 -1.3072 -1.4225
 9911TIP3    H251149   4.785   0.689   1.687  0.1152  0.8884  0.4314
 9912TIP3   OH251150   1.048   6.106  14.062 -0.2163  0.6619 -0.2785
 9912TIP3    H151151   1.139   6.104  14.034 -0.4126 -0.7133 -0.8727
 9912TIP3    H251152   1.027   6.200  14.069  1.8582  1.0455  2.0122
 9913TIP3   OH251153   2.850   1.061   3.818 -0.6092  0.3735  0.2191
 9913TIP3    H151154   2.786   1.115   3.866  0.5027  1.2919  0.7118
 9913TIP3    H251155   2.883   0.999   3.883  0.7263  1.4641  0.6178
 9914TIP3   OH251156   4.520   4.070   3.416 -0.3023 -0.2381 -0.1143
 9914TIP3    H151157   4.503   4.162   3.435 -1.8657 -0.7554  1.2539
 9914TIP3    H251158   4.588   4.045   3.479 -0.2169 -0.1329 -0.1655
 9915TIP3   OH251159   2.286   2.847  15.496  0.5558  0.2034  0.2638
 9915TIP3    H151160   2.336   2.777  15.537  2.6482  1.2760 -0.3198
 9915TIP3    H251161   2.256   2.901  15.569  1.9832  0.6355  0.5482
 9916TIP3   OH251162   3.572   1.032   2.807  0.3486  0.4104  0.0077
 9916TIP3    H151163   3.577   0.954   2.863  2.0325  1.1661  0.9820
 9916TIP3    H251164   3.644   1.022   2.746 -0.6604  0.2622 -1.1942
 9917TIP3   OH251165   2.572   6.393  11.346  0.2239 -0.3784 -0.1811
 9917TIP3    H151166   2.589   6.385  11.252  0.0656  1.5306 -0.4264
 9917TIP3    H251167   2.656   6.420  11.383 -0.4612  2.3029 -0.3585
 9918TIP3   OH251168   6.294   4.088  14.467 -0.3083 -0.0816  0.3766
 9918TIP3    H151169   6.324   4.008  14.424 -2.0272 -0.9286  0.6612
 9918TIP3    H251170   6.257   4.058  14.550  1.0371  1.2933  1.5358
 9919TIP3   OH251171   1.424   3.570  16.585 -0.3072  0.3892 -0.0542
 9919TIP3    H151172   1.338   3.528  16.590 -0.3451  0.3738 -0.7207
 9919TIP3    H251173   1.486   3.499  16.600 -0.4059  0.3835  0.3435
 9920TIP3   OH251174   0.184   2.743   5.837 -0.0862  0.1282 -0.0321
 9920TIP3    H151175   0.192   2.658   5.881 -4.3404  0.4863  1.8770
 9920TIP3    H251176   0.225   2.805   5.897  0.1700 -0.1936  0.1288
 9921TIP3   OH251177   3.707   3.982   1.468 -0.2161 -0.2432 -0.0032
 9921TIP3    H151178   3.724   4.068   1.429 -2.1864  0.4870  0.6244
 9921TIP3    H251179   3.703   4.000   1.562 -0.8755 -0.9704  0.1116
 9922TIP3   OH251180   1.559   0.182  10.419 -0.2040  0.2637 -0.1796
 9922TIP3    H151181   1.470   0.216  10.418  0.2525  1.7395 -3.4448
 9922TIP3    H251182   1.611   0.251  10.462 -0.3588  0.1690  0.1670
 9923TIP3   OH251183   6.343   3.265   0.255 -0.1310  0.2102 -0.1314
 9923TIP3    H151184   6.305   3.349   0.283 -1.7808 -0.7534  0.6881
 9923TIP3    H251185   6.339   3.211   0.334  0.8467 -0.6680 -0.6728
 9924TIP3   OH251186   0.246   1.692  12.350  0.4043 -0.2194  0.0904
 9924TIP3    H151187   0.153   1.690  12.326  0.1422  2.0750  0.7425
 9924TIP3    H251188   0.292   1.689  12.265 -0.2135 -1.4371 -0.2334
 9925TIP3   OH251189   0.410   3.479   1.002 -0.6200 -0.1366  0.1093
 9925TIP3    H151190   0.361   3.449   1.078 -2.1169  1.7486 -0.0155
 9925TIP3    H251191   0.343   3.491   0.934  0.2373  0.9829 -0.5732
 9926TIP3   OH251192   0.661   1.972   2.893 -0.2630 -0.1280 -0.3301
 9926TIP3    H151193   0.697   1.943   2.977  0.3364 -1.3268 -0.9694
 9926TIP3    H251194   0.608   2.048   2.915 -3.0816 -2.4189  1.7333
 9927TIP3   OH251195   3.327   2.457  16.008  0.2080  0.6524 -0.0934
 9927TIP3    H151196   3.343   2.492  15.920  3.7891  2.8013  1.1583
 9927TIP3    H251197   3.399   2.396  16.023 -1.6251 -1.4484  0.6141
 9928TIP3   OH251198   6.770   2.616  11.857 -0.0776 -0.4476  0.1549
 9928TIP3    H151199   6.822   2.557  11.802 -0.3366  0.4937 -1.1116
 9928TIP3    H251200   6.705   2.654  11.799  0.3953  1.4971  0.8174
 9929TIP3   OH251201   1.298   0.447   4.791 -0.3338  0.0198 -0.0892
 9929TIP3    H151202   1.377   0.471   4.744  0.5372 -1.6406  0.4581
 9929TIP3    H251203   1.260   0.530   4.819  2.1594  0.8066  1.1870
 9930TIP3   OH251204   0.165   5.102   3.271 -0.2589  0.5492 -0.1683
 9930TIP3    H151205   0.175   5.010   3.244 -0.1839  0.8403 -1.1815
 9930TIP3    H251206   0.077   5.107   3.306  0.5327 -0.4404  2.1465
 9931TIP3   OH251207   6.455   5.552  14.000 -0.4530  0.1744 -0.4946
 9931TIP3    H151208   6.543   5.543  14.037 -0.9417 -0.2638  0.6312
 9931TIP3    H251209   6.461   5.624  13.938  0.6338  0.3197 -0.2284
 9932TIP3   OH251210   6.663   0.048  11.333  0.3794 -0.1288  0.2621
 9932TIP3    H151211   6.701   0.066  11.248  1.8036  0.4646  0.9961
 9932TIP3    H251212   6.663  -0.047  11.340  1.8977 -0.1466  0.2909
 9933TIP3   OH251213   3.080   3.430  14.417  0.7378 -0.2897  0.7559
 9933TIP3    H151214   3.036   3.413  14.334 -0.6610  0.5967  1.2709
 9933TIP3    H251215   3.152   3.489  14.393 -0.3951  0.9655  0.3014
 9934TIP3   OH251216   2.282   3.787   3.928  0.0436  0.9500 -0.2992
 9934TIP3    H151217   2.273   3.852   3.997  0.0701  1.6615 -0.9634
 9934TIP3    H251218   2.310   3.707   3.974 -1.8465  0.8473  0.7820
 9935TIP3   OH251219   3.300   1.048  14.306 -0.0896 -0.1668  0.4730
 9935TIP3    H151220   3.292   1.007  14.219  2.1471  0.8412 -0.2922
 9935TIP3    H251221   3.257   0.987  14.365 -0.8349 -1.3676 -1.2232
 9936TIP3   OH251222   4.582   3.080  10.683 -0.8088 -0.2060 -0.1346
 9936TIP3    H151223   4.603   3.169  10.711 -0.4023 -0.1664 -0.5537
 9936TIP3    H251224   4.637   3.065  10.606 -0.7779 -0.8648  0.0068
 9937TIP3   OH251225   6.416   5.470   5.063  0.2219  0.1831  0.0386
 9937TIP3    H151226   6.381   5.541   5.009 -1.6866  0.6913  1.8105
 9937TIP3    H251227   6.357   5.396   5.047 -1.1484  0.7189  2.2596
 9938TIP3   OH251228   4.585   3.967  17.182  0.4563  0.4478  0.3876
 9938TIP3    H151229   4.617   3.986  17.095 -2.3461 -0.2375 -0.9195
 9938TIP3    H251230   4.583   3.871  17.187  0.1003  0.4772  1.0072
 9939TIP3   OH251231   1.382   1.313  12.544 -0.1390  0.0361 -0.6968
 9939TIP3    H151232   1.355   1.226  12.517  0.4421 -0.4953  0.3576
 9939TIP3    H251233   1.414   1.301  12.634 -2.5393  1.7589  0.5342
 9940TIP3   OH251234   6.039   5.398   0.604  0.0943 -0.5428  0.2079
 9940TIP3    H151235   6.052   5.304   0.610  0.7652 -0.7385 -2.7700
 9940TIP3    H251236   5.945   5.410   0.619 -1.1553 -2.4616 -4.3918
 9941TIP3   OH251237   3.914   2.213   3.247 -0.3658 -0.3815  0.3183
 9941TIP3    H151238   3.973   2.143   3.276 -1.2529 -1.0098  0.6622
 9941TIP3    H251239   3.908   2.201   3.152 -2.0094 -2.0352  0.5681
 9942TIP3   OH251240   5.081   5.516  10.477  0.7448 -0.3385 -0.0845
 9942TIP3    H151241   5.148   5.539  10.414  2.2073 -2.4170  0.6266
 9942TIP3    H251242   5.008   5.483  10.425  2.0158 -2.2378 -0.7242
 9943TIP3   OH251243   0.686   5.543   5.254  0.0821 -0.5746  0.2791
 9943TIP3    H151244   0.665   5.633   5.230  4.1026  0.2953 -0.6441
 9943TIP3    H251245   0.750   5.551   5.324  0.0431 -2.7558  0.6377
 9944TIP3   OH251246   1.137   2.276   1.901  0.5320 -0.3224 -0.2806
 9944TIP3    H151247   1.189   2.339   1.950 -1.7761  2.2738 -0.8955
 9944TIP3    H251248   1.180   2.270   1.816  1.5295 -0.6826  0.2340
 9945TIP3   OH251249   0.020   1.146   1.602  0.4406 -0.0621  0.1332
 9945TIP3    H151250  -0.015   1.093   1.531  0.7669 -1.4908  1.0055
 9945TIP3    H251251   0.103   1.104   1.625  1.0655  1.2567  0.3822
 9946TIP3   OH251252   1.564   5.112   5.579 -0.5961 -0.0543  0.1203
 9946TIP3    H151253   1.490   5.062   5.613 -0.8621 -0.1176 -0.5309
 9946TIP3    H251254   1.528   5.198   5.558 -0.2243  0.2910  0.8805
 9947TIP3   OH251255   0.205   0.802   4.464  0.4256 -0.0049  0.1851
 9947TIP3    H151256   0.135   0.814   4.400  0.3947  1.2485  0.4092
 9947TIP3    H251257   0.280   0.850   4.427  1.4118 -1.8993 -0.3837
 9948TIP3   OH251258   4.264   0.617   5.326 -0.4262 -0.0792 -0.2654
 9948TIP3    H151259   4.264   0.665   5.409  1.0866  1.8587 -1.2925
 9948TIP3    H251260   4.309   0.534   5.346  0.3282  0.5501  0.7679
 9949TIP3   OH251261   5.973   2.889   0.605  0.1848  0.6135  0.1184
 9949TIP3    H151262   5.977   2.984   0.614  1.5062  0.6540 -0.5969
 9949TIP3    H251263   6.002   2.872   0.515 -0.7401 -0.4354 -0.0114
 9950TIP3   OH251264   0.527   6.478  16.896 -0.5170  0.5775 -0.6124
 9950TIP3    H151265   0.489   6.513  16.815  0.1192  0.9630 -0.7519
 9950TIP3    H251266   0.579   6.403  16.867 -0.6542  0.4392 -0.5018
 9951TIP3   OH251267   1.447   0.029  16.619 -0.7639 -0.7577 -0.2440
 9951TIP3    H151268   1.535  -0.007  16.632 -1.3643 -1.3945  2.9777
 9951TIP3    H251269   1.462   0.118  16.588  0.8856 -1.7687 -2.6539
 9952TIP3   OH251270   3.399   2.061   4.008  0.0533 -0.5668 -0.4700
 9952TIP3    H151271   3.398   2.139   4.064  0.9882 -0.6493 -0.3242
 9952TIP3    H251272   3.440   2.091   3.927  0.8558 -1.0094 -0.2404
 9953TIP3   OH251273   2.289   0.200   2.873 -0.1897  0.0062 -0.4110
 9953TIP3    H151274   2.228   0.129   2.854 -1.2814  0.8697 -0.2175
 9953TIP3    H251275   2.245   0.278   2.840  1.5420  0.4713 -1.8183
 9954TIP3   OH251276   1.151   4.922   4.300 -0.1424  0.2478  0.0415
 9954TIP3    H151277   1.240   4.945   4.273 -0.1525  0.6714  0.3571
 9954TIP3    H251278   1.157   4.911   4.395 -0.8522  2.3560  0.3713
 9955TIP3   OH251279   2.707   2.082  10.915 -0.5648  0.3658 -0.1102
 9955TIP3    H151280   2.707   2.008  10.976 -2.2862  1.4726  1.3254
 9955TIP3    H251281   2.626   2.129  10.934  0.6634  2.8769 -0.6610
 9956TIP3   OH251282   3.929   4.200   3.937 -0.1291 -0.2903 -0.5334
 9956TIP3    H151283   3.983   4.224   4.013 -0.4372  1.8631 -0.9323
 9956TIP3    H251284   3.992   4.189   3.866 -0.0621  0.7646 -0.6567
 9957TIP3   OH251285   5.160   0.224  14.402 -0.1166  0.6167 -0.1144
 9957TIP3    H151286   5.126   0.213  14.314 -1.4750  0.3853  0.4102
 9957TIP3    H251287   5.125   0.309  14.431  0.2150  0.6366  0.2413
 9958TIP3   OH251288   3.662   6.145  11.643  0.3064  0.1063  0.3239
 9958TIP3    H151289   3.645   6.231  11.605 -0.3150  1.3815  3.2426
 9958TIP3    H251290   3.732   6.108  11.588  0.6432  2.4752 -0.9794
 9959TIP3   OH251291   3.169   4.915  15.711 -0.5279  0.6164 -0.7937
 9959TIP3    H151292   3.243   4.974  15.729 -2.0937  2.9730 -1.5977
 9959TIP3    H251293   3.206   4.846  15.656  1.6418  0.0810  1.1683
 9960TIP3   OH251294   5.961   6.768  15.843 -0.5810  0.0034 -0.4423
 9960TIP3    H151295   5.925   6.789  15.929  1.0291 -0.0698  0.2777
 9960TIP3    H251296   5.993   6.852  15.809  0.6665 -0.2945 -0.0497
 9961TIP3   OH251297   0.437   6.117  16.697 -0.1049 -0.3407  0.1694
 9961TIP3    H151298   0.494   6.041  16.707  2.3496  1.3643 -0.0347
 9961TIP3    H251299   0.411   6.139  16.787 -0.8228 -1.3627  0.2335
 9962TIP3   OH251300   5.988   5.183  15.593  0.2387  0.0048 -0.6194
 9962TIP3    H151301   6.056   5.120  15.569 -0.4162 -0.3093 -1.7086
 9962TIP3    H251302   5.921   5.173  15.526 -0.4541  0.9842 -0.0984
 9963TIP3   OH251303   2.067   1.583   5.678  0.1409  0.3288 -0.6096
 9963TIP3    H151304   2.104   1.517   5.736 -1.4302 -0.5869 -0.5884
 9963TIP3    H251305   2.039   1.653   5.736 -2.0533 -0.8796 -0.0986
 9964TIP3   OH251306   5.102   5.088   6.008 -0.8455  0.8045  0.6859
 9964TIP3    H151307   5.061   5.125   5.930  0.7706  1.5474  0.1345
 9964TIP3    H251308   5.142   5.006   5.977  0.1384  1.2968  0.6041
 9965TIP3   OH251309   6.213   5.981   3.138  0.1648 -0.0787  0.1396
 9965TIP3    H151310   6.187   5.894   3.110  0.5258 -1.1024  2.6621
 9965TIP3    H251311   6.250   6.022   3.060 -0.2341 -2.0831 -1.1721
 9966TIP3   OH251312   5.580   4.706   3.397 -0.7087 -0.2901 -0.2565
 9966TIP3    H151313   5.497   4.702   3.443 -0.3134  0.0362  0.5029
 9966TIP3    H251314   5.640   4.748   3.459 -0.4736  1.3619 -1.5041
 9967TIP3   OH251315   2.197   2.950  10.761 -0.3468  0.3902  0.2916
 9967TIP3    H151316   2.242   2.868  10.739  0.6176  1.1058 -0.5098
 9967TIP3    H251317   2.186   2.945  10.856 -0.9608 -0.9794  0.1777
 9968TIP3   OH251318   0.688   4.432   3.961 -0.4681  0.1910 -0.1064
 9968TIP3    H151319   0.734   4.461   3.883 -2.5790 -0.8501 -1.8707
 9968TIP3    H251320   0.610   4.488   3.965 -1.2446 -0.8750  0.2223
 9969TIP3   OH251321   3.326   3.717   2.117 -0.2676 -0.2672 -0.1035
 9969TIP3    H151322   3.380   3.770   2.175 -2.1978 -0.9594  2.5207
 9969TIP3    H251323   3.237   3.726   2.153 -1.7910  0.0048 -3.5714
 9970TIP3   OH251324   5.028   4.399  11.441 -0.3036 -0.0742  0.6698
 9970TIP3    H151325   5.097   4.463  11.424  0.2047 -1.0186 -1.1199
 9970TIP3    H251326   5.004   4.413  11.533  1.8047  0.7323  1.1550
 9971TIP3   OH251327   6.373   2.555   3.315  0.4605  0.5259  0.0550
 9971TIP3    H151328   6.392   2.643   3.282  1.6141  0.6742  1.0145
 9971TIP3    H251329   6.371   2.499   3.237  0.9128  1.2129 -0.4577
 9972TIP3   OH251330   1.328   1.311  16.237  0.3757 -0.0742 -0.3894
 9972TIP3    H151331   1.249   1.364  16.231 -0.6704 -1.7086 -1.7524
 9972TIP3    H251332   1.336   1.290  16.330 -1.0317 -0.1993 -0.2771
 9973TIP3   OH251333   1.007   5.071   3.222  0.6604  0.8601 -0.0891
 9973TIP3    H151334   1.072   5.072   3.151  1.3926  2.7261  0.5476
 9973TIP3    H251335   0.950   5.146   3.203 -0.7421 -0.1670 -0.0934
 9974TIP3   OH251336   0.285   1.690   1.750  0.6970 -0.8206 -0.5124
 9974TIP3    H151337   0.300   1.746   1.827  1.6677  1.3195 -2.1228
 9974TIP3    H251338   0.198   1.654   1.763  0.1604  0.7984  0.8449
 9975TIP3   OH251339   3.544   0.822   4.053 -0.5352  0.5339 -0.2286
 9975TIP3    H151340   3.583   0.742   4.089  0.0194  0.7322 -0.3739
 9975TIP3    H251341   3.619   0.875   4.027 -0.9193  0.7509 -0.9043
 9976TIP3   OH251342   4.463   4.475  11.260 -0.3512 -0.2821  0.2044
 9976TIP3    H151343   4.492   4.562  11.235 -1.0747 -0.0873  0.0305
 9976TIP3    H251344   4.543   4.431  11.289  0.1471  0.1850 -0.4233
 9977TIP3   OH251345   1.660   0.993  12.506  0.1149  0.1357  0.4485
 9977TIP3    H151346   1.625   1.017  12.592 -0.1161  0.8979  0.1551
 9977TIP3    H251347   1.674   1.077  12.462 -2.4473 -0.2481 -1.3191
 9978TIP3   OH251348   1.172   1.110  15.694 -0.2754 -0.1845 -0.1887
 9978TIP3    H151349   1.093   1.071  15.733  0.1377 -2.9144 -1.7600
 9978TIP3    H251350   1.244   1.077  15.747  0.0353 -1.0545 -1.1154
 9979TIP3   OH251351   0.491   0.507   5.482 -0.9281 -0.4836  0.0697
 9979TIP3    H151352   0.459   0.475   5.397  1.2608  0.2257 -1.1170
 9979TIP3    H251353   0.526   0.428   5.525 -0.4219 -0.5850 -0.5020
 9980TIP3   OH251354   2.172   1.463  12.911 -0.2664  0.5067 -0.0135
 9980TIP3    H151355   2.151   1.520  12.837  0.1064 -0.6565 -1.0479
 9980TIP3    H251356   2.088   1.425  12.936 -0.0681 -1.0123 -1.5001
 9981TIP3   OH251357   2.346   3.277   6.600  0.1966  0.4501 -0.0278
 9981TIP3    H151358   2.316   3.367   6.610  0.5662  0.6851 -0.9992
 9981TIP3    H251359   2.320   3.234   6.682  1.5420  1.8559  1.1752
 9982TIP3   OH251360   5.825   0.269  15.106  0.6996 -0.0627  0.4822
 9982TIP3    H151361   5.860   0.181  15.120  0.2083 -0.5940 -1.3824
 9982TIP3    H251362   5.800   0.271  15.014  0.6553  2.0296  0.4863
 9983TIP3   OH251363   3.195   6.698  10.651  0.0920  0.9879 -0.2376
 9983TIP3    H151364   3.250   6.620  10.641 -1.0651 -0.0406  1.0497
 9983TIP3    H251365   3.135   6.695  10.577  0.6196  1.1434 -0.6739
 9984TIP3   OH251366   6.185   6.325  14.693  0.0200 -0.4012 -0.8422
 9984TIP3    H151367   6.276   6.344  14.712 -0.1157  0.2419 -0.8084
 9984TIP3    H251368   6.188   6.253  14.630  0.4956 -1.5738  0.4814
 9985TIP3   OH251369   0.991   0.499  11.476  1.0794 -0.1865 -0.3145
 9985TIP3    H151370   0.945   0.435  11.530 -0.6190  1.3443  0.1888
 9985TIP3    H251371   0.935   0.511  11.400 -1.4700  4.1850  1.8406
 9986TIP3   OH251372   2.323   6.052   2.038  0.1960 -0.4911  0.6776
 9986TIP3    H151373   2.401   6.005   2.009 -0.7920 -1.5596 -0.3613
 9986TIP3    H251374   2.341   6.144   2.018  1.1087 -0.7467  0.3034
 9987TIP3   OH251375   5.719   3.334  16.287  0.0431  0.1648 -0.4725
 9987TIP3    H151376   5.629   3.301  16.296 -0.7218  2.5440  1.9626
 9987TIP3    H251377   5.741   3.368  16.374  3.7887 -1.2871 -0.6589
 9988TIP3   OH251378   5.822   0.704   4.013  0.5838  0.2755 -0.0093
 9988TIP3    H151379   5.822   0.782   4.068  0.0977 -0.0158  0.4089
 9988TIP3    H251380   5.797   0.737   3.926 -1.9133  0.2844  0.6475
 9989TIP3   OH251381   3.458   3.552  13.438  0.6552 -0.6763 -0.4455
 9989TIP3    H151382   3.451   3.581  13.347 -1.4254 -1.5466 -0.6117
 9989TIP3    H251383   3.378   3.583  13.480  1.6916 -0.0656  1.1924
 9990TIP3   OH251384   5.047   0.764  12.121  0.1154 -0.1356 -0.3562
 9990TIP3    H151385   4.960   0.773  12.082  0.8626 -0.3766 -2.1607
 9990TIP3    H251386   5.053   0.836  12.184 -0.7947  0.8595 -1.3745
 9991TIP3   OH251387   0.687   0.899   4.953 -0.2118  0.4135  0.3333
 9991TIP3    H151388   0.621   0.918   4.886 -1.6997  0.1353  1.6552
 9991TIP3    H251389   0.746   0.975   4.952 -0.9119  0.9544 -0.4658
 9992TIP3   OH251390   5.837   1.673  12.189 -0.6698 -0.2697  0.3659
 9992TIP3    H151391   5.769   1.732  12.155  0.6802  1.3116  0.2442
 9992TIP3    H251392   5.897   1.661  12.115  0.0395 -0.2728  0.9272
 9993TIP3   OH251393   3.814   1.830  12.804 -0.8362 -0.3748  0.4078
 9993TIP3    H151394   3.727   1.869  12.803 -0.1512  1.1978  0.1431
 9993TIP3    H251395   3.872   1.898  12.837  0.4409 -1.0741 -0.2860
 9994TIP3   OH251396   3.248   0.203  16.295 -0.0680  0.1015  0.0747
 9994TIP3    H151397   3.322   0.151  16.329  0.0276 -0.4582 -0.9340
 9994TIP3    H251398   3.176   0.182  16.354  0.7919  1.4031  1.6650
 9995TIP3   OH251399   3.369   6.315   0.514  0.6530 -0.6305 -0.5446
 9995TIP3    H151400   3.291   6.302   0.460 -0.3285  1.0114  0.3794
 9995TIP3    H251401   3.436   6.347   0.454  0.1624 -0.6229 -1.0892
 9996TIP3   OH251402   4.067   1.977   0.566 -0.1117  0.0430 -0.2280
 9996TIP3    H151403   4.042   2.064   0.598 -1.5620 -0.4826  0.1135
 9996TIP3    H251404   4.157   1.966   0.597  0.1784  1.5077 -0.4747
 9997TIP3   OH251405   3.791   0.388  11.201  0.3136 -0.2420  0.1760
 9997TIP3    H151406   3.730   0.316  11.188 -0.6922  0.8046 -1.1802
 9997TIP3    H251407   3.810   0.420  11.113  1.4805  0.5538  0.6868
 9998TIP3   OH251408   0.759   4.630  11.614 -0.2173 -0.3283  0.1205
 9998TIP3    H151409   0.675   4.586  11.603  0.4344 -1.2906 -1.4431
 9998TIP3    H251410   0.797   4.631  11.526  1.5109 -0.1467  0.8248
 9999TIP3   OH251411   2.660   3.541   5.697  1.1270  0.3629 -0.1086
 9999TIP3    H151412   2.645   3.574   5.609 -0.3464  2.0538  0.7125
 9999TIP3    H251413   2.583   3.568   5.747  1.2718 -1.7386  1.3978
10000TIP3   OH251414   4.225   4.775   1.049  0.1006 -0.1796  0.7105
10000TIP3    H151415   4.231   4.680   1.058  1.4060 -0.0966  0.8801
10000TIP3    H251416   4.281   4.796   0.975 -1.5858  0.3078 -0.4834
10001TIP3   OH251417   5.034   0.006   0.668  0.2164  0.3244 -0.5545
10001TIP3    H151418   4.964  -0.054   0.691  0.8032 -0.2666 -0.2743
10001TIP3    H251419   5.085  -0.041   0.602  2.3425 -0.7201  1.6724
10002TIP3   OH251420   2.657   4.772   1.112  0.2886 -0.1694 -0.0836
10002TIP3    H151421   2.730   4.807   1.060 -1.5095  0.3854 -2.4546
10002TIP3    H251422   2.605   4.721   1.049 -0.3594 -2.1774  1.9610
10003TIP3   OH251423   4.806   3.737   3.544  0.1932  0.3726 -0.0945
10003TIP3    H151424   4.827   3.709   3.633  0.1924 -0.7210 -0.4304
10003TIP3    H251425   4.889   3.772   3.510  0.3495  0.2152  0.1222
10004TIP3   OH251426   4.468   0.862  14.004 -0.3869  0.4841  0.2604
10004TIP3    H151427   4.373   0.851  13.996 -0.3757 -0.6048  1.3035
10004TIP3    H251428   4.485   0.948  13.966 -1.4308 -0.3453 -2.3117
10005TIP3   OH251429   2.040   2.826  16.037 -0.2667  0.0204 -0.2882
10005TIP3    H151430   1.947   2.851  16.037 -0.6833 -1.3481  1.5097
10005TIP3    H251431   2.073   2.857  16.122  0.4151 -1.1813 -0.0927
10006TIP3   OH251432   0.501   1.764  11.553 -0.0449 -0.7112  0.2031
10006TIP3    H151433   0.597   1.760  11.554  0.0919 -2.0057 -3.2929
10006TIP3    H251434   0.481   1.857  11.559  1.5809 -0.2284 -1.1394
10007TIP3   OH251435   4.071   2.786   1.134 -0.2570  0.2307 -0.7339
10007TIP3    H151436   3.997   2.847   1.136  0.5636  1.2429  0.5038
10007TIP3    H251437   4.135   2.824   1.194  0.6956 -1.3621 -0.6813
10008TIP3   OH251438   6.661   4.908   1.801 -0.1964  0.7019  0.8925
10008TIP3    H151439   6.647   4.814   1.786  0.0629  0.7861  0.0399
10008TIP3    H251440   6.756   4.919   1.793 -0.3549  1.2537 -0.4125
10009TIP3   OH251441   3.457   5.950   4.576  0.0387 -0.5970  0.1885
10009TIP3    H151442   3.388   5.940   4.642 -1.1069 -0.9314 -1.0015
10009TIP3    H251443   3.409   5.963   4.494  1.3813  2.4676 -0.2527
10010TIP3   OH251444   1.380   0.725  16.624  0.3581 -0.0425 -0.3303
10010TIP3    H151445   1.370   0.630  16.635  0.6050 -0.5557 -3.5642
10010TIP3    H251446   1.293   0.756  16.600  0.4426  0.4258 -0.0365
10011TIP3   OH251447   2.927   3.704  11.585 -0.1704  0.1853  0.3805
10011TIP3    H151448   2.997   3.769  11.589 -0.4021  0.4615  0.0378
10011TIP3    H251449   2.972   3.621  11.570  0.0215  0.5053 -0.8817
10012TIP3   OH251450   6.507   3.356  15.317  0.6462  0.0659  0.3402
10012TIP3    H151451   6.491   3.307  15.397  0.9089  1.2501  1.1369
10012TIP3    H251452   6.491   3.448  15.341 -0.5647  0.3355 -1.2926
10013TIP3   OH251453   1.223   0.181  13.044  0.6395 -0.4548  0.2581
10013TIP3    H151454   1.235   0.135  12.961 -0.7975  0.9595 -0.7833
10013TIP3    H251455   1.137   0.152  13.075  0.7991 -0.3244  0.8322
10014TIP3   OH251456   6.322   4.610   6.301  0.1739 -0.0528  0.5481
10014TIP3    H151457   6.386   4.679   6.284  1.1802 -0.7648  1.3118
10014TIP3    H251458   6.363   4.555   6.368 -1.3472 -0.4130  1.2208
10015TIP3   OH251459   6.717   2.443  11.611 -0.4317  0.3758  0.3856
10015TIP3    H151460   6.629   2.446  11.649 -0.9464  1.1647 -0.8094
10015TIP3    H251461   6.703   2.451  11.517  0.9438  1.1871  0.2174
10016TIP3   OH251462   3.454   4.676  16.207  0.3267  0.2388  0.0766
10016TIP3    H151463   3.523   4.643  16.150 -0.2969 -0.5593 -0.2270
10016TIP3    H251464   3.479   4.645  16.295  1.6499  2.0411  0.4012
10017TIP3   OH251465   3.679   4.524  11.050 -0.2347  0.3309 -0.6983
10017TIP3    H151466   3.698   4.554  10.961  3.4877  0.2785 -0.1104
10017TIP3    H251467   3.616   4.587  11.085 -0.1567  1.5848 -2.6761
10018TIP3   OH251468   0.724   0.767   0.510  0.0970 -0.2199  0.2127
10018TIP3    H151469   0.746   0.695   0.451 -1.0887  0.2835 -0.8855
10018TIP3    H251470   0.628   0.773   0.506  0.1031  0.6864  1.1544
10019TIP3   OH251471   0.022   1.830   3.316  0.1630 -0.0823  0.1031
10019TIP3    H151472  -0.057   1.783   3.288  0.3682 -1.2008  1.3005
10019TIP3    H251473   0.094   1.770   3.296  0.5518  0.2267  0.5521
10020TIP3   OH251474   4.770   0.167   1.561 -0.5604  0.9055 -0.7593
10020TIP3    H151475   4.795   0.137   1.474  0.1172  1.2385 -0.6832
10020TIP3    H251476   4.847   0.149   1.615 -2.3953 -3.4692  0.8356
10021TIP3   OH251477   4.541   4.017   5.010  0.0969 -0.1597 -0.4073
10021TIP3    H151478   4.496   4.058   5.084  1.8320 -1.3132  1.3405
10021TIP3    H251479   4.470   3.981   4.957 -1.3573  2.9593 -0.7996
10022TIP3   OH251480   3.579   1.655   6.271  0.7962 -0.1961 -0.1691
10022TIP3    H151481   3.524   1.580   6.249 -1.5169  1.3873 -0.2003
10022TIP3    H251482   3.668   1.627   6.250  0.0384 -2.9094 -0.1095
10023TIP3   OH251483   0.305   2.518   4.423 -0.5967 -0.4014 -0.0377
10023TIP3    H151484   0.321   2.428   4.454  0.5332 -0.1244  0.2121
10023TIP3    H251485   0.378   2.569   4.457 -0.9892  0.5399 -0.5585
10024TIP3   OH251486   4.648   0.450   3.559  0.3292 -0.0809  0.4068
10024TIP3    H151487   4.659   0.527   3.615 -1.4372  1.0723 -0.7222
10024TIP3    H251488   4.710   0.386   3.593  3.2392  2.4588  0.2449
10025TIP3   OH251489   2.378   6.451   4.830  0.6571 -0.2970 -0.7611
10025TIP3    H151490   2.402   6.515   4.763  1.4435 -1.5974 -1.7716
10025TIP3    H251491   2.389   6.498   4.913 -0.1538  1.2925 -1.4978
10026TIP3   OH251492   5.939   4.846  13.506  0.0538  0.5245  0.2119
10026TIP3    H151493   5.933   4.770  13.449 -1.6755  1.7614 -1.4112
10026TIP3    H251494   5.858   4.844  13.558  1.1653 -0.0660  1.9829
10027TIP3   OH251495   6.524   6.372  11.108  0.0253  0.2801 -0.5032
10027TIP3    H151496   6.577   6.444  11.141  0.5760 -0.1662 -0.4141
10027TIP3    H251497   6.465   6.350  11.181  1.9416 -1.4063  0.6261
10028TIP3   OH251498   0.987   4.897   5.470 -0.1948 -0.4918  0.1691
10028TIP3    H151499   1.056   4.847   5.513 -1.8590 -1.9423  1.2572
10028TIP3    H251500   0.945   4.835   5.411 -0.2734  0.5056 -0.8604
10029TIP3   OH251501   5.992   6.259  13.427  0.2834 -0.3946  0.6788
10029TIP3    H151502   5.928   6.255  13.498 -0.3707 -0.7722  0.0855
10029TIP3    H251503   6.077   6.253  13.470 -0.1290 -1.8709  1.3590
10030TIP3   OH251504   5.689   2.524  11.668 -0.0413  0.1813  0.5967
10030TIP3    H151505   5.760   2.581  11.696  0.2602 -0.5565  1.3510
10030TIP3    H251506   5.636   2.579  11.610 -0.3187  1.5496  2.0785
10031TIP3   OH251507   6.263   5.862   3.955  0.3251  0.1189 -0.4050
10031TIP3    H151508   6.327   5.823   4.015 -0.8624 -1.2136  0.0333
10031TIP3    H251509   6.234   5.788   3.901 -2.3029  0.2555  0.7223
10032TIP3   OH251510   0.395   2.422   0.707 -0.4978  0.5718  0.3880
10032TIP3    H151511   0.427   2.414   0.617 -0.8855 -0.1821  0.3066
10032TIP3    H251512   0.381   2.332   0.735 -3.2291  0.8455  0.1683
10033TIP3   OH251513   2.492   2.967  14.135  0.2417 -0.6985 -0.6090
10033TIP3    H151514   2.576   2.925  14.151 -0.2069 -1.1175  0.8694
10033TIP3    H251515   2.428   2.896  14.138 -0.5374 -0.0269  2.0015
10034TIP3   OH251516   6.450   6.377   1.979 -0.3595  0.1389 -0.1879
10034TIP3    H151517   6.496   6.357   2.061  1.0366  2.9552 -0.1781
10034TIP3    H251518   6.361   6.347   1.995  0.2616 -0.9304  1.7016
10035TIP3   OH251519   3.149   0.700   0.326 -0.0740  0.0097  0.2341
10035TIP3    H151520   3.109   0.687   0.240 -1.2666  1.3677  0.5454
10035TIP3    H251521   3.169   0.612   0.357 -1.3965 -0.6320 -0.6321
10036TIP3   OH251522   3.895   1.917   4.575  0.5693 -0.5461  0.3341
10036TIP3    H151523   3.828   1.888   4.514  1.1631  1.2107 -1.2465
10036TIP3    H251524   3.954   1.843   4.583  0.2905 -0.9327 -0.9731
10037TIP3   OH251525   4.812   1.737  10.764 -0.2614 -0.4350  0.2847
10037TIP3    H151526   4.719   1.747  10.787 -0.1383  0.3099  0.4790
10037TIP3    H251527   4.853   1.705  10.844 -0.3080 -0.5389  0.2673
10038TIP3   OH251528   4.866   0.069  11.373  0.0293  0.0361 -0.8038
10038TIP3    H151529   4.871  -0.019  11.336 -1.1930 -1.0927  1.5244
10038TIP3    H251530   4.958   0.095  11.385  0.4115 -0.6716 -1.9822
10039TIP3   OH251531   6.194   0.315  11.446 -0.0589 -0.7437  0.2200
10039TIP3    H151532   6.183   0.410  11.440 -0.8228 -0.8126  0.4298
10039TIP3    H251533   6.141   0.279  11.375 -0.2417 -1.0343  0.4967
10040TIP3   OH251534   6.374   6.355  13.767  0.4958  0.2863 -0.9943
10040TIP3    H151535   6.434   6.407  13.713 -0.5797  1.9343 -0.6624
10040TIP3    H251536   6.297   6.410  13.777 -0.0720 -0.7513  0.6811
10041TIP3   OH251537   3.767   2.515  11.505 -0.2174 -0.1508 -1.1588
10041TIP3    H151538   3.793   2.473  11.587  0.7078  3.5964  0.6971
10041TIP3    H251539   3.828   2.481  11.440 -1.8417 -4.2914 -0.8434
10042TIP3   OH251540   5.138   5.727  15.840 -0.3877  0.2110  0.3166
10042TIP3    H151541   5.104   5.764  15.922 -2.1117  0.4297 -0.4688
10042TIP3    H251542   5.204   5.790  15.812  1.2280 -0.5303  2.1783
10043TIP3   OH251543   1.279   2.107   1.688 -0.1156  0.9713  0.2564
10043TIP3    H151544   1.237   2.051   1.623  0.9938 -0.1721  0.4958
10043TIP3    H251545   1.303   2.048   1.759  0.5883  1.8512  0.7780
10044TIP3   OH251546   1.279   3.403  12.561  0.5292  0.5002  0.2116
10044TIP3    H151547   1.261   3.496  12.578 -0.6303  0.6630 -1.6092
10044TIP3    H251548   1.374   3.397  12.553  0.5431  2.5006 -4.0781
10045TIP3   OH251549   6.103   5.388  12.524 -0.6733 -0.2709  0.6656
10045TIP3    H151550   6.025   5.421  12.479  0.2272 -0.1155 -0.8405
10045TIP3    H251551   6.173   5.395  12.459  0.3564 -1.5062  1.5900
10046TIP3   OH251552   3.668   3.842   1.179 -0.0922 -0.0465 -0.5771
10046TIP3    H151553   3.606   3.902   1.138  0.6399  0.6254 -0.7421
10046TIP3    H251554   3.633   3.827   1.267 -0.6464  0.0803 -0.7755
10047TIP3   OH251555   4.122   4.561  11.645 -0.4780 -0.0783  0.1547
10047TIP3    H151556   4.203   4.570  11.595 -1.1902  0.2137 -1.0024
10047TIP3    H251557   4.067   4.505  11.591 -0.8245 -0.8097  1.2313
10048TIP3   OH251558   2.879   2.903  13.218  0.3873  0.7068 -0.3387
10048TIP3    H151559   2.794   2.907  13.261 -0.0250 -1.4389 -0.8455
10048TIP3    H251560   2.859   2.908  13.125  0.5786 -1.7940 -0.5609
10049TIP3   OH251561   3.324   1.482   0.857  0.2310  1.0189 -0.2193
10049TIP3    H151562   3.299   1.488   0.765 -0.4494  1.2113 -0.0259
10049TIP3    H251563   3.266   1.543   0.902 -0.5120 -0.1814  0.5329
10050TIP3   OH251564   6.217   3.337  13.773 -0.0999 -0.6698 -0.0069
10050TIP3    H151565   6.148   3.400  13.795 -1.1810 -2.0096  0.5961
10050TIP3    H251566   6.256   3.371  13.693 -0.2474  1.0600  0.6074
10051TIP3   OH251567   4.091   5.580   2.573 -0.4905 -0.3899 -0.2676
10051TIP3    H151568   4.042   5.610   2.496  0.1560  2.8029  0.4153
10051TIP3    H251569   4.031   5.596   2.646  0.2894  0.2567  0.2373
10052TIP3   OH251570   1.735   5.578  13.501  0.0418  0.4791 -0.6260
10052TIP3    H151571   1.772   5.491  13.515 -0.1601  0.2468 -1.4674
10052TIP3    H251572   1.800   5.623  13.447 -0.0767  0.6834 -0.5992
10053TIP3   OH251573   6.035   4.733   1.753  0.4099 -0.2401 -0.2035
10053TIP3    H151574   6.011   4.735   1.846  4.3781  0.1033  1.0088
10053TIP3    H251575   6.085   4.814   1.739  1.9845 -1.4255 -1.9380
10054TIP3   OH251576   1.075   3.648  15.662  0.3031 -0.1992 -0.0078
10054TIP3    H151577   1.021   3.570  15.648 -1.0922  0.9542 -1.4387
10054TIP3    H251578   1.144   3.619  15.722  0.1441 -2.6580 -0.8946
10055TIP3   OH251579   3.594   5.391   1.347  0.3083  0.3709 -0.1960
10055TIP3    H151580   3.668   5.342   1.312 -0.8397 -1.1462 -0.6245
10055TIP3    H251581   3.562   5.337   1.419 -1.5556 -0.0212 -1.2561
10056TIP3   OH251582   1.850   2.739   4.628 -0.2954  0.7104 -0.3486
10056TIP3    H151583   1.926   2.681   4.633 -1.2463 -0.4617  1.8327
10056TIP3    H251584   1.873   2.803   4.562  0.9478 -1.9495 -2.6869
10057TIP3   OH251585   0.155   2.501  15.769  0.0145 -0.1657 -0.2218
10057TIP3    H151586   0.187   2.563  15.703 -1.6932 -0.1856 -1.1202
10057TIP3    H251587   0.133   2.556  15.844 -1.2054  0.3283 -0.9070
10058TIP3   OH251588   5.951   4.365  12.721 -0.2246  0.0502 -0.1974
10058TIP3    H151589   5.938   4.422  12.645  0.1559 -0.2912 -0.5224
10058TIP3    H251590   6.045   4.366  12.736 -0.2524 -0.2270  0.0025
10059TIP3   OH251591   3.237   4.820  16.117 -0.0383 -0.4171 -0.3304
10059TIP3    H151592   3.295   4.869  16.058 -0.0651 -0.8419 -0.7142
10059TIP3    H251593   3.294   4.754  16.156  0.4514  1.0581  1.6137
10060TIP3   OH251594   4.872   2.164   4.244  0.1208 -0.2088  0.0410
10060TIP3    H151595   4.954   2.197   4.281  0.7133  0.2269 -1.5916
10060TIP3    H251596   4.860   2.215   4.164 -1.3324 -0.8382 -0.1639
10061TIP3   OH251597   1.103   5.918  12.255  0.3248 -0.6329 -0.0566
10061TIP3    H151598   1.127   5.994  12.201  2.3650 -0.5611  0.8490
10061TIP3    H251599   1.037   5.952  12.316  0.5935  0.1901 -0.2153
10062TIP3   OH251600   3.218   1.583  16.915  0.2480  0.6317 -0.2141
10062TIP3    H151601   3.290   1.575  16.977 -0.4021  1.3990  0.6816
10062TIP3    H251602   3.250   1.645  16.849 -0.2590  2.6104  1.2839
10063TIP3   OH251603   4.445   3.286   1.973 -0.1545 -0.1830 -0.0488
10063TIP3    H151604   4.351   3.272   1.985 -0.1051 -0.3754  0.1213
10063TIP3    H251605   4.451   3.350   1.903 -0.3773 -1.3223 -1.1485
10064TIP3   OH251606   3.916   4.946  11.895 -0.0411 -0.2292 -0.2137
10064TIP3    H151607   3.981   5.006  11.933  1.8070 -3.4218  2.1082
10064TIP3    H251608   3.964   4.897  11.829 -0.4258 -1.6994  0.5588
10065TIP3   OH251609   2.273   2.778  14.206 -0.1355  0.1599  0.3695
10065TIP3    H151610   2.312   2.811  14.287 -1.4072  0.8402  0.7368
10065TIP3    H251611   2.179   2.779  14.222 -0.3293 -1.8418 -0.3283
10066TIP3   OH251612   2.561   4.855   5.015  0.3570 -0.3456  0.2330
10066TIP3    H151613   2.580   4.797   4.941 -0.8277 -1.6245  0.8852
10066TIP3    H251614   2.646   4.876   5.051  0.8603 -1.1246 -0.4569
10067TIP3   OH251615   5.975   3.735  12.808 -0.0542 -0.4122  0.2777
10067TIP3    H151616   5.934   3.801  12.865  2.9055  1.5713  0.3489
10067TIP3    H251617   6.058   3.715  12.851  0.5083 -1.8495 -1.3789
10068TIP3   OH251618   1.033   6.715  12.965  0.5669 -0.1124 -0.9144
10068TIP3    H151619   1.099   6.760  12.913  0.7987 -0.4046 -0.8795
10068TIP3    H251620   0.960   6.700  12.905  0.4335  0.4213 -0.8905
10069TIP3   OH251621   1.753   4.559   0.337 -0.4136  0.1967  0.1075
10069TIP3    H151622   1.771   4.569   0.243 -0.2341  1.6672  0.2837
10069TIP3    H251623   1.823   4.502   0.369 -0.7088 -0.6670 -0.7044
10070TIP3   OH251624   6.096   2.667  10.387 -0.1820  0.7173 -0.5960
10070TIP3    H151625   6.065   2.754  10.363 -1.5751  1.0519  2.0783
10070TIP3    H251626   6.025   2.608  10.361 -0.6359  0.7940  0.4291
10071TIP3   OH251627   1.065   2.537  15.242 -0.3268 -0.0304 -0.2640
10071TIP3    H151628   1.030   2.599  15.305  1.0768  1.0012 -0.4591
10071TIP3    H251629   1.152   2.570  15.221  0.7278 -2.3712  0.0793
10072TIP3   OH251630   1.239   3.745  10.991 -0.2814 -0.0325 -0.6696
10072TIP3    H151631   1.245   3.725  10.898 -0.1145  3.6390 -1.5909
10072TIP3    H251632   1.285   3.829  11.001  0.2522 -0.5832  2.8570
10073TIP3   OH251633   2.865   4.997  16.919  0.1272  0.3976  0.3558
10073TIP3    H151634   2.828   5.004  16.831  1.1941 -2.6895 -0.4742
10073TIP3    H251635   2.793   4.964  16.973  0.5382 -1.9722 -0.4282
10074TIP3   OH251636   5.449   0.174   3.376 -0.0653  0.3613 -0.3445
10074TIP3    H151637   5.443   0.221   3.460  0.1556  1.3872 -0.8913
10074TIP3    H251638   5.375   0.113   3.378 -0.2591  0.6025  0.4524
10075TIP3   OH251639   1.034   4.977   0.728 -0.1576  0.0325 -0.8297
10075TIP3    H151640   1.080   5.042   0.675 -0.4467  0.2672 -0.7991
10075TIP3    H251641   1.008   4.909   0.665 -1.4724  0.8389 -1.2185
10076TIP3   OH251642   3.986   5.253   4.644  0.2173  0.7027  0.4670
10076TIP3    H151643   4.067   5.239   4.693  0.5440  1.1328  0.0664
10076TIP3    H251644   4.013   5.246   4.552 -0.4301 -0.3289  0.3494
10077TIP3   OH251645   3.381   2.716  17.166  0.3278  0.2165  0.2444
10077TIP3    H151646   3.421   2.676  17.088 -1.7094 -0.4771 -0.5082
10077TIP3    H251647   3.288   2.725  17.143  0.2533  3.1156  1.3423
10078TIP3   OH251648   0.921   4.893  10.917 -0.5564  0.4327 -0.8813
10078TIP3    H151649   0.913   4.798  10.909 -1.4015  0.3559  0.5631
10078TIP3    H251650   0.937   4.909  11.010  0.1596  1.6856 -1.1904
10079TIP3   OH251651   1.332   3.271   4.344  0.7663 -0.3433 -0.3132
10079TIP3    H151652   1.336   3.200   4.279 -0.5857  0.8330 -1.7761
10079TIP3    H251653   1.423   3.297   4.357  1.0816 -0.6275 -1.7652
10080TIP3   OH251654   2.762   6.512   2.856 -0.8109 -0.0651  0.2547
10080TIP3    H151655   2.849   6.526   2.895 -0.5738  0.0112 -0.3008
10080TIP3    H251656   2.769   6.546   2.767 -0.6661 -2.2980 -0.6448
10081TIP3   OH251657   5.388   5.920  11.995 -0.0701  0.5951  0.1945
10081TIP3    H151658   5.452   5.894  11.930 -1.4567 -3.6466  0.2328
10081TIP3    H251659   5.439   5.964  12.063  2.2410  0.2494 -1.2057
10082TIP3   OH251660   4.161   5.987   0.711 -0.5820 -0.2302  0.2093
10082TIP3    H151661   4.138   6.078   0.727 -0.0181 -0.4287  2.5177
10082TIP3    H251662   4.253   5.980   0.735 -0.7344 -1.4957  0.5300
10083TIP3   OH251663   5.061   5.305  11.047 -0.1235  0.2970  0.7094
10083TIP3    H151664   5.049   5.255  10.967  2.7903 -1.3445  1.1790
10083TIP3    H251665   4.993   5.373  11.043 -4.0417 -3.2371 -0.2285
10084TIP3   OH251666   3.668   5.470  15.115 -0.5731  0.1781  0.2817
10084TIP3    H151667   3.688   5.494  15.024 -0.9588 -0.7372 -0.0541
10084TIP3    H251668   3.647   5.377  15.111  1.6883 -0.4519  1.6793
10085TIP3   OH251669   1.597   5.575   3.403  0.0037  0.2262 -0.0473
10085TIP3    H151670   1.573   5.569   3.496  0.5096 -1.0573  0.0251
10085TIP3    H251671   1.690   5.553   3.401 -0.0641 -0.0348 -0.8809
10086TIP3   OH251672   6.124   2.195   1.126  0.0625 -0.4603  0.1818
10086TIP3    H151673   6.095   2.210   1.216 -1.5285 -0.7929 -0.2508
10086TIP3    H251674   6.153   2.280   1.095  0.7990 -0.3776  1.0532
10087TIP3   OH251675   2.811   4.187  16.150 -0.6947 -0.6425 -0.1213
10087TIP3    H151676   2.871   4.177  16.075 -0.4858 -0.6118  0.0415
10087TIP3    H251677   2.786   4.279  16.148  1.0761 -0.0676  1.1665
10088TIP3   OH251678   1.016   2.089  16.754  0.5131 -0.3741  0.3169
10088TIP3    H151679   0.984   2.173  16.786  0.0353 -0.8093  1.0188
10088TIP3    H251680   0.952   2.062  16.688  0.1997 -0.5870  0.7079
10089TIP3   OH251681   1.910   4.395   3.157 -0.1658 -0.2280 -0.6128
10089TIP3    H151682   1.937   4.442   3.236  0.4929 -1.4650 -0.0736
10089TIP3    H251683   1.814   4.401   3.157 -0.1493  0.1677  0.0334
10090TIP3   OH251684   5.041   2.437   0.635 -0.2481  0.1454 -0.0492
10090TIP3    H151685   4.977   2.468   0.570 -0.5816  1.8086  0.9944
10090TIP3    H251686   4.998   2.364   0.678 -0.7583  0.1766 -0.4970
10091TIP3   OH251687   6.076   6.454   3.284  0.3963  0.2757 -0.4250
10091TIP3    H151688   6.019   6.410   3.221 -0.2279  1.8881 -1.0452
10091TIP3    H251689   6.020   6.520   3.326  1.3545  0.7008  0.2336
10092TIP3   OH251690   1.155   4.410  11.607  0.2994 -0.3683  0.2064
10092TIP3    H151691   1.243   4.441  11.626 -0.1685  1.3846 -0.3028
10092TIP3    H251692   1.162   4.370  11.520  0.6960 -0.6893  0.3844
10093TIP3   OH251693   1.759   2.519  14.285  0.6491  0.0838  0.2503
10093TIP3    H151694   1.841   2.563  14.302  0.1725  0.0842  2.9714
10093TIP3    H251695   1.778   2.426  14.299  0.4394 -0.0530 -0.3123
10094TIP3   OH251696   1.752   6.360  16.211  0.2243  0.2481  0.0358
10094TIP3    H151697   1.709   6.362  16.297 -0.4403  0.7280 -0.2959
10094TIP3    H251698   1.796   6.446  16.205 -1.5698  1.1458 -0.9981
10095TIP3   OH251699   4.853   3.333  16.395  0.3826  0.0445 -0.5393
10095TIP3    H151700   4.876   3.424  16.416 -1.3512  0.6646 -1.0959
10095TIP3    H251701   4.924   3.303  16.338  1.9726  0.3799  1.1922
10096TIP3   OH251702   2.487   6.505   5.109  0.6014 -0.1213 -0.1451
10096TIP3    H151703   2.532   6.585   5.084  1.3826 -0.7422 -0.7886
10096TIP3    H251704   2.557   6.440   5.120  0.1318 -0.3873  1.7690
10097TIP3   OH251705   4.907   1.626  12.125 -0.1988  0.0830 -0.3135
10097TIP3    H151706   4.885   1.617  12.032 -0.1877 -2.8619 -0.1369
10097TIP3    H251707   5.003   1.623  12.127 -0.2093 -0.1852 -0.1930
10098TIP3   OH251708   5.358   5.671  16.876  0.3088 -0.6091  0.0228
10098TIP3    H151709   5.322   5.705  16.959 -0.7186 -0.7191 -0.3584
10098TIP3    H251710   5.281   5.662  16.819  1.3959  4.0603 -2.6714
10099TIP3   OH251711   0.267   5.026   1.186  0.6773 -0.2657  0.2331
10099TIP3    H151712   0.181   5.061   1.210  1.5237  1.3609  1.0334
10099TIP3    H251713   0.272   5.038   1.091 -0.0231 -0.5251  0.1512
10100TIP3   OH251714   0.453   4.736  15.630 -0.6668 -0.2099  0.0570
10100TIP3    H151715   0.429   4.787  15.553 -1.6158 -0.6359  0.0573
10100TIP3    H251716   0.454   4.800  15.701  0.6365  0.2680 -0.3609
10101TIP3   OH251717   5.116   0.738  16.100  0.8497  0.3186  0.1954
10101TIP3    H151718   5.101   0.715  16.008  1.5176  3.1783 -0.7419
10101TIP3    H251719   5.065   0.674  16.149 -1.0806 -0.1920 -2.2314
10102TIP3   OH251720   1.896   1.150  16.317  1.2732  0.2144  0.2543
10102TIP3    H151721   1.817   1.201  16.304  1.3137  0.0886 -0.5459
10102TIP3    H251722   1.890   1.118  16.407  0.7359  0.7381  0.4090
10103TIP3   OH251723   6.691   5.323  11.792 -0.4803 -0.0979  0.1111
10103TIP3    H151724   6.709   5.232  11.769 -0.8948 -0.3398  0.7364
10103TIP3    H251725   6.635   5.355  11.721  0.1983 -0.1226 -0.4569
10104TIP3   OH251726   4.953   1.187  13.802  0.6459 -0.1844 -0.1328
10104TIP3    H151727   4.909   1.102  13.803 -0.6228  0.4420  0.4517
10104TIP3    H251728   4.922   1.230  13.723  1.1795 -0.2094 -0.3590
10105TIP3   OH251729   1.045   4.315  16.612 -0.6658 -0.4589  0.0347
10105TIP3    H151730   0.970   4.256  16.599  0.2672 -1.8495  0.6945
10105TIP3    H251731   1.055   4.319  16.707  0.8679 -1.3594 -0.0560
10106TIP3   OH251732   3.205   5.894   2.997 -0.1035  0.2740 -0.5835
10106TIP3    H151733   3.142   5.890   2.926 -1.1720 -0.0337  0.3479
10106TIP3    H251734   3.195   5.982   3.033  0.3543  0.3918 -0.7299
10107TIP3   OH251735   2.327   1.386  12.276  0.4880 -0.5613 -0.3979
10107TIP3    H151736   2.251   1.425  12.233  0.0083 -0.0287  0.8785
10107TIP3    H251737   2.363   1.326  12.211  0.6537  1.2263 -2.0763
10108TIP3   OH251738   0.729   6.064  16.277 -0.3265 -0.3243  0.3277
10108TIP3    H151739   0.792   6.070  16.204 -1.4243 -0.4625 -0.6647
10108TIP3    H251740   0.652   6.023  16.238 -1.0885 -0.0343  1.4909
10109TIP3   OH251741   3.673   5.824   5.546  0.0958 -0.2499 -0.6218
10109TIP3    H151742   3.624   5.854   5.623  1.2197 -0.1053  0.0570
10109TIP3    H251743   3.617   5.758   5.506 -0.8217  0.1824 -0.0834
10110TIP3   OH251744   2.254   4.059   0.888  0.3134  0.0089 -0.1239
10110TIP3    H151745   2.217   4.110   0.961  0.1012  1.9877 -1.5470
10110TIP3    H251746   2.345   4.088   0.882  0.7667 -1.2602  0.2636
10111TIP3   OH251747   0.944   4.953  11.518 -0.2696 -0.3276 -0.5961
10111TIP3    H151748   0.889   4.976  11.593  0.0095 -0.0745 -0.4653
10111TIP3    H251749   0.991   4.874  11.546  1.5375  1.0158  0.3991
10112TIP3   OH251750   3.684   2.575   2.885  1.0729 -0.0765 -0.0429
10112TIP3    H151751   3.770   2.593   2.847  0.9435  1.6834  0.4310
10112TIP3    H251752   3.686   2.481   2.905  3.3970  0.1736  1.1961
10113TIP3   OH251753   0.601   2.252  13.545 -0.0637 -0.6602 -0.9269
10113TIP3    H151754   0.585   2.193  13.472  2.6285  1.0343 -3.0884
10113TIP3    H251755   0.554   2.332  13.522  0.5073 -0.2325 -0.6330
10114TIP3   OH251756   4.307   1.025  14.910  1.0679  0.3266 -0.8465
10114TIP3    H151757   4.258   1.007  14.990 -0.3987 -0.3602 -1.8576
10114TIP3    H251758   4.273   1.109  14.880  1.1050  0.2458 -1.1149
10115TIP3   OH251759   1.522   1.339  11.032 -0.1784 -0.2163 -0.6891
10115TIP3    H151760   1.496   1.395  10.960 -1.6635  0.8679  0.6359
10115TIP3    H251761   1.516   1.250  10.997 -1.6472  0.2439 -1.6696
10116TIP3   OH251762   4.061   4.196  13.106  0.9110 -0.6510 -0.3217
10116TIP3    H151763   3.970   4.168  13.104  1.8165 -4.9971  2.9070
10116TIP3    H251764   4.095   4.175  13.019 -1.0291  1.0790 -1.5784
10117TIP3   OH251765   5.663   0.931  16.525  0.0806 -0.3644 -0.2354
10117TIP3    H151766   5.609   1.010  16.527 -0.1247 -0.4525 -1.5707
10117TIP3    H251767   5.634   0.884  16.447 -0.5713 -2.3085  1.0885
10118TIP3   OH251768   4.297   6.193  14.097 -0.1438 -0.0411 -0.0402
10118TIP3    H151769   4.236   6.144  14.154  0.2706 -1.2771 -0.6195
10118TIP3    H251770   4.337   6.125  14.042  0.7568  0.9253 -0.5978
10119TIP3   OH251771   0.273   5.245   2.521 -0.0632 -0.7367  0.1864
10119TIP3    H151772   0.330   5.254   2.445  0.0797  0.0691  0.3785
10119TIP3    H251773   0.205   5.311   2.508 -0.2635 -0.8638  0.5584
10120TIP3   OH251774   2.871   0.716  11.921  0.3320 -0.1580 -0.3134
10120TIP3    H151775   2.922   0.791  11.890 -1.1601 -0.1594 -3.1057
10120TIP3    H251776   2.929   0.641  11.908  0.5206  0.1165 -1.1445
10121TIP3   OH251777   3.635   1.887   1.833  0.6694 -0.2587 -0.3873
10121TIP3    H151778   3.621   1.844   1.917  0.8645  1.6197  0.6682
10121TIP3    H251779   3.552   1.929   1.813  1.1663  0.9412 -0.0922
10122TIP3   OH251780   4.138   4.812  12.823 -0.7337 -0.0816  0.1444
10122TIP3    H151781   4.115   4.721  12.808  1.0879 -0.6384  0.4251
10122TIP3    H251782   4.135   4.822  12.918 -1.6048  0.3581  0.0774
10123TIP3   OH251783   5.248   2.603  14.660  0.5728 -0.2556  0.2209
10123TIP3    H151784   5.200   2.549  14.722 -0.5220 -0.1131 -0.4724
10123TIP3    H251785   5.221   2.693  14.680 -2.2914 -0.3745 -2.3877
10124TIP3   OH251786   2.112   6.262   4.055 -0.2376 -0.4269 -0.1688
10124TIP3    H151787   2.190   6.313   4.031 -0.8220  0.0670 -1.0577
10124TIP3    H251788   2.113   6.262   4.151 -0.2858  1.3806 -0.1378
10125TIP3   OH251789   3.779   4.147   2.211  0.1618  0.4496 -0.5652
10125TIP3    H151790   3.689   4.175   2.193  0.4889  1.9543 -0.0326
10125TIP3    H251791   3.828   4.229   2.224  1.6488 -0.3264 -1.0004
10126TIP3   OH251792   1.029   1.801  11.602 -0.0386  0.1217 -0.0297
10126TIP3    H151793   1.056   1.890  11.625  1.1296  0.1966 -1.5351
10126TIP3    H251794   1.077   1.745  11.662  0.5795  0.4437 -0.2151
10127TIP3   OH251795   2.465   1.278   3.649 -0.4040 -0.1725  0.7756
10127TIP3    H151796   2.483   1.211   3.583 -0.4786 -0.9988  1.5744
10127TIP3    H251797   2.550   1.319   3.666 -0.2358 -0.5081  0.7479
10128TIP3   OH251798   0.516   2.504   3.737  0.0214  0.1408  0.6938
10128TIP3    H151799   0.433   2.541   3.768  0.2922 -0.6410  2.4496
10128TIP3    H251800   0.501   2.488   3.644 -1.6990  0.2766  0.9103
10129TIP3   OH251801   2.813   5.079   5.540 -0.4865 -0.0305  0.4397
10129TIP3    H151802   2.808   5.119   5.453  0.1929 -1.3985 -0.2591
10129TIP3    H251803   2.801   5.152   5.601 -1.3745  0.9008 -0.7902
10130TIP3   OH251804   1.695   2.682  12.962  0.2438 -0.0894 -0.1694
10130TIP3    H151805   1.758   2.753  12.969  1.1500 -0.8111 -0.7975
10130TIP3    H251806   1.748   2.603  12.951 -0.7666 -0.5989 -1.7272
10131TIP3   OH251807   1.356   5.972   4.236  0.6489 -0.6968  0.5320
10131TIP3    H151808   1.297   6.015   4.298 -0.6428  2.6381 -2.6538
10131TIP3    H251809   1.308   5.972   4.153  2.9445 -3.3066 -0.9699
10132TIP3   OH251810   4.239   3.502  16.529 -0.0743  0.3698 -0.6098
10132TIP3    H151811   4.202   3.589  16.515 -1.2171  0.1468  0.8059
10132TIP3    H251812   4.185   3.463  16.598  0.7526 -1.2630 -0.8214
10133TIP3   OH251813   1.210   3.294   2.706 -0.0026 -0.4300 -0.0199
10133TIP3    H151814   1.236   3.375   2.750  0.9854 -2.2008  2.8923
10133TIP3    H251815   1.261   3.295   2.624  0.0947  1.7741  0.0029
10134TIP3   OH251816   3.395   2.261   2.865  0.1747  0.0938  0.2548
10134TIP3    H151817   3.417   2.275   2.957 -0.2284  1.3461  0.1678
10134TIP3    H251818   3.437   2.177   2.844  1.1868  0.3135  1.2745
10135TIP3   OH251819   1.616   0.469   6.452 -0.0250 -0.0609 -0.0168
10135TIP3    H151820   1.706   0.501   6.463  0.0774 -0.3840  0.0829
10135TIP3    H251821   1.614   0.387   6.500 -0.2124 -0.3492 -0.5091
10136TIP3   OH251822   1.748   5.442  13.091  0.1833  0.0925  0.1713
10136TIP3    H151823   1.731   5.361  13.140 -2.2159  0.9522  0.9116
10136TIP3    H251824   1.661   5.470  13.062  0.6842  3.2589  1.3520
10137TIP3   OH251825   2.358   0.831  12.036 -0.7746 -0.0549  0.1770
10137TIP3    H151826   2.329   0.859  11.949 -1.0885 -0.4815  0.1418
10137TIP3    H251827   2.452   0.851  12.038 -0.8265  0.2266 -0.1499
10138TIP3   OH251828   5.697   1.898   3.529 -0.2588 -0.0389 -0.4353
10138TIP3    H151829   5.792   1.886   3.534 -0.2431  0.2727  0.1042
10138TIP3    H251830   5.686   1.982   3.484 -0.3014 -0.4742 -1.2545
10139TIP3   OH251831   0.711   6.528   3.143 -0.1993 -0.0401 -0.0411
10139TIP3    H151832   0.701   6.597   3.077  1.4185  3.0065  2.6586
10139TIP3    H251833   0.802   6.534   3.171  0.4218 -4.2204 -0.4163
10140TIP3   OH251834   5.694   0.445   0.965 -0.2479 -0.1188 -0.7390
10140TIP3    H151835   5.705   0.504   0.891 -1.8935  0.9665 -0.1703
10140TIP3    H251836   5.686   0.502   1.041 -4.3885 -0.7514 -0.4487
10141TIP3   OH251837   6.463   1.611  16.706  0.1877  0.3942 -0.2884
10141TIP3    H151838   6.394   1.577  16.763 -0.3169  1.1788 -0.4127
10141TIP3    H251839   6.488   1.536  16.652  1.8000 -0.8484  1.9758
10142TIP3   OH251840   2.210   4.994  12.482 -0.3259 -0.2741  0.4970
10142TIP3    H151841   2.149   5.067  12.480 -0.0268  0.0042 -2.1135
10142TIP3    H251842   2.169   4.930  12.541 -0.3708  2.0733  3.2304
10143TIP3   OH251843   5.185   0.626   2.649 -0.4036  0.6202  0.4953
10143TIP3    H151844   5.233   0.699   2.687  0.8844  0.5370 -0.8659
10143TIP3    H251845   5.252   0.559   2.633 -0.9291  0.4655 -1.3740
10144TIP3   OH251846   4.464   5.014   6.597  0.7901  0.0079  0.0301
10144TIP3    H151847   4.373   5.045   6.604  0.4648 -1.2913  3.5525
10144TIP3    H251848   4.462   4.947   6.529 -0.8672  0.0676 -0.0130
10145TIP3   OH251849   1.579   2.336  11.943  0.3716  0.4111  0.1472
10145TIP3    H151850   1.523   2.266  11.910  1.0262  0.2541 -0.6516
10145TIP3    H251851   1.525   2.380  12.009  0.1268 -1.1612  1.0680
10146TIP3   OH251852   2.799   0.644   1.556  0.2232  0.1535 -0.2146
10146TIP3    H151853   2.797   0.572   1.493  1.2953  0.3047 -0.4496
10146TIP3    H251854   2.745   0.712   1.517  1.3438  0.4684 -1.2810
10147TIP3   OH251855   3.289   0.625   4.051 -0.5105 -0.4634 -0.0908
10147TIP3    H151856   3.381   0.605   4.034 -0.3576 -0.1469  0.3311
10147TIP3    H251857   3.291   0.675   4.133 -1.2887 -2.8469  1.4877
10148TIP3   OH251858   2.958   5.919   0.378  0.3498 -0.1057  0.1161
10148TIP3    H151859   2.941   5.879   0.293  0.5523 -1.8956  0.8880
10148TIP3    H251860   2.894   5.990   0.383 -0.8160 -1.0433 -0.8316
10149TIP3   OH251861   4.295   3.823  12.298 -0.5486 -0.3256  0.2747
10149TIP3    H151862   4.276   3.784  12.212 -0.0215 -0.3307  0.1520
10149TIP3    H251863   4.365   3.885  12.280  0.3145 -1.0908  0.8742
10150TIP3   OH251864   1.730   0.743   1.580  0.3393  0.5756  0.2539
10150TIP3    H151865   1.744   0.708   1.492  1.2497 -0.4303  0.7794
10150TIP3    H251866   1.635   0.736   1.593 -0.0522  2.3615 -1.2824
10151TIP3   OH251867   3.382   3.884  15.715 -0.6606  0.3073 -0.1585
10151TIP3    H151868   3.461   3.839  15.745  0.5566  2.5342  0.2051
10151TIP3    H251869   3.361   3.842  15.632 -0.6147 -2.0030  0.9090
10152TIP3   OH251870   3.102   4.691  14.774 -0.6442 -0.5775  0.2701
10152TIP3    H151871   3.102   4.669  14.681  0.1805  2.4034 -0.5421
10152TIP3    H251872   3.084   4.608  14.819 -1.6393 -1.9831 -2.5339
10153TIP3   OH251873   2.390   2.310  14.782 -0.2422 -0.8166  0.5443
10153TIP3    H151874   2.418   2.367  14.853 -1.0340 -0.5736  0.6731
10153TIP3    H251875   2.373   2.225  14.824 -2.3511 -0.2368  0.9936
10154TIP3   OH251876   3.672   0.364   2.271 -0.7781 -0.2618 -0.3365
10154TIP3    H151877   3.580   0.386   2.277 -0.6632  0.1172  0.0742
10154TIP3    H251878   3.676   0.295   2.204 -1.5117 -1.1650  0.5181
10155TIP3   OH251879   5.644   4.073   5.528 -0.5307 -0.4896 -0.2469
10155TIP3    H151880   5.712   4.009   5.550 -0.3640  0.3872  2.0712
10155TIP3    H251881   5.562   4.028   5.545 -0.4222 -0.2865  0.8804
10156TIP3   OH251882   5.080   1.198  15.109  0.6689  0.0764  0.2703
10156TIP3    H151883   5.065   1.201  15.203 -1.2658  0.6383 -0.0067
10156TIP3    H251884   5.073   1.105  15.087 -2.5988  0.2307  0.2274
10157TIP3   OH251885   5.113   3.592  14.598 -0.1602 -0.1191 -0.7052
10157TIP3    H151886   5.128   3.641  14.517  3.0599  1.5342  0.6590
10157TIP3    H251887   5.201   3.566  14.626 -1.3993 -2.8916  0.9977
10158TIP3   OH251888   2.384   1.596  12.469  0.2021 -0.0045  0.2236
10158TIP3    H151889   2.376   1.537  12.394  1.0732  0.3619 -0.1682
10158TIP3    H251890   2.303   1.582  12.519 -0.9282  0.5833 -1.3558
10159TIP3   OH251891   6.153   3.055   0.862 -0.5674 -0.5775  0.1953
10159TIP3    H151892   6.184   2.965   0.851  0.2309 -0.2423 -0.3758
10159TIP3    H251893   6.231   3.103   0.888 -0.4691  0.3887 -1.7471
10160TIP3   OH251894   4.198   1.789  13.957 -0.0677 -0.1959  0.0533
10160TIP3    H151895   4.244   1.822  14.034 -0.4804 -0.1379  0.2720
10160TIP3    H251896   4.249   1.823  13.883 -0.0082  0.2322  0.2885
10161TIP3   OH251897   3.502   2.328  11.339 -0.1234 -0.2823 -0.0340
10161TIP3    H151898   3.412   2.310  11.311  0.0623 -2.0566  0.3936
10161TIP3    H251899   3.504   2.423  11.354 -1.5898 -0.0367 -1.1618
10162TIP3   OH251900   4.229   6.181   2.864  0.2523  0.2720 -0.8117
10162TIP3    H151901   4.156   6.243   2.875  0.3894  0.6236 -1.8001
10162TIP3    H251902   4.199   6.120   2.797  1.4848  1.4234 -2.4909
10163TIP3   OH251903   2.152   6.228  11.776 -0.1300 -0.2728  0.0211
10163TIP3    H151904   2.077   6.239  11.716 -0.0184  0.1309 -0.0493
10163TIP3    H251905   2.199   6.312  11.770 -0.1723 -0.1966  0.7502
10164TIP3   OH251906   1.986   0.200  15.144 -0.2917 -0.3878 -0.1288
10164TIP3    H151907   2.009   0.293  15.134  0.4049 -0.3162  1.6207
10164TIP3    H251908   1.905   0.190  15.095 -0.1175  1.0291 -0.7764
10165TIP3   OH251909   2.471   0.207  14.212  0.0839 -0.1805  0.4266
10165TIP3    H151910   2.390   0.251  14.187 -0.2793 -0.5946  0.8504
10165TIP3    H251911   2.469   0.124  14.165 -1.2437 -1.5643  2.7332
10166TIP3   OH251912   1.740   5.267   0.826  0.5227 -0.7953 -0.4273
10166TIP3    H151913   1.674   5.234   0.766  0.8476 -1.5201 -0.4042
10166TIP3    H251914   1.759   5.356   0.795 -0.3933 -0.6076 -0.4760
10167TIP3   OH251915   2.839   2.113  12.641  0.0010 -0.6257 -0.0310
10167TIP3    H151916   2.919   2.133  12.593 -0.6424  0.2994 -0.7618
10167TIP3    H251917   2.843   2.019  12.657  1.7705 -0.4215  0.9781
10168TIP3   OH251918   3.573   5.655  14.317 -0.4603 -0.4334  0.0533
10168TIP3    H151919   3.543   5.668  14.227  1.9178  1.5936 -0.5634
10168TIP3    H251920   3.493   5.658  14.369 -1.6627  1.7118 -1.7200
10169TIP3   OH251921   1.348   1.068  10.819 -0.1389  0.2557  0.4922
10169TIP3    H151922   1.443   1.065  10.813 -0.1183 -1.6422  1.0762
10169TIP3    H251923   1.324   1.156  10.789  1.5270 -0.2834 -2.8426
10170TIP3   OH251924   4.964   3.349   1.981 -0.1228  0.2136  0.8802
10170TIP3    H151925   4.879   3.313   2.008  0.2187 -0.5441  0.9474
10170TIP3    H251926   4.999   3.285   1.920  0.4073  0.5232  0.8544
10171TIP3   OH251927   4.375   3.559  16.267  0.0401 -0.2483 -0.1253
10171TIP3    H151928   4.413   3.632  16.315  0.2647 -1.6604  2.0023
10171TIP3    H251929   4.284   3.586  16.251  0.8202  1.5778 -1.8839
10172TIP3   OH251930   1.488   1.575  12.765 -0.0485  0.1317  0.2792
10172TIP3    H151931   1.525   1.636  12.701  0.5799 -0.8056 -0.2845
10172TIP3    H251932   1.404   1.614  12.790  0.4403  1.3278  0.1160
10173TIP3   OH251933   3.527   2.062  15.770  0.0707 -0.2852  0.0420
10173TIP3    H151934   3.556   2.006  15.697 -2.4568 -0.0654 -1.2272
10173TIP3    H251935   3.478   2.002  15.827  0.1317 -0.0061  0.3863
10174TIP3   OH251936   1.981   3.087   4.575 -0.1106  0.4739  0.2741
10174TIP3    H151937   2.023   3.106   4.659  1.9558  1.8053 -0.9597
10174TIP3    H251938   1.906   3.145   4.571 -0.8305 -0.3210  1.5849
10175TIP3   OH251939   0.071   0.400  13.478 -0.4405 -0.2349 -0.4625
10175TIP3    H151940   0.079   0.488  13.515 -0.7379 -0.1719 -0.5474
10175TIP3    H251941   0.144   0.351  13.516 -0.3082  0.0323 -0.3705
10176TIP3   OH251942   6.596   4.449   2.539 -0.2399 -0.3377 -0.0498
10176TIP3    H151943   6.572   4.528   2.491  0.2311  0.0083  0.2786
10176TIP3    H251944   6.535   4.445   2.613 -0.6230 -0.5887 -0.3706
10177TIP3   OH251945   0.926   6.642   4.983 -0.2324  0.1273 -0.5903
10177TIP3    H151946   0.919   6.729   4.945  0.1006  1.4975  2.1977
10177TIP3    H251947   0.839   6.624   5.019 -0.1749 -0.5085 -0.7542
10178TIP3   OH251948   1.144   2.412  15.516  0.0745  0.0684 -0.2411
10178TIP3    H151949   1.166   2.471  15.588 -1.4039 -0.7714  0.9822
10178TIP3    H251950   1.070   2.453  15.473  0.6600  0.3357 -1.0023
10179TIP3   OH251951   2.123   2.424   4.344  0.0742  0.1854 -0.2102
10179TIP3    H151952   2.080   2.379   4.272 -0.4662  0.1257  0.1439
10179TIP3    H251953   2.140   2.512   4.311 -2.3020  0.9315  0.3453
10180TIP3   OH251954   1.857   0.219   0.919 -0.5479 -0.0484 -0.5501
10180TIP3    H151955   1.886   0.139   0.876 -1.3660 -1.1142  0.7882
10180TIP3    H251956   1.772   0.238   0.879  0.1097  0.7555 -1.5943
10181TIP3   OH251957   0.621   4.738  12.222 -0.2779 -0.2879 -0.3885
10181TIP3    H151958   0.537   4.724  12.266  0.4153 -0.5367  0.8861
10181TIP3    H251959   0.602   4.804  12.156 -1.7660 -1.2460 -0.9861
10182TIP3   OH251960   4.366   2.544  14.835  0.3985 -0.5942 -0.0863
10182TIP3    H151961   4.396   2.509  14.919 -0.0271 -0.7672 -0.0041
10182TIP3    H251962   4.414   2.626  14.825  1.1984 -1.0575 -0.1503
10183TIP3   OH251963   3.359   3.474   0.042 -0.1948 -0.0531 -0.2945
10183TIP3    H151964   3.292   3.543   0.039  0.5503  0.6821 -0.3268
10183TIP3    H251965   3.315   3.397   0.005 -1.7537 -0.2400  1.7369
10184TIP3   OH251966   5.677   0.361  11.111  0.6065  0.4028 -0.7101
10184TIP3    H151967   5.668   0.408  11.028 -0.3621  0.6338 -0.4777
10184TIP3    H251968   5.772   0.357  11.125  0.7574  0.9698 -1.4783
10185TIP3   OH251969   2.940   6.677   1.060  0.2243  0.2325 -0.6764
10185TIP3    H151970   3.000   6.610   1.028 -0.8913 -0.6598 -0.9575
10185TIP3    H251971   2.965   6.689   1.152  1.3818  0.5232 -1.0109
10186TIP3   OH251972   2.783   0.173  11.249  0.0035 -0.4994 -0.4012
10186TIP3    H151973   2.854   0.107  11.248  1.6946  1.0843  2.3208
10186TIP3    H251974   2.812   0.240  11.187 -0.4203 -1.0462 -1.2056
10187TIP3   OH251975   4.626   2.557   1.900 -0.6396 -0.5542 -0.0125
10187TIP3    H151976   4.614   2.583   1.809  0.1368  1.4519  0.4160
10187TIP3    H251977   4.715   2.584   1.921 -0.7444 -1.1631  1.3007
10188TIP3   OH251978   1.898   6.482  13.760 -0.3079  0.2892 -0.4800
10188TIP3    H151979   1.968   6.538  13.726  1.5684 -1.7489 -0.1685
10188TIP3    H251980   1.904   6.491  13.855  0.1473 -0.6184 -0.4242
10189TIP3   OH251981   4.085   2.485   3.802  0.4948  0.6045 -0.2176
10189TIP3    H151982   3.996   2.474   3.836 -0.0250 -0.2598 -1.7810
10189TIP3    H251983   4.097   2.580   3.795  0.1977  0.7686  1.2066
10190TIP3   OH251984   2.963   0.975   2.126 -0.1762 -0.0360 -0.2053
10190TIP3    H151985   2.922   1.062   2.122  0.2935  0.2782  1.1586
10190TIP3    H251986   2.891   0.916   2.147 -0.7884 -0.2524 -2.6276
10191TIP3   OH251987   2.654   4.472  14.167  0.3665 -0.2871 -0.4590
10191TIP3    H151988   2.575   4.486  14.115 -0.2952 -1.2354  0.2479
10191TIP3    H251989   2.628   4.494  14.256  1.9949  3.0892 -0.6792
10192TIP3   OH251990   5.916   6.172  13.711 -1.1386  0.0767  0.4652
10192TIP3    H151991   5.988   6.139  13.764  1.6844  0.9742 -2.5133
10192TIP3    H251992   5.888   6.097  13.658  0.8516  0.7204 -1.6410
10193TIP3   OH251993   1.698   5.868  14.508  0.2134  0.0870 -0.2108
10193TIP3    H151994   1.721   5.922  14.433  0.0110 -0.1803 -0.4643
10193TIP3    H251995   1.777   5.865  14.561  1.2192 -1.8862 -1.6987
10194TIP3   OH251996   2.902   0.575  10.259 -0.0171  0.2688 -0.4197
10194TIP3    H151997   2.896   0.621  10.343 -1.2458 -1.6267  0.6115
10194TIP3    H251998   2.813   0.575  10.225  0.5095  1.1979 -1.8643
10195TIP3   OH251999   0.315   0.529   2.310 -0.8240 -0.3592 -0.2511
10195TIP3    H152000   0.405   0.515   2.340 -0.8690  1.4044  0.8630
10195TIP3    H252001   0.264   0.540   2.391 -1.8046  0.0108 -0.8996
10196TIP3   OH252002   6.009   0.945  12.434 -0.1283  0.3780  0.0118
10196TIP3    H152003   5.973   0.915  12.351  0.9618  0.7270 -0.6004
10196TIP3    H252004   6.093   0.985  12.412  1.3637 -1.6607  1.5260
10197TIP3   OH252005   3.406   3.477   1.613  0.1253  0.0598  0.2522
10197TIP3    H152006   3.464   3.534   1.563 -1.0074  0.7148 -0.3806
10197TIP3    H252007   3.411   3.393   1.569 -0.3292  0.4458 -0.5759
10198TIP3   OH252008   5.846   1.540  14.387 -0.1465  0.2697 -0.3721
10198TIP3    H152009   5.855   1.551  14.482  1.1190  1.0082 -0.5515
10198TIP3    H252010   5.934   1.518  14.358 -0.8100 -1.3524 -1.2171
10199TIP3   OH252011   0.273   4.373  11.601  0.3211  0.0647  0.5254
10199TIP3    H152012   0.307   4.287  11.574 -0.7225 -0.3602  0.5276
10199TIP3    H252013   0.314   4.388  11.687  0.6560 -0.3449  0.4422
10200TIP3   OH252014   0.069   0.986  15.295 -0.3179 -0.0784 -0.1539
10200TIP3    H152015   0.109   1.073  15.295  0.9633 -0.6431  0.6978
10200TIP3    H252016   0.066   0.961  15.203 -0.4925  0.7673 -0.3865
10201TIP3   OH252017   2.481   5.415   0.828  0.2198 -0.5871  0.3165
10201TIP3    H152018   2.406   5.359   0.810 -0.9352  0.8840  0.3577
10201TIP3    H252019   2.555   5.372   0.784 -0.8638 -1.4933 -0.6733
10202TIP3   OH252020   5.853   4.877  15.500  0.0018 -0.0028 -0.0212
10202TIP3    H152021   5.836   4.887  15.407 -1.0088  1.1528  0.2670
10202TIP3    H252022   5.944   4.905  15.511 -0.6440  2.4788 -0.3160
10203TIP3   OH252023   4.096   2.993  16.526  0.4055  0.1202  0.4236
10203TIP3    H152024   4.173   3.049  16.542  0.7587 -0.5021  0.9282
10203TIP3    H252025   4.046   2.997  16.608  0.7589 -0.7929  0.7025
10204TIP3   OH252026   2.411   3.454  17.093 -0.1991  0.2922  0.0117
10204TIP3    H152027   2.405   3.452  17.188 -0.7712  1.0233  0.0081
10204TIP3    H252028   2.466   3.379  17.070  0.5685  0.5463  0.9617
10205TIP3   OH252029   4.918   3.976   4.756  0.1925  0.3293  0.4501
10205TIP3    H152030   4.981   3.905   4.772  0.9426  0.5851 -1.1533
10205TIP3    H252031   4.962   4.033   4.692 -0.9882  1.4600  0.6030
10206TIP3   OH252032   2.229   4.061   2.257 -0.1944 -0.5294  0.5811
10206TIP3    H152033   2.169   4.133   2.235  2.0285  0.7520 -1.9523
10206TIP3    H252034   2.201   3.989   2.201 -0.2709 -0.4120  0.4656
10207TIP3   OH252035   3.326   5.780  12.258  0.8596  0.0240  0.4927
10207TIP3    H152036   3.261   5.821  12.201  1.1637 -1.1513 -0.7491
10207TIP3    H252037   3.274   5.728  12.320  0.5819 -0.2358  0.0475
10208TIP3   OH252038   2.088   5.703  17.166  0.2104  0.7196 -0.1613
10208TIP3    H152039   2.051   5.709  17.078 -0.0269  0.6590 -0.0674
10208TIP3    H252040   2.182   5.694  17.152  0.1091 -0.0007 -0.4290
10209TIP3   OH252041   1.815   3.024  17.066  0.4380  0.4675  0.3042
10209TIP3    H152042   1.846   3.034  16.976  2.2116  0.7319  0.8981
10209TIP3    H252043   1.785   3.112  17.090 -2.7508 -0.1701 -0.8877
10210TIP3   OH252044   6.248   4.792   4.561  0.2844  0.8160 -0.0719
10210TIP3    H152045   6.329   4.810   4.608  1.8710 -0.8286 -1.9855
10210TIP3    H252046   6.241   4.696   4.563 -0.8795  0.8625 -1.1283
10211TIP3   OH252047   2.768   4.429  15.398 -0.0197  0.2004 -0.4187
10211TIP3    H152048   2.859   4.407  15.378  0.0450  1.5542 -1.8426
10211TIP3    H252049   2.721   4.408  15.317 -1.1817 -1.3913  0.6056
10212TIP3   OH252050   4.621   4.012   1.761  0.0218  0.4275 -0.1427
10212TIP3    H152051   4.549   3.950   1.764 -0.4164  0.9608  1.8312
10212TIP3    H252052   4.583   4.096   1.788  1.3915  0.6646  1.2107
10213TIP3   OH252053   0.551   1.142  13.475 -0.4803  0.3161  0.2618
10213TIP3    H152054   0.517   1.129  13.564  1.6123 -0.0967  1.0578
10213TIP3    H252055   0.585   1.056  13.450 -0.5415  0.5727 -0.7282
10214TIP3   OH252056   0.153   5.155   5.841  0.1556  0.4479 -1.0011
10214TIP3    H152057   0.068   5.126   5.807 -0.0166  1.7083 -1.6856
10214TIP3    H252058   0.214   5.087   5.814 -0.6674 -0.6381 -0.2336
10215TIP3   OH252059   0.384   3.466  16.939 -0.1221 -0.0086 -0.0519
10215TIP3    H152060   0.350   3.539  16.888  1.0531  1.7812  1.5520
10215TIP3    H252061   0.479   3.475  16.932  0.1482 -2.9396 -1.8178
10216TIP3   OH252062   4.281   4.773  15.634 -0.3272 -0.2653  0.2912
10216TIP3    H152063   4.236   4.755  15.553 -1.1937  1.0978  0.4322
10216TIP3    H252064   4.253   4.862  15.658 -0.1641 -0.6602  2.1096
10217TIP3   OH252065   0.648   2.197   5.224 -0.0934 -0.2302 -0.1216
10217TIP3    H152066   0.583   2.172   5.290  1.8327 -1.9903  1.2104
10217TIP3    H252067   0.722   2.230   5.274  0.1945  1.5959 -1.6094
10218TIP3   OH252068   3.930   4.982   5.444  0.1986 -0.8196  0.4199
10218TIP3    H152069   3.869   5.054   5.464 -0.3386 -0.8815 -0.8370
10218TIP3    H252070   3.904   4.911   5.502 -0.1553 -0.4440  0.7285
10219TIP3   OH252071   0.274   2.908  13.203 -0.3025  0.3282 -0.1960
10219TIP3    H152072   0.198   2.941  13.156 -1.7071 -1.1515  0.9357
10219TIP3    H252073   0.246   2.902  13.294  0.2537 -2.6254 -0.1110
10220TIP3   OH252074   4.424   3.116   4.138  0.1245 -0.3262 -0.3621
10220TIP3    H152075   4.421   3.186   4.072  1.3589  0.9372  0.8591
10220TIP3    H252076   4.499   3.138   4.193 -1.1670 -1.0453  1.7799
10221TIP3   OH252077   1.672   3.325  14.841 -0.2654  0.1110  0.3286
10221TIP3    H152078   1.740   3.283  14.894 -0.1119 -0.1928 -0.0972
10221TIP3    H252079   1.721   3.373  14.773 -0.4461  0.8046  0.6819
10222TIP3   OH252080   1.983   5.585   3.399  0.2768  0.1806  0.3087
10222TIP3    H152081   2.047   5.557   3.464 -1.5693 -0.6467  1.8499
10222TIP3    H252082   1.965   5.676   3.420 -0.3619 -0.1042  1.0030
10223TIP3   OH252083   1.896   5.971   0.664  0.1978 -0.1628 -0.1263
10223TIP3    H152084   1.881   5.955   0.570 -0.4174 -0.3023 -0.0131
10223TIP3    H252085   1.983   5.936   0.681 -0.1421 -1.1919 -0.4090
10224TIP3   OH252086   6.536   5.850  12.771  0.2660  0.0875  0.0497
10224TIP3    H152087   6.631   5.835  12.772 -0.0176 -2.1666 -1.0900
10224TIP3    H252088   6.525   5.931  12.721  1.5166 -0.8963 -1.9653
10225TIP3   OH252089   6.251   4.642   2.311  0.3051 -0.1150  0.3686
10225TIP3    H152090   6.277   4.722   2.265 -0.0404  0.5134  1.2210
10225TIP3    H252091   6.225   4.673   2.398 -0.7871 -1.0430  0.3906
10226TIP3   OH252092   6.666   6.348   3.938 -0.8456  0.0448 -0.0109
10226TIP3    H152093   6.610   6.363   4.014 -2.4088  0.2694 -1.1559
10226TIP3    H252094   6.680   6.434   3.900 -0.9026 -0.1661 -0.5259
10227TIP3   OH252095   4.373   0.825  11.648 -0.0092 -0.2896 -0.5829
10227TIP3    H152096   4.468   0.834  11.646  0.0137 -0.3587  0.0482
10227TIP3    H252097   4.349   0.843  11.739 -0.5211 -1.0624 -0.5584
10228TIP3   OH252098   1.734   0.911   2.736 -0.3053 -0.4701 -0.7837
10228TIP3    H152099   1.752   0.973   2.665 -2.0819 -0.3545 -1.2018
10228TIP3    H252100   1.757   0.825   2.700  1.6162 -0.1528 -0.4078
10229TIP3   OH252101   5.350   1.065   3.957  0.4871  0.3685 -0.1051
10229TIP3    H152102   5.289   1.118   3.905 -0.7883  0.7048  1.6411
10229TIP3    H252103   5.380   0.997   3.896 -0.4338  1.1109 -1.4519
10230TIP3   OH252104   4.619   0.726   4.772 -0.0585  0.0063 -0.0143
10230TIP3    H152105   4.697   0.688   4.731  0.1268 -0.0450  0.3753
10230TIP3    H252106   4.609   0.811   4.731 -0.4072 -0.4113 -0.8133
10231TIP3   OH252107   0.937   6.185   0.331 -0.0249 -0.0036  0.1521
10231TIP3    H152108   0.931   6.140   0.415  0.7259  0.7498  0.6184
10231TIP3    H252109   0.869   6.143   0.277  0.9808 -2.0743  0.3756
10232TIP3   OH252110   1.858   2.068  12.840  0.0146  0.1150 -0.4077
10232TIP3    H152111   1.905   2.148  12.813  0.0316  1.0155  2.0190
10232TIP3    H252112   1.779   2.101  12.884  0.6216 -1.0769  1.7475
10233TIP3   OH252113   0.867   6.330   1.737  0.8223 -0.0868  0.7583
10233TIP3    H152114   0.845   6.260   1.798  1.8745  2.0711  3.8923
10233TIP3    H252115   0.796   6.393   1.746 -0.0534 -0.5721 -1.9247
10234TIP3   OH252116   4.483   4.184  14.516  0.0786 -0.4938  0.0375
10234TIP3    H152117   4.532   4.263  14.494  3.2161 -1.9321  1.3092
10234TIP3    H252118   4.549   4.115  14.521 -2.5659 -3.3515 -1.4339
10235TIP3   OH252119   0.480   1.836  15.997 -0.2391 -0.1231  0.5189
10235TIP3    H152120   0.438   1.785  15.927 -0.7578  3.2386 -1.8651
10235TIP3    H252121   0.434   1.920  15.996  0.6557  0.5691  4.0893
10236TIP3   OH252122   6.685   3.513   4.166 -0.1159 -0.2912 -0.0534
10236TIP3    H152123   6.753   3.558   4.217 -0.2975 -1.1542  0.9819
10236TIP3    H252124   6.640   3.583   4.119  0.9071  0.3869 -0.0588
10237TIP3   OH252125   1.067   1.854   5.969  0.5831  0.7899  0.4392
10237TIP3    H152126   1.135   1.795   6.002  1.6703  0.7595 -1.6837
10237TIP3    H252127   1.091   1.940   6.003  0.9988  0.5817  0.6759
10238TIP3   OH252128   1.206   4.607  13.807  0.0451  0.0048 -0.0997
10238TIP3    H152129   1.150   4.541  13.848 -1.2040  0.8237 -0.4350
10238TIP3    H252130   1.150   4.685  13.800  1.1044  0.7241 -0.8256
10239TIP3   OH252131   0.413   0.339   3.481  0.0596 -0.2875  0.4889
10239TIP3    H152132   0.501   0.371   3.460  0.2413 -1.3976 -0.5564
10239TIP3    H252133   0.372   0.323   3.397 -1.5154  1.0835  0.9545
10240TIP3   OH252134   5.138   1.642  13.812 -0.8610  0.3455  0.3813
10240TIP3    H152135   5.116   1.600  13.729 -0.2694  1.0002 -0.1172
10240TIP3    H252136   5.203   1.708  13.790  0.5178 -0.5450  1.5954
10241TIP3   OH252137   6.719   5.968   5.701  0.4168  0.2860  0.3617
10241TIP3    H152138   6.737   5.876   5.679 -0.5553 -0.2035  1.4939
10241TIP3    H252139   6.760   6.018   5.630 -0.5243 -1.0939 -1.2237
10242TIP3   OH252140   2.980   5.670  13.027 -0.1989 -0.4416  0.2298
10242TIP3    H152141   2.958   5.757  12.996  2.6006 -0.1156 -1.1203
10242TIP3    H252142   3.010   5.623  12.949  0.3684 -1.9056  1.2783
10243TIP3   OH252143   2.468   5.090   0.590 -0.2345 -0.0257 -0.2302
10243TIP3    H152144   2.403   5.107   0.657 -0.3388 -1.2708 -0.0009
10243TIP3    H252145   2.428   5.122   0.509 -0.4928  0.6117  0.1442
10244TIP3   OH252146   1.681   0.352  13.401 -0.0339 -0.3975 -0.0210
10244TIP3    H152147   1.750   0.406  13.363 -1.5566  1.9908  0.3870
10244TIP3    H252148   1.656   0.291  13.332  0.6625  0.4921 -1.0796
10245TIP3   OH252149   2.751   1.139  14.454  0.2866  0.0137 -0.3720
10245TIP3    H152150   2.703   1.177  14.528  1.1972  1.0274 -0.2946
10245TIP3    H252151   2.684   1.091  14.406 -0.2848 -0.9398  1.2649
10246TIP3   OH252152   2.710   3.752   1.385 -0.2152  0.0265 -0.7423
10246TIP3    H152153   2.639   3.747   1.321 -0.5463 -1.0877 -0.3077
10246TIP3    H252154   2.692   3.680   1.446 -0.0014  1.1635  0.7077
10247TIP3   OH252155   3.225   6.761  16.721 -0.7293 -0.2493 -0.3659
10247TIP3    H152156   3.136   6.742  16.751  0.1399 -0.8197  1.9997
10247TIP3    H252157   3.276   6.683  16.744  0.5013  0.2706 -1.2185
10248TIP3   OH252158   4.295   5.661  16.854  0.4230  0.4141 -0.1339
10248TIP3    H152159   4.360   5.700  16.914  0.1995 -0.2646  0.5758
10248TIP3    H252160   4.212   5.698  16.882  0.2168 -0.4964  0.5083
10249TIP3   OH252161   1.073   3.494  12.964 -0.0115  0.3207 -0.4773
10249TIP3    H152162   0.988   3.534  12.982  0.3719  1.2128 -0.6087
10249TIP3    H252163   1.064   3.456  12.876 -0.3690  0.1394 -0.3625
10250TIP3   OH252164   6.234   0.386  14.110 -0.4092  0.2925 -0.5898
10250TIP3    H152165   6.180   0.462  14.087 -0.2106  0.1875 -1.4276
10250TIP3    H252166   6.214   0.369  14.202  0.4277  2.1059 -0.0248
10251TIP3   OH252167   4.014   3.717   2.023  0.5720 -1.0187 -0.3511
10251TIP3    H152168   3.987   3.775   2.094  0.0425 -0.9512 -0.5952
10251TIP3    H252169   4.058   3.644   2.066  2.4069  0.1628 -0.1176
10252TIP3   OH252170   1.678   0.011  10.589 -0.5526  0.3102 -0.3705
10252TIP3    H152171   1.686  -0.058  10.522 -1.6282  1.4578 -1.7318
10252TIP3    H252172   1.667   0.092  10.539  0.7197  1.5104  1.1992
10253TIP3   OH252173   0.018   3.536   0.634  0.6443  0.0188 -0.2634
10253TIP3    H152174   0.052   3.543   0.545  1.6744  1.0568  0.1786
10253TIP3    H252175   0.026   3.444   0.656 -0.5398 -0.4363 -1.5740
10254TIP3   OH252176   0.182   3.869  16.947  0.0599 -0.9881  0.1712
10254TIP3    H152177   0.181   3.842  17.039 -2.9366  0.6347  0.7156
10254TIP3    H252178   0.223   3.955  16.947 -1.2959 -0.3249  0.2488
10255TIP3   OH252179   6.716   4.376   1.125 -0.2857 -0.9459  0.9201
10255TIP3    H152180   6.716   4.469   1.146 -0.5982 -1.0306  1.2898
10255TIP3    H252181   6.691   4.372   1.032 -0.4482 -0.6765  0.9522
10256TIP3   OH252182   3.230   1.782  14.733  0.9413 -0.3192 -0.1762
10256TIP3    H152183   3.228   1.719  14.805  1.9605  1.7017  1.7425
10256TIP3    H252184   3.318   1.774  14.697  0.1923 -1.8693 -1.7980
10257TIP3   OH252185   1.768   0.477   6.187  0.6961 -0.0227  0.5564
10257TIP3    H152186   1.835   0.468   6.119 -0.3601  1.0544 -0.7118
10257TIP3    H252187   1.806   0.536   6.251  0.4607  1.9130 -0.9669
10258TIP3   OH252188   3.330   0.853   4.214  0.2815  0.3896 -0.1575
10258TIP3    H152189   3.406   0.843   4.155  0.3391  2.6024 -0.5580
10258TIP3    H252190   3.369   0.879   4.298  0.0068  1.4722 -0.3486
10259TIP3   OH252191   5.368   0.577   0.893  0.0282 -0.1587  0.1469
10259TIP3    H152192   5.385   0.654   0.839 -0.9655  1.0865  1.5286
10259TIP3    H252193   5.404   0.599   0.978  2.5347 -2.5138 -0.1703
10260TIP3   OH252194   6.489   5.076   0.214 -0.2933  0.1620  0.0951
10260TIP3    H152195   6.403   5.066   0.255 -0.3688 -0.1327 -0.1374
10260TIP3    H252196   6.470   5.099   0.123 -0.1280  1.2658  0.3139
10261TIP3   OH252197   3.629   0.358   1.401  0.1123  0.4761 -0.6708
10261TIP3    H152198   3.642   0.359   1.307 -1.9476 -1.6138 -1.0770
10261TIP3    H252199   3.549   0.409   1.415  1.8505  3.1243  0.3481
10262TIP3   OH252200   4.907   0.317  10.775  0.4928  0.1953  0.3455
10262TIP3    H152201   4.895   0.261  10.852  0.7886 -0.4591 -0.0752
10262TIP3    H252202   4.906   0.406  10.809  1.1832 -0.1104  1.1816
10263TIP3   OH252203   2.739   0.151   3.591 -0.4762  0.1580  0.2556
10263TIP3    H152204   2.671   0.114   3.535 -0.0203  0.2022 -0.3307
10263TIP3    H252205   2.799   0.078   3.607 -0.9638 -0.0372  1.2569
10264TIP3   OH252206   3.495   2.028  15.270  0.5394 -0.1755 -0.5632
10264TIP3    H152207   3.440   1.956  15.240 -0.0996  0.3758 -0.7414
10264TIP3    H252208   3.553   2.046  15.196  0.8584 -0.6541 -0.4334
10265TIP3   OH252209   0.598   1.779  14.509 -0.2925 -0.2223 -0.3455
10265TIP3    H152210   0.675   1.815  14.465  0.1250  0.9985  1.2957
10265TIP3    H252211   0.529   1.843  14.492 -0.0553  0.4068  0.9513
10266TIP3   OH252212   4.799   3.588   3.789  0.0982 -0.2212 -0.1740
10266TIP3    H152213   4.830   3.576   3.878  1.8023 -0.3767 -0.7513
10266TIP3    H252214   4.703   3.587   3.796  0.2043 -0.3534  1.6111
10267TIP3   OH252215   3.586   4.555  11.526  0.8574 -0.0214 -0.5624
10267TIP3    H152216   3.502   4.558  11.479  0.2554 -4.4089 -0.2060
10267TIP3    H252217   3.562   4.537  11.617  2.1158 -0.6228 -0.3210
10268TIP3   OH252218   2.664   3.066   3.812 -0.7137 -0.5654  0.1279
10268TIP3    H152219   2.727   3.139   3.812 -1.9761  0.6198 -2.0458
10268TIP3    H252220   2.716   2.990   3.839  0.7202  1.0201  2.2193
10269TIP3   OH252221   6.293   1.839  13.292  0.5635  0.0607  0.0200
10269TIP3    H152222   6.386   1.844  13.313  0.3213 -0.5425  1.3707
10269TIP3    H252223   6.265   1.755  13.328 -0.2779 -0.2897 -1.3734
10270TIP3   OH252224   2.354   5.392   4.448 -0.4332  0.8027  0.0424
10270TIP3    H152225   2.274   5.430   4.412 -0.7527  2.1104  1.9765
10270TIP3    H252226   2.325   5.314   4.494 -0.7561  1.6391  1.3175
10271TIP3   OH252227   6.199   0.750  12.046 -0.3531  0.1628  0.0463
10271TIP3    H152228   6.190   0.817  11.979 -1.2708 -1.4173 -1.4936
10271TIP3    H252229   6.112   0.712  12.054  0.3068 -1.3765  0.2901
10272TIP3   OH252230   6.384   4.195   3.417  0.0609 -0.4350  0.4847
10272TIP3    H152231   6.363   4.135   3.345 -0.7077  0.9003 -0.4669
10272TIP3    H252232   6.479   4.208   3.410 -0.0627  0.0317 -0.6175
10273TIP3   OH252233   1.644   4.220  16.131  0.0907 -0.2955 -0.9439
10273TIP3    H152234   1.617   4.220  16.223  1.4204  0.6698 -0.5119
10273TIP3    H252235   1.588   4.155  16.089  0.6644 -2.0778  0.9126
10274TIP3   OH252236   1.727   5.175   2.306  0.1582 -0.3395 -0.0192
10274TIP3    H152237   1.763   5.264   2.301 -3.2394  1.1124 -2.7060
10274TIP3    H252238   1.687   5.170   2.393  2.2754 -0.1699  1.0335
10275TIP3   OH252239   6.607   1.516   0.567  0.6031  0.7047 -0.0759
10275TIP3    H152240   6.651   1.535   0.649  1.3568  0.0466 -0.3123
10275TIP3    H252241   6.678   1.501   0.505  0.0434  0.1668 -0.5979
10276TIP3   OH252242   2.871   1.560  16.653 -0.3672  0.0775 -0.2945
10276TIP3    H152243   2.883   1.640  16.704 -0.0784  0.2109 -0.5722
10276TIP3    H252244   2.785   1.528  16.680  0.4336 -0.7305  1.5106
10277TIP3   OH252245   0.451   1.903  11.137  0.0743 -0.4421 -0.7070
10277TIP3    H152246   0.525   1.898  11.197  0.4859 -0.8138 -1.2338
10277TIP3    H252247   0.376   1.922  11.193  0.3959 -1.0728 -0.0390
10278TIP3   OH252248   5.574   1.787   0.140 -0.0673  0.1946 -0.3308
10278TIP3    H152249   5.660   1.777   0.100 -0.8450  0.6460 -2.2711
10278TIP3    H252250   5.565   1.712   0.198  1.1214 -0.5825 -1.1113
10279TIP3   OH252251   4.205   3.508   3.732 -0.3214 -0.2898  0.2405
10279TIP3    H152252   4.203   3.519   3.827 -0.4969 -1.0532  0.3268
10279TIP3    H252253   4.161   3.586   3.699 -1.1735 -0.5030  0.8250
10280TIP3   OH252254   3.376   4.261   3.232 -0.3244  0.1152  0.0623
10280TIP3    H152255   3.400   4.217   3.313  2.1602  1.1076 -0.0483
10280TIP3    H252256   3.330   4.340   3.259 -1.9879 -0.9070  0.3547
10281TIP3   OH252257   6.485   0.145  14.171 -0.4103  0.1541  0.2878
10281TIP3    H152258   6.465   0.104  14.255  1.5374  0.2931  0.8716
10281TIP3    H252259   6.498   0.238  14.192 -1.0937  0.4068 -0.3819
10282TIP3   OH252260   2.508   1.293   4.525  0.0524 -0.3128 -0.0688
10282TIP3    H152261   2.571   1.364   4.537  0.1375  0.1401 -2.5306
10282TIP3    H252262   2.422   1.336   4.533  0.0558 -0.5120  1.1853
10283TIP3   OH252263   3.579   2.077  12.602 -0.1059  0.3759 -0.2521
10283TIP3    H152264   3.528   2.044  12.527  0.5416 -1.6108  0.1212
10283TIP3    H252265   3.540   2.033  12.678  1.6970 -0.6900  0.1156
10284TIP3   OH252266   2.811   0.769  17.044 -0.6709 -0.1583 -0.2931
10284TIP3    H152267   2.896   0.773  17.001  0.2271 -0.4738  1.3369
10284TIP3    H252268   2.756   0.717  16.986  0.7274 -1.2859 -0.6667
10285TIP3   OH252269   0.814   2.309   3.499 -0.1988  0.5418  0.5237
10285TIP3    H152270   0.860   2.322   3.582 -0.7346 -0.7958  1.0518
10285TIP3    H252271   0.861   2.239   3.455 -1.3316 -0.4214  0.7915
10286TIP3   OH252272   2.408   2.270  16.393  0.0175 -0.1251  0.7645
10286TIP3    H152273   2.371   2.352  16.424 -0.8367 -0.3792  0.4528
10286TIP3    H252274   2.482   2.296  16.338 -0.3141  0.4418  0.5764
10287TIP3   OH252275   2.279   0.001  12.533  0.0459 -0.1767  0.2682
10287TIP3    H152276   2.305  -0.046  12.612  1.8052 -0.6124 -0.5036
10287TIP3    H252277   2.349   0.065  12.519  0.3766 -0.8615 -1.5149
10288TIP3   OH252278   3.547   6.661  11.559 -1.1204 -0.5793  0.3028
10288TIP3    H152279   3.521   6.699  11.475  0.4689  0.6739  0.3298
10288TIP3    H252280   3.641   6.674  11.563 -0.8112 -2.6808  1.3018
10289TIP3   OH252281   2.821   5.889  12.684  0.0165 -0.3357 -0.7041
10289TIP3    H152282   2.785   5.958  12.628 -0.6720 -0.2866 -0.2174
10289TIP3    H252283   2.764   5.813  12.668  0.5751 -0.7049 -0.9953
10290TIP3   OH252284   2.570   3.099   3.224 -0.3867  0.1421  0.3259
10290TIP3    H152285   2.485   3.118   3.186 -0.1349  0.7199  0.0406
10290TIP3    H252286   2.631   3.104   3.150 -0.0133  0.4181  0.6481
10291TIP3   OH252287   1.811   6.774  14.085 -0.3134 -0.0239  0.1188
10291TIP3    H152288   1.891   6.790  14.134  0.1274  0.5828 -0.7730
10291TIP3    H252289   1.777   6.861  14.065 -0.3301 -0.2570 -0.9033
10292TIP3   OH252290   0.082   1.866  12.841 -0.4868 -0.2808  0.4397
10292TIP3    H152291   0.100   1.782  12.799  0.3370  0.0217  0.1554
10292TIP3    H252292   0.142   1.869  12.916 -0.0858  0.2931  0.1051
10293TIP3   OH252293   4.987   5.388   1.479  0.1180  0.4969  0.6274
10293TIP3    H152294   4.946   5.316   1.431  0.8239 -0.2489  1.1220
10293TIP3    H252295   4.927   5.406   1.551 -0.2868  0.7283  0.2409
10294TIP3   OH252296   4.738   6.449  11.786  0.1721  0.0335  0.8290
10294TIP3    H152297   4.778   6.448  11.873 -0.3349 -1.0165  1.0715
10294TIP3    H252298   4.646   6.428  11.803 -0.2342  1.2268  0.1707
10295TIP3   OH252299   5.608   3.641  14.833  0.0068  0.6616 -0.3596
10295TIP3    H152300   5.631   3.562  14.882 -0.4655  0.7410 -0.0003
10295TIP3    H252301   5.538   3.681  14.885  0.4554  1.4799 -0.3696
10296TIP3   OH252302   3.644   4.991   5.249  0.4823 -0.1141 -0.2992
10296TIP3    H152303   3.614   4.935   5.321  0.0289  1.3706  0.7014
10296TIP3    H252304   3.564   5.015   5.202  0.6753 -0.2681 -0.7183
10297TIP3   OH252305   0.970   5.193  16.140  0.0579  0.2015  0.0465
10297TIP3    H152306   0.960   5.288  16.141 -1.1183  0.0903  0.8847
10297TIP3    H252307   0.926   5.164  16.061  1.9442  0.4689 -1.1609
10298TIP3   OH252308   0.211   5.048  14.317 -0.2126  0.1576  0.3260
10298TIP3    H152309   0.176   4.973  14.366 -1.5941 -0.2088 -1.1349
10298TIP3    H252310   0.133   5.089  14.278  0.8669 -0.3570 -2.6223
10299TIP3   OH252311   0.694   4.629   1.831 -0.0326 -0.2635  0.3854
10299TIP3    H152312   0.749   4.551   1.823 -0.9453 -0.7380 -3.3619
10299TIP3    H252313   0.754   4.699   1.856  1.3934 -1.5837  0.8053
10300TIP3   OH252314   5.567   6.051  14.039  0.2224  0.0709 -0.6274
10300TIP3    H152315   5.602   6.057  13.950  1.1701  0.0165 -0.2741
10300TIP3    H252316   5.480   6.089  14.033  0.6245  0.9091 -1.3957
10301TIP3   OH252317   4.612   2.955  13.506  0.2971  0.0569  0.2873
10301TIP3    H152318   4.528   2.908  13.506  0.1939  0.2219 -0.6308
10301TIP3    H252319   4.592   3.039  13.546  0.1632 -0.1438  0.6463
10302TIP3   OH252320   5.471   2.274  10.618 -0.1204 -1.0655 -0.0994
10302TIP3    H152321   5.429   2.235  10.694 -0.3786 -2.5051 -0.9490
10302TIP3    H252322   5.453   2.368  10.627 -0.0635 -1.1868  1.6403
10303TIP3   OH252323   0.449   6.418   2.660 -0.2077  0.0537 -0.1536
10303TIP3    H152324   0.392   6.434   2.586  0.3150 -0.9613 -0.7965
10303TIP3    H252325   0.468   6.325   2.657  0.3129  0.0998  0.9040
10304TIP3   OH252326   5.272   4.528  13.533  0.5258 -0.0776  0.0955
10304TIP3    H152327   5.181   4.529  13.503 -0.2107 -0.0186  2.1883
10304TIP3    H252328   5.291   4.436  13.549  0.6882 -0.0481  0.0694
10305TIP3   OH252329   0.737   3.500  15.902 -0.0309  0.1759  0.4628
10305TIP3    H152330   0.689   3.564  15.850 -2.5898 -1.6252  0.3972
10305TIP3    H252331   0.676   3.476  15.972  0.4944 -2.6007  0.1053
10306TIP3   OH252332   5.579   5.565  15.338  0.3558  0.0756  0.2309
10306TIP3    H152333   5.623   5.640  15.377 -0.3418  0.2780  0.6372
10306TIP3    H252334   5.620   5.556  15.251 -0.4453  1.7270 -0.3600
10307TIP3   OH252335   3.930   3.569  15.696 -0.7568  0.2546  0.1743
10307TIP3    H152336   3.935   3.591  15.789 -0.8446  1.3230 -0.0607
10307TIP3    H252337   3.953   3.650  15.651  1.3915 -0.7822 -0.7448
10308TIP3   OH252338   0.010   0.499  12.918 -0.2866 -0.7427 -0.0845
10308TIP3    H152339  -0.048   0.567  12.882  0.8351  0.1309 -0.2848
10308TIP3    H252340   0.026   0.440  12.845  0.3909 -0.0713 -0.4868
10309TIP3   OH252341   1.884   5.245   0.469 -0.3549  0.4698 -0.1400
10309TIP3    H152342   1.847   5.330   0.443 -1.0946 -0.3924 -2.1025
10309TIP3    H252343   1.811   5.184   0.459  0.4928 -0.6040  0.1128
10310TIP3   OH252344   4.296   4.094   0.223  0.2629 -0.4698  0.2890
10310TIP3    H152345   4.266   4.143   0.300  0.8812  0.8125 -0.2559
10310TIP3    H252346   4.338   4.160   0.168 -0.0932 -1.3767 -1.1175
10311TIP3   OH252347   2.426   5.232  14.671  0.0205  0.6496  0.3035
10311TIP3    H152348   2.369   5.303  14.701 -1.7053  0.0308 -1.3061
10311TIP3    H252349   2.372   5.153  14.680  1.9781 -0.5788  2.3024
10312TIP3   OH252350   1.603   6.402   0.976 -0.1085  0.2557 -0.3522
10312TIP3    H152351   1.594   6.362   1.063 -0.8134 -0.9492 -0.9520
10312TIP3    H252352   1.692   6.378   0.948 -0.3742 -0.5589 -0.5289
10313TIP3   OH252353   3.809   6.379   1.497  0.3245 -0.0914 -0.0851
10313TIP3    H152354   3.845   6.343   1.416 -0.6395 -1.7172  0.1636
10313TIP3    H252355   3.846   6.323   1.566 -1.2652 -0.7063  0.3148
10314TIP3   OH252356   4.329   2.517  10.840 -0.5204  0.2683 -0.1964
10314TIP3    H152357   4.383   2.515  10.761  0.5812 -0.2296  0.5266
10314TIP3    H252358   4.247   2.475  10.816 -0.4728  0.7726 -1.2586
10315TIP3   OH252359   3.809   1.357   1.940  0.1858  0.0366  0.4837
10315TIP3    H152360   3.718   1.342   1.967 -0.1675  0.4557 -0.4283
10315TIP3    H252361   3.835   1.437   1.986 -0.2759  0.5171 -0.0666
10316TIP3   OH252362   2.310   6.359  14.311 -0.3991  0.0850 -0.5418
10316TIP3    H152363   2.345   6.277  14.344 -2.0087 -0.7061 -0.7109
10316TIP3    H252364   2.237   6.379  14.370 -0.2028  1.2546 -0.6742
10317TIP3   OH252365   3.423   1.670   5.559 -0.0512 -0.1547 -0.8716
10317TIP3    H152366   3.468   1.606   5.504 -2.6879 -2.2659 -0.8076
10317TIP3    H252367   3.415   1.627   5.644 -1.6276  0.3396 -0.7401
10318TIP3   OH252368   3.622   1.335   1.340  0.3003  0.0173  0.0254
10318TIP3    H152369   3.669   1.344   1.423  0.9281 -0.9297 -0.2179
10318TIP3    H252370   3.690   1.317   1.275 -0.4368 -2.4464 -0.1550
10319TIP3   OH252371   4.365   1.081   1.557  0.2301  0.0961  0.4386
10319TIP3    H152372   4.340   1.131   1.480  0.5819 -1.2384 -0.5862
10319TIP3    H252373   4.415   1.141   1.611  0.1257  1.0001 -0.4569
10320TIP3   OH252374   5.889   5.642  14.452 -0.4108  0.0295  0.1844
10320TIP3    H152375   5.844   5.647  14.368 -0.2037 -1.7817 -0.0780
10320TIP3    H252376   5.863   5.557  14.488  2.4933 -1.0115  0.1464
10321TIP3   OH252377   4.639   0.268   2.741 -0.1039 -0.0380  0.1837
10321TIP3    H152378   4.580   0.327   2.695  0.7188  1.2780  0.7811
10321TIP3    H252379   4.600   0.181   2.729 -3.4947  0.9789  2.5609
10322TIP3   OH252380   0.510   6.188  13.042  0.0416  0.3515  0.2672
10322TIP3    H152381   0.482   6.125  13.109  1.4464  0.2098  0.7574
10322TIP3    H252382   0.606   6.186  13.046  0.1349  1.1073 -1.0469
10323TIP3   OH252383   6.369   1.166  11.973 -0.1924 -0.4886 -0.1590
10323TIP3    H152384   6.445   1.189  11.920  0.5850  3.6366  2.3154
10323TIP3    H252385   6.404   1.118  12.048  0.3403  2.3580  1.5479
10324TIP3   OH252386   6.712   0.182  16.378 -0.0373  0.2280 -0.8066
10324TIP3    H152387   6.793   0.222  16.410 -0.7774  1.0024  0.2149
10324TIP3    H252388   6.736   0.141  16.295  0.7957  2.8999 -1.9976
10325TIP3   OH252389   6.585   2.790  15.925  1.1752  0.2265  0.1483
10325TIP3    H152390   6.579   2.852  15.998 -2.0454 -0.2358  0.4289
10325TIP3    H252391   6.616   2.709  15.964  2.7807  0.8708  0.2893
10326TIP3   OH252392   4.958   5.746  16.943 -0.4551  0.8720 -0.5182
10326TIP3    H152393   4.891   5.704  16.889 -2.4357  1.0131  1.6542
10326TIP3    H252394   4.981   5.680  17.008  0.6611  1.2560 -0.5024
10327TIP3   OH252395   6.731   5.887  15.562 -0.5199 -0.2708  0.0217
10327TIP3    H152396   6.821   5.916  15.553 -0.8383  0.2300 -2.1610
10327TIP3    H252397   6.700   5.876  15.472 -2.3305 -1.4132  0.7253
10328TIP3   OH252398   5.928   2.697   1.278  0.0963  0.1834 -0.1444
10328TIP3    H152399   5.870   2.745   1.218  0.1989  2.4101  1.4312
10328TIP3    H252400   6.009   2.748   1.279  0.3867 -0.2713  1.2602
10329TIP3   OH252401   5.942   3.635   0.282 -0.3645  0.3949 -0.2161
10329TIP3    H152402   5.905   3.548   0.266  0.9005  0.0296 -1.4323
10329TIP3    H252403   5.913   3.658   0.370 -1.5485 -0.8221 -0.2581
10330TIP3   OH252404   0.659   1.674   6.572  0.1852  0.1415 -0.1619
10330TIP3    H152405   0.673   1.754   6.521 -1.1920  1.1406  0.9494
10330TIP3    H252406   0.700   1.692   6.657 -1.0946  0.1372  0.4790
10331TIP3   OH252407   4.167   3.286   3.330 -0.2302 -0.2134  0.2844
10331TIP3    H152408   4.177   3.191   3.335 -1.1954 -0.3461 -0.0567
10331TIP3    H252409   4.080   3.299   3.292 -0.1964  0.8093  0.5228
10332TIP3   OH252410   6.428   3.452  16.872  0.2982 -0.8961  0.5161
10332TIP3    H152411   6.400   3.366  16.841 -1.5554  0.1342 -0.8846
10332TIP3    H252412   6.368   3.473  16.943  0.1679 -0.3994  0.2641
10333TIP3   OH252413   0.133   0.794  11.506 -0.3130  0.1307 -0.1560
10333TIP3    H152414   0.092   0.708  11.506 -0.1178  0.0350  0.1195
10333TIP3    H252415   0.136   0.820  11.414 -0.0261 -0.3255 -0.2764
10334TIP3   OH252416   6.231   4.518  13.017 -0.2699 -0.2048 -0.3228
10334TIP3    H152417   6.256   4.609  13.030 -3.7736  1.0895 -1.3603
10334TIP3    H252418   6.239   4.478  13.104  0.0566  1.4469  0.4356
10335TIP3   OH252419   0.458   2.236  12.168  0.0256  0.0893 -0.0613
10335TIP3    H152420   0.456   2.327  12.140 -1.4638  0.5711  1.4354
10335TIP3    H252421   0.529   2.232  12.233 -0.5656  0.4544  0.6256
10336TIP3   OH252422   0.422   1.003   6.480  0.0116 -0.3762  0.0760
10336TIP3    H152423   0.407   0.913   6.509  1.3398 -0.9304 -0.9197
10336TIP3    H252424   0.342   1.049   6.508 -0.7966 -1.8840  0.4029
10337TIP3   OH252425   4.624   5.007   4.022 -0.4531 -0.3689  0.0862
10337TIP3    H152426   4.635   5.100   4.045  3.6083 -1.1831  2.3396
10337TIP3    H252427   4.581   4.969   4.099  0.0840 -0.7376  0.2056
10338TIP3   OH252428   2.055   3.274   6.881 -0.2289  0.4479  0.3271
10338TIP3    H152429   2.129   3.221   6.911 -2.2001 -3.0385 -0.4770
10338TIP3    H252430   2.038   3.334   6.954  2.0123 -0.0964  1.4057
10339TIP3   OH252431   4.440   4.314  16.589 -0.2625  0.1860  0.0356
10339TIP3    H152432   4.378   4.316  16.661  0.9210  2.0966  1.0888
10339TIP3    H252433   4.480   4.401  16.589  1.7628 -0.6571 -1.1476
10340TIP3   OH252434   0.219   6.699  11.733 -0.0517  0.5634  0.4513
10340TIP3    H152435   0.269   6.640  11.790 -1.2907 -1.1249 -0.1192
10340TIP3    H252436   0.280   6.723  11.663  0.5947  0.3051  0.9164
10341TIP3   OH252437   5.264   0.853   3.296  0.6479 -0.0241  0.0531
10341TIP3    H152438   5.324   0.876   3.226  0.2923 -0.5331 -0.4296
10341TIP3    H252439   5.280   0.760   3.312  0.3032 -0.0565  0.2268
10342TIP3   OH252440   0.619   1.233   6.528 -0.5643 -0.1154 -0.1352
10342TIP3    H152441   0.709   1.211   6.504  0.2556 -0.8220  3.0892
10342TIP3    H252442   0.577   1.149   6.542 -0.9227  0.2192  0.8947
10343TIP3   OH252443   4.511   3.826   0.820  0.5781 -0.3648  0.3453
10343TIP3    H152444   4.550   3.913   0.832 -0.2357 -0.1187  1.3567
10343TIP3    H252445   4.524   3.782   0.904  1.8151 -1.5992 -0.4526
10344TIP3   OH252446   6.787   4.584   3.513 -0.1596 -0.3411 -0.2698
10344TIP3    H152447   6.698   4.617   3.501 -0.2747 -0.1079  1.0784
10344TIP3    H252448   6.803   4.590   3.607  1.3548 -0.2249 -0.5036
10345TIP3   OH252449   4.678   5.409   1.275  0.0709  0.0223  0.1722
10345TIP3    H152450   4.683   5.467   1.350  1.3573 -1.2677  1.1331
10345TIP3    H252451   4.586   5.410   1.250 -0.2139  1.1829  1.1742
10346TIP3   OH252452   1.427   0.449   1.418  0.0259 -0.0431  0.0088
10346TIP3    H152453   1.500   0.428   1.475 -1.8521  0.2045  2.6807
10346TIP3    H252454   1.436   0.543   1.400 -0.6176  0.4269  1.9354
10347TIP3   OH252455   1.602   5.660  11.634  0.5374  0.5352  0.3059
10347TIP3    H152456   1.606   5.693  11.545  2.4107  0.6202  0.3684
10347TIP3    H252457   1.647   5.575  11.630  1.6292  1.0319  1.3416
10348TIP3   OH252458   3.845   2.836   4.808 -0.5913  0.2867 -0.1498
10348TIP3    H152459   3.830   2.879   4.724 -1.8975 -0.0806 -0.1269
10348TIP3    H252460   3.790   2.883   4.870 -0.5512 -0.1861  0.2530
10349TIP3   OH252461   4.302   5.012  16.810 -0.0879 -0.2682 -0.1211
10349TIP3    H152462   4.329   4.980  16.724 -0.3543  1.8139 -1.0515
10349TIP3    H252463   4.232   5.075  16.791  0.9813  1.5118  1.4497
10350TIP3   OH252464   2.927   3.898   1.136 -0.1744  0.4937  0.3278
10350TIP3    H152465   2.992   3.929   1.199  0.5114  0.4838 -0.3575
10350TIP3    H252466   2.925   3.966   1.068 -1.4891  0.8961  0.7438
10351TIP3   OH252467   1.443   5.115  13.753 -0.1924 -0.5984  0.1089
10351TIP3    H152468   1.362   5.065  13.753 -0.6311  0.0939 -0.0780
10351TIP3    H252469   1.462   5.130  13.660 -1.0712  1.1433  0.1724
10352TIP3   OH252470   1.554   2.737   0.988 -0.0626 -0.0261  0.3698
10352TIP3    H152471   1.640   2.751   1.027 -0.6232  0.2653  1.5380
10352TIP3    H252472   1.532   2.646   1.010 -0.6690  0.3418  1.3554
10353TIP3   OH252473   2.806   3.777  13.412 -0.0060 -0.3183  0.6876
10353TIP3    H152474   2.774   3.750  13.326 -0.0046 -1.0054  0.9003
10353TIP3    H252475   2.901   3.776  13.403 -0.0097  0.0191  0.5791
10354TIP3   OH252476   6.008   6.078   4.836  0.3941  0.1805 -0.3679
10354TIP3    H152477   6.025   6.163   4.876  1.6539 -0.4169  0.3876
10354TIP3    H252478   6.085   6.060   4.782 -0.0704 -0.2816 -0.9026
10355TIP3   OH252479   6.079   2.012  13.482  0.4013 -0.0762  0.2277
10355TIP3    H152480   6.065   2.027  13.389 -1.6735  0.6849  0.6206
10355TIP3    H252481   6.054   1.921  13.496 -1.7418  0.5068  0.4370
10356TIP3   OH252482   6.372   0.500   1.950  0.2008  0.2569 -0.0813
10356TIP3    H152483   6.383   0.470   1.860 -0.8332  0.9781 -0.4606
10356TIP3    H252484   6.304   0.443   1.986 -0.3287  0.8260 -0.1745
10357TIP3   OH252485   4.524   5.564   3.010  0.1141  0.1785 -0.4451
10357TIP3    H152486   4.445   5.532   2.967 -0.6976 -0.2561  1.2788
10357TIP3    H252487   4.587   5.492   3.002  0.3043  0.4581 -1.6685
10358TIP3   OH252488   3.456   4.692  16.551  0.6705 -0.4402  0.1205
10358TIP3    H152489   3.524   4.716  16.613  0.4339 -1.2135  0.7117
10358TIP3    H252490   3.477   4.739  16.471  1.9352 -0.7159  0.2695
10359TIP3   OH252491   3.282   2.458  13.257  0.1610 -0.4014  0.3026
10359TIP3    H152492   3.375   2.467  13.276  0.0438  2.3740 -0.1283
10359TIP3    H252493   3.240   2.465  13.343  0.2919 -1.0483  0.4268
10360TIP3   OH252494   4.161   1.050  12.941  0.5784 -0.1595  0.6719
10360TIP3    H152495   4.070   1.023  12.945  0.6831 -0.7985 -0.5798
10360TIP3    H252496   4.187   1.064  13.032 -0.7173 -0.0981  1.0456
10361TIP3   OH252497   0.972   0.943   6.049 -0.1201  0.5638  0.2123
10361TIP3    H152498   0.980   0.881   6.121  1.9448  1.7681  1.1228
10361TIP3    H252499   1.002   1.026   6.086  1.5222  1.1170 -2.1212
10362TIP3   OH252500   1.248   3.622   3.963  0.1309 -0.6577 -0.4438
10362TIP3    H152501   1.222   3.714   3.971  1.5414 -0.2581 -0.1726
10362TIP3    H252502   1.200   3.577   4.032  0.0265  0.0181 -0.0725
10363TIP3   OH252503   1.755   6.777   3.645  0.1077 -0.0102 -0.6818
10363TIP3    H152504   1.691   6.774   3.716  1.7125 -0.1299  0.8011
10363TIP3    H252505   1.719   6.843   3.584 -0.6270  1.1192  0.8923
10364TIP3   OH252506   0.966   5.461  16.076 -0.2360 -0.6275 -0.4889
10364TIP3    H152507   0.952   5.469  15.982  0.5647  0.5176 -0.5400
10364TIP3    H252508   0.895   5.511  16.115  0.7432  0.9089 -0.5862
10365TIP3   OH252509   5.115   6.574  13.180 -0.3052  0.4580 -0.4615
10365TIP3    H152510   5.061   6.583  13.101  0.9312 -1.0276 -1.5327
10365TIP3    H252511   5.052   6.564  13.251 -1.4512 -0.3349 -1.5500
10366TIP3   OH252512   1.176   3.068  11.846 -0.2989  0.5381  0.1361
10366TIP3    H152513   1.154   3.019  11.767  0.2660 -1.1368  0.9689
10366TIP3    H252514   1.098   3.061  11.901 -0.5561  1.3923 -0.1002
10367TIP3   OH252515   0.806   2.490   1.812  0.3135  0.4049  0.3166
10367TIP3    H152516   0.841   2.511   1.898 -0.9184  1.0507  0.6837
10367TIP3    H252517   0.800   2.395   1.810  1.5300  0.3088  0.4459
10368TIP3   OH252518   0.636   2.899  14.780 -0.6280  0.0707  0.3306
10368TIP3    H152519   0.597   2.935  14.860 -0.9383 -0.7059  0.5326
10368TIP3    H252520   0.583   2.823  14.760 -0.4098  0.1319 -0.4979
10369TIP3   OH252521   3.475   3.988  16.139  0.1196 -0.3317 -0.0010
10369TIP3    H152522   3.421   4.024  16.068 -1.3611  0.0555  1.2769
10369TIP3    H252523   3.414   3.976  16.212  1.6114 -0.6974  1.2317
10370TIP3   OH252524   1.616   0.291  12.611 -0.7540  0.8818  0.6100
10370TIP3    H152525   1.528   0.318  12.584 -1.8202 -0.4199  2.5269
10370TIP3    H252526   1.601   0.226  12.680  1.7289  0.4830  0.8668
10371TIP3   OH252527   2.988   4.691   4.760  0.2648 -0.2442 -0.7696
10371TIP3    H152528   3.028   4.731   4.837 -0.6917 -1.7418  0.5793
10371TIP3    H252529   2.899   4.668   4.789  0.2089 -1.7226 -1.9815
10372TIP3   OH252530   3.457   2.572   0.306 -0.6737  1.1754 -0.5478
10372TIP3    H152531   3.394   2.562   0.378 -0.2582  0.1301 -0.3088
10372TIP3    H252532   3.436   2.501   0.246  0.2275  0.8495 -0.4957
10373TIP3   OH252533   5.852   0.935  12.944  0.2797  0.3175 -0.4395
10373TIP3    H152534   5.878   0.935  12.852  0.4227  0.5816 -0.4031
10373TIP3    H252535   5.831   0.844  12.964 -0.2595  0.3473 -0.8728
10374TIP3   OH252536   0.746   3.215   6.432 -0.0423  0.1766  0.3446
10374TIP3    H152537   0.805   3.184   6.500  0.1684 -0.6238 -0.1865
10374TIP3    H252538   0.755   3.310   6.434  0.9432  0.0900  0.5591
10375TIP3   OH252539   0.786   5.810   0.264  0.0753 -0.3473 -0.5339
10375TIP3    H152540   0.753   5.897   0.284 -0.8879 -0.4215 -1.7175
10375TIP3    H252541   0.708   5.757   0.250  0.6575 -0.9117 -1.8268
10376TIP3   OH252542   4.968   0.468   2.660 -0.1878  0.2808  0.3625
10376TIP3    H152543   5.048   0.510   2.631 -0.8032  1.1373 -0.1399
10376TIP3    H252544   4.956   0.498   2.750 -0.3886  0.8512  0.1519
10377TIP3   OH252545   5.365   1.283   5.153  0.1572  0.1705  0.0414
10377TIP3    H152546   5.412   1.287   5.069  1.6022  1.6818  0.8710
10377TIP3    H252547   5.432   1.257   5.217  0.2998  3.5998  1.4706
10378TIP3   OH252548   4.532   1.424  15.007  0.1377  0.3409 -0.1883
10378TIP3    H152549   4.543   1.454  15.098 -0.4547 -0.5791  0.1970
10378TIP3    H252550   4.609   1.370  14.990 -0.3495 -0.4952  0.1973
10379TIP3   OH252551   2.391   2.098  15.315 -0.0512 -0.6016 -0.6068
10379TIP3    H152552   2.386   2.108  15.410  0.4552  0.4071 -0.6694
10379TIP3    H252553   2.484   2.108  15.294  0.0913 -2.5094 -1.0593
10380TIP3   OH252554   3.514   1.927  12.821 -0.0968  0.0990  0.5282
10380TIP3    H152555   3.455   1.984  12.871 -1.4978 -0.3714 -0.5360
10380TIP3    H252556   3.483   1.838  12.840  1.2707 -0.2700  1.1636
10381TIP3   OH252557   5.908   6.768   5.574  0.4574  0.2123 -0.1746
10381TIP3    H152558   5.996   6.805   5.587 -0.4166  1.8059  1.7281
10381TIP3    H252559   5.875   6.755   5.663 -0.9905 -1.0387 -0.8625
10382TIP3   OH252560   3.538   1.974  17.056 -0.2703  0.6224  0.0305
10382TIP3    H152561   3.512   1.911  17.124 -0.8182  0.9158  0.1012
10382TIP3    H252562   3.629   1.995  17.077  0.0690 -0.4769 -0.2568
10383TIP3   OH252563   3.479   1.032  14.972  0.0531 -0.0132  0.6098
10383TIP3    H152564   3.489   0.979  15.051 -0.1037 -1.0253 -0.0288
10383TIP3    H252565   3.534   1.109  14.987  2.3082 -1.5104  0.5650
10384TIP3   OH252566   0.467   0.948   3.928 -0.4408  0.2256 -0.3438
10384TIP3    H152567   0.443   1.022   3.984  0.1486  0.3624 -0.2723
10384TIP3    H252568   0.393   0.887   3.936  0.2509 -0.4089  1.6913
10385TIP3   OH252569   2.961   3.578   1.804  0.3170  0.9218 -0.4458
10385TIP3    H152570   2.872   3.544   1.789  1.7090 -3.2081 -0.5673
10385TIP3    H252571   2.981   3.552   1.894  1.5746  1.4308 -0.5673
10386TIP3   OH252572   5.886   3.704  11.136 -0.1198  0.5023 -0.6359
10386TIP3    H152573   5.865   3.797  11.138  0.5105  0.6972 -1.9008
10386TIP3    H252574   5.932   3.692  11.053 -1.9649 -1.2907 -1.5006
10387TIP3   OH252575   1.398   3.823   5.344  0.5481 -0.2006 -0.8024
10387TIP3    H152576   1.312   3.783   5.348  0.8053 -0.7449 -0.5688
10387TIP3    H252577   1.448   3.780   5.414  0.5518  1.2283  0.1047
10388TIP3   OH252578   2.101   3.695   0.882 -0.3106 -0.5963  0.3957
10388TIP3    H152579   2.102   3.762   0.949 -0.8407 -0.8873  0.6950
10388TIP3    H252580   2.113   3.743   0.800  1.6019 -0.3467  0.7624
10389TIP3   OH252581   1.679   0.652  12.718 -0.0525 -0.5447  0.2007
10389TIP3    H152582   1.752   0.624  12.662  0.1822 -1.1405  0.8016
10389TIP3    H252583   1.615   0.688  12.656  0.4220 -0.7128 -0.4029
10390TIP3   OH252584   2.219   0.961   5.411  0.2292  0.2021  0.1811
10390TIP3    H152585   2.210   0.957   5.316  0.2307 -1.9954  0.2207
10390TIP3    H252586   2.140   1.005   5.441  0.6264  1.6917 -0.8705
10391TIP3   OH252587   2.289   5.008   1.763 -0.5978 -0.2991 -0.4385
10391TIP3    H152588   2.359   5.038   1.706 -1.6726 -0.5286 -1.9351
10391TIP3    H252589   2.253   5.088   1.802 -0.5145 -0.0436 -0.8858
10392TIP3   OH252590   2.681   0.360  10.693  0.2439  0.3611 -0.0637
10392TIP3    H152591   2.739   0.435  10.706 -0.7762  1.6181 -2.1520
10392TIP3    H252592   2.600   0.383  10.737  0.9065 -0.9545  1.9815
10393TIP3   OH252593   6.538   3.910  13.818  0.0899  0.0150  0.3443
10393TIP3    H152594   6.592   3.908  13.898 -0.3196 -2.2442  0.6219
10393TIP3    H252595   6.531   3.819  13.792  0.4840  0.7111 -2.5193
10394TIP3   OH252596   1.203   3.515  11.742 -0.4519 -0.2649  0.4429
10394TIP3    H152597   1.261   3.587  11.766 -0.5135  0.1327 -0.5443
10394TIP3    H252598   1.118   3.539  11.781 -0.2054 -0.3512  1.0386
10395TIP3   OH252599   5.763   1.879  16.489 -0.2672 -0.3891 -1.0134
10395TIP3    H152600   5.710   1.952  16.457 -0.3955  0.1050  0.2699
10395TIP3    H252601   5.843   1.920  16.522 -0.7799 -0.6912  0.6722
10396TIP3   OH252602   1.500   1.017  14.475  0.4774 -0.2789  0.7324
10396TIP3    H152603   1.547   0.978  14.549  0.2673  0.4551  1.2630
10396TIP3    H252604   1.410   1.026  14.506  0.3584 -0.1097  0.3366
10397TIP3   OH252605   1.293   3.856   3.620 -0.1926 -0.2743  0.3384
10397TIP3    H152606   1.309   3.948   3.642 -0.4044  0.2042 -1.3995
10397TIP3    H252607   1.300   3.852   3.525 -0.5245 -2.0064  0.3510
10398TIP3   OH252608   5.655   1.510   1.440 -0.1922 -0.8693  0.8400
10398TIP3    H152609   5.630   1.418   1.441  0.4313 -1.0735 -0.5962
10398TIP3    H252610   5.736   1.514   1.490 -0.0957 -1.1386  0.7053
10399TIP3   OH252611   3.141   2.284   1.613 -0.4261 -0.1713  0.1442
10399TIP3    H152612   3.071   2.347   1.631 -1.8002 -1.7573  0.6251
10399TIP3    H252613   3.134   2.266   1.519  0.0618  0.4845 -0.0212
10400TIP3   OH252614   3.422   4.025   1.170 -0.0552  0.3339 -0.2733
10400TIP3    H152615   3.353   4.067   1.118  1.3263  0.8870 -1.7775
10400TIP3    H252616   3.380   3.949   1.209 -2.0293  1.7515  0.5592
10401TIP3   OH252617   1.347   0.924  16.063  0.2638 -0.3556 -0.3727
10401TIP3    H152618   1.319   0.837  16.035 -0.5736 -1.0713  2.3762
10401TIP3    H252619   1.266   0.969  16.086  0.7394  0.9802 -1.1809
10402TIP3   OH252620   3.751   5.116   6.330 -0.0471  0.2901  0.8539
10402TIP3    H152621   3.678   5.115   6.392 -1.1213 -0.4174 -0.3754
10402TIP3    H252622   3.744   5.201   6.286 -0.9355 -0.2745 -0.1445
10403TIP3   OH252623   2.191   2.675  13.871  0.4712 -0.1788  0.4387
10403TIP3    H152624   2.122   2.708  13.928  0.2663  0.2146 -0.0271
10403TIP3    H252625   2.236   2.754  13.839  1.2605 -0.4340  0.8843
10404TIP3   OH252626   3.984   3.188  14.554  0.9900 -0.4265 -0.0408
10404TIP3    H152627   4.049   3.206  14.486  0.7504 -0.4509 -0.2788
10404TIP3    H252628   4.008   3.103  14.589  0.7354 -0.7099 -0.5406
10405TIP3   OH252629   1.362   0.171  11.308  0.3423  0.4636  0.1323
10405TIP3    H152630   1.398   0.117  11.237  2.3705  1.8682  0.0223
10405TIP3    H252631   1.352   0.258  11.270 -3.2211  0.2183  0.2071
10406TIP3   OH252632   4.510   2.690   1.657 -0.0067 -0.3716 -0.2057
10406TIP3    H152633   4.580   2.752   1.675 -1.1721  0.9151  0.1042
10406TIP3    H252634   4.533   2.652   1.572  2.3388 -1.8990  1.0114
10407TIP3   OH252635   5.603   2.200  15.810  0.4107  0.3259 -0.2615
10407TIP3    H152636   5.645   2.286  15.801 -0.6708  0.9109  0.1340
10407TIP3    H252637   5.632   2.151  15.733  1.2039  0.9740 -0.3858
10408TIP3   OH252638   1.756   1.856  11.648  0.3326 -0.2598 -0.3609
10408TIP3    H152639   1.771   1.844  11.742  1.6346  1.4779 -0.3106
10408TIP3    H252640   1.701   1.781  11.624 -0.4295 -0.5048  1.8611
10409TIP3   OH252641   5.107   5.162  14.714 -0.2464  0.7430 -0.1714
10409TIP3    H152642   5.170   5.132  14.779  0.4669 -0.6522 -1.4303
10409TIP3    H252643   5.111   5.096  14.645 -0.6288  2.3845 -1.8479
10410TIP3   OH252644   4.859   1.659  11.844 -1.0074 -0.1388  0.4889
10410TIP3    H152645   4.861   1.691  11.754  0.4900 -1.3996  0.0411
10410TIP3    H252646   4.836   1.567  11.836  0.7776 -0.6899  1.2332
10411TIP3   OH252647   4.223   2.141  17.007  0.4301  0.6695  0.4283
10411TIP3    H152648   4.235   2.210  17.072 -1.0268  1.7262 -0.3593
10411TIP3    H252649   4.197   2.187  16.927 -2.3378 -0.8295  0.3308
10412TIP3   OH252650   5.915   5.996   0.510  0.3016  0.2785 -0.0606
10412TIP3    H152651   5.873   6.041   0.436  0.6165 -1.8595 -1.6584
10412TIP3    H252652   6.006   6.025   0.507  0.7596 -1.1249 -1.7577
10413TIP3   OH252653   1.085   4.721  11.623  0.0249  0.1808 -0.5746
10413TIP3    H152654   1.121   4.633  11.612  1.2215  0.7214 -1.1558
10413TIP3    H252655   1.066   4.726  11.717 -0.1650 -0.7260 -0.5486
10414TIP3   OH252656   2.426   1.277   0.963  0.5737 -0.4560  0.2342
10414TIP3    H152657   2.441   1.197   0.913 -0.3255 -0.6802  0.3053
10414TIP3    H252658   2.351   1.318   0.921  0.8659  0.2251  0.3595
10415TIP3   OH252659   5.777   4.327  16.016  0.3831 -0.2665 -0.0927
10415TIP3    H152660   5.689   4.297  16.039  0.4517  0.1389  0.7470
10415TIP3    H252661   5.763   4.386  15.942 -0.5473  2.6666  2.2120
10416TIP3   OH252662   3.091   3.154   3.977 -0.1713 -1.1260 -0.3414
10416TIP3    H152663   3.152   3.218   4.014 -0.4627 -1.0371 -0.0039
10416TIP3    H252664   3.143   3.105   3.914  1.0341 -2.9368  1.9362
10417TIP3   OH252665   6.362   1.593  11.440 -0.0035  0.0173  0.4253
10417TIP3    H152666   6.337   1.514  11.392  0.2802 -0.4086  0.9640
10417TIP3    H252667   6.413   1.644  11.377  0.2851 -0.4882  0.2397
10418TIP3   OH252668   0.752   3.446   2.170 -0.2911 -0.2284  0.4134
10418TIP3    H152669   0.712   3.521   2.126 -1.2088 -1.0838 -0.2678
10418TIP3    H252670   0.680   3.404   2.216  0.1684 -0.7968  0.6274
10419TIP3   OH252671   1.647   3.172  15.530 -0.3922 -0.1711 -1.0159
10419TIP3    H152672   1.701   3.118  15.472  0.8935  0.7252 -0.6981
10419TIP3    H252673   1.577   3.205  15.474 -0.3124 -0.9286 -1.5712
10420TIP3   OH252674   4.674   1.555   5.722  0.0375  0.4089 -0.1244
10420TIP3    H152675   4.756   1.559   5.672 -1.2917 -2.0629 -2.7301
10420TIP3    H252676   4.622   1.628   5.688 -0.0269  0.0687 -0.7669
10421TIP3   OH252677   3.558   1.214  11.646  0.2849 -0.4937 -0.4561
10421TIP3    H152678   3.627   1.178  11.701  1.1973  1.9582  0.1592
10421TIP3    H252679   3.486   1.152  11.654  1.1867 -1.3550  1.7307
10422TIP3   OH252680   6.117   2.458   4.001 -0.0653 -0.1435  0.5116
10422TIP3    H152681   6.161   2.539   4.025  0.0277 -0.2857  0.8171
10422TIP3    H252682   6.109   2.409   4.083 -0.6442 -0.1912  0.4365
10423TIP3   OH252683   5.548   0.104  11.250  0.4852  0.0249 -0.0162
10423TIP3    H152684   5.543   0.146  11.336 -2.6794  1.8742 -0.9411
10423TIP3    H252685   5.571   0.175  11.190  1.0179 -0.9014 -0.9443
10424TIP3   OH252686   1.225   5.398   5.103  0.0595 -0.4190  0.5215
10424TIP3    H152687   1.298   5.456   5.082  0.2088 -0.8191 -0.0936
10424TIP3    H252688   1.209   5.412   5.196  0.0507  0.6560  0.3721
10425TIP3   OH252689   4.033   5.902   1.387 -0.1339  0.2844 -0.3757
10425TIP3    H152690   3.995   5.816   1.368  1.1989 -0.3165 -0.4961
10425TIP3    H252691   4.102   5.883   1.451  0.0265  1.3060 -0.2330
10426TIP3   OH252692   4.405   5.398  16.506  0.0254 -0.3201  0.0156
10426TIP3    H152693   4.342   5.470  16.513  0.8727  0.9232 -3.1142
10426TIP3    H252694   4.359   5.331  16.456  0.5319 -0.2302 -0.5807
10427TIP3   OH252695   3.286   4.429   4.895 -0.0948  0.5510  0.3972
10427TIP3    H152696   3.202   4.442   4.853  0.2569  0.0791 -0.4641
10427TIP3    H252697   3.272   4.458   4.986 -1.5570 -0.8214  0.6433
10428TIP3   OH252698   5.574   4.388  16.895 -0.0196  0.0450  0.4539
10428TIP3    H152699   5.586   4.294  16.887  0.6197  0.1146  0.5478
10428TIP3    H252700   5.482   4.399  16.921 -0.3059 -0.5064 -0.3205
10429TIP3   OH252701   1.291   0.261   5.365 -0.0425 -0.3509  1.0304
10429TIP3    H152702   1.202   0.266   5.399 -1.3808 -0.1422 -2.0857
10429TIP3    H252703   1.310   0.350   5.335 -0.4301 -1.0979 -1.7775
10430TIP3   OH252704   1.689   3.992  15.846 -0.1337 -0.0486  0.6706
10430TIP3    H152705   1.731   3.908  15.863 -0.6388 -0.2100  1.1637
10430TIP3    H252706   1.729   4.023  15.765  0.0963 -0.7383  0.5120
10431TIP3   OH252707   5.847   6.122  12.612 -0.0946  0.7305  0.1368
10431TIP3    H152708   5.770   6.086  12.567  0.5920 -1.6751  0.7473
10431TIP3    H252709   5.840   6.087  12.701  0.9542  1.6956  0.6163
10432TIP3   OH252710   5.016   3.807  12.205 -0.0863 -0.1636  0.1382
10432TIP3    H152711   4.946   3.741  12.206  0.9703 -1.3416  1.3928
10432TIP3    H252712   5.037   3.818  12.112 -1.1128 -0.6888 -0.1748
10433TIP3   OH252713   1.116   3.023   3.852 -0.1671  0.6181  0.2093
10433TIP3    H152714   1.203   3.060   3.834 -0.7634  1.4907 -0.9974
10433TIP3    H252715   1.069   3.093   3.897 -0.4822  0.3938  0.2303
10434TIP3   OH252716   4.394   6.460   2.847 -0.3741 -0.0614  0.1261
10434TIP3    H152717   4.332   6.519   2.805 -1.7722 -1.0496  0.7300
10434TIP3    H252718   4.433   6.410   2.775 -0.3431  0.4975 -0.2489
10435TIP3   OH252719   2.434   1.390   1.232  0.3095 -0.0591 -0.0169
10435TIP3    H152720   2.349   1.346   1.231  0.6011 -0.6184 -0.3940
10435TIP3    H252721   2.466   1.384   1.141 -1.2947  4.1806 -1.1300
10436TIP3   OH252722   1.201   3.910  15.652 -0.6637  0.4936 -0.2219
10436TIP3    H152723   1.194   3.817  15.673  0.5543  0.3677 -0.3000
10436TIP3    H252724   1.210   3.913  15.557  0.8080  0.5798 -0.0891
10437TIP3   OH252725   3.773   2.934   1.992  0.3122 -0.1114 -0.0837
10437TIP3    H152726   3.731   2.867   2.046  0.4368  0.6543  0.9795
10437TIP3    H252727   3.867   2.924   2.010  0.1832  2.9252  3.3066
10438TIP3   OH252728   5.928   4.608   0.434 -0.1299 -0.7399 -0.6487
10438TIP3    H152729   5.947   4.514   0.431 -1.3354 -0.9879 -1.1594
10438TIP3    H252730   5.843   4.614   0.477 -0.1262  0.1044 -0.7441
10439TIP3   OH252731   0.387   0.378  16.771 -0.6445  0.0648  0.8887
10439TIP3    H152732   0.430   0.299  16.801  0.1111  0.4183  0.7412
10439TIP3    H252733   0.363   0.425  16.851 -1.9383 -0.7334  1.0079
10440TIP3   OH252734   3.875   5.091   3.517 -0.2032  0.0612  0.7746
10440TIP3    H152735   3.948   5.066   3.460  0.6146  1.4131  1.1992
10440TIP3    H252736   3.814   5.136   3.459 -0.1854 -0.0830  0.6411
10441TIP3   OH252737   5.865   3.395   6.556 -0.3121 -0.2221 -0.5732
10441TIP3    H152738   5.813   3.343   6.493 -0.9132 -0.1450 -0.1526
10441TIP3    H252739   5.953   3.359   6.550 -0.5029 -0.6336 -1.0069
10442TIP3   OH252740   2.162   2.646   3.339 -0.5578  0.5180  0.1000
10442TIP3    H152741   2.066   2.650   3.339 -0.5332  1.1528 -0.6933
10442TIP3    H252742   2.182   2.575   3.401 -1.5203  0.6463  0.5782
10443TIP3   OH252743   1.777   3.403  12.067  0.3635 -0.1725 -0.5153
10443TIP3    H152744   1.719   3.356  12.008 -0.0423 -0.6287  0.2464
10443TIP3    H252745   1.799   3.341  12.136 -1.1802  1.0692  1.2039
10444TIP3   OH252746   6.536   0.446  14.262 -0.3173 -0.0282 -0.3836
10444TIP3    H152747   6.455   0.496  14.250  0.7087  1.6376 -0.6334
10444TIP3    H252748   6.578   0.448  14.176  0.0086 -0.8612 -0.2510
10445TIP3   OH252749   0.339   0.313  12.637  0.1260  0.0252  0.3268
10445TIP3    H152750   0.269   0.282  12.695  0.8459  0.7369  1.6178
10445TIP3    H252751   0.348   0.406  12.658 -0.4213  0.6111 -1.8274
10446TIP3   OH252752   1.637   1.786  16.178  0.2055 -0.1862  0.1211
10446TIP3    H152753   1.564   1.804  16.119  1.6525  0.5526 -1.5362
10446TIP3    H252754   1.715   1.803  16.126  1.6175  1.6388  2.5816
10447TIP3   OH252755   1.661   6.342   4.178 -0.3767  0.4501  0.0867
10447TIP3    H152756   1.617   6.265   4.215 -0.4128  0.0534 -0.7674
10447TIP3    H252757   1.686   6.316   4.090 -0.2019  1.3536 -0.1437
10448TIP3   OH252758   6.750   3.983   3.640  0.5807 -0.7226 -0.4502
10448TIP3    H152759   6.774   4.071   3.668 -0.0144 -0.5557 -0.4528
10448TIP3    H252760   6.830   3.948   3.601  0.8173 -0.1746 -0.4710
10449TIP3   OH252761   1.023   2.646  16.505 -0.6581  0.3150 -0.5565
10449TIP3    H152762   0.934   2.683  16.502 -0.6923  0.2965  0.1848
10449TIP3    H252763   1.013   2.561  16.548 -0.2802  0.2978 -0.4961
10450TIP3   OH252764   0.963   0.967   5.158  0.0716 -0.7960 -0.5550
10450TIP3    H152765   0.963   0.921   5.074  1.2744  0.8508 -1.5263
10450TIP3    H252766   1.002   1.052   5.138  3.1237 -1.3248  2.1701
10451TIP3   OH252767   3.373   2.224   0.896 -0.8923  0.2348 -0.0094
10451TIP3    H152768   3.444   2.172   0.934 -1.3477 -3.0731 -3.1797
10451TIP3    H252769   3.294   2.185   0.932 -1.2229 -1.0813 -2.0102
10452TIP3   OH252770   2.711   5.061  15.165 -0.8786  0.6032  0.4726
10452TIP3    H152771   2.767   5.058  15.087 -0.0972  1.0220  1.0114
10452TIP3    H252772   2.771   5.050  15.238 -1.8791 -2.7829  0.9686
10453TIP3   OH252773   6.215   0.047   4.730 -0.3291 -0.1607 -0.0359
10453TIP3    H152774   6.211   0.112   4.800 -0.1559 -1.1550  0.9332
10453TIP3    H252775   6.289   0.074   4.676 -0.1849  0.3847  0.4288
10454TIP3   OH252776   3.228   5.860   4.733  0.4607  0.5818  0.2439
10454TIP3    H152777   3.164   5.844   4.803  0.0933 -0.9888 -0.4109
10454TIP3    H252778   3.206   5.795   4.666  1.0923  1.7536 -1.1408
10455TIP3   OH252779   3.417   0.078   6.025 -0.2223 -0.0460  0.2904
10455TIP3    H152780   3.348   0.039   5.971  0.3825 -0.7215 -0.0172
10455TIP3    H252781   3.406   0.039   6.111  0.3583 -0.8883 -0.0077
10456TIP3   OH252782   0.807   2.881  13.623 -0.0287  0.0210 -0.3861
10456TIP3    H152783   0.852   2.956  13.662 -1.1594  0.5687 -0.0885
10456TIP3    H252784   0.806   2.901  13.529  1.4861 -0.6390 -0.5696
10457TIP3   OH252785   5.587   6.216   0.594 -0.4594  0.0072 -0.2669
10457TIP3    H152786   5.611   6.305   0.565  0.0334  0.5425  1.6621
10457TIP3    H252787   5.666   6.164   0.579  1.1213  1.1084  3.3173
10458TIP3   OH252788   1.803   3.553  12.685  0.0124 -0.4748  0.2445
10458TIP3    H152789   1.773   3.644  12.675  1.0925 -0.1562 -0.2428
10458TIP3    H252790   1.865   3.540  12.613 -1.0310 -2.0060 -0.4314
10459TIP3   OH252791   5.588   3.407  13.548 -0.6972 -0.1758 -0.8437
10459TIP3    H152792   5.662   3.346  13.546 -1.7896 -1.6095  0.3601
10459TIP3    H252793   5.557   3.410  13.458 -0.9504 -1.8665 -0.8436
10460TIP3   OH252794   3.597   1.820   1.002  0.3329  0.1944 -0.2314
10460TIP3    H152795   3.632   1.742   1.045 -2.0669 -1.1104 -0.4879
10460TIP3    H252796   3.594   1.796   0.909 -1.7083 -0.0176 -0.1597
10461TIP3   OH252797   3.734   5.769  11.549 -0.5315 -0.2389  0.2348
10461TIP3    H152798   3.775   5.744  11.632  1.6633  0.4731 -0.5688
10461TIP3    H252799   3.772   5.711  11.484 -0.2997  0.8682 -0.6443
10462TIP3   OH252800   5.019   0.446   0.113  0.0302 -0.1105 -0.3591
10462TIP3    H152801   5.000   0.432   0.020  0.7206 -1.0767 -0.3690
10462TIP3    H252802   5.051   0.536   0.117 -2.3002  0.7835 -0.6735
10463TIP3   OH252803   2.073   3.847   1.380 -0.0510  0.2376 -0.0820
10463TIP3    H152804   2.168   3.856   1.383  0.1509 -1.5928  1.4571
10463TIP3    H252805   2.044   3.876   1.467 -0.4410 -2.6347  0.8439
10464TIP3   OH252806   5.249   1.332  15.665 -0.3357  0.1601 -0.5598
10464TIP3    H152807   5.313   1.381  15.717 -1.0661 -0.0325  0.5523
10464TIP3    H252808   5.237   1.250  15.713 -1.8758  0.4510 -0.4067
10465TIP3   OH252809   3.851   2.958   1.094  0.3005  0.4759 -0.1152
10465TIP3    H152810   3.765   2.916   1.104  0.5819 -0.4647 -1.3719
10465TIP3    H252811   3.832   3.045   1.061 -0.1558 -0.3272 -2.1160
10466TIP3   OH252812   0.413   0.384   2.907  0.5628  0.2761 -0.3782
10466TIP3    H152813   0.450   0.296   2.895  0.8817  0.3371  0.0896
10466TIP3    H252814   0.416   0.423   2.820  1.6391  0.2849 -0.3561
10467TIP3   OH252815   5.757   1.802   0.498  0.3118 -0.1802 -0.6099
10467TIP3    H152816   5.843   1.842   0.505  0.2605  0.2021 -1.8991
10467TIP3    H252817   5.700   1.872   0.465  0.0055 -1.0155 -1.9243
10468TIP3   OH252818   2.229   0.616   1.249  0.2532 -0.0973 -0.3443
10468TIP3    H152819   2.139   0.601   1.280  0.4817  0.1064  0.4369
10468TIP3    H252820   2.279   0.542   1.285  0.6214  0.4108  0.2103
10469TIP3   OH252821   6.039   5.182   6.659  0.1855  0.7399  0.3707
10469TIP3    H152822   5.944   5.189   6.667  0.3232  1.8732  1.1459
10469TIP3    H252823   6.062   5.242   6.588  0.2522 -0.1730 -0.4056
10470TIP3   OH252824   1.131   0.446   2.670 -0.1572  0.1544  0.0610
10470TIP3    H152825   1.177   0.383   2.614 -0.6329  0.0230 -0.1799
10470TIP3    H252826   1.109   0.519   2.612  0.9183  0.8298  0.4638
10471TIP3   OH252827   0.780   3.536   5.876  0.4886 -0.4126 -0.5045
10471TIP3    H152828   0.799   3.457   5.825  1.1032 -0.7041  0.1538
10471TIP3    H252829   0.838   3.529   5.952  1.6969  1.4393 -1.1825
10472TIP3   OH252830   3.003   1.553   1.165  0.0120  0.0739 -0.0759
10472TIP3    H152831   3.065   1.502   1.216  1.4623  0.0568 -1.7422
10472TIP3    H252832   2.929   1.493   1.150 -0.0291 -0.2095  1.1665
10473TIP3   OH252833   2.890   2.536   1.148 -0.3886  0.5799  0.4067
10473TIP3    H152834   2.824   2.565   1.085  0.3681  0.9385 -0.2389
10473TIP3    H252835   2.851   2.458   1.189 -0.7744  0.1537 -0.7170
10474TIP3   OH252836   6.668   0.433   4.216 -0.7298 -0.0271 -0.2403
10474TIP3    H152837   6.578   0.410   4.190 -0.0718 -1.1130 -1.7102
10474TIP3    H252838   6.723   0.392   4.149  1.0332 -1.6182  2.0477
10475TIP3   OH252839   2.212   4.770  15.623  0.4629 -0.7010 -0.3038
10475TIP3    H152840   2.265   4.806  15.552  1.1525 -0.5414  0.2904
10475TIP3    H252841   2.140   4.726  15.578  0.0012  0.7692 -1.0730
10476TIP3   OH252842   0.153   2.882  13.483 -0.5791 -0.4144 -0.2620
10476TIP3    H152843   0.160   2.812  13.549 -1.0633 -0.7465 -0.5529
10476TIP3    H252844   0.062   2.912  13.491 -0.3069  0.3489  0.0233
10477TIP3   OH252845   0.061   0.903   0.221  0.5160  0.0178 -0.5094
10477TIP3    H152846   0.129   0.873   0.161  0.2733 -0.9399 -0.3191
10477TIP3    H252847   0.064   0.999   0.215  0.5304 -0.0504 -2.0179
10478TIP3   OH252848   3.583   1.904  14.220 -0.0721 -0.6805 -0.3290
10478TIP3    H152849   3.529   1.829  14.243  0.6519 -0.8558  0.9230
10478TIP3    H252850   3.555   1.973  14.280 -1.5843  0.4965 -2.2648
10479TIP3   OH252851   2.402   5.721   4.498  0.0052 -0.4810 -0.1297
10479TIP3    H152852   2.370   5.770   4.422  0.2999 -0.2268 -0.0907
10479TIP3    H252853   2.323   5.705   4.550  0.0594  1.0390  0.4849
10480TIP3   OH252854   1.492   0.102   5.457 -0.0677  0.6184 -0.4016
10480TIP3    H152855   1.547   0.148   5.520  0.7248  0.5193 -1.0072
10480TIP3    H252856   1.408   0.148   5.460  0.3897  1.4508 -0.2539
10481TIP3   OH252857   3.891   6.504  11.265 -0.2803 -0.0693 -0.7568
10481TIP3    H152858   3.975   6.545  11.242  0.3236 -1.4347 -1.0664
10481TIP3    H252859   3.833   6.578  11.284  0.9217  0.9107 -0.7670
10482TIP3   OH252860   4.115   2.449  14.464  0.2409  0.4703 -0.3419
10482TIP3    H152861   4.181   2.415  14.525  0.5242 -0.8658 -1.3378
10482TIP3    H252862   4.166   2.498  14.399  0.2336 -0.2229 -0.8862
10483TIP3   OH252863   0.899   1.603   4.427  0.2135  0.6645  0.1618
10483TIP3    H152864   0.877   1.649   4.347 -2.9177 -0.0442  0.4956
10483TIP3    H252865   0.964   1.537   4.401  0.1887  1.2649 -1.4821
10484TIP3   OH252866   2.205   1.514   0.577  0.1311  0.0588  0.3473
10484TIP3    H152867   2.172   1.488   0.491 -2.3298  0.7466  1.0007
10484TIP3    H252868   2.212   1.610   0.572 -0.7142  0.1735  1.0943
10485TIP3   OH252869   2.681   4.323   5.868 -0.3121 -0.4885 -0.6427
10485TIP3    H152870   2.753   4.380   5.895 -1.7994  1.3623 -0.3919
10485TIP3    H252871   2.648   4.286   5.950 -0.7264  0.0405 -0.5629
10486TIP3   OH252872   6.621   2.779   4.110 -0.0956  0.4030  0.2622
10486TIP3    H152873   6.653   2.765   4.021  1.5013 -1.3909  1.0704
10486TIP3    H252874   6.598   2.873   4.112  0.5718  0.6642 -1.7744
10487TIP3   OH252875   2.567   6.618  13.213  0.4623 -0.7055 -0.0549
10487TIP3    H152876   2.481   6.609  13.173  0.6339 -0.6217 -0.4485
10487TIP3    H252877   2.577   6.539  13.266 -0.5864  0.1101  1.4232
10488TIP3   OH252878   3.640   2.674   1.022 -0.1823 -0.2061  0.1279
10488TIP3    H152879   3.709   2.659   1.086 -0.8803  0.5753  1.0978
10488TIP3    H252880   3.603   2.587   1.005 -0.9407 -0.2828  1.9121
10489TIP3   OH252881   3.837   2.969  13.233 -0.0915  0.0330  0.7436
10489TIP3    H152882   3.760   2.922  13.202  0.6353 -0.7777  0.1001
10489TIP3    H252883   3.817   3.061  13.219 -0.9953 -0.1650  0.7213
10490TIP3   OH252884   4.094   5.607  11.993  0.0083 -0.6928 -0.0562
10490TIP3    H152885   4.172   5.596  12.047  0.8271 -0.8175 -1.2332
10490TIP3    H252886   4.090   5.701  11.976 -0.8986 -0.4890  1.1205
10491TIP3   OH252887   6.340   5.502  15.293  0.2194  0.0596 -0.0790
10491TIP3    H152888   6.348   5.444  15.217  1.5728  0.9680 -0.6690
10491TIP3    H252889   6.286   5.453  15.355 -0.4472 -0.9389 -1.3956
10492TIP3   OH252890   6.124   4.673   6.502  0.2966 -0.4147 -0.1887
10492TIP3    H152891   6.047   4.669   6.445 -0.0569 -0.5201  0.2852
10492TIP3    H252892   6.198   4.653   6.445 -0.1917 -1.9033 -0.3359
10493TIP3   OH252893   3.442   6.308   1.993  0.3572 -0.2038  0.4223
10493TIP3    H152894   3.470   6.392   2.029  0.7906  1.2027 -2.8494
10493TIP3    H252895   3.523   6.256   1.990  0.6911  0.3281 -0.1417
10494TIP3   OH252896   5.953   4.080   3.457  0.1865  0.5981  0.2981
10494TIP3    H152897   5.879   4.024   3.479 -0.5688  1.3059 -0.3792
10494TIP3    H252898   6.000   4.090   3.539  0.6189 -1.3905  0.3463
10495TIP3   OH252899   5.194   5.159   5.570 -1.0623  0.3163  0.1793
10495TIP3    H152900   5.274   5.115   5.599 -0.0696  2.1003  0.3362
10495TIP3    H252901   5.212   5.185   5.480 -2.0354 -0.4778 -0.2626
10496TIP3   OH252902   4.474   4.989  13.973  0.0272  0.0810  0.3042
10496TIP3    H152903   4.391   4.975  13.928  0.2736  1.3392 -0.5805
10496TIP3    H252904   4.536   5.009  13.904  0.4580  1.8657  1.1520
10497TIP3   OH252905   6.584   0.816  13.569 -0.7262  0.1678  0.1205
10497TIP3    H152906   6.629   0.874  13.630  1.1710 -2.3161  1.2915
10497TIP3    H252907   6.547   0.874  13.503  1.5680  2.6487  0.8171
10498TIP3   OH252908   4.236   2.598   1.012 -0.3796  0.0359 -0.0794
10498TIP3    H152909   4.168   2.658   1.039  0.6452  0.8172  0.8651
10498TIP3    H252910   4.245   2.536   1.085  1.4903  1.3563  0.8989
10499TIP3   OH252911   3.798   5.747   0.471 -0.0340  0.0920  0.0445
10499TIP3    H152912   3.892   5.726   0.476  0.3928  1.9655  0.8366
10499TIP3    H252913   3.796   5.842   0.460 -1.8701  0.3233  1.8555
10500TIP3   OH252914   3.468   6.449   3.191 -0.3248 -0.1447 -0.0630
10500TIP3    H152915   3.431   6.448   3.103 -2.9007 -0.0344  0.9302
10500TIP3    H252916   3.467   6.542   3.216 -2.1486 -0.3920  0.9891
10501TIP3   OH252917   0.921   4.373   0.429  0.6436 -0.5778 -0.4976
10501TIP3    H152918   0.895   4.297   0.376 -1.7446  1.0506 -1.8623
10501TIP3    H252919   0.840   4.423   0.441  1.3737 -0.0249  3.5076
10502TIP3   OH252920   3.654   1.445   3.260 -0.6634  0.6831 -0.0839
10502TIP3    H152921   3.736   1.438   3.310 -0.2507 -1.5228 -0.9280
10502TIP3    H252922   3.637   1.539   3.254  1.4957  1.1731  0.6223
10503TIP3   OH252923   3.005   0.817   3.534  0.4272  0.5649 -0.4135
10503TIP3    H152924   2.933   0.795   3.594 -0.1902  2.2272 -0.5071
10503TIP3    H252925   3.010   0.741   3.475 -1.2089  0.3800 -0.3578
10504TIP3   OH252926   6.229   6.032   4.675 -0.1941  0.0555  0.5344
10504TIP3    H152927   6.324   6.029   4.686 -0.4458 -0.0523  3.4775
10504TIP3    H252928   6.209   5.960   4.615  1.3756 -1.8353  2.1653
10505TIP3   OH252929   0.566   6.562   4.334 -0.0100 -0.2362 -0.4162
10505TIP3    H152930   0.588   6.652   4.308  1.0429 -0.4066 -0.1902
10505TIP3    H252931   0.471   6.563   4.345  0.1597  1.4233  1.6175
10506TIP3   OH252932   1.502   0.024  10.819  0.9356  0.1352 -0.6262
10506TIP3    H152933   1.436   0.074  10.770  2.5187  0.6270 -2.3992
10506TIP3    H252934   1.575   0.016  10.758  1.5283 -2.6755  0.3188
10507TIP3   OH252935   6.395   5.695  14.271  0.0613 -0.4147 -0.2202
10507TIP3    H152936   6.300   5.684  14.263  0.2435 -1.5581 -1.0131
10507TIP3    H252937   6.415   5.770  14.215 -0.3351 -0.3254 -0.2481
10508TIP3   OH252938   6.548   1.501  11.216 -0.4489 -0.0968  0.2289
10508TIP3    H152939   6.569   1.532  11.304 -1.2254 -0.2053  0.4599
10508TIP3    H252940   6.630   1.466  11.182 -0.1813 -0.1851  0.9601
10509TIP3   OH252941   1.241   1.262  14.760  0.2998 -0.2678  0.1234
10509TIP3    H152942   1.214   1.195  14.697 -0.7112 -2.4192  2.6496
10509TIP3    H252943   1.323   1.227  14.797 -0.3750 -0.2880  1.6491
10510TIP3   OH252944   4.052   6.136  11.853  0.0596  0.2433  0.1194
10510TIP3    H152945   4.043   6.214  11.797 -0.1321 -0.3157 -0.6433
10510TIP3    H252946   3.986   6.075  11.820  0.3821 -0.3489  0.5462
10511TIP3   OH252947   3.000   1.547   1.480  0.0151  0.3288  0.1168
10511TIP3    H152948   2.965   1.596   1.554 -1.6532 -0.2632 -0.2357
10511TIP3    H252949   2.938   1.564   1.409 -0.5466 -2.1060 -0.0562
10512TIP3   OH252950   0.089   1.472   4.897  0.0708  0.1705 -0.1002
10512TIP3    H152951   0.181   1.456   4.918  0.0564  0.4776  0.2186
10512TIP3    H252952   0.050   1.384   4.891  0.6024  0.0091 -1.2885
10513TIP3   OH252953   1.440   2.336  13.868  0.0948 -0.4206  0.7446
10513TIP3    H152954   1.414   2.246  13.890  0.6261 -0.5165  0.9822
10513TIP3    H252955   1.456   2.377  13.953 -1.7450  0.3995  0.7499
10514TIP3   OH252956   4.948   4.994   2.539  0.2143  0.0638  0.5732
10514TIP3    H152957   4.902   4.917   2.573 -0.7354  0.4242  0.1409
10514TIP3    H252958   5.038   4.984   2.571 -0.1716 -0.6171  1.5041
10515TIP3   OH252959   3.750   2.437   4.497  0.3155 -0.5992  0.1954
10515TIP3    H152960   3.728   2.393   4.414  3.7835 -2.6868  0.2219
10515TIP3    H252961   3.686   2.402   4.560 -0.2935 -1.5478 -0.9005
10516TIP3   OH252962   1.383   4.185  14.766  0.5041 -0.6054 -0.1406
10516TIP3    H152963   1.445   4.252  14.796  0.1564  0.1357 -1.0220
10516TIP3    H252964   1.439   4.112  14.740  0.8297 -1.1346  1.9079
10517TIP3   OH252965   1.117   4.141   4.633  0.1659  0.0464 -0.0963
10517TIP3    H152966   1.072   4.209   4.683  0.4981  0.5261 -0.4497
10517TIP3    H252967   1.198   4.182   4.603 -0.7427  0.2735 -2.3900
10518TIP3   OH252968   0.411   1.231   5.614  0.2191 -0.0096 -0.0844
10518TIP3    H152969   0.505   1.223   5.626  0.0888 -1.3002  0.1761
10518TIP3    H252970   0.395   1.201   5.525  0.0621  0.3728 -0.1904
10519TIP3   OH252971   0.904   2.010   1.153  0.3855  0.1227 -0.2970
10519TIP3    H152972   0.929   1.919   1.140  1.4420  0.3338  0.1161
10519TIP3    H252973   0.968   2.060   1.101 -0.0356  0.6386 -0.3309
10520TIP3   OH252974   2.318   3.715  10.598 -0.0001 -0.5365  0.5758
10520TIP3    H152975   2.353   3.629  10.576  0.4328 -0.4631  0.9523
10520TIP3    H252976   2.226   3.712  10.572 -0.3057 -1.5404  1.6948
10521TIP3   OH252977   4.784   5.395  16.406 -0.1823 -0.1054 -0.2537
10521TIP3    H152978   4.781   5.341  16.327  0.0101  0.0325 -0.3553
10521TIP3    H252979   4.731   5.347  16.470 -0.3196 -0.2291 -0.4585
10522TIP3   OH252980   0.842   2.329   4.274  0.0218  0.4181 -0.7545
10522TIP3    H152981   0.885   2.415   4.269 -1.0349  0.9313 -1.2694
10522TIP3    H252982   0.838   2.300   4.183  0.3375 -0.1637 -0.5827
10523TIP3   OH252983   5.853   2.807  15.378 -0.8352 -0.4197  0.1234
10523TIP3    H152984   5.785   2.862  15.418 -1.2948  0.8634 -2.2691
10523TIP3    H252985   5.874   2.851  15.296  1.1015 -2.1720 -0.3898
10524TIP3   OH252986   0.779   2.563  13.254  0.3074  0.3933 -0.5122
10524TIP3    H152987   0.707   2.620  13.280  0.8241  0.6893  0.2906
10524TIP3    H252988   0.840   2.567  13.327 -0.8711 -3.3864  0.9020
10525TIP3   OH252989   2.684   3.276   4.270 -0.6373 -0.6323  0.2441
10525TIP3    H152990   2.755   3.338   4.286  2.2564 -2.5972 -3.3225
10525TIP3    H252991   2.619   3.325   4.220  0.7992 -0.0259 -1.0773
10526TIP3   OH252992   4.161   0.436  14.085 -0.4374  0.3865  0.4031
10526TIP3    H152993   4.093   0.376  14.114 -2.2553  2.1132 -0.0513
10526TIP3    H252994   4.144   0.517  14.132  0.5118  1.2670 -0.6911
10527TIP3   OH252995   1.398   6.334  14.957  0.1745  0.0693 -0.0837
10527TIP3    H152996   1.395   6.242  14.930  0.5259  0.4566 -1.4854
10527TIP3    H252997   1.384   6.384  14.877 -0.3544  1.2563  0.7145
10528TIP3   OH252998   1.354   0.749   0.516 -0.0910 -0.4440  0.4336
10528TIP3    H152999   1.413   0.694   0.568 -0.0740 -1.3672 -0.5181
10528TIP3    H253000   1.411   0.819   0.482  0.1112 -0.4176  0.8236
10529TIP3   OH253001   4.022   2.036  11.103  0.1315 -0.7295  0.2887
10529TIP3    H153002   3.990   2.051  11.192 -1.4197 -2.7395  0.1546
10529TIP3    H253003   4.062   1.949  11.107 -1.4564 -1.5796 -1.3051
10530TIP3   OH253004   5.761   5.193  15.398 -0.2750 -0.1049  0.2443
10530TIP3    H153005   5.688   5.251  15.420  0.6021  0.2694  2.5016
10530TIP3    H253006   5.815   5.245  15.338 -1.0152  0.2527 -0.1252
10531TIP3   OH253007   0.263   3.105   2.062 -1.1268 -0.0671  0.0276
10531TIP3    H153008   0.350   3.073   2.040 -1.3225 -1.6804  1.4003
10531TIP3    H253009   0.209   3.026   2.068 -1.9652  0.5991  2.2245
10532TIP3   OH253010   5.766   5.085  11.077 -0.0789 -0.4366 -0.0784
10532TIP3    H153011   5.721   5.139  11.012 -0.6043 -0.4022  0.3016
10532TIP3    H253012   5.766   4.997  11.039  0.6793 -0.1995 -0.6500
10533TIP3   OH253013   2.078   2.488  16.667  0.2304 -0.2124  0.5458
10533TIP3    H153014   2.152   2.462  16.613  0.5046 -0.8583  1.2116
10533TIP3    H253015   2.002   2.480  16.610  0.5287 -0.7725  0.2225
10534TIP3   OH253016   1.852   5.554   4.267 -0.4346  0.4563 -0.4736
10534TIP3    H153017   1.836   5.510   4.350  1.8817  0.2493 -0.0547
10534TIP3    H253018   1.887   5.486   4.210  0.1812  1.0673 -0.8463
10535TIP3   OH253019   1.671   6.168  14.240  0.3800 -0.7303 -0.3185
10535TIP3    H153020   1.649   6.224  14.315 -1.3861 -1.6326 -0.1255
10535TIP3    H253021   1.736   6.219  14.191  1.1919  0.1092  1.5189
10536TIP3   OH253022   5.694   3.799   0.174  1.1159 -0.3161  0.4724
10536TIP3    H153023   5.641   3.747   0.234 -0.2398 -0.4922 -0.8023
10536TIP3    H253024   5.727   3.735   0.111  2.0160 -0.0516  0.6667
10537TIP3   OH253025   3.588   2.073  11.402  0.0746  0.4849 -0.0499
10537TIP3    H153026   3.566   2.165  11.389  1.0412  0.6113 -0.8888
10537TIP3    H253027   3.591   2.036  11.314  0.4221 -0.1794  0.2362
10538TIP3   OH253028   0.749   1.186   1.186  0.0856 -0.3927  0.1330
10538TIP3    H153029   0.756   1.096   1.217 -0.7211 -0.3127  0.5749
10538TIP3    H253030   0.676   1.185   1.125 -1.2237  0.3349  1.6206
10539TIP3   OH253031   1.934   2.711   5.255  0.0162  0.0928 -0.1427
10539TIP3    H153032   2.020   2.674   5.274  0.4879  0.5667 -1.2594
10539TIP3    H253033   1.889   2.713   5.340  0.2875 -2.1677  0.1173
10540TIP3   OH253034   4.586   2.336   3.678  0.2177  0.3737 -0.2661
10540TIP3    H153035   4.544   2.286   3.748  0.2662  1.7349  0.7771
10540TIP3    H253036   4.565   2.288   3.598  0.5950 -1.5165  0.7154
10541TIP3   OH253037   4.818   5.643  14.810  0.5583 -0.3856  0.1781
10541TIP3    H153038   4.736   5.629  14.762 -0.6294 -1.4023  2.3524
10541TIP3    H253039   4.802   5.722  14.861  0.7605 -0.8424  0.9555
10542TIP3   OH253040   6.447   5.199   2.023 -0.8356  0.4863 -0.1751
10542TIP3    H153041   6.467   5.212   2.116  0.1619 -0.1075 -0.2950
10542TIP3    H253042   6.360   5.237   2.012 -2.0821 -1.6445  1.5464
10543TIP3   OH253043   3.461   1.256   3.370 -0.3407 -0.0182 -0.1658
10543TIP3    H153044   3.489   1.206   3.293 -0.5794 -0.3559 -0.0325
10543TIP3    H253045   3.511   1.338   3.364  2.6109 -1.5388  1.3659
10544TIP3   OH253046   3.984   0.685  13.547  0.0866  0.3474 -0.2486
10544TIP3    H153047   4.041   0.757  13.574  1.0794 -0.6973  0.5770
10544TIP3    H253048   3.901   0.702  13.590 -0.5958  2.3872 -2.1791
10545TIP3   OH253049   4.222   5.264   4.785 -0.3053 -0.3195 -0.6721
10545TIP3    H153050   4.201   5.356   4.804 -0.6509 -0.3534 -0.8906
10545TIP3    H253051   4.248   5.228   4.869 -1.6717 -0.4264 -0.2769
10546TIP3   OH253052   1.820   3.410   5.807  0.1794  0.5757 -0.7797
10546TIP3    H153053   1.786   3.446   5.888 -0.2150  1.8589 -1.4925
10546TIP3    H253054   1.906   3.376   5.830 -1.2948 -2.4694  1.0083
10547TIP3   OH253055   4.426   0.424   5.384 -0.2112  0.6439  0.1701
10547TIP3    H153056   4.484   0.350   5.367 -0.3234  0.5215  0.3240
10547TIP3    H253057   4.455   0.459   5.468  1.3731  2.2171 -0.9452
10548TIP3   OH253058   4.475   0.764  12.435  0.0429 -0.6229 -0.1101
10548TIP3    H153059   4.533   0.718  12.496 -1.5336  1.5786  3.3696
10548TIP3    H253060   4.533   0.798  12.367  2.5093 -0.4903  1.9179
10549TIP3   OH253061   5.119   6.245   2.273 -0.0673 -0.1388 -0.0309
10549TIP3    H153062   5.113   6.152   2.293 -0.5135 -0.2542 -0.6688
10549TIP3    H253063   5.165   6.283   2.348  0.8948 -0.9962 -0.1777
10550TIP3   OH253064   4.032   1.162   5.074  0.3358  0.2895  0.1205
10550TIP3    H153065   4.085   1.229   5.116  0.7584  0.1080 -0.1235
10550TIP3    H253066   4.054   1.167   4.981  0.7844 -0.5507  0.1739
10551TIP3   OH253067   3.720   2.775  11.917  0.5279 -0.0078 -0.3199
10551TIP3    H153068   3.799   2.795  11.866  1.8947  1.0931  2.0589
10551TIP3    H253069   3.740   2.807  12.005 -3.0775  1.4550  0.1170
10552TIP3   OH253070   2.058   3.805  15.593 -0.2031  0.2540 -0.2689
10552TIP3    H153071   2.095   3.828  15.508  1.4058 -0.5223  0.1836
10552TIP3    H253072   2.052   3.709  15.592  2.0049  0.0025  1.2698
10553TIP3   OH253073   1.012   4.626   3.148  0.2090  0.5466 -0.2018
10553TIP3    H153074   1.005   4.579   3.231 -0.8459  0.9251 -0.0595
10553TIP3    H253075   1.076   4.695   3.165  1.3468 -0.4622 -0.2510
10554TIP3   OH253076   5.830   0.586   5.259 -0.1114  0.3570  0.3326
10554TIP3    H153077   5.737   0.576   5.278  0.0847 -1.3713  0.5784
10554TIP3    H253078   5.838   0.562   5.167  0.3157 -1.4269  0.7962
10555TIP3   OH253079   1.209   2.036   2.121  0.1302 -0.5348 -0.0927
10555TIP3    H153080   1.162   1.955   2.101  1.0657 -1.5372  1.5878
10555TIP3    H253081   1.174   2.099   2.058 -4.1877 -0.8916  1.6201
10556TIP3   OH253082   4.098   3.907   0.822 -0.2066 -0.0553  0.2141
10556TIP3    H153083   4.036   3.977   0.840 -1.1101 -1.1864  1.7134
10556TIP3    H253084   4.183   3.950   0.821 -0.9024  1.4054 -1.1682
10557TIP3   OH253085   5.247   2.658   2.162 -0.6334 -0.1287 -0.4516
10557TIP3    H153086   5.245   2.625   2.072 -1.7888  0.5235 -0.6859
10557TIP3    H253087   5.205   2.744   2.158 -0.2209  0.1449  0.6269
10558TIP3   OH253088   5.503   2.909  14.042 -0.2199  0.1611 -0.2185
10558TIP3    H153089   5.552   2.978  14.088 -1.4552  1.0925 -0.2461
10558TIP3    H253090   5.552   2.896  13.960  0.5893  0.2759  0.2324
10559TIP3   OH253091   0.843   4.637  13.949 -0.1702 -0.0868 -0.3678
10559TIP3    H153092   0.889   4.596  14.023  2.1761  0.0250 -1.6727
10559TIP3    H253093   0.825   4.564  13.890 -0.6271  0.0478 -0.3941
10560TIP3   OH253094   5.399   0.906  16.723 -0.4922  0.0716  0.2756
10560TIP3    H153095   5.370   0.877  16.637 -1.2258 -0.9762  0.8579
10560TIP3    H253096   5.472   0.965  16.705 -2.0200  1.6351 -1.1797
10561TIP3   OH253097   3.456   2.535  16.630  0.4307  0.4897  0.8048
10561TIP3    H153098   3.541   2.507  16.597  0.0973 -0.0983  0.4107
10561TIP3    H253099   3.393   2.489  16.574 -0.1571  2.0656  0.1062
10562TIP3   OH253100   4.301   2.774  11.120  0.6704  0.3259  0.3843
10562TIP3    H153101   4.359   2.846  11.144  1.2270  0.4135 -1.0932
10562TIP3    H253102   4.251   2.807  11.045 -1.0901  0.1339  1.3975
10563TIP3   OH253103   4.728   3.043  16.876 -0.0956  0.0712  0.5362
10563TIP3    H153104   4.660   3.080  16.932 -0.7365  1.0544 -0.8219
10563TIP3    H253105   4.717   3.089  16.792  1.3595 -0.7422 -0.1347
10564TIP3   OH253106   3.476   1.237   0.011 -0.4579 -0.4287  0.1550
10564TIP3    H153107   3.572   1.247   0.012 -0.5155  0.7221 -1.3437
10564TIP3    H253108   3.461   1.154  -0.033 -0.1417 -0.9538  1.0233
10565TIP3   OH253109   2.204   3.541  11.727 -0.0271  0.0325  0.0593
10565TIP3    H153110   2.155   3.473  11.774  1.1630 -0.3695  0.7569
10565TIP3    H253111   2.219   3.609  11.793 -0.2586  0.4897 -0.3488
10566TIP3   OH253112   4.865   3.608   1.883 -0.4987 -0.2468  0.0684
10566TIP3    H153113   4.922   3.569   1.949  0.3060 -0.0954 -0.5243
10566TIP3    H253114   4.825   3.532   1.839 -1.2297 -0.3439  0.8773
10567TIP3   OH253115   4.774   5.788   5.754 -0.3673  0.5771  0.3155
10567TIP3    H153116   4.813   5.874   5.738 -2.2028  1.5898  1.0024
10567TIP3    H253117   4.684   5.796   5.722 -0.6623 -1.0013  0.6539
10568TIP3   OH253118   1.671   4.069   5.489  0.0065 -0.1786  0.3705
10568TIP3    H153119   1.734   4.042   5.557 -1.0314  0.5151  1.6509
10568TIP3    H253120   1.670   4.164   5.495 -1.2610 -0.1865  0.4682
10569TIP3   OH253121   5.142   3.949  12.406  0.8350 -0.2766 -0.1498
10569TIP3    H153122   5.123   3.910  12.321  0.4008 -0.0590 -0.1563
10569TIP3    H253123   5.220   4.004  12.390  0.7084 -0.1757 -0.4235
10570TIP3   OH253124   1.903   1.666   0.550 -0.0870  0.1405 -0.0757
10570TIP3    H153125   1.985   1.713   0.564 -1.7445  3.4407 -0.3849
10570TIP3    H253126   1.853   1.680   0.631 -0.2684 -2.1745  0.2854
10571TIP3   OH253127   5.679   0.192   0.642 -0.0318 -0.3448  0.2582
10571TIP3    H153128   5.767   0.186   0.678 -0.0900 -3.5802  0.1512
10571TIP3    H253129   5.687   0.161   0.552 -1.2125 -0.4279  0.1582
10572TIP3   OH253130   5.660   3.793  16.777 -0.4329  0.3935  0.3942
10572TIP3    H153131   5.646   3.824  16.688 -0.2644  2.0106  0.9104
10572TIP3    H253132   5.683   3.700  16.767  0.3331  0.7400 -1.2882
10573TIP3   OH253133   3.513   5.465   5.307  0.1901  0.3107 -0.0219
10573TIP3    H153134   3.560   5.448   5.389  0.0245  0.3536  0.0839
10573TIP3    H253135   3.502   5.560   5.305 -0.6590  0.2328  0.3923
10574TIP3   OH253136   6.454   4.371  16.549 -0.1138 -0.7080  0.0681
10574TIP3    H153137   6.377   4.423  16.523  0.3106  0.5365  1.1931
10574TIP3    H253138   6.522   4.397  16.486  0.2293  0.5000  0.9004
10575TIP3   OH253139   2.980   4.219   0.677 -0.0505 -0.1531 -0.3007
10575TIP3    H153140   3.058   4.165   0.666 -0.0992 -0.0492 -1.2610
10575TIP3    H253141   3.005   4.285   0.741 -0.6681 -2.5454  2.5779
10576TIP3   OH253142   2.018   5.469  13.475 -0.0317 -0.0864  0.3520
10576TIP3    H153143   2.066   5.474  13.557 -0.3156 -1.1981  0.6031
10576TIP3    H253144   2.032   5.380  13.444 -0.6771  0.0379 -0.3372
10577TIP3   OH253145   1.721   5.416  11.952 -0.2045  0.0385  0.3443
10577TIP3    H153146   1.799   5.366  11.926 -0.3486  1.0134 -2.3320
10577TIP3    H253147   1.754   5.480  12.015  1.2990  0.6561 -0.9873
10578TIP3   OH253148   2.473   5.180  11.937  0.1524 -0.0640 -0.1218
10578TIP3    H153149   2.426   5.130  12.003  0.1870  1.0608  0.7942
10578TIP3    H253150   2.405   5.226  11.888  0.0667 -1.5103 -1.4441
10579TIP3   OH253151   0.899   1.338  16.537  0.8657  0.1062  0.1394
10579TIP3    H153152   0.880   1.427  16.510 -0.9732  0.0649  1.1308
10579TIP3    H253153   0.962   1.347  16.608 -0.7806  0.7920  1.5721
10580TIP3   OH253154   4.563   0.183   5.371 -0.4230 -0.1629 -0.4077
10580TIP3    H153155   4.592   0.095   5.346  3.7029  1.0388 -0.4660
10580TIP3    H253156   4.598   0.196   5.459 -0.9441  1.4363 -0.4012
10581TIP3   OH253157   5.179   5.689  11.961  0.3974  0.1356 -0.3256
10581TIP3    H153158   5.152   5.728  12.044 -0.6658  1.6905 -1.3422
10581TIP3    H253159   5.266   5.726  11.944 -0.2691  1.5425 -0.8892
10582TIP3   OH253160   4.612   0.383   1.661  0.1436 -0.0458 -0.2238
10582TIP3    H153161   4.672   0.342   1.599 -0.9481 -0.0056 -1.3522
10582TIP3    H253162   4.609   0.322   1.735 -0.8892 -1.7141 -1.5495
10583TIP3   OH253163   0.429   0.537   3.154 -0.1819 -0.3164  0.2574
10583TIP3    H153164   0.437   0.523   3.060 -2.2637  0.5350 -0.1008
10583TIP3    H253165   0.335   0.550   3.168  0.1009 -0.2920  2.4375
10584TIP3   OH253166   2.731   3.253  11.332  0.2177 -0.2254  0.1907
10584TIP3    H153167   2.737   3.158  11.330 -0.0443 -0.2660  0.9315
10584TIP3    H253168   2.709   3.274  11.423  1.4737  0.6102  0.3222
10585TIP3   OH253169   2.660   1.130  11.474 -0.2058  0.0157 -0.0756
10585TIP3    H153170   2.652   1.037  11.492 -2.8957 -0.1557 -1.6602
10585TIP3    H253171   2.593   1.171  11.529  1.8668  1.2817  1.6923
10586TIP3   OH253172   6.736   5.792  14.079 -0.3273 -0.0984 -0.8274
10586TIP3    H153173   6.761   5.860  14.016 -0.3114  1.9029  1.1819
10586TIP3    H253174   6.654   5.823  14.116  0.7659  0.0540  1.7047
10587TIP3   OH253175   4.095   0.421   3.812  0.4267 -0.0855  0.3511
10587TIP3    H153176   4.001   0.410   3.797  0.5727  0.5939 -1.3086
10587TIP3    H253177   4.104   0.513   3.837  0.6501 -0.1646  0.5611
10588TIP3   OH253178   4.321   1.626   3.554 -0.1055 -0.1694  0.5242
10588TIP3    H153179   4.379   1.551   3.568  0.5240  0.1592 -0.2188
10588TIP3    H253180   4.329   1.677   3.635  0.3868 -0.3022  0.5658
10589TIP3   OH253181   5.574   1.085   2.650 -0.3906  0.2413  0.2782
10589TIP3    H153182   5.505   1.026   2.680  0.4911  1.0894  4.4896
10589TIP3    H253183   5.526   1.159   2.610 -1.5379 -2.0241 -2.9780
10590TIP3   OH253184   4.966   1.343   2.364 -0.2715  0.0297  0.3307
10590TIP3    H153185   4.904   1.332   2.292  1.8764  1.5345 -1.9014
10590TIP3    H253186   5.007   1.428   2.348  3.4697 -1.5152  0.7281
10591TIP3   OH253187   4.488   0.803   2.003 -0.3427  0.5735  0.7435
10591TIP3    H153188   4.558   0.860   2.034  0.3736  0.7593 -1.0613
10591TIP3    H253189   4.455   0.760   2.081  1.3043  1.0215  1.7326
10592TIP3   OH253190   1.297   2.813   4.013  0.0069  0.1371 -0.3560
10592TIP3    H153191   1.360   2.743   4.032 -0.9858 -0.4234  1.0180
10592TIP3    H253192   1.298   2.820   3.918  1.6343 -0.3303 -0.4094
10593TIP3   OH253193   6.185   2.701   3.616  0.1024 -0.1747  0.2463
10593TIP3    H153194   6.118   2.684   3.550 -0.1785  0.2419  0.4163
10593TIP3    H253195   6.197   2.796   3.612 -0.8020  0.0314  1.6371
10594TIP3   OH253196   1.040   1.099  13.057 -0.2239 -0.3951  0.0284
10594TIP3    H153197   1.054   1.006  13.074  1.3907 -0.4329 -1.3014
10594TIP3    H253198   1.057   1.141  13.141  0.9597 -1.1499  0.1960
10595TIP3   OH253199   0.967   2.782  14.004 -0.4572 -0.0323 -0.4361
10595TIP3    H153200   0.878   2.786  14.040 -0.0389  0.9243  0.5363
10595TIP3    H253201   1.015   2.726  14.065 -0.4692 -0.8640 -1.1709
10596TIP3   OH253202   3.956   2.801  16.273  0.0704 -0.4666 -0.3012
10596TIP3    H153203   3.934   2.894  16.271 -0.5955 -0.6382 -1.0516
10596TIP3    H253204   3.885   2.760  16.322  1.0220 -0.4289  1.2013
10597TIP3   OH253205   5.178   1.946  14.129  0.1793  0.4125 -0.1386
10597TIP3    H153206   5.227   2.017  14.169  0.2603  0.3025 -0.0427
10597TIP3    H253207   5.152   1.980  14.043  0.8758  0.2779 -0.4070
10598TIP3   OH253208   3.820   0.487   0.747  0.0022 -0.5165  0.5523
10598TIP3    H153209   3.847   0.494   0.656  3.2499 -0.0841  1.4167
10598TIP3    H253210   3.824   0.577   0.780 -0.8889 -0.6986  1.1711
10599TIP3   OH253211   1.360   4.751  15.377 -0.0907  0.5101 -0.3628
10599TIP3    H153212   1.390   4.691  15.446 -0.2736 -1.6126 -2.0380
10599TIP3    H253213   1.264   4.747  15.383 -0.1818 -1.5664 -2.1799
10600TIP3   OH253214   4.453   1.265  12.661 -0.6817  0.1522  0.4019
10600TIP3    H153215   4.375   1.261  12.606 -0.2337  2.4606 -0.5350
10600TIP3    H253216   4.526   1.266  12.599 -0.1170  1.8925  1.0350
10601TIP3   OH253217   4.178   2.659   5.929  0.1724 -0.3027  0.5065
10601TIP3    H153218   4.236   2.625   5.861  1.0471 -0.8582  1.4980
10601TIP3    H253219   4.090   2.649   5.893  0.5424 -1.6408 -0.0947
10602TIP3   OH253220   0.285   0.498  14.136 -0.3406 -0.0255  0.0499
10602TIP3    H153221   0.326   0.566  14.083  1.6143 -1.3802 -0.3201
10602TIP3    H253222   0.309   0.521  14.226  0.1415 -0.0963 -0.0557
10603TIP3   OH253223   4.567   1.241  17.133  0.2945 -0.0433  0.2903
10603TIP3    H153224   4.537   1.262  17.221  1.4491 -0.1113  0.7123
10603TIP3    H253225   4.656   1.275  17.129  0.4358 -0.4892 -0.6846
10604TIP3   OH253226   3.083   5.053  14.575 -0.0598 -0.0686  0.1652
10604TIP3    H153227   3.064   4.998  14.651  0.4441 -0.2608  0.1577
10604TIP3    H253228   3.110   4.991  14.507 -0.1918  0.1301 -0.0732
10605TIP3   OH253229   0.210   0.859   2.423  0.1544  0.0325 -0.0485
10605TIP3    H153230   0.149   0.790   2.396  0.2965 -0.3188  0.5009
10605TIP3    H253231   0.163   0.906   2.492  0.9261 -0.9678  1.2065
10606TIP3   OH253232   2.876   3.645  13.158  0.2628 -0.0187 -0.3129
10606TIP3    H153233   2.790   3.644  13.117  0.2393  1.2919 -0.3426
10606TIP3    H253234   2.932   3.693  13.097  1.2590 -1.6123 -0.7181
10607TIP3   OH253235   0.015   6.381   5.349  0.1268 -0.1192  0.0352
10607TIP3    H153236  -0.016   6.449   5.409  1.2524 -0.3792  0.9390
10607TIP3    H253237  -0.018   6.409   5.263  0.2031  1.3477  0.4507
10608TIP3   OH253238   0.283   4.119   2.304 -0.3000  0.5821 -0.0160
10608TIP3    H153239   0.228   4.157   2.373  0.1046  2.5944 -0.7235
10608TIP3    H253240   0.226   4.113   2.228  0.2922  2.4212 -0.6744
10609TIP3   OH253241   3.413   0.124  12.533 -0.2080  0.0146  0.1343
10609TIP3    H153242   3.442   0.214  12.518 -0.9479  0.2694  0.1796
10609TIP3    H253243   3.429   0.079  12.450  0.5545  0.0784  0.2428
10610TIP3   OH253244   1.484   5.227  16.825  0.1305  0.0869 -0.1320
10610TIP3    H153245   1.448   5.314  16.807  1.3196  0.3698 -1.3320
10610TIP3    H253246   1.504   5.191  16.738 -0.6846 -1.5508  0.3183
10611TIP3   OH253247   3.446   0.663   0.768  0.1781 -0.5931  0.2975
10611TIP3    H153248   3.378   0.613   0.723 -1.9673  1.3193  1.2211
10611TIP3    H253249   3.473   0.607   0.841 -1.2652 -0.9712  0.5799
10612TIP3   OH253250   0.504   3.517  14.444  0.3338 -0.1722 -0.0693
10612TIP3    H153251   0.571   3.496  14.509 -0.3439 -1.1616  0.3146
10612TIP3    H253252   0.433   3.556  14.494 -0.2766 -1.1329 -0.1756
10613TIP3   OH253253   2.033   1.503   2.874 -0.1910 -0.4207 -0.2081
10613TIP3    H153254   1.970   1.479   2.806 -0.1990  0.2943 -0.4612
10613TIP3    H253255   2.055   1.421   2.917 -2.1308 -0.5498  0.6108
10614TIP3   OH253256   0.783   2.687  12.285 -0.4988  0.0561 -0.0075
10614TIP3    H153257   0.767   2.770  12.331  1.1789  1.1483 -1.2753
10614TIP3    H253258   0.862   2.703  12.233 -0.3114 -2.2588 -0.5399
10615TIP3   OH253259   4.685   2.987  12.349 -0.1294  0.3273 -0.2284
10615TIP3    H153260   4.732   2.903  12.349  2.7974  1.8197 -0.1110
10615TIP3    H253261   4.662   3.002  12.441 -1.4229 -0.6746 -0.3611
10616TIP3   OH253262   0.951   3.712  10.522  0.0051  0.7154  0.5447
10616TIP3    H153263   0.857   3.695  10.510  0.2039  0.1366 -0.2369
10616TIP3    H253264   0.961   3.718  10.617 -0.6178 -0.5231  0.7169
10617TIP3   OH253265   6.408   2.461  13.799 -0.3003 -0.1233  0.2298
10617TIP3    H153266   6.390   2.555  13.806  0.2641 -0.0941  1.7209
10617TIP3    H253267   6.502   2.457  13.782 -0.0856 -0.4093  1.3648
10618TIP3   OH253268   4.182   4.712   5.860 -0.1993 -0.1618  0.3871
10618TIP3    H153269   4.237   4.749   5.928 -0.2011 -0.8472  0.7750
10618TIP3    H253270   4.191   4.771   5.785  1.1179 -0.3121  0.4178
10619TIP3   OH253271   2.201   4.484   1.565  0.1252 -0.0590  0.4536
10619TIP3    H153272   2.220   4.495   1.658 -1.0348  0.6170  0.6296
10619TIP3    H253273   2.201   4.389   1.552  1.0504 -0.1428  0.9612
10620TIP3   OH253274   1.910   5.666  12.708  0.5043  0.3871 -0.1583
10620TIP3    H153275   1.859   5.667  12.627 -2.4409  1.3512  1.5599
10620TIP3    H253276   1.869   5.598  12.761  2.1961 -0.0186  0.6915
10621TIP3   OH253277   4.890   2.954   2.577  0.1898 -0.4454 -0.1558
10621TIP3    H153278   4.871   2.888   2.643 -0.6795 -0.1432 -0.0936
10621TIP3    H253279   4.804   2.983   2.547  0.5473  1.1647  0.3167
10622TIP3   OH253280   2.054   0.746  12.387  0.0097 -0.7387  0.3721
10622TIP3    H153281   2.108   0.705  12.320  0.3424 -0.7475  0.6424
10622TIP3    H253282   2.041   0.836  12.357 -1.7854 -1.3540 -0.8625
10623TIP3   OH253283   0.208   1.515  15.746 -0.6015 -0.0462  0.2823
10623TIP3    H153284   0.147   1.552  15.682  0.1668  1.0726  0.1787
10623TIP3    H253285   0.218   1.582  15.813  1.4165  0.3120 -0.3053
10624TIP3   OH253286   5.876   6.573  13.784 -0.3301  0.1273  0.4823
10624TIP3    H153287   5.903   6.627  13.859  1.5863  0.1046 -0.1518
10624TIP3    H253288   5.840   6.635  13.721  2.4854  0.8464 -0.5275
10625TIP3   OH253289   2.814   0.600  16.812 -0.5738  0.6859  0.5953
10625TIP3    H153290   2.783   0.665  16.749  0.5450  2.7419  2.0299
10625TIP3    H253291   2.902   0.579  16.783 -0.3513  1.0312  1.0117
10626TIP3   OH253292   4.481   4.142  11.056  0.0660 -0.3463 -0.0244
10626TIP3    H153293   4.505   4.137  10.964 -1.7635 -1.1459 -0.4906
10626TIP3    H253294   4.473   4.051  11.085 -0.4159 -0.1084  0.6258
10627TIP3   OH253295   0.118   5.376  12.140  0.2112 -0.3814  0.4221
10627TIP3    H153296   0.141   5.377  12.047  1.4799 -2.0329  0.6745
10627TIP3    H253297   0.200   5.398  12.185 -0.3606  0.2821  1.1694
10628TIP3   OH253298   0.118   4.038  14.104  0.1738  0.2788 -0.0219
10628TIP3    H153299   0.118   4.061  14.197  0.7347  0.0444  0.0359
10628TIP3    H253300   0.099   4.120  14.059 -0.3045  0.3531  0.3063
10629TIP3   OH253301   0.311   5.770   3.480  0.3765 -0.5823 -0.3751
10629TIP3    H153302   0.377   5.709   3.446  0.2761 -0.4483 -0.8058
10629TIP3    H253303   0.345   5.857   3.459  1.1556 -0.4144  1.3615
10630TIP3   OH253304   6.034   2.839   4.307  0.6012  0.4036  0.0185
10630TIP3    H153305   6.113   2.888   4.329 -0.4190  1.5379  1.3752
10630TIP3    H253306   6.018   2.783   4.383 -0.3240  0.7941  0.1330
10631TIP3   OH253307   5.163   2.939   2.578  0.6042  0.5809  0.5669
10631TIP3    H153308   5.068   2.932   2.577  0.5691  1.0518 -0.0818
10631TIP3    H253309   5.181   3.032   2.590  0.9930  0.4015  1.4295
10632TIP3   OH253310   2.274   5.410   1.620 -0.0982  0.5445 -0.6752
10632TIP3    H153311   2.322   5.379   1.543  1.3591 -0.7507  0.6886
10632TIP3    H253312   2.299   5.502   1.629  0.0506  0.5906 -1.5017
10633TIP3   OH253313   4.612   1.133   2.112 -0.1774 -0.3683  0.6527
10633TIP3    H153314   4.634   1.041   2.124 -1.1278 -0.4037  2.6501
10633TIP3    H253315   4.546   1.134   2.043 -0.9812 -1.3504  1.3710
10634TIP3   OH253316   2.551   6.686  14.505  0.1457  0.2286 -0.1382
10634TIP3    H153317   2.512   6.624  14.565 -0.2964 -0.3149 -0.9680
10634TIP3    H253318   2.607   6.742  14.560 -1.5442  0.8355  1.0286
10635TIP3   OH253319   1.557   1.151   5.210  0.3229 -0.4825  0.1906
10635TIP3    H153320   1.589   1.063   5.192 -1.0936 -1.3184  1.5294
10635TIP3    H253321   1.623   1.190   5.268  0.3958 -1.0996  0.5280
10636TIP3   OH253322   2.395   2.716   0.302 -0.3714 -0.1710 -0.1131
10636TIP3    H153323   2.314   2.682   0.338 -0.5996  1.0363  0.5713
10636TIP3    H253324   2.380   2.811   0.295 -0.3243 -0.2725 -3.3187
10637TIP3   OH253325   1.882   3.288   1.032 -0.3291 -0.0907  0.1357
10637TIP3    H153326   1.825   3.248   1.098  2.4112 -3.6083  0.6825
10637TIP3    H253327   1.954   3.326   1.083  1.6070 -2.4869 -0.5722
10638TIP3   OH253328   4.040   0.003  15.051  0.3232 -0.0594 -0.2352
10638TIP3    H153329   3.985   0.080  15.039  0.8178  0.1579 -1.1713
10638TIP3    H253330   4.112   0.033  15.106 -0.2077 -0.2130  0.5560
10639TIP3   OH253331   6.006   2.086  12.525  0.1072 -0.3631  0.3356
10639TIP3    H153332   5.992   2.147  12.453  0.4900 -0.4156  0.2153
10639TIP3    H253333   5.918   2.057  12.549 -0.0378 -0.1847  0.0304
10640TIP3   OH253334   3.549   6.764   6.291  0.1053 -0.4756 -0.1915
10640TIP3    H153335   3.637   6.801   6.290 -0.7678  1.7519 -1.2448
10640TIP3    H253336   3.503   6.812   6.360 -1.5089  1.8080 -2.6509
10641TIP3   OH253337   2.247   5.343  15.139  0.7697 -0.3524 -0.2295
10641TIP3    H153338   2.186   5.310  15.205  1.1293 -1.8757 -0.6128
10641TIP3    H253339   2.318   5.383  15.189  0.9017 -1.2352  0.3160
10642TIP3   OH253340   6.185   6.226  12.839  0.6525  0.2570 -0.1240
10642TIP3    H153341   6.195   6.172  12.917  0.2696 -0.1079 -0.3224
10642TIP3    H253342   6.143   6.306  12.871  0.3836  0.0578  0.0223
10643TIP3   OH253343   6.173   2.713  14.973  1.0271 -0.0967  0.0540
10643TIP3    H153344   6.178   2.753  14.887  0.4580 -0.5693 -0.2053
10643TIP3    H253345   6.097   2.754  15.015 -0.6621 -2.1289 -0.8798
10644TIP3   OH253346   5.441   4.652  15.811 -0.3382  0.0312 -0.0677
10644TIP3    H153347   5.424   4.726  15.753 -2.9461 -0.4149  0.0051
10644TIP3    H253348   5.448   4.577  15.752 -1.2141 -0.1500  0.0357
10645TIP3   OH253349   3.223   3.731  16.077 -0.3983 -0.5075  0.2145
10645TIP3    H153350   3.155   3.693  16.133 -1.0460 -0.2850 -0.4085
10645TIP3    H253351   3.300   3.735  16.133 -0.8500 -0.9292  0.8822
10646TIP3   OH253352   4.236   2.359   1.159 -0.0399  0.0469 -0.4038
10646TIP3    H153353   4.157   2.321   1.197  0.7964 -0.9039  0.4335
10646TIP3    H253354   4.306   2.297   1.181  1.4192  2.0903  1.1127
10647TIP3   OH253355   2.150   3.163  13.844  0.1770  0.5402 -0.3069
10647TIP3    H153356   2.208   3.207  13.782  0.0150 -0.0379 -0.8790
10647TIP3    H253357   2.163   3.210  13.927  1.7103  0.2181 -0.3311
10648TIP3   OH253358   6.439   0.499   0.448  0.1974  0.6127  0.0411
10648TIP3    H153359   6.468   0.425   0.501  1.4878  1.1834  0.1596
10648TIP3    H253360   6.513   0.560   0.449 -0.8015  1.8597 -0.1520
10649TIP3   OH253361   4.568   5.803  16.748  0.1334  0.2290  0.1134
10649TIP3    H153362   4.525   5.870  16.800 -1.3037 -0.1731 -0.5055
10649TIP3    H253363   4.499   5.767  16.693  1.2561 -0.5094 -0.8709
10650TIP3   OH253364   2.770   2.495   2.471 -0.0546 -0.3392  0.6183
10650TIP3    H153365   2.857   2.503   2.510 -0.1078 -0.2018  0.7085
10650TIP3    H253366   2.711   2.493   2.546 -0.4854  3.2927  0.5589
10651TIP3   OH253367   4.210   5.869   5.732 -0.3122 -0.2086  0.4954
10651TIP3    H153368   4.138   5.807   5.720 -0.4088 -1.0171  4.1108
10651TIP3    H253369   4.168   5.954   5.742 -1.1214 -0.8536  3.9989
10652TIP3   OH253370   0.302   0.200  11.535  0.4296 -0.3487 -0.2488
10652TIP3    H153371   0.207   0.191  11.525  0.4299 -0.4821 -0.1286
10652TIP3    H253372   0.312   0.269  11.601  0.4150 -0.4770 -0.1130
10653TIP3   OH253373   0.822   5.768   4.978  0.2796  0.2433  0.9789
10653TIP3    H153374   0.769   5.697   5.014  1.8053 -1.5017 -0.0411
10653TIP3    H253375   0.884   5.725   4.919 -0.6267  2.7139 -2.0372
10654TIP3   OH253376   1.740   2.407   3.646  0.1504 -0.4502  0.4361
10654TIP3    H153377   1.819   2.460   3.652 -0.2984  0.3684 -0.5257
10654TIP3    H253378   1.751   2.339   3.713  2.4243 -1.3849 -0.7756
10655TIP3   OH253379   6.778   0.442   3.460  0.2896 -0.3771  0.0086
10655TIP3    H153380   6.784   0.520   3.404 -2.2878 -0.2707 -0.2785
10655TIP3    H253381   6.741   0.375   3.402 -2.1215 -0.3550  1.3969
10656TIP3   OH253382   0.703   4.359  14.018 -0.1208 -0.0250  0.0096
10656TIP3    H153383   0.693   4.382  13.925  0.6701  0.1527 -0.0339
10656TIP3    H253384   0.704   4.263  14.019 -0.4601 -0.0323 -0.1254
10657TIP3   OH253385   1.921   6.002  13.725 -0.1192  0.0230  0.1301
10657TIP3    H153386   1.872   6.022  13.804  2.6635 -0.7133  2.2025
10657TIP3    H253387   1.903   5.909  13.709 -0.7138  0.1815 -0.1283
10658TIP3   OH253388   5.932   5.527   5.243  0.0923 -0.4445 -0.2242
10658TIP3    H153389   5.920   5.435   5.264 -1.2627 -0.6784 -1.8462
10658TIP3    H253390   5.891   5.538   5.157  1.5563  1.3502 -0.7606
10659TIP3   OH253391   0.149   0.866   5.136 -0.4847 -0.1042  0.1962
10659TIP3    H153392   0.128   0.839   5.226 -1.2023 -0.6604 -0.1251
10659TIP3    H253393   0.199   0.947   5.146 -0.8087 -0.0036  1.0915
10660TIP3   OH253394   0.994   5.638   3.808  0.2867 -0.2518 -0.3645
10660TIP3    H153395   0.977   5.559   3.858 -0.8423  0.0589 -0.2185
10660TIP3    H253396   1.016   5.704   3.874  1.8674 -0.5754 -0.5311
10661TIP3   OH253397   6.575   3.121  14.189 -0.4082  0.1350 -0.0732
10661TIP3    H153398   6.611   3.081  14.110  1.2026  0.3926  0.4888
10661TIP3    H253399   6.517   3.053  14.226 -2.4296  0.5707 -2.2191
10662TIP3   OH253400   4.678   5.505  10.644 -0.3554 -0.2231  0.3637
10662TIP3    H153401   4.768   5.530  10.665 -0.3230 -0.6607  0.7676
10662TIP3    H253402   4.648   5.457  10.721 -0.6897 -0.7026 -0.0606
10663TIP3   OH253403   2.071   4.280  12.253  0.1846  0.4477 -0.3540
10663TIP3    H153404   2.053   4.188  12.231  0.4791 -0.4777  2.7958
10663TIP3    H253405   2.145   4.276  12.314  0.1998  2.7966 -0.1352
10664TIP3   OH253406   3.711   1.805   3.930 -0.6991 -0.1613  0.0182
10664TIP3    H153407   3.638   1.796   3.869 -0.0034 -1.6919 -0.6323
10664TIP3    H253408   3.684   1.756   4.007 -0.0900 -1.3590 -0.5066
10665TIP3   OH253409   1.206   1.422   5.860  0.2561 -0.1297  0.4210
10665TIP3    H153410   1.220   1.355   5.927  0.8952 -1.4728 -0.9803
10665TIP3    H253411   1.124   1.396   5.817  1.8684 -1.7526 -1.9472
10666TIP3   OH253412   0.869   1.756  12.799 -0.6211  0.3373  0.1495
10666TIP3    H153413   0.795   1.747  12.738 -0.9688 -3.5806  0.9394
10666TIP3    H253414   0.935   1.695  12.766 -0.2716 -0.8729  2.8805
10667TIP3   OH253415   2.673   3.554  15.473 -0.6535 -0.7396  0.1635
10667TIP3    H153416   2.609   3.519  15.536 -1.6158 -0.3419 -0.5712
10667TIP3    H253417   2.717   3.477  15.438  1.2421 -0.9277  2.6299
10668TIP3   OH253418   1.298   1.055   4.149  0.1622  0.5336  0.3622
10668TIP3    H153419   1.263   1.144   4.153 -0.1990  0.3626  1.5740
10668TIP3    H253420   1.323   1.035   4.239  1.4555 -0.1269 -0.1279
10669TIP3   OH253421   5.531   4.924  15.092 -0.4906  0.1946 -0.4304
10669TIP3    H153422   5.582   4.906  15.013  0.6049  2.6143 -0.3540
10669TIP3    H253423   5.447   4.880  15.077 -0.3434  0.6579 -2.9989
10670TIP3   OH253424   0.845   5.627   3.276  0.0775  0.1747  0.2889
10670TIP3    H153425   0.780   5.663   3.336  0.7380  1.1369  0.4425
10670TIP3    H253426   0.794   5.570   3.218 -0.6551 -0.3256  1.3826
10671TIP3   OH253427   4.885   5.863   1.228  0.0899 -0.4761 -0.3582
10671TIP3    H153428   4.882   5.858   1.324  0.8755 -0.7671 -0.3377
10671TIP3    H253429   4.866   5.774   1.199 -0.2978 -0.3546 -0.4822
10672TIP3   OH253430   6.502   3.601   5.303  0.0697  0.0342  0.8186
10672TIP3    H153431   6.492   3.696   5.299  0.2234  0.0244 -0.1804
10672TIP3    H253432   6.412   3.567   5.302 -0.0512  0.0964 -2.6928
10673TIP3   OH253433   5.368   3.532   0.165 -0.1620  0.0532 -0.0012
10673TIP3    H153434   5.373   3.456   0.107 -0.2667  0.1746 -0.1714
10673TIP3    H253435   5.300   3.587   0.126  0.4223  0.5755 -0.2867
10674TIP3   OH253436   2.031   1.095   3.738  0.0490  0.3641 -0.3663
10674TIP3    H153437   2.125   1.113   3.737  0.0788  0.9020  2.7139
10674TIP3    H253438   1.992   1.170   3.783 -1.7105 -0.4467 -0.4183
10675TIP3   OH253439   0.417   0.528  13.352 -0.0735  0.1520 -0.2616
10675TIP3    H153440   0.372   0.445  13.333 -0.1622  0.2880 -0.6510
10675TIP3    H253441   0.446   0.559  13.266 -0.9102  1.0280 -0.2343
10676TIP3   OH253442   5.853   0.235   1.862 -0.4145 -0.1922  0.1815
10676TIP3    H153443   5.823   0.245   1.953 -2.0370  1.4227 -0.4529
10676TIP3    H253444   5.773   0.214   1.813  0.3010 -0.3027 -0.9745
10677TIP3   OH253445   6.310   2.694   1.523 -0.0911  0.6819  0.2544
10677TIP3    H153446   6.224   2.712   1.560 -0.6358  1.4925 -1.3346
10677TIP3    H253447   6.360   2.775   1.535  1.4259 -0.5535  3.5193
10678TIP3   OH253448   5.989   3.312   0.198  0.3145 -0.1339 -0.1343
10678TIP3    H153449   6.062   3.333   0.255 -0.1413 -1.0416  0.8169
10678TIP3    H253450   6.026   3.249   0.135  0.2745 -0.9131  0.5998
10679TIP3   OH253451   2.459   5.814  12.512 -0.3499  0.1033 -0.0564
10679TIP3    H153452   2.402   5.842  12.583  0.3918 -1.1315  1.0798
10679TIP3    H253453   2.532   5.770  12.556 -0.6990 -2.1918 -1.6154
10680TIP3   OH253454   3.819   1.069  14.706  0.1832  0.2273 -0.0906
10680TIP3    H153455   3.903   1.023  14.712 -1.0240 -2.5767 -2.3354
10680TIP3    H253456   3.828   1.126  14.630 -0.4156 -1.5145 -1.5668
10681TIP3   OH253457   2.003   1.146  15.602 -0.1792  0.8015 -0.0217
10681TIP3    H153458   2.095   1.160  15.624  0.2021  0.5141 -1.3511
10681TIP3    H253459   1.999   1.055  15.570 -1.1631  0.3917  1.1748
10682TIP3   OH253460   2.275   6.729   5.511  0.0754  0.2734 -0.3478
10682TIP3    H153461   2.245   6.813   5.475 -0.3366 -0.3249 -1.4262
10682TIP3    H253462   2.303   6.678   5.435 -2.5209 -1.7065 -0.1239
10683TIP3   OH253463   6.412   0.059   0.520 -0.5010  0.0347  0.1137
10683TIP3    H153464   6.317   0.047   0.510 -0.5987  0.8082  0.0013
10683TIP3    H253465   6.441  -0.018   0.567 -0.7253 -1.6124 -2.2701
10684TIP3   OH253466   6.166   1.740   2.554 -0.7688 -0.0192  0.2964
10684TIP3    H153467   6.209   1.776   2.631  0.1430  2.5746 -1.2994
10684TIP3    H253468   6.179   1.645   2.562  3.1327  0.4029  1.2249
10685TIP3   OH253469   1.155   1.715   4.211 -0.0180 -0.5493 -0.5993
10685TIP3    H153470   1.073   1.744   4.172  0.7170  1.2065 -0.9334
10685TIP3    H253471   1.140   1.718   4.305 -0.0180  0.9366 -0.6157
10686TIP3   OH253472   6.760   1.222   4.834 -0.0797  0.5241  0.5043
10686TIP3    H153473   6.793   1.264   4.754  0.5333  2.8354  1.8527
10686TIP3    H253474   6.824   1.154   4.853  1.0428  1.4681  0.2409
10687TIP3   OH253475   0.819   4.400   0.881  0.5222 -0.5025 -0.7015
10687TIP3    H153476   0.821   4.315   0.838 -2.0098  0.2009 -2.4647
10687TIP3    H253477   0.859   4.460   0.818  1.7828 -0.2553  0.2958
10688TIP3   OH253478   6.038   5.338  16.658  0.1406  0.1946 -0.8205
10688TIP3    H153479   5.994   5.362  16.577 -0.4881 -0.4113 -0.6625
10688TIP3    H253480   6.100   5.269  16.633  0.2091  0.2651 -0.8455
10689TIP3   OH253481   5.819   0.758  16.656  0.1079 -0.7558 -0.2553
10689TIP3    H153482   5.820   0.674  16.611 -1.6429 -0.8950 -0.0983
10689TIP3    H253483   5.758   0.811  16.606  0.1542 -0.0311  0.4409
10690TIP3   OH253484   5.260   0.594  12.228 -0.3589  0.5456 -0.1845
10690TIP3    H153485   5.204   0.650  12.174  2.8692  3.3680 -0.9259
10690TIP3    H253486   5.294   0.529  12.166  0.3625  1.3881 -0.6796
10691TIP3   OH253487   2.229   3.912   3.698  0.1670 -0.6259 -0.3296
10691TIP3    H153488   2.255   3.857   3.772  0.7439  1.1247  0.8442
10691TIP3    H253489   2.207   3.850   3.628  0.4407 -2.3214  1.0190
10692TIP3   OH253490   2.108   6.631   4.539 -0.3538  0.3609 -0.2486
10692TIP3    H153491   2.182   6.688   4.558 -0.7904  0.6467  0.6524
10692TIP3    H253492   2.105   6.627   4.444 -1.5356  3.4780 -0.4400
10693TIP3   OH253493   6.459   1.521   0.314  0.0314 -0.4642  0.2861
10693TIP3    H153494   6.505   1.573   0.247 -0.9714  0.5515  0.3545
10693TIP3    H253495   6.443   1.437   0.271 -1.2234  0.4077 -1.0429
10694TIP3   OH253496   0.107   6.365   6.123  0.2291  0.4264  0.7413
10694TIP3    H153497   0.140   6.423   6.191  0.1365  1.1232  0.2063
10694TIP3    H253498   0.018   6.343   6.152 -0.4604  2.0968  0.0436
10695TIP3   OH253499   1.721   2.263  12.662  0.6957  0.0455  0.4617
10695TIP3    H153500   1.662   2.198  12.625  0.6069  1.5994 -2.3545
10695TIP3    H253501   1.664   2.329  12.701  0.6694  0.1098  0.3146
10696TIP3   OH253502   0.871   3.910   0.533 -0.2596 -0.0710  0.4115
10696TIP3    H153503   0.945   3.913   0.471 -0.4024 -0.8854  0.1985
10696TIP3    H253504   0.894   3.975   0.600  1.3026 -1.2593  1.0781
10697TIP3   OH253505   4.707   4.913  13.493 -0.1264  0.1801 -0.1447
10697TIP3    H153506   4.690   4.821  13.476  0.8010 -0.1532  0.6469
10697TIP3    H253507   4.672   4.959  13.416  1.1406 -0.9886 -1.4761
10698TIP3   OH253508   0.730   2.017   3.196  0.0307  0.1367  0.5466
10698TIP3    H153509   0.817   2.056   3.186  1.8436 -3.4729  0.4314
10698TIP3    H253510   0.709   2.028   3.289  1.0954  0.1785  0.7951
10699TIP3   OH253511   3.376   5.905  11.273 -0.3253 -0.3726  0.5129
10699TIP3    H153512   3.442   5.925  11.340 -2.6517  0.8629  2.6229
10699TIP3    H253513   3.408   5.949  11.194  1.2979  0.2498  1.4607
10700TIP3   OH253514   3.542   4.656  13.145  0.4827 -0.0452  0.3001
10700TIP3    H153515   3.524   4.580  13.201 -1.5937 -0.4355 -0.7724
10700TIP3    H253516   3.626   4.636  13.105 -0.1340 -1.9865 -0.1797
10701TIP3   OH253517   4.738   0.588  14.088  0.4206 -0.0438 -0.3647
10701TIP3    H153518   4.690   0.609  14.008  0.1918 -0.1756 -0.2630
10701TIP3    H253519   4.829   0.606  14.067  0.5994 -1.7755 -1.2555
10702TIP3   OH253520   6.033   2.871   6.379 -0.3015 -0.4576  0.1748
10702TIP3    H153521   6.106   2.883   6.441  1.7856 -0.4014 -2.1292
10702TIP3    H253522   6.024   2.956   6.336  0.4957 -1.2818 -1.7631
10703TIP3   OH253523   2.383   4.091  16.544 -0.6035  0.1054  0.0688
10703TIP3    H153524   2.294   4.124  16.557 -0.4036  0.9333 -0.5251
10703TIP3    H253525   2.401   4.107  16.451  0.5422  0.9413  0.4077
10704TIP3   OH253526   2.165   0.421   0.098  0.3515  0.4396 -0.1325
10704TIP3    H153527   2.214   0.384   0.024  2.4292  2.8438 -0.0588
10704TIP3    H253528   2.166   0.352   0.164 -0.9043 -1.4826 -1.9641
10705TIP3   OH253529   6.361   3.871  14.325  0.2367 -0.6127  0.5966
10705TIP3    H153530   6.275   3.884  14.286  0.0631 -0.4538  1.0300
10705TIP3    H253531   6.381   3.779  14.309  0.1544 -0.5556  0.1630
10706TIP3   OH253532   2.676   0.384   2.370 -0.5395 -0.1352 -0.0792
10706TIP3    H153533   2.588   0.358   2.345 -0.4826  0.4765 -0.9459
10706TIP3    H253534   2.663   0.453   2.435 -0.6851 -1.1891  1.0453
10707TIP3   OH253535   1.685   0.255  15.985  0.1962 -0.1572  0.3851
10707TIP3    H153536   1.650   0.167  15.976 -1.2229  0.4119  0.1572
10707TIP3    H253537   1.627   0.298  16.048  0.7525  0.6834  0.3442
10708TIP3   OH253538   3.895   1.334  13.542  0.3948  0.1672  0.2868
10708TIP3    H153539   3.979   1.373  13.566  0.6104 -1.4276  2.3982
10708TIP3    H253540   3.883   1.262  13.604 -1.6878 -0.8039 -1.1267
10709TIP3   OH253541   3.371   0.224  11.986 -0.2805  0.1754 -0.2533
10709TIP3    H153542   3.456   0.266  11.972 -0.7587  1.0529 -0.5731
10709TIP3    H253543   3.340   0.200  11.899 -1.1074  1.3642 -0.3047
10710TIP3   OH253544   1.574   0.436  16.791 -0.4985  0.4557 -0.6760
10710TIP3    H153545   1.559   0.492  16.715  0.5070  1.0173 -0.4790
10710TIP3    H253546   1.668   0.417  16.789 -0.2848  1.2189  0.9179
10711TIP3   OH253547   0.197   5.504  14.938 -0.7695 -0.5608  0.0720
10711TIP3    H153548   0.161   5.438  14.998  0.0197 -0.2445  0.9163
10711TIP3    H253549   0.165   5.587  14.972  1.4613 -0.1707  1.4407
10712TIP3   OH253550   6.041   4.873   5.620 -0.3505 -0.1818  0.0579
10712TIP3    H153551   5.963   4.820   5.604  0.9565 -2.2879  0.1157
10712TIP3    H253552   6.081   4.833   5.697  1.5112 -0.1020 -0.8076
10713TIP3   OH253553   4.514   3.119  12.964  0.5366 -0.2115 -0.7414
10713TIP3    H153554   4.484   3.165  12.885 -0.3368  1.3482  0.4327
10713TIP3    H253555   4.444   3.133  13.028  2.5241  1.2415  1.2720
10714TIP3   OH253556   4.125   3.822   0.559  0.3726  0.4804  0.1696
10714TIP3    H153557   4.220   3.817   0.554  0.4991  2.2448  0.1362
10714TIP3    H253558   4.108   3.863   0.644 -0.4747 -1.8177  1.1676
10715TIP3   OH253559   2.436   3.858  16.227 -0.3020 -0.3723  0.5508
10715TIP3    H153560   2.388   3.899  16.155  1.6006  0.4076 -0.3670
10715TIP3    H253561   2.409   3.766  16.225 -3.5720  0.4724  1.7086
10716TIP3   OH253562   5.522   2.559  14.998 -0.3603  0.4939  0.3574
10716TIP3    H153563   5.603   2.608  15.011  0.1595 -0.6220  1.6014
10716TIP3    H253564   5.454   2.613  15.038  0.2589  0.0989  2.0413
10717TIP3   OH253565   6.067   0.781  15.267 -0.1433 -0.1482  0.0816
10717TIP3    H153566   6.113   0.820  15.342  3.1614 -1.4852 -1.0764
10717TIP3    H253567   6.131   0.783  15.196 -2.6649 -0.2531 -2.3572
10718TIP3   OH253568   1.865   4.434   1.114 -0.4604 -0.8282  0.1977
10718TIP3    H153569   1.914   4.484   1.049  0.3029 -1.1491  0.5135
10718TIP3    H253570   1.778   4.425   1.076 -0.4612  0.2888 -0.0897
10719TIP3   OH253571   0.551   3.051   1.124  0.2549 -0.3882 -0.2530
10719TIP3    H153572   0.604   3.083   1.051  0.8122 -0.0632  0.2911
10719TIP3    H253573   0.526   3.129   1.172  0.1923 -0.6309  0.1108
10720TIP3   OH253574   2.951   2.734   3.295  0.4991 -0.4653 -0.1200
10720TIP3    H153575   2.897   2.751   3.372  1.6867  1.1208  0.4092
10720TIP3    H253576   2.888   2.712   3.226 -0.7179  0.0022  0.8137
10721TIP3   OH253577   2.764   2.638  10.503 -0.1132  0.7487  0.5719
10721TIP3    H153578   2.680   2.680  10.522 -0.7158  0.0204 -0.3897
10721TIP3    H253579   2.827   2.682  10.561 -1.3240  0.6121  2.0319
10722TIP3   OH253580   3.054   5.140  16.618 -0.1863 -0.4185 -0.2012
10722TIP3    H153581   2.964   5.130  16.649  0.1756 -0.1936  0.9708
10722TIP3    H253582   3.081   5.051  16.595 -0.7133 -0.4846 -0.5860
10723TIP3   OH253583   2.190   6.338  12.644 -0.3612  0.1867  0.6210
10723TIP3    H153584   2.278   6.377  12.653 -0.2243  0.1294 -0.3625
10723TIP3    H253585   2.200   6.271  12.576 -1.3986  0.9235 -0.2963
10724TIP3   OH253586   2.863   4.478   6.062 -1.0098  0.4000  0.0556
10724TIP3    H153587   2.894   4.554   6.012 -1.4943  1.9078  1.9361
10724TIP3    H253588   2.915   4.479   6.142 -2.7874  0.3284  1.2749
10725TIP3   OH253589   3.049   4.313  15.408  0.8050 -0.0734  0.8932
10725TIP3    H153590   3.039   4.294  15.315 -1.3812  1.6067  0.7244
10725TIP3    H253591   3.020   4.232  15.452 -0.7007  0.0140  0.1215
10726TIP3   OH253592   4.555   1.179  13.767 -0.0487  0.2084 -0.1930
10726TIP3    H153593   4.546   1.215  13.678 -2.1048  1.5148  0.4750
10726TIP3    H253594   4.552   1.256  13.824  0.7399 -0.6568  1.0700
10727TIP3   OH253595   1.697   4.733  11.430  0.4316 -0.5457  0.2846
10727TIP3    H153596   1.731   4.731  11.520  0.1734 -2.7906  0.3959
10727TIP3    H253597   1.770   4.705  11.376 -0.0725 -1.4724  0.0717
10728TIP3   OH253598   5.802   1.245   5.853  0.5512 -0.5957  0.2315
10728TIP3    H153599   5.881   1.299   5.859 -0.3949  1.2616 -2.3045
10728TIP3    H253600   5.809   1.203   5.768 -0.3905 -1.8100  0.7263
10729TIP3   OH253601   1.734   1.856   2.027 -0.3118 -0.5702  0.0177
10729TIP3    H153602   1.819   1.900   2.032  0.0711 -1.3997  0.9678
10729TIP3    H253603   1.679   1.902   2.090  0.5503 -2.3743  2.2237
10730TIP3   OH253604   4.632   0.243   2.419  0.4060  0.2297 -0.5343
10730TIP3    H153605   4.665   0.155   2.401 -0.8548 -0.4179  0.2178
10730TIP3    H253606   4.708   0.291   2.451  1.0835 -0.6095 -0.8347
10731TIP3   OH253607   2.836   6.618   4.442  0.3887 -0.5308 -0.2584
10731TIP3    H153608   2.912   6.566   4.468  0.6455 -0.2453 -0.4395
10731TIP3    H253609   2.803   6.654   4.525  0.6909 -0.3262 -0.2253
10732TIP3   OH253610   6.587   3.190   4.450  0.3417  0.5590  0.3707
10732TIP3    H153611   6.528   3.263   4.429 -0.7778 -0.7668 -1.3539
10732TIP3    H253612   6.544   3.144   4.522  1.3311  1.8344  1.8626
10733TIP3   OH253613   4.647   0.807  13.563  0.4155  0.1823 -0.2925
10733TIP3    H153614   4.673   0.788  13.473  1.2671  0.8441 -0.1976
10733TIP3    H253615   4.559   0.844  13.556  0.9679  1.4262 -0.9899
10734TIP3   OH253616   0.930   6.184   6.112 -0.1290  0.2683  0.0967
10734TIP3    H153617   0.959   6.192   6.203 -0.5246  0.2719  0.2222
10734TIP3    H253618   0.984   6.114   6.076  0.3776  0.5989  0.1900
10735TIP3   OH253619   4.020   0.714   0.290  0.3769 -0.2717 -0.1293
10735TIP3    H153620   4.051   0.668   0.212  1.3232  0.9169 -0.4766
10735TIP3    H253621   3.947   0.768   0.260 -0.1158 -0.7918  0.0937
10736TIP3   OH253622   3.535   0.373  15.056  0.0679 -0.2949  0.6352
10736TIP3    H153623   3.462   0.433  15.041  0.2628 -0.0998  0.4473
10736TIP3    H253624   3.611   0.431  15.066  0.1433 -0.4803  1.1528
10737TIP3   OH253625   4.648   6.781   6.074  0.0047 -0.3107  0.6320
10737TIP3    H153626   4.622   6.865   6.110 -1.8374 -0.6441  0.1881
10737TIP3    H253627   4.656   6.724   6.151 -1.2177 -0.3370  0.7635
10738TIP3   OH253628   3.741   3.094  14.518 -0.2748 -0.2052 -0.3814
10738TIP3    H153629   3.678   3.137  14.459 -0.2197  2.1484  1.1215
10738TIP3    H253630   3.822   3.144  14.506  0.2280 -0.8029  0.4453
10739TIP3   OH253631   5.767   6.112   0.312 -0.3384  0.2182 -0.3538
10739TIP3    H153632   5.687   6.156   0.284 -0.3163 -0.3616 -1.4111
10739TIP3    H253633   5.837   6.163   0.272 -0.3956 -2.4539 -4.4038
10740TIP3   OH253634   0.096   6.640   4.527 -0.4577 -0.4097  0.7583
10740TIP3    H153635   0.052   6.725   4.517 -1.6273 -1.2751 -2.7597
10740TIP3    H253636   0.025   6.578   4.541 -0.2926 -1.5110 -2.5772
10741TIP3   OH253637   2.989   2.616  11.984  0.3704  0.2448 -0.3336
10741TIP3    H153638   3.077   2.593  12.015 -0.3012 -1.2516  0.5676
10741TIP3    H253639   2.982   2.576  11.898  1.2510  2.0694 -1.3084
10742TIP3   OH253640   1.909   4.260  15.129 -0.4484  0.1679 -0.5769
10742TIP3    H153641   1.838   4.316  15.099  0.1750  0.6149 -1.2426
10742TIP3    H253642   1.982   4.320  15.143  0.8722 -0.6849 -3.2927
10743TIP3   OH253643   4.712   4.563  16.570  0.3185 -0.0171  0.2516
10743TIP3    H153644   4.747   4.531  16.653 -0.0841  0.8266  0.7629
10743TIP3    H253645   4.789   4.586  16.519  0.5969 -1.3630  0.0417
10744TIP3   OH253646   0.812   4.048  11.878  0.5961 -0.1977 -0.5520
10744TIP3    H153647   0.739   4.090  11.833  0.5042 -1.1904 -1.3763
10744TIP3    H253648   0.772   3.972  11.921  0.9717 -0.1806 -0.1689
10745TIP3   OH253649   3.520   2.557   6.174 -0.1799  0.3826  0.1263
10745TIP3    H153650   3.433   2.577   6.207 -0.1954  0.2432  0.1726
10745TIP3    H253651   3.533   2.465   6.197  0.0721  0.4684  0.3235
10746TIP3   OH253652   5.860   0.971  15.183  0.0914 -0.1666 -0.4054
10746TIP3    H153653   5.851   1.038  15.251 -0.8362 -1.9440  1.3490
10746TIP3    H253654   5.929   0.913  15.216 -0.0800 -0.8330 -1.1960
10747TIP3   OH253655   6.504   0.295  14.500  0.0823  0.7074 -0.8781
10747TIP3    H153656   6.561   0.350  14.553 -0.6058  1.3104 -0.7405
10747TIP3    H253657   6.493   0.344  14.418  0.3630  0.2402 -1.1993
10748TIP3   OH253658   4.366   4.333  13.419 -0.2321 -0.3336 -0.1846
10748TIP3    H153659   4.288   4.297  13.460 -0.9737  0.4439 -0.8806
10748TIP3    H253660   4.363   4.426  13.439  0.1100 -0.1707 -0.8669
10749TIP3   OH253661   5.454   6.118  17.181  0.4333  0.0614 -0.3909
10749TIP3    H153662   5.534   6.114  17.128  1.6104 -0.4178  1.3181
10749TIP3    H253663   5.441   6.211  17.198  1.2170  0.0877  0.1239
10750TIP3   OH253664   3.895   4.080  15.857 -0.4122 -0.0843  0.1154
10750TIP3    H153665   3.892   4.175  15.862  0.7100 -0.0468  0.4061
10750TIP3    H253666   3.960   4.055  15.922 -0.6416 -1.0501 -0.0136
10751TIP3   OH253667   2.133   6.251   2.959  0.4162  0.4810  0.1056
10751TIP3    H153668   2.159   6.159   2.952  2.3299  0.9455  0.5803
10751TIP3    H253669   2.056   6.250   3.016  2.1932 -0.5952  2.6502
10752TIP3   OH253670   5.482   0.044   2.261 -0.0010  0.6403 -0.0723
10752TIP3    H153671   5.450   0.059   2.172 -1.1733  2.4150  0.5710
10752TIP3    H253672   5.560   0.100   2.268  0.4028  0.0925 -0.1324
10753TIP3   OH253673   1.622   5.863   3.565  0.5702  0.0255  0.0390
10753TIP3    H153674   1.604   5.921   3.639  0.1088  0.3286 -0.3041
10753TIP3    H253675   1.684   5.799   3.600 -0.0190 -0.1369  0.8427
10754TIP3   OH253676   2.505   1.119   6.064  0.5617  0.7645 -0.3207
10754TIP3    H153677   2.597   1.136   6.044  0.1074  2.4753 -1.2029
10754TIP3    H253678   2.495   1.145   6.156  1.5408 -2.2627  0.7660
10755TIP3   OH253679   3.295   1.375  12.359 -0.0525 -0.3529  0.0525
10755TIP3    H153680   3.381   1.341  12.385  0.4849  1.5323  0.9196
10755TIP3    H253681   3.232   1.324  12.409  0.5724 -1.3748 -0.1648
10756TIP3   OH253682   6.288   5.727   4.934 -0.0029  0.2935  0.2848
10756TIP3    H153683   6.263   5.712   4.843  0.5477 -1.8588  0.4324
10756TIP3    H253684   6.209   5.762   4.976 -1.3294 -1.8556 -0.3072
10757TIP3   OH253685   6.714   1.463   5.121 -0.5529 -0.4179 -0.0353
10757TIP3    H153686   6.763   1.513   5.057 -2.0376 -0.1032 -0.9743
10757TIP3    H253687   6.770   1.387   5.140  0.6239  0.3212 -0.4470
10758TIP3   OH253688   2.760   0.661   2.512 -0.4719 -0.3147 -0.0123
10758TIP3    H153689   2.834   0.721   2.501  0.1319 -1.3351 -1.7641
10758TIP3    H253690   2.685   0.718   2.526  0.4014  0.7811  0.3509
10759TIP3   OH253691   2.459   0.926  13.475  0.0836  0.1363 -0.1455
10759TIP3    H153692   2.375   0.970  13.462  0.6541  0.9509 -1.1164
10759TIP3    H253693   2.471   0.927  13.570 -0.5938  0.7663 -0.0554
10760TIP3   OH253694   0.365   5.068  13.155 -0.7625  0.4643 -0.0827
10760TIP3    H153695   0.347   4.983  13.116 -2.5909  0.7763 -0.0018
10760TIP3    H253696   0.374   5.127  13.080  2.0055  0.0303 -0.2261
10761TIP3   OH253697   5.674   3.868  12.109  0.0642 -0.1540 -0.4705
10761TIP3    H153698   5.592   3.822  12.125 -0.3656 -0.4749 -3.2028
10761TIP3    H253699   5.742   3.802  12.125 -0.3412 -0.5814 -0.5041
10762TIP3   OH253700   4.331   6.384  16.806  0.0474  0.1790 -0.0594
10762TIP3    H153701   4.418   6.371  16.845  0.0562  0.5757  0.0587
10762TIP3    H253702   4.270   6.358  16.875  0.0645 -1.3991 -0.5987
10763TIP3   OH253703   0.690   1.410  11.568 -0.3482 -0.2028 -0.5742
10763TIP3    H153704   0.693   1.505  11.569 -0.8259 -0.1885 -0.1806
10763TIP3    H253705   0.720   1.384  11.655 -1.3787 -0.3676 -0.2575
10764TIP3   OH253706   5.525   1.993   3.958  0.4038  0.8470  1.0584
10764TIP3    H153707   5.465   1.991   4.033 -2.9798 -1.4513 -1.4054
10764TIP3    H253708   5.535   1.902   3.932  2.2099  1.4889 -0.7902
10765TIP3   OH253709   2.498   1.561   5.074  0.2354  0.5092 -0.4202
10765TIP3    H153710   2.515   1.594   5.163  3.0677 -1.4047 -0.1326
10765TIP3    H253711   2.453   1.477   5.088  2.6777 -0.8996 -0.6105
10766TIP3   OH253712   4.270   0.641   3.110 -0.3867 -0.1595 -0.2818
10766TIP3    H153713   4.308   0.555   3.128 -1.6998 -0.8813 -0.7990
10766TIP3    H253714   4.200   0.650   3.175 -1.2515 -0.1674 -1.1926
10767TIP3   OH253715   5.610   6.040  16.634  0.0468 -0.1850  0.1674
10767TIP3    H153716   5.602   6.010  16.725 -0.7193  0.8830  0.4663
10767TIP3    H253717   5.530   6.090  16.618  0.8464  0.8776 -0.6252
10768TIP3   OH253718   2.670   4.478   2.379  0.4996 -0.2285 -0.2022
10768TIP3    H153719   2.749   4.529   2.359 -0.1844  0.3222 -1.6787
10768TIP3    H253720   2.643   4.443   2.294 -1.6429  0.7795  0.0065
10769TIP3   OH253721   5.027   0.651   1.428  0.6280  0.3161  0.5112
10769TIP3    H153722   4.962   0.688   1.488  1.0227  0.5476  0.7958
10769TIP3    H253723   5.100   0.712   1.431  1.4100 -0.6163  1.2037
10770TIP3   OH253724   3.723   4.404   0.481  0.5795  0.0969  0.1975
10770TIP3    H153725   3.756   4.335   0.539  0.9085 -0.4835 -0.6628
10770TIP3    H253726   3.800   4.437   0.437  0.1997 -0.2785 -0.7709
10771TIP3   OH253727   4.721   4.544  11.885 -0.3677 -0.0113 -0.0921
10771TIP3    H153728   4.672   4.530  11.966 -1.5884 -0.7429 -0.9272
10771TIP3    H253729   4.794   4.482  11.890 -0.9518 -0.6971  0.0515
10772TIP3   OH253730   5.950   6.616  15.618  0.5584  0.5899 -0.0326
10772TIP3    H153731   6.005   6.538  15.612  0.0953  0.3430 -1.3600
10772TIP3    H253732   5.961   6.646  15.708  1.5453 -0.4143  0.2045
10773TIP3   OH253733   5.303   3.817  12.659  0.1836 -0.3010 -0.5782
10773TIP3    H153734   5.285   3.828  12.752 -0.7089 -0.1436 -0.7640
10773TIP3    H253735   5.243   3.877  12.616 -0.4122 -1.4030 -1.3204
10774TIP3   OH253736   3.641   0.005   0.143  0.2343 -0.0744 -0.4435
10774TIP3    H153737   3.663   0.089   0.183 -1.1901  0.6030 -1.0207
10774TIP3    H253738   3.604  -0.047   0.214  1.4787 -0.3859  0.0055
10775TIP3   OH253739   0.614   0.145  16.619 -0.0294  0.3621  0.1778
10775TIP3    H153740   0.562   0.171  16.695  0.8736  2.9676  0.0138
10775TIP3    H253741   0.701   0.126  16.654  0.6222  2.3686 -0.1941
10776TIP3   OH253742   3.254   4.510  17.047 -0.4248 -0.3431  0.1838
10776TIP3    H153743   3.225   4.549  17.130  2.2453 -2.6759  2.4384
10776TIP3    H253744   3.327   4.565  17.019  0.3146 -0.9748  0.8209
10777TIP3   OH253745   6.051   0.477   2.923 -0.2488  0.5523  0.5686
10777TIP3    H153746   6.138   0.450   2.949 -0.6870 -1.6485 -0.0739
10777TIP3    H253747   6.066   0.553   2.866  1.3835 -0.6064 -0.6555
10778TIP3   OH253748   6.603   3.244   5.804  0.0367  0.1338  0.4462
10778TIP3    H153749   6.540   3.255   5.875 -1.3252  0.0817 -0.7269
10778TIP3    H253750   6.588   3.155   5.773  0.6641  0.1382  0.1195
10779TIP3   OH253751   3.998   3.903   2.203  0.8070 -0.5516  0.2447
10779TIP3    H153752   4.046   3.975   2.243 -0.2401  0.1853  0.2187
10779TIP3    H253753   3.996   3.835   2.270  0.1574  0.1858  0.9930
10780TIP3   OH253754   1.196   5.441  16.741 -0.3689 -0.1006  0.6055
10780TIP3    H153755   1.258   5.483  16.801  0.3856 -1.2285  0.6501
10780TIP3    H253756   1.188   5.502  16.668  2.0352 -0.5868 -0.1455
10781TIP3   OH253757   1.129   5.247   4.750  0.0590 -0.1189  0.4765
10781TIP3    H153758   1.179   5.317   4.709 -0.0351 -0.1344  0.3339
10781TIP3    H253759   1.042   5.284   4.763 -0.7318 -0.9607 -1.8289
10782TIP3   OH253760   0.958   1.556   2.965 -0.2469  0.5159 -0.0879
10782TIP3    H153761   0.991   1.528   2.880 -0.7989  0.1422 -0.1779
10782TIP3    H253762   1.036   1.589   3.011  0.0171  0.8902 -0.7970
10783TIP3   OH253763   3.855   4.954   1.430 -0.2174  0.7402  0.3481
10783TIP3    H153764   3.780   4.952   1.490 -0.7054 -1.2894 -0.2377
10783TIP3    H253765   3.932   4.949   1.487 -0.6793 -1.6041  0.8761
10784TIP3   OH253766   4.887   3.379   3.594 -0.3936  0.5016  0.2177
10784TIP3    H153767   4.867   3.443   3.663  0.0703 -0.5525  1.3640
10784TIP3    H253768   4.924   3.305   3.640 -0.4011 -0.3910 -1.1529
10785TIP3   OH253769   0.628   5.153  11.418  0.2729  0.0163 -0.2258
10785TIP3    H153770   0.653   5.130  11.329  0.1691 -0.2229 -0.1958
10785TIP3    H253771   0.687   5.224  11.443  0.3133  0.0704 -0.4788
10786TIP3   OH253772   4.920   4.760  14.515  0.0893  0.0884 -0.7380
10786TIP3    H153773   4.861   4.757  14.440 -0.4629 -1.3151 -0.2899
10786TIP3    H253774   4.978   4.834  14.498 -1.6419  1.3639 -1.3176
10787TIP3   OH253775   6.681   2.370  10.876  0.0881  0.7795  0.8897
10787TIP3    H153776   6.595   2.404  10.852  0.8252  0.9564 -1.8117
10787TIP3    H253777   6.731   2.369  10.794  1.6526 -2.3068  1.7000
10788TIP3   OH253778   4.184   2.928  17.122  0.2320  0.0173 -0.3315
10788TIP3    H153779   4.194   2.923  17.027  1.9828 -1.2778 -0.1285
10788TIP3    H253780   4.201   2.839  17.152  2.0158  0.8739  1.3613
10789TIP3   OH253781   2.969   4.364  14.209  0.5234 -0.0819 -0.5091
10789TIP3    H153782   3.003   4.421  14.140 -0.5686  1.1614 -0.0677
10789TIP3    H253783   2.882   4.340  14.179  1.2196 -2.1861 -1.0304
10790TIP3   OH253784   0.847   5.415   4.705 -0.6472 -0.2118  0.2602
10790TIP3    H153785   0.805   5.333   4.730 -0.2195 -0.4591  0.1712
10790TIP3    H253786   0.788   5.453   4.640 -0.0567 -1.2362 -0.9127
10791TIP3   OH253787   5.584   0.212   3.738  0.5491 -0.5195  0.4179
10791TIP3    H153788   5.540   0.284   3.784 -0.4953 -1.3944  0.8448
10791TIP3    H253789   5.516   0.146   3.729  1.3354 -1.2140 -0.5022
10792TIP3   OH253790   2.231   0.791   0.548  0.0343 -0.6890 -0.0143
10792TIP3    H153791   2.311   0.842   0.530 -1.2108  1.4313  0.1211
10792TIP3    H253792   2.240   0.765   0.640 -0.3821  1.4813  0.6967
10793TIP3   OH253793   3.010   2.803  14.903  0.6176 -0.5878  0.3369
10793TIP3    H153794   3.095   2.809  14.858  0.7611  1.8649  0.8213
10793TIP3    H253795   3.027   2.839  14.990 -0.6289 -1.3714  0.9220
10794TIP3   OH253796   1.111   5.896   2.291 -0.1954 -0.3933 -0.3030
10794TIP3    H153797   1.184   5.922   2.235 -1.0616 -0.9428 -1.7162
10794TIP3    H253798   1.132   5.935   2.376  1.4619 -0.0759 -0.8139
10795TIP3   OH253799   1.101   4.326   2.468  0.1438 -0.2944 -0.1857
10795TIP3    H153800   1.046   4.377   2.527 -0.7142  0.3867 -1.5185
10795TIP3    H253801   1.149   4.391   2.416  2.5654 -0.8598  1.1811
10796TIP3   OH253802   5.393   2.847   4.304  0.3982  0.4845 -0.1102
10796TIP3    H153803   5.381   2.815   4.394 -0.3823  1.3374  0.1119
10796TIP3    H253804   5.485   2.833   4.286  0.2893 -0.9492  0.3288
10797TIP3   OH253805   3.869   6.218   3.095  0.2941  0.3111 -0.0012
10797TIP3    H153806   3.818   6.204   3.175 -0.7157  2.9302 -0.0851
10797TIP3    H253807   3.836   6.153   3.034 -0.1822 -0.5753  1.1574
10798TIP3   OH253808   4.896   6.011   2.175 -0.3686  0.2926  0.4741
10798TIP3    H153809   4.809   6.023   2.213 -0.2562 -0.5251  1.0073
10798TIP3    H253810   4.956   6.019   2.249 -0.2364 -2.8160  0.8427
10799TIP3   OH253811   4.378   2.011   6.059  0.3436  0.3841  0.3708
10799TIP3    H153812   4.359   1.919   6.077  1.9031  0.4246  2.6779
10799TIP3    H253813   4.304   2.041   6.006 -0.7580 -1.8994  0.4995
10800TIP3   OH253814   5.367   0.636  13.670 -0.1936 -0.0476  0.3208
10800TIP3    H153815   5.445   0.676  13.630 -0.6632  0.5779  0.0211
10800TIP3    H253816   5.323   0.591  13.598 -0.9630  0.9558  0.1544
10801TIP3   OH253817   1.169   0.699  11.507 -0.0124  0.1121  0.1944
10801TIP3    H153818   1.129   0.776  11.466  2.5752  0.4535 -1.9390
10801TIP3    H253819   1.105   0.629  11.491 -0.1388  0.7316 -2.5923
10802TIP3   OH253820   5.879   6.744   0.751  0.1072 -0.4022  0.1846
10802TIP3    H153821   5.796   6.697   0.753 -0.1434 -0.0046 -0.5272
10802TIP3    H253822   5.865   6.821   0.807 -0.8142  0.9274 -1.7449
10803TIP3   OH253823   3.535   0.324   2.661 -0.2207  0.3806 -0.9976
10803TIP3    H153824   3.476   0.346   2.589 -2.5556  0.1343  0.7202
10803TIP3    H253825   3.481   0.275   2.722  0.8695  2.6982  2.1326
10804TIP3   OH253826   5.991   1.895  14.396 -0.4493  0.0073 -0.0816
10804TIP3    H153827   6.083   1.922  14.394 -0.3816 -0.2146 -0.0094
10804TIP3    H253828   5.949   1.958  14.454 -0.4383  0.4006 -0.4961
10805TIP3   OH253829   6.679   5.770  10.593  0.0807  0.2530 -0.0987
10805TIP3    H153830   6.645   5.809  10.673 -0.6154 -0.3829 -0.0742
10805TIP3    H253831   6.690   5.843  10.533  2.0566  0.9781  1.0509
10806TIP3   OH253832   5.459   6.441  13.872 -0.1724 -0.5242 -0.4055
10806TIP3    H153833   5.484   6.469  13.784  1.7613  0.9998  0.5367
10806TIP3    H253834   5.537   6.459  13.926 -1.0091 -2.1269  1.4919
10807TIP3   OH253835   2.801   0.123  14.999  0.3359 -0.3101  0.4198
10807TIP3    H153836   2.863   0.187  15.034 -0.9525  1.1080  0.2015
10807TIP3    H253837   2.843   0.089  14.920  1.1527  0.0745  0.6794
10808TIP3   OH253838   0.064   1.350  11.851  0.2840  0.0627  0.3390
10808TIP3    H153839   0.087   1.402  11.928  0.5711  1.8821 -0.8908
10808TIP3    H253840   0.139   1.360  11.792  0.0616 -1.2697 -0.1960
10809TIP3   OH253841   3.800   1.484   4.681  0.6571 -0.7593 -0.9866
10809TIP3    H153842   3.724   1.485   4.623 -0.3142  1.2416  0.1647
10809TIP3    H253843   3.767   1.445   4.762  0.7714  0.2098 -0.4490
10810TIP3   OH253844   1.143   3.286  11.994  0.0522 -0.0676 -0.0148
10810TIP3    H153845   1.225   3.331  12.009  1.1309 -1.7259 -0.6702
10810TIP3    H253846   1.163   3.221  11.926 -2.0086  0.0657 -0.8376
10811TIP3   OH253847   0.830   4.749   1.148  0.3723  0.1280 -0.1123
10811TIP3    H153848   0.786   4.773   1.230  2.8831  0.7456  1.1422
10811TIP3    H253849   0.863   4.661   1.164  0.8616  0.2472 -0.4497
10812TIP3   OH253850   1.956   2.002  13.407  0.3200 -0.5231  0.4899
10812TIP3    H153851   2.022   2.030  13.344 -1.7500 -0.3177 -1.7610
10812TIP3    H253852   1.951   2.074  13.471 -2.9847  3.5478 -3.6277
10813TIP3   OH253853   1.543   5.789   5.199 -0.2171  0.0690  0.1033
10813TIP3    H153854   1.498   5.846   5.261  0.1308  1.1575 -0.6250
10813TIP3    H253855   1.635   5.791   5.227 -0.3519 -0.9535  0.6792
10814TIP3   OH253856   5.419   5.709   2.426 -0.0312 -0.1203  0.1680
10814TIP3    H153857   5.452   5.707   2.337  2.3406  1.4681  0.9007
10814TIP3    H253858   5.423   5.618   2.456 -2.9827 -1.0854 -1.9226
10815TIP3   OH253859   0.849   6.760  14.824 -0.0392  0.1900  0.0042
10815TIP3    H153860   0.942   6.769  14.844  0.1743 -0.9494 -0.4264
10815TIP3    H253861   0.807   6.828  14.877  1.0083  0.5713  0.3767
10816TIP3   OH253862   6.104   5.427  11.565  0.1290  0.4449  0.2261
10816TIP3    H153863   6.164   5.464  11.629  1.0374 -0.5649 -0.0003
10816TIP3    H253864   6.157   5.420  11.485 -0.7477  0.9463 -0.4057
10817TIP3   OH253865   6.426   3.210  11.064 -0.3045  0.4857  0.5012
10817TIP3    H153866   6.334   3.222  11.085 -0.6705 -1.0969 -0.0285
10817TIP3    H253867   6.428   3.198  10.969  0.0089 -2.4905  0.7948
10818TIP3   OH253868   3.530   1.521   5.780  0.1299 -0.0368 -0.1988
10818TIP3    H153869   3.599   1.481   5.834 -1.7602 -0.3971  2.1140
10818TIP3    H253870   3.474   1.448   5.755 -0.0429  0.4031 -1.1349
10819TIP3   OH253871   0.728   1.410   2.935 -0.8121 -0.0344  0.3794
10819TIP3    H153872   0.778   1.486   2.963  0.1441 -0.8766  0.9887
10819TIP3    H253873   0.793   1.342   2.921 -1.7221 -0.9483  0.5153
10820TIP3   OH253874   5.871   6.548  16.933 -0.1485  0.2003  0.2605
10820TIP3    H153875   5.811   6.586  16.998 -0.6002  0.7332 -0.4507
10820TIP3    H253876   5.888   6.619  16.871 -0.4163 -0.5346 -0.6837
10821TIP3   OH253877   3.795   1.153  16.862 -0.0066  0.2681 -0.2644
10821TIP3    H153878   3.848   1.196  16.930  2.6058 -0.4193 -1.7589
10821TIP3    H253879   3.779   1.222  16.797 -0.6308  0.3653 -0.0157
10822TIP3   OH253880   4.977   1.274  15.662 -0.1202 -0.1853  0.0258
10822TIP3    H153881   4.949   1.276  15.754 -2.5300 -0.0710 -0.6307
10822TIP3    H253882   5.068   1.303  15.664  0.0256 -0.5626  2.4093
10823TIP3   OH253883   2.429   5.689  11.628 -0.2992  1.3667  0.1816
10823TIP3    H153884   2.507   5.710  11.679  0.8691  0.8328 -1.3006
10823TIP3    H253885   2.359   5.742  11.668  0.7230  1.6014  1.7578
10824TIP3   OH253886   4.113   5.401   5.321 -0.6249  0.1270 -0.4090
10824TIP3    H153887   4.062   5.346   5.262  2.0877 -1.8994 -1.0307
10824TIP3    H253888   4.101   5.362   5.407 -0.4070 -0.1421 -0.4998
10825TIP3   OH253889   2.960   0.812  11.624  0.1494 -0.9108 -0.1481
10825TIP3    H153890   2.979   0.877  11.556 -0.8887  0.3895  0.7518
10825TIP3    H253891   3.041   0.805  11.674  0.6673 -1.2810 -1.0060
10826TIP3   OH253892   1.891   6.094   4.799 -0.2333 -0.0637 -0.1504
10826TIP3    H153893   1.934   6.157   4.740  0.8574  0.5283  1.2081
10826TIP3    H253894   1.822   6.055   4.746 -1.4241  2.7858 -0.8686
10827TIP3   OH253895   3.890   5.591   0.896  0.3111  0.0694 -0.0879
10827TIP3    H153896   3.811   5.580   0.950 -0.7118  0.5583 -1.4294
10827TIP3    H253897   3.920   5.679   0.916 -0.1983  0.3354 -0.4571
10828TIP3   OH253898   2.395   1.208  16.718  0.2305 -0.6289 -0.4283
10828TIP3    H153899   2.338   1.275  16.679  0.3134 -1.3784 -1.9128
10828TIP3    H253900   2.484   1.236  16.695  0.5351  0.5571  1.9076
10829TIP3   OH253901   6.709   4.418  13.498  0.2844 -0.3051  0.0598
10829TIP3    H153902   6.757   4.402  13.579  1.0918  0.4054 -0.2734
10829TIP3    H253903   6.653   4.493  13.518  0.7504  0.0977 -0.1556
10830TIP3   OH253904   0.151   5.172  10.942  0.0249 -0.4785  0.2122
10830TIP3    H153905   0.114   5.229  10.875  0.3753  0.0964  0.4971
10830TIP3    H253906   0.118   5.208  11.025  0.3695 -0.5957  0.4012
10831TIP3   OH253907   1.216   5.997   2.889 -0.1256 -0.7840  0.1379
10831TIP3    H153908   1.183   5.914   2.856  0.2580 -0.3211 -1.4824
10831TIP3    H253909   1.311   5.993   2.873 -0.3393  0.7550 -1.8897
10832TIP3   OH253910   6.727   3.941  17.199  0.4438  0.3102 -0.0142
10832TIP3    H153911   6.712   3.980  17.112  0.1849  0.3550  0.0528
10832TIP3    H253912   6.719   4.014  17.260 -0.1943  0.1245  0.1263
10833TIP3   OH253913   5.387   1.103  11.492  0.0326 -0.9244  1.1486
10833TIP3    H153914   5.413   1.174  11.551  1.2591  1.0354 -1.5308
10833TIP3    H253915   5.301   1.129  11.459  0.3771 -0.7704  0.3409
10834TIP3   OH253916   0.891   3.573  17.073  0.3684  0.0325  0.0331
10834TIP3    H153917   0.951   3.539  17.139 -0.5146 -0.7273  0.4800
10834TIP3    H253918   0.878   3.665  17.097  1.0305  0.0981  0.1634
10835TIP3   OH253919   3.865   4.419  13.415 -0.2160  0.1473  0.1667
10835TIP3    H153920   3.846   4.326  13.419 -0.0391  0.1362  0.7753
10835TIP3    H253921   3.821   4.456  13.491 -1.2654  0.7446 -0.6893
10836TIP3   OH253922   2.908   3.088  15.398  0.1522  0.2799  0.0116
10836TIP3    H153923   2.953   3.120  15.320 -0.2855 -0.8076 -0.7103
10836TIP3    H253924   2.975   3.044  15.449  0.5944  1.6197  0.6321
10837TIP3   OH253925   6.208   3.531   5.958 -0.8217  0.0991 -0.0593
10837TIP3    H153926   6.149   3.502   6.027 -0.6305 -0.9767 -0.3338
10837TIP3    H253927   6.188   3.624   5.947 -1.2337  0.1629  1.0592
10838TIP3   OH253928   4.157   6.023   5.262 -0.4771 -0.6330  0.2826
10838TIP3    H153929   4.143   6.091   5.328 -1.1380 -0.6163  0.1298
10838TIP3    H253930   4.145   5.941   5.309 -2.6053 -0.6110 -0.1518
10839TIP3   OH253931   2.430   0.835   1.690  0.3536  0.1228  0.8537
10839TIP3    H153932   2.397   0.828   1.600 -0.0185 -0.9342  1.0608
10839TIP3    H253933   2.461   0.747   1.711  0.4939  0.3797  1.7442
10840TIP3   OH253934   1.207   3.447  15.039 -0.5413 -0.1549 -0.4357
10840TIP3    H153935   1.296   3.439  15.073  0.3286  3.1394 -1.5216
10840TIP3    H253936   1.208   3.398  14.957 -0.8096 -2.9303  1.1299
10841TIP3   OH253937   2.520   5.397  12.087 -0.1847  0.6824 -0.8210
10841TIP3    H153938   2.577   5.376  12.161  0.2807  0.6780 -1.1743
10841TIP3    H253939   2.499   5.312  12.048  1.2106  0.8057 -1.8927
10842TIP3   OH253940   1.830   1.025  11.703 -0.1039 -0.5615  0.1105
10842TIP3    H153941   1.880   0.982  11.633  0.9528  0.4165  0.2273
10842TIP3    H253942   1.866   0.988  11.784 -0.7274 -1.0607  0.1644
10843TIP3   OH253943   0.410   2.908   1.477 -0.0591  0.2830 -0.4625
10843TIP3    H153944   0.324   2.950   1.467  0.0787  0.6067 -0.3061
10843TIP3    H253945   0.469   2.980   1.501 -0.1932 -0.3076  1.8840
10844TIP3   OH253946   0.116   3.963  13.593 -0.6564  0.6448 -0.1421
10844TIP3    H153947   0.041   3.998  13.641 -1.4442 -0.1813 -0.7273
10844TIP3    H253948   0.182   3.946  13.661 -1.0303  1.2779  0.3947
10845TIP3   OH253949   5.043   1.224  12.971  0.4739 -0.1805 -0.1326
10845TIP3    H153950   5.070   1.286  12.903  0.6920 -0.2456 -0.1074
10845TIP3    H253951   5.091   1.143  12.950  2.0957  0.3705  1.2288
10846TIP3   OH253952   0.697   3.930  15.886 -0.3451  0.1388  0.6724
10846TIP3    H153953   0.764   3.947  15.820  0.0550 -1.2977  0.6751
10846TIP3    H253954   0.621   3.981  15.858  1.0241  2.6497  1.2242
10847TIP3   OH253955   0.937   5.393   0.514  0.0156 -0.2689 -0.2047
10847TIP3    H153956   0.970   5.479   0.485 -1.0220 -0.2055 -1.2861
10847TIP3    H253957   0.842   5.403   0.512 -0.1154 -1.4645 -0.3927
10848TIP3   OH253958   0.606   3.381   1.372 -0.2690  0.4558 -0.5516
10848TIP3    H153959   0.654   3.456   1.407 -0.1670  0.1027  0.0850
10848TIP3    H253960   0.521   3.386   1.415  0.9589 -1.9238  2.5661
10849TIP3   OH253961   4.531   6.771   3.231 -0.0197 -0.6589  0.1465
10849TIP3    H153962   4.514   6.683   3.265 -1.0188 -0.4481  0.2143
10849TIP3    H253963   4.573   6.755   3.146  1.2503 -1.1851  0.8415
10850TIP3   OH253964   0.735   4.028  15.124 -0.1481 -0.2222 -0.6830
10850TIP3    H153965   0.824   3.995  15.112 -0.6702 -3.4296  2.6172
10850TIP3    H253966   0.722   4.030  15.219 -3.1158  1.7205 -0.9939
10851TIP3   OH253967   4.075   6.467   5.964 -0.0023 -0.4091  0.2029
10851TIP3    H153968   4.025   6.425   5.894  0.0910 -0.5689  0.2304
10851TIP3    H253969   4.030   6.439   6.044 -0.6443  0.4907  0.1680
10852TIP3   OH253970   1.428   0.671   4.045 -0.1384  0.0968 -0.7827
10852TIP3    H153971   1.491   0.622   3.993  0.6219 -0.9082  0.9821
10852TIP3    H253972   1.477   0.699   4.122 -1.3409  1.0745 -0.3369
10853TIP3   OH253973   5.117   5.726   2.976 -0.3841  0.2274  0.8832
10853TIP3    H153974   5.045   5.665   2.995  0.1732 -0.1427  1.8622
10853TIP3    H253975   5.076   5.812   2.976 -1.5061 -0.1811 -2.0872
10854TIP3   OH253976   0.692   0.374   2.707  0.4517 -0.4193  0.0963
10854TIP3    H153977   0.776   0.331   2.723 -0.2465 -1.8203  0.1415
10854TIP3    H253978   0.627   0.314   2.745 -0.6279  0.2510 -0.6421
10855TIP3   OH253979   0.345   1.473  12.499 -0.1684  0.0167 -0.4283
10855TIP3    H153980   0.283   1.401  12.490  0.2061 -0.0973 -2.3297
10855TIP3    H253981   0.314   1.540  12.439  0.8770  0.4485 -0.5123
10856TIP3   OH253982   4.478   6.730  16.749  0.1184  0.1177  0.2279
10856TIP3    H153983   4.552   6.670  16.761 -1.4615 -1.4017  3.8340
10856TIP3    H253984   4.415   6.682  16.696  0.5369  0.2846 -0.4275
10857TIP3   OH253985   4.490   5.890   3.818  0.1465  0.2173 -0.0912
10857TIP3    H153986   4.459   5.828   3.883  2.6815 -2.6348 -1.3787
10857TIP3    H253987   4.543   5.952   3.867 -0.4774 -0.0176  0.9129
10858TIP3   OH253988   2.299   3.637  15.440  0.5767  0.3938 -0.1632
10858TIP3    H153989   2.266   3.712  15.390  1.1802  1.1250  0.5022
10858TIP3    H253990   2.359   3.593  15.380 -0.4803 -0.1165 -0.8833
10859TIP3   OH253991   3.857   4.950  12.421  0.3338 -0.9633 -0.1541
10859TIP3    H153992   3.822   4.862  12.438 -2.0109 -0.1102 -0.2246
10859TIP3    H253993   3.856   4.993  12.507 -1.5773 -0.0301 -0.5893
10860TIP3   OH253994   0.576   5.047   4.489  0.5863 -1.3366  0.1479
10860TIP3    H153995   0.639   5.002   4.433 -0.5001 -1.3000 -1.1666
10860TIP3    H253996   0.578   5.138   4.459 -0.1263 -1.3458  0.0546
10861TIP3   OH253997   4.425   3.846   3.288  0.3052 -0.1916 -0.1513
10861TIP3    H153998   4.495   3.784   3.307  0.7756  0.6021  0.8380
10861TIP3    H253999   4.432   3.911   3.358 -1.5435 -0.1968  0.0833
10862TIP3   OH254000   4.357   2.169   6.596  0.2175 -0.0606  0.6552
10862TIP3    H154001   4.361   2.204   6.686  0.8762 -1.7771  1.3409
10862TIP3    H254002   4.279   2.113   6.596 -0.0774  0.3360 -0.0266
10863TIP3   OH254003   2.032   5.231  15.902 -0.3374 -0.5044  1.1601
10863TIP3    H154004   2.017   5.160  15.964 -1.6140  0.6827  2.3132
10863TIP3    H254005   2.125   5.227  15.883 -0.3444 -2.3408  1.3392
10864TIP3   OH254006   1.260   0.749   3.407  0.1735 -0.4044  0.6961
10864TIP3    H154007   1.324   0.782   3.344  1.5787  0.4839  2.5249
10864TIP3    H254008   1.200   0.696   3.354  0.9880  0.7027 -1.4639
10865TIP3   OH254009   5.371   3.633  12.254  0.0393  0.8479  0.5455
10865TIP3    H154010   5.385   3.721  12.219 -2.9461  0.4848 -2.0074
10865TIP3    H254011   5.304   3.644  12.322 -1.2808  0.4589 -0.6589
10866TIP3   OH254012   6.145   4.783   5.873  0.1973 -0.4148 -0.2697
10866TIP3    H154013   6.220   4.723   5.869 -0.2111 -0.8638 -2.0597
10866TIP3    H254014   6.081   4.738   5.928  1.1987 -0.0122  1.3111
10867TIP3   OH254015   0.012   4.415  15.797 -0.5428 -0.1148  0.1706
10867TIP3    H154016   0.045   4.498  15.830  0.1773 -0.1493 -0.4464
10867TIP3    H254017   0.082   4.381  15.741 -0.6866 -1.2862  0.6612
10868TIP3   OH254018   6.113   6.210  11.664  0.4469  0.3219 -0.1000
10868TIP3    H154019   6.204   6.235  11.648  0.3734 -0.6062 -2.2505
10868TIP3    H254020   6.066   6.294  11.666  1.2751  0.7930  0.7541
10869TIP3   OH254021   1.719   6.530  17.205  1.0952  0.3899 -0.2106
10869TIP3    H154022   1.646   6.534  17.143  2.2862 -1.3910 -1.8353
10869TIP3    H254023   1.732   6.436  17.221  0.9566  0.7789  2.6553
10870TIP3   OH254024   3.008   2.883   3.023 -1.1041 -0.5848 -0.0830
10870TIP3    H154025   3.001   2.894   3.118 -0.8420  0.9158 -0.2123
10870TIP3    H254026   2.967   2.961   2.986 -0.1038 -0.5324 -1.1705
10871TIP3   OH254027   4.451   1.277  13.194 -0.6305  0.3277  0.0301
10871TIP3    H154028   4.387   1.206  13.203 -0.1045 -0.2137 -0.4867
10871TIP3    H254029   4.421   1.326  13.117  0.9748 -1.4321 -1.8267
10872TIP3   OH254030   4.077   3.362  15.586  0.2206 -0.1999  0.6181
10872TIP3    H154031   4.050   3.281  15.629 -1.1140  0.0313  0.2547
10872TIP3    H254032   4.026   3.431  15.629  0.2761  0.2704 -0.0501
10873TIP3   OH254033   1.563   2.046   5.589 -0.2825 -0.0769 -0.0117
10873TIP3    H154034   1.469   2.063   5.602 -0.4300  0.1463 -1.2483
10873TIP3    H254035   1.607   2.114   5.639 -0.8211  1.1305 -1.1161
10874TIP3   OH254036   2.306   1.795  11.717  0.5452  0.2900  0.1613
10874TIP3    H154037   2.273   1.718  11.763 -1.9597  1.2558  0.1383
10874TIP3    H254038   2.230   1.828  11.669  1.9464  1.9070 -1.0559
10875TIP3   OH254039   0.873   1.274   0.260 -0.0012 -0.1184  0.2200
10875TIP3    H154040   0.850   1.204   0.199  0.2853 -1.4949  1.6174
10875TIP3    H254041   0.928   1.231   0.325  0.5739  1.5329  0.8767
10876TIP3   OH254042   5.128   0.573   1.164  0.6087  0.2977  0.0210
10876TIP3    H154043   5.113   0.623   1.084  2.0042 -0.4795 -0.7608
10876TIP3    H254044   5.140   0.640   1.232  0.5431  0.9845 -0.6305
10877TIP3   OH254045   3.864   5.686   1.697 -0.8634 -0.1685 -0.3507
10877TIP3    H154046   3.809   5.701   1.620  1.0827 -0.1468 -1.8013
10877TIP3    H254047   3.918   5.765   1.704  2.7489 -2.2139 -2.2867
10878TIP3   OH254048   4.660   6.419  15.690  0.7128  0.2052 -0.1618
10878TIP3    H154049   4.719   6.495  15.696 -0.4955  1.4090 -2.3264
10878TIP3    H254050   4.705   6.359  15.631  0.8378  0.0355  0.1020
10879TIP3   OH254051   4.832   3.393  13.382  0.1384  0.6267 -0.4616
10879TIP3    H154052   4.828   3.335  13.458  0.6921 -3.0743 -2.9826
10879TIP3    H254053   4.906   3.450  13.400  1.2153 -1.1444  1.1872
10880TIP3   OH254054   2.755   5.516  15.588 -0.4893 -0.0932  0.2326
10880TIP3    H154055   2.730   5.561  15.507 -2.7558 -1.8934 -0.1649
10880TIP3    H254056   2.675   5.514  15.640  0.5479 -0.3337  1.8880
10881TIP3   OH254057   0.996   4.941   1.057 -0.5396  0.1943 -0.0552
10881TIP3    H154058   0.930   5.002   1.024 -1.1496 -0.7986 -0.7522
10881TIP3    H254059   0.945   4.865   1.087  0.2307 -0.2534  0.1562
10882TIP3   OH254060   4.425   2.259   2.999  0.1165 -0.8766 -0.1388
10882TIP3    H154061   4.450   2.346   3.030 -4.4334  0.5565  0.1663
10882TIP3    H254062   4.490   2.238   2.933  1.6555  2.5635  0.0556
10883TIP3   OH254063   6.274   2.061  15.300 -0.0026  0.4174 -0.0856
10883TIP3    H154064   6.217   2.118  15.352 -0.3724 -1.1254  1.2717
10883TIP3    H254065   6.339   2.028  15.361 -0.0792 -0.9838 -0.7180
10884TIP3   OH254066   2.235   1.096  12.874 -0.3930  0.3752 -0.9299
10884TIP3    H154067   2.297   1.083  12.803 -1.4568 -1.8591 -1.5693
10884TIP3    H254068   2.153   1.057  12.842 -0.6369 -1.7674  1.8665
10885TIP3   OH254069   2.072   2.947  17.124 -0.2923 -0.3811  0.2153
10885TIP3    H154070   1.986   2.984  17.144 -1.2510 -2.5042  0.2629
10885TIP3    H254071   2.116   2.941  17.208  0.4475  1.8577  0.0484
10886TIP3   OH254072   6.226   0.938  11.536  0.1761 -0.2222 -0.0072
10886TIP3    H154073   6.265   0.895  11.612  0.8096  0.4464  0.0588
10886TIP3    H254074   6.222   0.869  11.470 -0.6644 -0.8939  0.7168
10887TIP3   OH254075   1.598   5.535  17.050  0.1392 -0.3989  0.0783
10887TIP3    H154076   1.597   5.576  17.136 -1.0017 -0.6156  0.1838
10887TIP3    H254077   1.628   5.604  16.990 -0.7153  0.2661  0.4021
10888TIP3   OH254078   3.584   2.359  12.904 -0.5953 -0.1618  1.1075
10888TIP3    H154079   3.579   2.325  12.993 -0.7680  0.1106  1.2019
10888TIP3    H254080   3.527   2.436  12.904 -1.1965 -0.5989  0.5569
10889TIP3   OH254081   1.404   3.261  13.240  0.0493 -0.0504 -0.1711
10889TIP3    H154082   1.450   3.290  13.161 -0.9800  0.2601 -0.6667
10889TIP3    H254083   1.434   3.320  13.308  1.1900 -0.5164 -0.2462
10890TIP3   OH254084   3.963   4.580  14.889  0.0921 -0.1644  0.0579
10890TIP3    H154085   3.999   4.644  14.827 -1.2002 -1.1335 -1.7850
10890TIP3    H254086   4.005   4.497  14.864  0.8156 -0.2926  1.6188
10891TIP3   OH254087   3.478   5.648  12.978 -0.3258 -0.1112 -0.2468
10891TIP3    H154088   3.544   5.602  13.029 -1.8638  0.1146  2.1283
10891TIP3    H254089   3.412   5.581  12.959 -0.5718  0.1803 -0.4266
10892TIP3   OH254090   4.367   4.213  16.314  0.1559  0.3102 -0.4916
10892TIP3    H154091   4.396   4.237  16.402 -0.4806  1.7950 -0.6526
10892TIP3    H254092   4.388   4.289  16.260  2.1047 -1.2066 -2.0375
10893TIP3   OH254093   6.207   3.169   1.222  0.3217 -0.5168  0.3396
10893TIP3    H154094   6.294   3.145   1.253  0.1312 -0.5145  0.8925
10893TIP3    H254095   6.204   3.264   1.232  0.5729 -0.4107 -0.5246
10894TIP3   OH254096   3.897   4.320   2.747  0.2461  0.1919 -0.3948
10894TIP3    H154097   3.909   4.235   2.705  3.0386  0.4091 -0.2666
10894TIP3    H254098   3.979   4.334   2.796 -0.6149  2.4257  0.5552
10895TIP3   OH254099   2.300   4.048   4.057  0.0367  0.3793 -0.1536
10895TIP3    H154100   2.316   4.112   3.988  1.8359  1.5636  1.2784
10895TIP3    H254101   2.387   4.019   4.084 -0.6760 -0.9423  0.8255
10896TIP3   OH254102   6.747   0.205   4.377  0.0095 -0.1967 -0.3978
10896TIP3    H154103   6.737   0.230   4.469  1.3517  0.5414 -0.4284
10896TIP3    H254104   6.763   0.288   4.331 -1.1436 -0.4845 -1.4038
10897TIP3   OH254105   1.310   3.644   0.918  0.0208  1.0163  0.7598
10897TIP3    H154106   1.229   3.677   0.957  0.0218 -0.0373  1.6924
10897TIP3    H254107   1.315   3.689   0.834 -4.1679 -2.2790 -1.7331
10898TIP3   OH254108   6.039   0.598   3.303 -0.0236  0.5087 -0.0831
10898TIP3    H154109   6.129   0.613   3.333  0.4331 -1.7161 -0.1663
10898TIP3    H254110   6.031   0.503   3.300 -2.9286  0.6146  1.4751
10899TIP3   OH254111   5.380   4.088   1.285 -0.0809 -0.4789  0.5072
10899TIP3    H154112   5.409   4.172   1.251 -0.3248 -1.6847 -3.1682
10899TIP3    H254113   5.289   4.081   1.256 -0.6895 -1.2919  2.4157
10900TIP3   OH254114   3.995   1.847  14.891 -0.2941 -0.0939  0.2943
10900TIP3    H154115   4.045   1.875  14.814 -0.3267 -0.8078  0.0100
10900TIP3    H254116   4.007   1.918  14.954 -0.0729  0.3867 -0.2837
10901TIP3   OH254117   2.335   4.841  13.960  0.0021  0.0168  0.0050
10901TIP3    H154118   2.291   4.919  13.995  2.2205  0.2986  2.5212
10901TIP3    H254119   2.399   4.875  13.897 -0.4289  0.0095 -0.4420
10902TIP3   OH254120   4.977   2.689   1.161  0.3448 -0.4245  0.0747
10902TIP3    H154121   5.008   2.777   1.138  1.9084 -0.2252  2.4912
10902TIP3    H254122   5.028   2.630   1.106  0.1839  0.1240 -0.6826
10903TIP3   OH254123   1.648   3.565   2.012 -0.1611 -0.5680  0.1976
10903TIP3    H154124   1.684   3.508   1.944 -0.6227 -0.8189  0.1645
10903TIP3    H254125   1.664   3.517   2.094 -0.7314 -0.8424  0.1517
10904TIP3   OH254126   5.543   2.975  14.598 -0.0684 -0.4517 -0.4352
10904TIP3    H154127   5.537   2.927  14.515 -0.2976  0.9065 -1.2399
10904TIP3    H254128   5.465   2.947  14.647 -0.4780 -0.5247 -1.1045
10905TIP3   OH254129   4.674   4.328   2.446  0.0537  0.6453 -0.5808
10905TIP3    H154130   4.613   4.254   2.454  0.1854  0.0746 -3.5827
10905TIP3    H254131   4.623   4.404   2.471 -1.0765 -0.1274 -0.4663
10906TIP3   OH254132   6.467   5.989   2.508 -0.4477  0.0013  0.3111
10906TIP3    H154133   6.437   6.079   2.505 -2.2633 -0.5844 -1.7222
10906TIP3    H254134   6.394   5.939   2.544 -0.2219 -0.8749 -0.3765
10907TIP3   OH254135   3.971   0.301  16.320 -0.5129  0.4495  0.1269
10907TIP3    H154136   3.995   0.222  16.272  1.1710  0.0904  1.4563
10907TIP3    H254137   4.036   0.366  16.292 -1.5129  1.1995 -0.4947
10908TIP3   OH254138   1.162   0.678  14.607  0.1437 -0.2241 -0.0688
10908TIP3    H154139   1.181   0.610  14.671  1.1756 -0.0129 -0.1165
10908TIP3    H254140   1.190   0.641  14.523  1.7160  0.6026  0.0435
10909TIP3   OH254141   5.124   2.673  16.647  0.1898 -0.2434 -0.5696
10909TIP3    H154142   5.094   2.703  16.733  1.0874  2.1588 -1.0341
10909TIP3    H254143   5.176   2.595  16.666 -0.3942 -0.2866  0.9665
10910TIP3   OH254144   4.823   2.068  14.691  0.3507 -0.0621 -0.2533
10910TIP3    H154145   4.728   2.068  14.702  0.3895  3.0009  1.0185
10910TIP3    H254146   4.857   2.044  14.777  0.7890 -0.9476 -0.6525
10911TIP3   OH254147   0.746   4.859   5.771 -0.2966 -0.5832 -0.3098
10911TIP3    H154148   0.817   4.910   5.731 -1.1972  2.1842  1.3297
10911TIP3    H254149   0.676   4.860   5.706 -0.8242  1.6575  0.2143
10912TIP3   OH254150   3.307   3.760   3.231  0.1690  0.2910 -0.1536
10912TIP3    H154151   3.236   3.710   3.269  0.8818  0.5691  1.6785
10912TIP3    H254152   3.267   3.844   3.206 -0.8553 -0.8186 -2.5154
10913TIP3   OH254153   3.666   2.682   2.076 -0.3525 -0.4096 -0.2544
10913TIP3    H154154   3.761   2.683   2.083 -0.3363 -1.4302 -0.2720
10913TIP3    H254155   3.648   2.628   1.999 -0.9400 -0.0550 -0.3702
10914TIP3   OH254156   2.798   0.852  16.679  0.4369 -0.1560 -0.3428
10914TIP3    H154157   2.758   0.938  16.689  0.6687  0.1784 -2.0515
10914TIP3    H254158   2.891   0.867  16.694  0.6969  0.2232 -2.1699
10915TIP3   OH254159   3.879   2.376   4.116 -0.3342 -0.5536 -0.4038
10915TIP3    H154160   3.836   2.441   4.061 -1.0696  2.1102  2.9671
10915TIP3    H254161   3.812   2.350   4.179  1.1012 -1.5033  0.7958
10916TIP3   OH254162   2.728   1.562   4.502 -0.2482 -0.4294 -0.4821
10916TIP3    H154163   2.706   1.655   4.497  1.5622 -0.0160 -2.2435
10916TIP3    H254164   2.756   1.548   4.592  1.2192  1.2241 -0.6317
10917TIP3   OH254165   3.758   1.196  15.341  0.3974  0.2499  0.1330
10917TIP3    H154166   3.766   1.246  15.260 -0.3459  0.0304 -0.0843
10917TIP3    H254167   3.842   1.208  15.386  0.7096  0.5933 -0.5396
10918TIP3   OH254168   2.867   1.603   4.773  0.0975 -0.4092 -0.1338
10918TIP3    H154169   2.908   1.555   4.845  1.1467  2.3681  1.2563
10918TIP3    H254170   2.777   1.618   4.802 -0.0500 -0.9285 -0.2998
10919TIP3   OH254171   3.196   1.078   0.226 -0.2182  0.5888 -0.3105
10919TIP3    H154172   3.132   1.107   0.161 -1.4643  0.9230  1.0144
10919TIP3    H254173   3.178   0.985   0.237  0.0846  0.5016 -0.5146
10920TIP3   OH254174   1.707   1.222  11.550  0.4539  0.4114 -0.4700
10920TIP3    H154175   1.729   1.167  11.625 -1.3851 -0.2845 -0.3779
10920TIP3    H254176   1.786   1.272  11.533  1.6993 -1.1474  0.4259
10921TIP3   OH254177   6.141   1.756  16.150  0.4287  0.0945  0.0193
10921TIP3    H154178   6.151   1.693  16.222 -0.7875  0.6425  0.6888
10921TIP3    H254179   6.047   1.762  16.136  0.5482  1.4878 -0.2989
10922TIP3   OH254180   2.375   2.364   3.284  0.0097 -0.3871 -0.2820
10922TIP3    H154181   2.409   2.428   3.221 -0.5736 -1.0609 -1.3064
10922TIP3    H254182   2.327   2.417   3.348 -1.3644  0.1467 -1.6896
10923TIP3   OH254183   2.609   0.699  13.168 -0.2245 -0.2368 -0.2901
10923TIP3    H154184   2.661   0.630  13.209 -0.2334  0.3656  0.7583
10923TIP3    H254185   2.519   0.667  13.170 -0.1038 -0.6048 -0.6809
10924TIP3   OH254186   4.675   0.190  11.205  0.2999  0.1384 -0.6261
10924TIP3    H154187   4.704   0.167  11.116  0.8066 -1.0169 -0.1887
10924TIP3    H254188   4.742   0.152  11.262 -2.1742 -3.0387  0.4889
10925TIP3   OH254189   4.693   3.133  15.477 -0.5234 -0.6337  0.1762
10925TIP3    H154190   4.715   3.058  15.423 -0.4121 -0.6519  0.2465
10925TIP3    H254191   4.681   3.205  15.416 -0.3374 -0.6399  0.1339
10926TIP3   OH254192   0.568   1.865   6.088  0.0221  0.4106 -0.7392
10926TIP3    H154193   0.508   1.808   6.040  0.1595 -0.0260 -0.3982
10926TIP3    H254194   0.581   1.821   6.172  1.0231  0.3686 -0.9111
10927TIP3   OH254195   2.578   4.853  16.255  0.0631 -0.0318 -1.1579
10927TIP3    H154196   2.558   4.760  16.268  4.3113 -0.8316  1.6731
10927TIP3    H254197   2.637   4.855  16.180  2.0724 -0.1179  0.3445
10928TIP3   OH254198   5.708   6.603   1.767 -1.1051  0.0127 -0.1179
10928TIP3    H154199   5.658   6.640   1.839  2.1475  0.3561  2.1616
10928TIP3    H254200   5.719   6.510   1.789  1.7207  0.5361  1.1628
10929TIP3   OH254201   2.401   5.357   1.877  0.1698 -0.3656  0.3816
10929TIP3    H154202   2.368   5.447   1.880  1.9587  0.3193  1.8299
10929TIP3    H254203   2.409   5.338   1.783 -1.2372  0.5726  0.0388
10930TIP3   OH254204   4.755   2.238   6.685 -0.1546  0.2060 -0.2135
10930TIP3    H154205   4.836   2.196   6.714 -0.0539  1.7140  1.9108
10930TIP3    H254206   4.694   2.165   6.673  0.9379 -0.7995  0.1118
10931TIP3   OH254207   1.556   5.552   2.215 -0.4663 -0.1017 -0.3077
10931TIP3    H154208   1.627   5.614   2.197  0.5930 -0.2679  2.7219
10931TIP3    H254209   1.583   5.471   2.172  1.5881 -0.3330  1.2202
10932TIP3   OH254210   2.378   1.012   4.011  0.2307  0.5724 -0.3497
10932TIP3    H154211   2.369   1.088   4.068 -0.0501 -0.5237  1.1194
10932TIP3    H254212   2.464   0.975   4.032 -0.5146 -0.7478  0.5923
10933TIP3   OH254213   3.340   3.443  15.674  0.6728  0.5022  0.2350
10933TIP3    H154214   3.424   3.397  15.680  1.2759  1.6460  1.0141
10933TIP3    H254215   3.294   3.400  15.602  1.4290 -0.9318  0.5719
10934TIP3   OH254216   0.503   4.022  16.886 -0.0288  0.0916  0.1331
10934TIP3    H154217   0.458   4.106  16.900  0.4532  0.2275  0.9333
10934TIP3    H254218   0.501   4.009  16.792 -2.5929 -0.3808  0.1911
10935TIP3   OH254219   4.079   1.518   2.897 -0.8832 -0.4246 -0.1558
10935TIP3    H154220   4.045   1.428   2.901  0.4409 -0.9763 -0.6423
10935TIP3    H254221   4.097   1.541   2.988 -0.3893 -1.0017 -0.1015
10936TIP3   OH254222   0.020   6.123  16.062  0.1777  0.4499 -0.1371
10936TIP3    H154223   0.000   6.121  15.968  1.6879  1.1248 -0.5012
10936TIP3    H254224  -0.063   6.149  16.103 -0.5332  0.0563 -1.2600
10937TIP3   OH254225   6.706   0.014  16.152 -0.5168 -0.2955 -0.0455
10937TIP3    H154226   6.640  -0.046  16.187 -2.4888  0.4907 -2.1666
10937TIP3    H254227   6.744  -0.033  16.078 -0.7344  0.3213 -0.5575
10938TIP3   OH254228   4.208   5.854   6.026  0.1262 -0.1371  0.1171
10938TIP3    H154229   4.263   5.778   6.044 -1.2134 -1.2712 -0.4274
10938TIP3    H254230   4.206   5.860   5.930  1.4730  1.5752  0.1272
10939TIP3   OH254231   6.416   6.523   1.246  0.1697  0.3690 -0.3454
10939TIP3    H154232   6.416   6.442   1.297 -0.9618  1.6761  1.8685
10939TIP3    H254233   6.339   6.571   1.276  1.7777  3.0857 -0.2329
10940TIP3   OH254234   4.909   0.163   2.697 -0.0703  0.0652 -0.2588
10940TIP3    H154235   4.972   0.176   2.768 -0.8820 -1.9043  0.9058
10940TIP3    H254236   4.839   0.225   2.716 -0.9147 -1.3116  1.5289
10941TIP3   OH254237   0.232   6.773  13.324  0.0084 -0.0774  0.5542
10941TIP3    H154238   0.327   6.782  13.332 -0.0608  0.6842  0.6462
10941TIP3    H254239   0.216   6.679  13.319  0.7482 -0.2186  0.8011
10942TIP3   OH254240   4.008   2.275   6.301 -0.2640 -0.1182 -0.3029
10942TIP3    H154241   4.092   2.245   6.336 -0.3870  0.6458  0.7138
10942TIP3    H254242   4.014   2.370   6.305 -2.4841  0.0542  3.2865
10943TIP3   OH254243   2.915   0.357   3.587 -0.0141  0.1894  0.3848
10943TIP3    H154244   2.848   0.291   3.568  0.8106 -0.8971  1.1598
10943TIP3    H254245   2.903   0.423   3.518 -1.0883 -0.5793 -0.2002
10944TIP3   OH254246   6.513   3.425   1.983 -0.5564  0.0552 -0.2015
10944TIP3    H154247   6.538   3.359   1.918 -0.6984  0.0149 -0.2161
10944TIP3    H254248   6.594   3.445   2.029 -0.6512 -0.6761  0.3015
10945TIP3   OH254249   1.846   2.802   5.951 -0.9339  0.5194  0.1118
10945TIP3    H154250   1.886   2.877   5.905 -0.4572  0.5219  0.5206
10945TIP3    H254251   1.918   2.763   6.000 -1.1741 -0.2367 -0.1232
10946TIP3   OH254252   1.762   1.638   1.452  0.1734  0.2828 -0.2393
10946TIP3    H154253   1.667   1.631   1.441  0.0416  1.7298 -0.2493
10946TIP3    H254254   1.791   1.690   1.377  1.0342 -0.4225 -0.4129
10947TIP3   OH254255   2.453   0.880   5.542 -0.3038  0.7726  0.0555
10947TIP3    H154256   2.391   0.908   5.475 -0.1511 -0.0653 -0.4614
10947TIP3    H254257   2.399   0.853   5.616 -0.4391  2.7040  0.6962
10948TIP3   OH254258   6.647   4.580   6.637  0.2521  0.1326 -0.0625
10948TIP3    H154259   6.603   4.652   6.593  0.9822 -0.1994 -1.4050
10948TIP3    H254260   6.738   4.609   6.646  0.6893 -0.8194 -1.1543
10949TIP3   OH254261   6.467   4.221  15.452 -0.0583 -0.5809  0.3552
10949TIP3    H154262   6.398   4.184  15.507 -1.2894  1.3238  0.1719
10949TIP3    H254263   6.474   4.161  15.378 -0.8528 -1.2942  0.8449
10950TIP3   OH254264   0.507   3.820   0.820 -0.0668 -0.2623 -0.0966
10950TIP3    H154265   0.522   3.739   0.770 -0.6583 -0.0122 -0.6866
10950TIP3    H254266   0.496   3.790   0.910 -0.6912 -0.8956 -0.3683
10951TIP3   OH254267   6.769   0.854   4.670  0.2850 -0.1530 -0.0555
10951TIP3    H154268   6.838   0.854   4.603  0.2501  0.5108 -0.1048
10951TIP3    H254269   6.785   0.934   4.720  0.3366 -0.6640  0.7659
10952TIP3   OH254270   6.777   2.801  15.529 -0.0045  0.5306 -0.2595
10952TIP3    H154271   6.708   2.823  15.593 -0.2106  0.2617 -0.3841
10952TIP3    H254272   6.759   2.857  15.454 -0.6802 -0.2135 -0.6751
10953TIP3   OH254273   3.142   3.470   4.632  0.3082  0.1590  0.3263
10953TIP3    H154274   3.049   3.492   4.641 -0.1815 -1.6021 -0.1640
10953TIP3    H254275   3.180   3.496   4.716 -0.4022  1.8470  0.1727
10954TIP3   OH254276   6.660   3.228   0.020 -0.1771 -0.3807 -0.2026
10954TIP3    H154277   6.739   3.279   0.002  0.8512 -2.1898 -1.0434
10954TIP3    H254278   6.692   3.140   0.040 -1.9622 -1.0599 -0.1520
10955TIP3   OH254279   6.424   1.681   6.680  0.6959  0.0999 -0.5076
10955TIP3    H154280   6.357   1.746   6.655  1.9513  0.4761 -3.2464
10955TIP3    H254281   6.379   1.597   6.674  0.0588  0.4447 -0.7238
10956TIP3   OH254282   5.927   5.379  15.302  0.0112 -0.4832  0.3586
10956TIP3    H154283   5.958   5.447  15.362 -0.0819 -0.0986 -0.0210
10956TIP3    H254284   5.960   5.407  15.216  0.8390 -1.4450  0.3410
10957TIP3   OH254285   1.920   0.951  11.945 -0.3247  0.1543 -0.2791
10957TIP3    H154286   1.846   0.992  11.989  0.4979  1.5091 -0.0810
10957TIP3    H254287   1.997   0.983  11.992  0.3599 -2.7113  0.7588
10958TIP3   OH254288   0.592   4.693   4.127 -0.0850  0.1648  0.8452
10958TIP3    H154289   0.537   4.617   4.109  0.9187 -0.4334  0.2180
10958TIP3    H254290   0.531   4.767   4.131 -0.8970 -0.4374 -0.1081
10959TIP3   OH254291   0.052   4.480   6.425  0.2958 -0.0922  0.4149
10959TIP3    H154292   0.065   4.515   6.513 -1.3488  1.0446  0.2599
10959TIP3    H254293   0.095   4.394   6.427 -1.7396 -1.2274  3.1281
10960TIP3   OH254294   6.036   0.635   2.660  0.4278  0.0814 -0.3572
10960TIP3    H154295   6.061   0.591   2.579  1.2535 -0.3688  0.1314
10960TIP3    H254296   6.093   0.712   2.664 -0.5150  0.8408 -0.8443
10961TIP3   OH254297   0.780   4.906   2.395 -0.0239 -0.1997 -0.3682
10961TIP3    H154298   0.730   4.838   2.349 -1.8454  1.8907 -1.6754
10961TIP3    H254299   0.850   4.858   2.440 -2.7175 -3.2284  0.9416
10962TIP3   OH254300   4.617   0.474   2.110 -0.4403  0.9406 -0.2786
10962TIP3    H154301   4.642   0.507   2.196  1.6237  0.3436 -0.6052
10962TIP3    H254302   4.696   0.434   2.075 -1.3240  0.8242 -2.3133
10963TIP3   OH254303   1.500   0.290  16.496 -0.3146 -0.0018  0.2723
10963TIP3    H154304   1.565   0.347  16.455  0.1903 -0.8289 -0.1282
10963TIP3    H254305   1.479   0.225  16.428 -2.6106  1.0301 -0.1091
10964TIP3   OH254306   4.297   0.358   5.142 -0.1325  0.2635 -0.3825
10964TIP3    H154307   4.359   0.392   5.207 -1.7641  2.1282  0.2888
10964TIP3    H254308   4.315   0.264   5.139  0.7838  0.2914  1.9425
10965TIP3   OH254309   3.469   2.702   3.511  0.4475  0.4410 -0.1701
10965TIP3    H154310   3.532   2.757   3.464 -1.1047  0.7312 -2.0162
10965TIP3    H254311   3.473   2.617   3.467 -0.4742  0.4750 -0.3399
10966TIP3   OH254312   1.665   6.651   3.399 -0.1122 -0.6894 -0.2495
10966TIP3    H154313   1.669   6.599   3.480  0.3861 -2.4446 -1.3398
10966TIP3    H254314   1.607   6.723   3.420 -0.3173 -1.3204  1.5623
10967TIP3   OH254315   3.914   0.234  13.522 -0.4627 -0.1802  0.0097
10967TIP3    H154316   3.845   0.171  13.500  1.2134 -2.0795 -0.0826
10967TIP3    H254317   3.907   0.302  13.454 -0.7732 -1.5220 -1.3462
10968TIP3   OH254318   1.325   3.587  12.823  0.4107  0.3998 -0.1926
10968TIP3    H154319   1.328   3.640  12.744 -1.4992  1.3123  0.3028
10968TIP3    H254320   1.240   3.605  12.862  0.6702 -1.2147  1.2727
10969TIP3   OH254321   3.726   6.078  15.327 -0.3234  0.6949  0.9258
10969TIP3    H154322   3.689   6.101  15.242  0.1597  1.4457  0.9099
10969TIP3    H254323   3.806   6.031  15.306  0.9809  2.8033  0.9238
10970TIP3   OH254324   4.626   5.632  16.463 -0.1703  0.1066 -0.4914
10970TIP3    H154325   4.577   5.558  16.428 -0.0399  0.7725 -2.1919
10970TIP3    H254326   4.709   5.631  16.415  0.2494  0.7624  0.1897
10971TIP3   OH254327   3.775   2.450   5.171 -0.5564  0.0088  0.3600
10971TIP3    H154328   3.705   2.386   5.155  1.4675 -2.3677  0.3482
10971TIP3    H254329   3.848   2.397   5.205  0.5597  2.6440  2.4091
10972TIP3   OH254330   3.552   0.385   4.630 -0.5631 -0.3644 -0.6086
10972TIP3    H154331   3.623   0.380   4.565 -0.9931  0.4075 -1.1613
10972TIP3    H254332   3.479   0.338   4.589 -0.1945 -1.7090  0.2266
10973TIP3   OH254333   2.957   5.920  15.316  0.5177  0.4818 -0.0978
10973TIP3    H154334   2.985   6.008  15.340  0.7473  0.4028 -0.0666
10973TIP3    H254335   2.866   5.915  15.344  0.3196  0.9144 -0.6565
10974TIP3   OH254336   1.325   2.987   1.743  0.5538  0.2918  0.0609
10974TIP3    H154337   1.267   2.923   1.702 -0.4299  1.0378  0.2354
10974TIP3    H254338   1.408   2.977   1.698  0.2825 -0.7815 -0.2254
10975TIP3   OH254339   6.690   2.292  15.105 -0.3046 -0.3100 -0.4459
10975TIP3    H154340   6.745   2.362  15.069  2.0312 -1.2545  1.1539
10975TIP3    H254341   6.608   2.337  15.127  0.5480  1.5967 -0.9009
10976TIP3   OH254342   5.633   0.870  11.744  0.4663 -0.0467 -0.1957
10976TIP3    H154343   5.681   0.788  11.754  1.5731  0.4979 -0.7640
10976TIP3    H254344   5.546   0.844  11.714  0.8368 -0.9966 -0.4857
10977TIP3   OH254345   2.178   0.620   4.901 -0.2815 -0.0301  0.1739
10977TIP3    H154346   2.210   0.601   4.989  0.2858 -2.1148 -0.4391
10977TIP3    H254347   2.190   0.715   4.891  0.0745  0.1701  2.1514
10978TIP3   OH254348   1.117   6.691   4.313 -0.0045  0.0348  0.1089
10978TIP3    H154349   1.044   6.673   4.253 -0.2943 -2.1319  1.0042
10978TIP3    H254350   1.192   6.705   4.256 -0.8214  0.8705 -0.7975
10979TIP3   OH254351   3.281   6.384  16.254 -0.2174  0.2871 -1.1040
10979TIP3    H154352   3.354   6.383  16.316 -2.1466  0.1258  1.3772
10979TIP3    H254353   3.256   6.476  16.248 -1.8113  0.0572  0.7867
10980TIP3   OH254354   2.044   3.138   2.766  0.6944 -0.3606  0.2887
10980TIP3    H154355   2.062   3.084   2.689 -1.0023 -0.0476 -0.3499
10980TIP3    H254356   1.986   3.084   2.820  0.9203 -0.1096  0.7908
10981TIP3   OH254357   4.702   3.094   5.167  0.0158 -0.2557 -0.4942
10981TIP3    H154358   4.671   3.064   5.253 -0.0950 -1.0604 -0.8033
10981TIP3    H254359   4.789   3.129   5.184 -0.7478  1.3741  0.2666
10982TIP3   OH254360   4.937   4.447  16.650 -0.8850 -0.1989 -0.2226
10982TIP3    H154361   4.906   4.363  16.617 -2.4136 -0.1944  1.0557
10982TIP3    H254362   4.973   4.492  16.574 -0.0613 -1.9762 -0.9378
10983TIP3   OH254363   6.530   6.140  14.276 -0.3986 -0.2293  0.4216
10983TIP3    H154364   6.536   6.220  14.329  1.0811  1.4327 -2.0291
10983TIP3    H254365   6.620   6.122  14.251 -0.9372 -1.5290 -0.6707
10984TIP3   OH254366   1.165   6.717  16.596 -0.1045 -0.3907 -0.8993
10984TIP3    H154367   1.184   6.647  16.533  0.6191 -3.6183  2.5154
10984TIP3    H254368   1.251   6.746  16.627 -0.4318 -0.0057 -0.3290
10985TIP3   OH254369   3.685   2.817  14.602  0.1929  0.2879  0.2764
10985TIP3    H154370   3.595   2.840  14.580  0.3149 -0.3243 -0.9220
10985TIP3    H254371   3.734   2.899  14.592  0.0354  0.2811 -0.6547
10986TIP3   OH254372   0.074   3.097   3.751  0.7007  0.2022  0.1626
10986TIP3    H154373   0.164   3.082   3.778 -0.0690  0.2776  3.1102
10986TIP3    H254374   0.077   3.180   3.703  2.3514 -0.4440 -0.9186
10987TIP3   OH254375   0.039   2.497  15.011 -0.2950 -0.5345 -0.4311
10987TIP3    H154376   0.130   2.506  14.980 -0.6200  0.7055 -1.0885
10987TIP3    H254377  -0.010   2.559  14.958 -1.3579 -0.4047  0.6748
10988TIP3   OH254378   0.114   1.282  13.883  0.0800 -0.0187 -0.5962
10988TIP3    H154379   0.137   1.235  13.802 -0.1459 -0.6995 -0.2761
10988TIP3    H254380   0.198   1.291  13.929  0.4096  1.4267 -1.4334
10989TIP3   OH254381   5.859   6.672  13.388 -0.1790 -0.3387  0.8935
10989TIP3    H154382   5.883   6.616  13.314  0.5399  0.1817  0.7209
10989TIP3    H254383   5.764   6.661  13.397 -0.3467 -0.0213 -0.4219
10990TIP3   OH254384   0.719   5.077  13.001  0.4953  0.3414 -0.4381
10990TIP3    H154385   0.761   5.160  12.979 -2.4040  2.6559  1.8200
10990TIP3    H254386   0.660   5.059  12.927 -1.6647  2.5251  0.5916
10991TIP3   OH254387   4.460   5.712   4.064  0.1999 -0.1217 -0.2753
10991TIP3    H154388   4.411   5.643   4.109 -0.5423  0.7867  0.3469
10991TIP3    H254389   4.443   5.791   4.115  1.4831  0.4296 -0.6477
10992TIP3   OH254390   2.173   0.893   3.455  0.2788  0.0401  0.0976
10992TIP3    H154391   2.255   0.868   3.498  0.3836  0.6350  0.2507
10992TIP3    H254392   2.158   0.984   3.483 -0.6800 -0.2173  0.4456
10993TIP3   OH254393   4.832   4.757   3.184  0.1960 -0.0578  0.4936
10993TIP3    H154394   4.902   4.704   3.147 -1.2313 -1.1207 -0.8258
10993TIP3    H254395   4.802   4.707   3.260  2.1338  1.3887  2.3035
10994TIP3   OH254396   3.243   2.800   3.979  0.4094 -0.5573  0.1081
10994TIP3    H154397   3.181   2.820   3.909 -0.2237  0.7316  0.9965
10994TIP3    H254398   3.321   2.769   3.934 -0.1212 -0.1476 -1.1361
10995TIP3   OH254399   1.054   2.579   0.411 -0.3502  0.0651 -0.2953
10995TIP3    H154400   1.028   2.541   0.326 -0.1409 -2.0295  0.5157
10995TIP3    H254401   1.148   2.594   0.403  0.4566 -3.4978  0.6309
10996TIP3   OH254402   1.213   3.330  16.582  0.2483  0.5165 -0.0968
10996TIP3    H154403   1.210   3.237  16.562 -0.3515  0.3663  0.6573
10996TIP3    H254404   1.232   3.372  16.498 -1.6072 -0.1277 -0.8934
10997TIP3   OH254405   3.551   2.311   4.303 -0.2522 -0.8078 -0.2477
10997TIP3    H154406   3.513   2.378   4.359  0.0451 -1.3969  0.6783
10997TIP3    H254407   3.476   2.276   4.253 -0.6344 -0.7509  0.2795
10998TIP3   OH254408   3.356   4.917  14.299  0.1949 -0.1875  0.5737
10998TIP3    H154409   3.264   4.896  14.317  0.2791 -0.0873  1.1406
10998TIP3    H254410   3.353   4.985  14.232 -0.1190 -0.9168 -0.1754
10999TIP3   OH254411   0.748   5.507   0.758 -0.3886  0.1364 -0.1315
10999TIP3    H154412   0.747   5.529   0.665 -1.1200  0.9046  0.0523
10999TIP3    H254413   0.657   5.516   0.786 -0.1076  0.3115  0.7531
11000TIP3   OH254414   4.130   3.628   0.945  0.4784  0.4004 -0.1718
11000TIP3    H154415   4.212   3.608   0.989  0.9875  1.7788 -0.4192
11000TIP3    H254416   4.134   3.723   0.930 -0.4299  0.2442 -1.6405
11001TIP3   OH254417   4.095   6.498  13.877  0.2881 -0.4313 -0.3828
11001TIP3    H154418   4.021   6.553  13.852 -0.1669 -1.3191 -1.0548
11001TIP3    H254419   4.120   6.529  13.964  1.7677  2.6111 -1.7427
11002TIP3   OH254420   3.092   0.275   4.383  0.8163 -0.6225 -0.2478
11002TIP3    H154421   3.007   0.260   4.424  0.0539  0.8904 -1.1609
11002TIP3    H254422   3.071   0.310   4.296  2.3662  0.0859 -0.3790
11003TIP3   OH254423   6.768   4.249  17.014 -0.7548 -0.1400  0.1522
11003TIP3    H154424   6.722   4.192  16.952  0.0168  0.0756 -0.6362
11003TIP3    H254425   6.778   4.332  16.967  0.8748 -0.3360  0.0976
11004TIP3   OH254426   3.552   5.410  11.478 -0.5628 -0.0158  0.3890
11004TIP3    H154427   3.622   5.371  11.425 -0.8122  0.6198 -0.4273
11004TIP3    H254428   3.522   5.485  11.427 -0.6102  0.8063  1.5608
11005TIP3   OH254429   2.004   6.361  16.980 -0.5744  0.5213  0.2333
11005TIP3    H154430   2.009   6.405  17.065 -2.2961  1.7771 -0.2509
11005TIP3    H254431   2.051   6.279  16.993  0.2304  1.2080  2.0444
11006TIP3   OH254432   5.220   1.097   0.253  0.0696 -0.5263 -0.4196
11006TIP3    H154433   5.247   1.038   0.183  0.3158  1.0916 -1.7593
11006TIP3    H254434   5.157   1.156   0.211  0.0917  0.3732  0.7737
11007TIP3   OH254435   5.453   5.454   0.834 -0.4194  0.0078  0.6679
11007TIP3    H154436   5.497   5.487   0.755 -2.0700  1.1443  0.1726
11007TIP3    H254437   5.436   5.531   0.886 -1.5419 -0.4295  0.9802
11008TIP3   OH254438   1.790   0.181  14.344  0.1905  0.1447 -0.4328
11008TIP3    H154439   1.797   0.272  14.370  1.3280  0.6760 -2.3839
11008TIP3    H254440   1.726   0.181  14.272 -0.7309 -0.8153  0.3465
11009TIP3   OH254441   0.707   0.634  10.554 -0.3951 -0.4716 -0.3528
11009TIP3    H154442   0.655   0.554  10.552 -0.5870 -0.4600  1.8039
11009TIP3    H254443   0.798   0.604  10.556 -0.4218 -0.9901  4.2723
11010TIP3   OH254444   2.124   5.213   1.320 -0.4127 -0.3230 -0.6169
11010TIP3    H154445   2.152   5.131   1.361  0.7680 -0.6577 -2.0084
11010TIP3    H254446   2.109   5.273   1.393 -0.5393 -1.5379  0.3868
11011TIP3   OH254447   6.758   0.805  12.152  0.4678  0.2117 -0.0607
11011TIP3    H154448   6.790   0.791  12.241 -0.1605 -0.0662  0.1271
11011TIP3    H254449   6.717   0.722  12.128 -1.9796  1.1722  0.5195
11012TIP3   OH254450   1.467   5.163  14.686  0.1792 -0.1054 -0.3315
11012TIP3    H154451   1.527   5.132  14.618  0.9112  1.2798 -0.3490
11012TIP3    H254452   1.384   5.175  14.641  0.3848 -0.2245 -0.7470
11013TIP3   OH254453   4.542   1.346  14.009 -0.1313  0.0728  0.0974
11013TIP3    H154454   4.572   1.436  14.016  0.7000 -0.0625 -1.4265
11013TIP3    H254455   4.600   1.296  14.067  0.6762  0.2393 -0.5618
11014TIP3   OH254456   6.317   4.684   4.834  0.2315 -1.1930 -0.5737
11014TIP3    H154457   6.259   4.673   4.909 -1.1817  3.6168 -0.6070
11014TIP3    H254458   6.274   4.636   4.763 -2.6318  0.3775 -0.0426
11015TIP3   OH254459   4.304   4.244   0.734 -0.1094  0.5044 -0.3481
11015TIP3    H154460   4.290   4.320   0.791 -0.7805 -2.0361  3.1836
11015TIP3    H254461   4.298   4.168   0.792  2.2914 -2.2669 -3.3147
11016TIP3   OH254462   2.728   6.036   4.412 -0.5940 -0.0482 -0.0404
11016TIP3    H154463   2.760   5.955   4.453  0.1277  0.1614 -0.1786
11016TIP3    H254464   2.705   6.011   4.322  0.3949  0.0696 -0.3292
11017TIP3   OH254465   0.306   5.462  12.401  0.6156  0.7586 -0.5731
11017TIP3    H154466   0.395   5.456  12.365 -0.0311 -0.2999 -2.0811
11017TIP3    H254467   0.283   5.372  12.424  0.3036  1.1677  0.8131
11018TIP3   OH254468   2.622   2.881  14.878 -0.3023 -0.1882 -0.0122
11018TIP3    H154469   2.672   2.813  14.832  0.4043 -0.8579  1.6659
11018TIP3    H254470   2.570   2.833  14.943 -1.1572  0.7399  0.0156
11019TIP3   OH254471   6.744   0.038   3.931 -0.2617 -0.4400 -0.3365
11019TIP3    H154472   6.747  -0.006   3.846 -1.9904 -0.1477 -0.5776
11019TIP3    H254473   6.665   0.092   3.927  1.4943  2.3793  0.1085
11020TIP3   OH254474   2.927   3.004   3.577 -0.6451  0.0525 -0.7338
11020TIP3    H154475   2.850   3.031   3.527 -0.5048  1.8376 -0.0549
11020TIP3    H254476   3.000   3.015   3.515 -0.6264  1.0290 -0.5608
11021TIP3   OH254477   3.171   4.791  14.477 -0.3632  0.0703  0.0956
11021TIP3    H154478   3.258   4.757  14.500 -0.9377 -0.3125  1.8961
11021TIP3    H254479   3.123   4.715  14.445 -0.2532  0.1508 -0.2715
11022TIP3   OH254480   1.591   4.091   1.511 -0.0760 -0.4491 -0.5687
11022TIP3    H154481   1.546   4.032   1.450 -0.2401 -1.3254  0.3799
11022TIP3    H254482   1.657   4.135   1.457 -0.4685 -0.9204 -1.4578
11023TIP3   OH254483   4.738   6.211  14.655  0.0062 -0.3065 -0.3294
11023TIP3    H154484   4.664   6.248  14.607  1.1373 -0.5418 -2.3417
11023TIP3    H254485   4.755   6.274  14.725  0.4438  1.8802 -2.2765
11024TIP3   OH254486   6.758   3.792  13.449 -0.6549 -0.1245  0.1738
11024TIP3    H154487   6.770   3.708  13.492 -0.4099  0.2537  0.8562
11024TIP3    H254488   6.829   3.847  13.482 -1.9739  0.9670  1.3134
11025TIP3   OH254489   0.432   6.411   6.694 -0.5043 -0.1843  0.7345
11025TIP3    H154490   0.365   6.480   6.694 -1.0464 -0.6907  1.6160
11025TIP3    H254491   0.501   6.445   6.752  0.2575  0.5548 -0.5674
11026TIP3   OH254492   0.424   5.286   0.023 -0.3408  0.5257 -0.2915
11026TIP3    H154493   0.380   5.363   0.059 -3.2146  0.3989 -3.0730
11026TIP3    H254494   0.454   5.314  -0.064  0.8091 -0.8303 -0.3696
11027TIP3   OH254495   0.877   4.887   3.060  1.0035  0.2532 -0.2231
11027TIP3    H154496   0.860   4.943   3.136  0.7239  0.1954 -0.2457
11027TIP3    H254497   0.972   4.871   3.064  0.9101 -0.1764  0.4033
11028TIP3   OH254498   4.474   1.775  16.877 -0.5762 -0.8886 -0.6211
11028TIP3    H154499   4.458   1.697  16.931  0.9928 -0.7036  0.1611
11028TIP3    H254500   4.483   1.846  16.941  1.7000 -0.7253 -1.0342
11029TIP3   OH254501   1.647   4.641   1.095 -0.2923 -0.2871  0.0039
11029TIP3    H154502   1.649   4.699   1.019 -1.1272  0.7059  0.7098
11029TIP3    H254503   1.705   4.683   1.159 -0.2487 -0.6747  0.2227
11030TIP3   OH254504   5.771   3.320   0.550  0.0036 -0.3709  0.7505
11030TIP3    H154505   5.799   3.244   0.499 -1.7811 -1.2821  1.0618
11030TIP3    H254506   5.720   3.283   0.622 -3.4175  1.2055 -0.6927
11031TIP3   OH254507   1.090   1.736   3.523  0.2345 -0.5666  0.2305
11031TIP3    H154508   1.081   1.682   3.601 -1.0257 -1.5677 -0.5617
11031TIP3    H254509   1.184   1.738   3.505  0.3342 -2.2515  0.4459
11032TIP3   OH254510   6.479   4.630  10.558  0.4291 -0.1698 -0.0936
11032TIP3    H154511   6.426   4.652  10.482 -0.2624  1.6276  0.8621
11032TIP3    H254512   6.433   4.556  10.598 -0.9579  0.8447  0.2687
11033TIP3   OH254513   0.328   4.809  15.931 -0.1748 -0.1356 -0.4903
11033TIP3    H154514   0.349   4.797  16.023 -1.8493 -1.3948 -0.2370
11033TIP3    H254515   0.413   4.829  15.890  1.8083 -5.0572  0.4335
11034TIP3   OH254516   4.663   0.790   4.135 -0.4076  0.4457  0.2729
11034TIP3    H154517   4.655   0.696   4.153 -0.3125  0.5454  0.8537
11034TIP3    H254518   4.757   0.808   4.142 -0.3020  0.3951 -0.8384
11035TIP3   OH254519   3.412   5.016   2.965  0.6422 -0.0722 -0.3150
11035TIP3    H154520   3.485   5.013   2.903  0.7500 -0.6648 -0.1640
11035TIP3    H254521   3.335   5.028   2.909  0.7611 -0.3783 -0.5532
11036TIP3   OH254522   4.938   4.825   4.756  0.5093 -0.2818  0.6305
11036TIP3    H154523   4.883   4.894   4.794 -0.6337 -0.5068 -0.5427
11036TIP3    H254524   4.885   4.746   4.763  1.5851 -0.9621  1.4545
11037TIP3   OH254525   5.779   5.718  15.444 -0.1143  0.0887  0.1413
11037TIP3    H154526   5.787   5.804  15.487 -0.6501  0.4824 -0.5294
11037TIP3    H254527   5.864   5.704  15.403 -0.4368  0.9132 -0.8476
11038TIP3   OH254528   0.672   3.603  16.350 -0.0227  0.3578 -0.3769
11038TIP3    H154529   0.651   3.602  16.443 -0.2357 -0.2152 -0.4286
11038TIP3    H254530   0.621   3.676  16.315 -3.0967 -1.7733 -0.7381
11039TIP3   OH254531   5.683   3.116  14.178 -0.6954 -0.0642 -0.0296
11039TIP3    H154532   5.746   3.109  14.250  1.0843  0.7666 -1.4307
11039TIP3    H254533   5.609   3.164  14.215 -0.0594 -0.1264  1.3833
11040TIP3   OH254534   3.534   3.789  12.771  0.1296  0.0244  0.2736
11040TIP3    H154535   3.499   3.844  12.701 -0.3073  0.3585  0.7423
11040TIP3    H254536   3.472   3.715  12.777  0.4193 -0.2410  0.0017
11041TIP3   OH254537   0.146   5.258  14.054  0.2288 -0.1554  0.1755
11041TIP3    H154538   0.224   5.286  14.102  1.9868 -0.3345 -2.3395
11041TIP3    H254539   0.175   5.181  14.004 -1.5298 -0.1579 -0.9198
11042TIP3   OH254540   0.158   5.922   4.836  0.4903  0.2438  0.5717
11042TIP3    H154541   0.216   5.856   4.874  0.6996 -0.4840 -0.9192
11042TIP3    H254542   0.119   5.877   4.761 -2.5737  0.4441  1.8986
11043TIP3   OH254543   0.021   1.060   5.417 -0.3432  0.0313 -0.1219
11043TIP3    H154544  -0.004   1.078   5.508  1.3341 -0.9468  0.5835
11043TIP3    H254545   0.114   1.037   5.422 -0.4386 -0.9560 -1.9621
11044TIP3   OH254546   6.499   4.587   4.455 -0.2139 -0.3662  0.0288
11044TIP3    H154547   6.432   4.527   4.423 -1.2178  0.5726  0.3116
11044TIP3    H254548   6.537   4.543   4.530 -0.7363 -0.7780  0.0597
11045TIP3   OH254549   6.467   5.767   0.756  0.4255 -0.0959 -0.4268
11045TIP3    H154550   6.519   5.802   0.828 -0.6563  0.9689 -0.1335
11045TIP3    H254551   6.377   5.789   0.778 -0.2807 -2.5703 -0.5534
11046TIP3   OH254552   3.148   0.717   3.219  0.3653 -0.0385  0.4187
11046TIP3    H154553   3.215   0.758   3.275  0.7937 -1.4811  1.0039
11046TIP3    H254554   3.198   0.663   3.158 -0.2482 -0.9947  0.7415
11047TIP3   OH254555   4.305   3.175   2.977 -0.6648 -0.0118 -0.1703
11047TIP3    H154556   4.385   3.139   3.015 -1.4537 -1.0364  0.5849
11047TIP3    H254557   4.325   3.266   2.959  0.8240 -0.3756 -0.4471
11048TIP3   OH254558   6.484   3.042   1.274 -0.1303  0.3637  0.4807
11048TIP3    H154559   6.420   3.004   1.335 -0.8835  1.4261  0.3752
11048TIP3    H254560   6.527   2.966   1.235 -1.0905 -0.3760  0.8119
11049TIP3   OH254561   0.944   0.938   4.089 -0.0220 -0.1324  0.5712
11049TIP3    H154562   0.958   1.003   4.020 -0.8799  1.3070  1.6707
11049TIP3    H254563   1.031   0.901   4.104  0.3545  0.2195 -0.6053
11050TIP3   OH254564   2.295   1.753   1.722 -0.5450  0.1551 -0.0479
11050TIP3    H154565   2.243   1.798   1.655  0.4707  2.6302  0.7129
11050TIP3    H254566   2.244   1.674   1.743 -1.5195 -0.0531 -2.7707
11051TIP3   OH254567   5.998   3.069  15.345  0.2662  0.3031 -0.4073
11051TIP3    H154568   5.977   3.162  15.336 -0.9717 -0.0710 -1.8196
11051TIP3    H254569   5.981   3.049  15.437 -3.4106  0.6346 -0.8679
11052TIP3   OH254570   0.186   6.380  17.050 -0.0975  0.0536  0.0272
11052TIP3    H154571   0.111   6.338  17.091 -0.7086  0.4027 -0.7128
11052TIP3    H254572   0.183   6.471  17.078  0.3230 -0.0282  0.3621
11053TIP3   OH254573   0.129   1.318   0.851 -0.0895  0.3588  0.1119
11053TIP3    H154574   0.169   1.347   0.770  0.7843  0.1271  0.4533
11053TIP3    H254575   0.092   1.232   0.831  0.8635 -0.0777  0.1715
11054TIP3   OH254576   2.648   5.232   3.794 -0.4918 -0.6820  0.5551
11054TIP3    H154577   2.599   5.157   3.827 -1.2250  0.0525  1.1915
11054TIP3    H254578   2.628   5.303   3.855 -1.4228  0.5748 -1.1031
11055TIP3   OH254579   5.904   1.729  12.843 -0.3500 -0.3639 -0.0647
11055TIP3    H154580   5.975   1.681  12.802 -0.5458 -0.8368  0.1336
11055TIP3    H254581   5.926   1.731  12.936 -0.4742 -0.3039 -0.0355
11056TIP3   OH254582   2.308   1.472  13.180  0.2450  0.2179  0.0932
11056TIP3    H154583   2.344   1.430  13.258  0.8985  0.7923  0.1128
11056TIP3    H254584   2.333   1.414  13.108 -0.7738 -0.5640  0.3504
11057TIP3   OH254585   1.300   5.316  15.339 -0.2616 -0.4069 -0.5449
11057TIP3    H154586   1.308   5.223  15.359  1.4696 -0.1375  0.2379
11057TIP3    H254587   1.340   5.360  15.415 -2.3952  1.0417 -0.1899
11058TIP3   OH254588   1.830   4.905   1.984  0.1385  0.5753 -0.2122
11058TIP3    H154589   1.855   4.995   1.964  2.1962  0.2981  0.8656
11058TIP3    H254590   1.774   4.879   1.911  0.9250  2.1626 -1.4421
11059TIP3   OH254591   4.966   5.353   6.530 -0.0505 -0.0546  0.1738
11059TIP3    H154592   5.019   5.424   6.566  0.1503 -0.2905  0.3448
11059TIP3    H254593   5.004   5.335   6.444 -0.2677  0.2258  0.0191
11060TIP3   OH254594   3.409   4.852   2.196  0.2813  0.9955 -0.2573
11060TIP3    H154595   3.316   4.842   2.176  0.3244  1.8546 -0.9286
11060TIP3    H254596   3.412   4.864   2.291 -0.1970 -0.0166 -0.1009
11061TIP3   OH254597   2.563   0.275  17.002 -0.3258 -0.3736  0.5009
11061TIP3    H154598   2.577   0.360  16.961  0.6167 -0.6969  0.1119
11061TIP3    H254599   2.485   0.241  16.959 -0.0969 -0.1491 -0.1128
11062TIP3   OH254600   1.382   2.228  15.596  0.0343  0.5376 -0.4075
11062TIP3    H154601   1.318   2.181  15.543 -1.0863  1.4660  0.0872
11062TIP3    H254602   1.462   2.176  15.589 -0.4041  0.0390 -2.0760
11063TIP3   OH254603   2.187   1.112  14.251 -0.1768 -0.1803 -0.2606
11063TIP3    H154604   2.101   1.093  14.214 -0.5823  0.3328  0.3995
11063TIP3    H254605   2.173   1.115  14.346  0.8912 -1.6996 -0.0072
11064TIP3   OH254606   2.639   3.366   3.575 -0.1022  0.4905 -0.4367
11064TIP3    H154607   2.661   3.276   3.600 -0.4590  1.0204  2.0042
11064TIP3    H254608   2.561   3.387   3.626 -0.7126  1.8343 -1.8474
11065TIP3   OH254609   0.133   6.614  15.423  0.4675  0.3447  0.1771
11065TIP3    H154610   0.181   6.608  15.506  0.3766 -1.1010  0.1616
11065TIP3    H254611   0.065   6.547  15.430 -0.8346  1.5805 -0.2726
11066TIP3   OH254612   1.384   5.681  16.607 -0.2490 -0.2398  0.0762
11066TIP3    H154613   1.325   5.704  16.679 -0.4243  1.7794 -0.6432
11066TIP3    H254614   1.325   5.662  16.534 -0.0606 -2.0545  0.3332
11067TIP3   OH254615   2.103   1.875  12.212 -0.6961 -0.3052  0.0464
11067TIP3    H154616   2.079   1.795  12.260  1.2191 -1.9618 -1.5484
11067TIP3    H254617   2.027   1.931  12.219 -2.8113 -2.9376 -0.1239
11068TIP3   OH254618   1.796   5.417   0.033  0.9381  0.3374  0.3597
11068TIP3    H154619   1.709   5.392  -0.001  2.0684  0.5499 -3.0541
11068TIP3    H254620   1.779   5.493   0.088 -1.0925  0.0277  0.2504
11069TIP3   OH254621   4.650   0.752   2.790 -0.0149  0.2605  0.4590
11069TIP3    H154622   4.738   0.754   2.754 -0.0130  1.6292  0.4808
11069TIP3    H254623   4.649   0.821   2.857 -1.7032  1.8869 -1.1018
11070TIP3   OH254624   1.312   0.023   1.326 -0.5697  0.3652 -0.1284
11070TIP3    H154625   1.253  -0.053   1.324 -0.7507  0.5219 -1.4908
11070TIP3    H254626   1.267   0.086   1.383  0.2098 -1.0017  2.1464
11071TIP3   OH254627   1.041   0.802  12.549 -0.1382  0.2392 -0.7091
11071TIP3    H154628   0.952   0.831  12.531 -0.5281  0.1856  1.0551
11071TIP3    H254629   1.073   0.770  12.464 -1.3537  1.3825 -1.6355
11072TIP3   OH254630   1.214   1.212   2.138  0.5397  0.2398  0.3901
11072TIP3    H154631   1.276   1.285   2.139 -0.2833  0.9945 -0.8735
11072TIP3    H254632   1.149   1.237   2.073  0.0775 -1.5070  0.1341
11073TIP3   OH254633   3.912   4.078   0.197  0.1335 -0.5361 -0.5768
11073TIP3    H154634   3.877   4.166   0.183  0.4795 -0.5853 -1.8276
11073TIP3    H254635   3.834   4.022   0.197 -0.1311 -0.2018  0.6598
11074TIP3   OH254636   6.142   3.560   1.899 -0.3858  0.0948  0.1800
11074TIP3    H154637   6.160   3.483   1.845 -0.1124 -0.0934  0.5348
11074TIP3    H254638   6.171   3.535   1.986 -1.8778 -0.0275  0.6746
11075TIP3   OH254639   1.458   3.438  15.103 -0.4835 -0.3382 -0.3651
11075TIP3    H154640   1.489   3.481  15.182 -1.8352 -0.6311  0.3703
11075TIP3    H254641   1.508   3.477  15.032  0.0209  0.6869  0.5311
11076TIP3   OH254642   1.248   1.713   2.610 -0.0047  0.2090 -0.6220
11076TIP3    H154643   1.241   1.761   2.527  1.8188 -0.8623 -1.4850
11076TIP3    H254644   1.279   1.778   2.673  2.9471  0.2136 -1.8878
11077TIP3   OH254645   4.862   4.189   2.015 -0.5456  0.0450  0.1551
11077TIP3    H154646   4.934   4.237   1.975 -0.4452 -0.8944 -0.8472
11077TIP3    H254647   4.850   4.112   1.959 -1.0993 -0.7839  1.3545
11078TIP3   OH254648   5.578   4.986   5.230  0.8058 -0.3274 -0.1861
11078TIP3    H154649   5.511   4.957   5.292 -0.0104  0.1917 -0.8181
11078TIP3    H254650   5.548   4.955   5.145  2.6213 -2.2653 -0.1975
11079TIP3   OH254651   4.132   0.339  12.787 -0.4385 -0.1522  0.0623
11079TIP3    H154652   4.207   0.342  12.847 -0.0265 -2.2184 -0.2698
11079TIP3    H254653   4.166   0.297  12.708 -1.3243  1.2838 -1.1444
11080TIP3   OH254654   5.319   2.076   1.949 -0.0302 -0.4480 -1.0573
11080TIP3    H154655   5.356   1.999   1.990 -0.2592 -0.7205 -1.3565
11080TIP3    H254656   5.228   2.052   1.928 -0.5886  0.4286  0.2472
11081TIP3   OH254657   0.307   6.353   5.400 -0.3838 -0.1704  0.6619
11081TIP3    H154658   0.213   6.369   5.403 -0.4570 -0.4258 -0.2030
11081TIP3    H254659   0.347   6.440   5.409 -0.7247  0.0803 -0.1985
11082TIP3   OH254660   2.861   0.576   5.157 -0.0977 -0.0972 -0.2433
11082TIP3    H154661   2.893   0.487   5.175  0.2093  0.1895  0.7398
11082TIP3    H254662   2.802   0.594   5.230 -0.1882  0.4907 -0.4640
11083TIP3   OH254663   6.694   4.163  11.602 -0.2960  0.0764  0.4300
11083TIP3    H154664   6.725   4.239  11.553 -0.5554 -1.7655 -2.8522
11083TIP3    H254665   6.601   4.159  11.583 -0.7294  0.0772  2.3466
11084TIP3   OH254666   2.174   4.313   2.154 -0.2329  0.0056 -0.4027
11084TIP3    H154667   2.080   4.295   2.151  0.0052 -1.2419 -1.1937
11084TIP3    H254668   2.182   4.393   2.205 -1.7413  0.2210 -0.4688
11085TIP3   OH254669   4.829   5.361  12.376  0.7304 -0.2354  0.0711
11085TIP3    H154670   4.916   5.320  12.379  1.4998  1.3027 -0.3803
11085TIP3    H254671   4.776   5.307  12.435  2.1104 -0.9247  0.7386
11086TIP3   OH254672   0.676   2.256  11.908 -0.2017  0.0071  0.1411
11086TIP3    H154673   0.704   2.166  11.927 -1.1994 -0.1938  0.7224
11086TIP3    H254674   0.711   2.308  11.981  0.6626  0.1578 -0.3691
11087TIP3   OH254675   5.722   2.237  11.817  0.0653  0.3443  0.1597
11087TIP3    H154676   5.635   2.265  11.789  0.5899  1.3141 -0.6017
11087TIP3    H254677   5.725   2.254  11.911 -0.5014  0.5122  0.1469
11088TIP3   OH254678   1.370   5.402   0.165  0.2781 -0.0008 -0.3502
11088TIP3    H154679   1.369   5.495   0.142  0.6322 -0.0571 -0.6070
11088TIP3    H254680   1.371   5.357   0.080  0.2396 -0.2360 -0.2254
11089TIP3   OH254681   3.914   0.250   1.916 -0.0752 -0.1193  0.0057
11089TIP3    H154682   3.987   0.284   1.864  0.2315 -0.7830 -0.0021
11089TIP3    H254683   3.919   0.299   1.998  2.2673 -2.2292  1.2489
11090TIP3   OH254684   0.076   6.078   5.907  0.3943  0.3520  0.6596
11090TIP3    H154685   0.058   6.169   5.931  0.9207  0.4371  0.7597
11090TIP3    H254686  -0.010   6.040   5.888  0.0650  0.5656  1.6898
11091TIP3   OH254687   5.190   4.165   6.342 -0.2772 -0.2496  0.1356
11091TIP3    H154688   5.230   4.175   6.256 -0.5886  1.5871  0.1679
11091TIP3    H254689   5.153   4.077   6.341  0.9660 -0.7963 -1.0653
11092TIP3   OH254690   4.263   6.099   4.687 -0.2002  0.1993 -0.3435
11092TIP3    H154691   4.325   6.111   4.760 -1.0970  0.4423  0.3966
11092TIP3    H254692   4.240   6.006   4.690  3.1981 -0.9417 -3.1877
11093TIP3   OH254693   1.027   1.041   1.218  0.0376  0.0374  0.1900
11093TIP3    H154694   0.974   1.081   1.287 -0.6027  0.5161 -0.5637
11093TIP3    H254695   1.042   0.952   1.248  2.5731  1.1144  2.5368
11094TIP3   OH254696   5.797   4.997   1.543  0.6552 -0.0546 -0.0824
11094TIP3    H154697   5.764   4.964   1.460  0.0864  0.8364 -0.2193
11094TIP3    H254698   5.882   5.035   1.521 -0.2381  1.7251 -0.6094
11095TIP3   OH254699   2.209   2.210   4.512  0.6061  0.5719  0.0280
11095TIP3    H154700   2.166   2.172   4.588  1.8774  1.2617  1.1293
11095TIP3    H254701   2.194   2.304   4.519  0.0612  0.5844 -1.0308
11096TIP3   OH254702   6.672   5.990  10.766 -0.0717 -0.4022 -0.4549
11096TIP3    H154703   6.766   6.007  10.759 -0.0909  0.1781  0.5694
11096TIP3    H254704   6.642   6.047  10.837 -1.2878 -0.2365 -1.0708
11097TIP3   OH254705   6.438   0.371   1.313  0.0697 -0.2868  0.3593
11097TIP3    H154706   6.468   0.420   1.390  1.1438 -0.3030 -0.0303
11097TIP3    H254707   6.504   0.303   1.302  0.9769  0.8355 -1.6614
11098TIP3   OH254708   3.998   3.528   4.512  0.2581  0.2103 -0.0458
11098TIP3    H154709   3.989   3.623   4.520 -0.6412  0.1892 -0.6955
11098TIP3    H254710   4.007   3.497   4.603  0.6286  0.9179  0.1626
11099TIP3   OH254711   1.604   3.746   1.773 -0.1404  0.3423  0.2763
11099TIP3    H154712   1.545   3.676   1.748 -0.9154  1.1975 -0.3239
11099TIP3    H254713   1.657   3.708   1.844 -1.9384 -0.1771  1.3954
11100TIP3   OH254714   4.564   0.149  14.867 -0.3037 -0.7682 -0.4926
11100TIP3    H154715   4.596   0.170  14.954 -0.6411  0.2385 -0.5951
11100TIP3    H254716   4.638   0.108  14.823  1.0506  1.8408 -0.8580
11101TIP3   OH254717   3.365   1.581  16.182  0.7626  0.1459 -0.5688
11101TIP3    H154718   3.270   1.588  16.176  0.8022  1.6004  0.1873
11101TIP3    H254719   3.386   1.500  16.135 -0.7653  0.1925 -1.3736
11102TIP3   OH254720   2.988   2.438   5.130  0.0565  0.4685  0.2714
11102TIP3    H154721   3.051   2.429   5.058  0.8336 -0.3371  1.0375
11102TIP3    H254722   2.955   2.528   5.121  3.0846  1.8280  1.2363
11103TIP3   OH254723   0.597   0.751  10.771 -0.0367  0.0421 -0.2526
11103TIP3    H154724   0.512   0.712  10.748 -0.3648 -0.0835  1.1190
11103TIP3    H254725   0.656   0.721  10.702 -0.5773 -1.8334  0.0484
11104TIP3   OH254726   3.646   3.461   2.134 -0.5565  0.1507 -0.0208
11104TIP3    H154727   3.736   3.440   2.109 -0.5704 -0.6567  0.5803
11104TIP3    H254728   3.599   3.472   2.051 -0.1632 -0.5325 -0.3378
11105TIP3   OH254729   2.372   4.548   1.164  0.0574 -0.5740  0.4117
11105TIP3    H154730   2.388   4.641   1.182  0.8272 -0.5524 -0.3106
11105TIP3    H254731   2.411   4.501   1.237  2.7082 -0.4753 -0.8493
11106TIP3   OH254732   5.523   6.758  13.969 -0.3317 -0.7414 -0.0375
11106TIP3    H154733   5.577   6.742  13.891  1.3738 -0.1871  0.9770
11106TIP3    H254734   5.529   6.678  14.020  1.4910  0.1106  1.1684
11107TIP3   OH254735   0.834   2.764   0.138  0.2752 -0.5011 -0.3193
11107TIP3    H154736   0.884   2.683   0.145  0.4616 -0.4088 -0.5631
11107TIP3    H254737   0.799   2.762   0.049 -2.5217 -1.9381  0.6705
11108TIP3   OH254738   4.515   4.096  14.225  0.1635 -0.2864 -0.0110
11108TIP3    H154739   4.583   4.060  14.168  1.2986  0.2180  0.9792
11108TIP3    H254740   4.536   4.189  14.232  0.5822 -0.4845  1.8995
11109TIP3   OH254741   1.266   5.736  14.171  0.0735  0.0099 -0.3041
11109TIP3    H154742   1.204   5.668  14.197 -0.3360  0.5223  0.0760
11109TIP3    H254743   1.231   5.816  14.208  0.4043  0.4829 -0.9875
11110TIP3   OH254744   6.692   6.056   1.965 -0.3280 -0.2485 -0.7320
11110TIP3    H154745   6.742   6.134   1.989 -2.1988  0.8216 -0.0739
11110TIP3    H254746   6.638   6.037   2.042 -2.4807 -0.0301 -2.0890
11111TIP3   OH254747   0.568   2.811  11.106 -0.1592  0.2932 -0.0432
11111TIP3    H154748   0.580   2.733  11.053  0.9591 -0.4547  1.2370
11111TIP3    H254749   0.608   2.881  11.055  0.4320 -0.3185 -0.4332
11112TIP3   OH254750   5.316   5.872   5.260 -0.0665  0.0485  0.0378
11112TIP3    H154751   5.393   5.929   5.266  1.4929 -1.8228 -1.1253
11112TIP3    H254752   5.309   5.833   5.347  1.0677 -0.6473 -0.1526
11113TIP3   OH254753   1.811   4.841  14.907 -0.3887  0.4150  0.1828
11113TIP3    H154754   1.799   4.936  14.899 -1.8201  0.2917  0.5951
11113TIP3    H254755   1.723   4.805  14.899  0.2255 -0.9517 -0.6773
11114TIP3   OH254756   4.691   6.304  11.498 -0.3747  0.1738  0.4185
11114TIP3    H154757   4.620   6.338  11.443  0.2897 -0.5822 -0.9535
11114TIP3    H254758   4.658   6.314  11.588 -1.8313  0.6955 -0.1367
11115TIP3   OH254759   2.129   1.042  11.172 -0.6037  0.2458  0.0756
11115TIP3    H154760   2.049   1.091  11.190 -1.2089 -0.0805 -1.5460
11115TIP3    H254761   2.104   0.950  11.184 -0.2961  0.1744  0.1735
11116TIP3   OH254762   2.669   4.931  17.106 -0.2686 -0.0164 -0.8843
11116TIP3    H154763   2.707   4.971  17.184  2.0951 -1.5222 -1.1810
11116TIP3    H254764   2.582   4.902  17.134 -0.1712  1.0797  0.6515
11117TIP3   OH254765   5.493   6.329  16.579  0.2636 -0.2917 -0.0324
11117TIP3    H154766   5.490   6.383  16.658  0.4747  0.9395 -0.8566
11117TIP3    H254767   5.410   6.347  16.535  0.4759 -0.3971 -0.4757
11118TIP3   OH254768   4.034   2.128   1.793  0.0463 -0.4258  0.1887
11118TIP3    H154769   4.025   2.109   1.700  0.7387 -1.0469  0.2438
11118TIP3    H254770   4.064   2.219   1.797 -2.5936  0.5630 -0.0984
11119TIP3   OH254771   4.910   4.326  16.205  0.2137 -0.9471 -0.0613
11119TIP3    H154772   4.896   4.293  16.293 -1.7164  0.7062  0.3226
11119TIP3    H254773   4.961   4.406  16.217  0.2167 -0.8822 -0.4725
11120TIP3   OH254774   1.435   0.168   0.043  0.1695  0.3544 -0.5793
11120TIP3    H154775   1.388   0.249   0.022 -0.4392  0.4843  1.1593
11120TIP3    H254776   1.367   0.105   0.066  0.7223 -0.1813 -0.3823
11121TIP3   OH254777   5.398   5.362   5.233 -0.1534  0.0053 -0.1918
11121TIP3    H154778   5.326   5.302   5.215 -0.1645  0.0985 -0.4555
11121TIP3    H254779   5.428   5.338   5.321 -0.4932 -0.0461 -0.0892
11122TIP3   OH254780   1.500   1.547   4.202  0.1577  0.8196 -0.0269
11122TIP3    H154781   1.529   1.580   4.287  1.9711 -0.6382 -0.0147
11122TIP3    H254782   1.568   1.485   4.176 -1.4977 -0.4910 -1.4934
11123TIP3   OH254783   4.367   3.359   4.937  0.3847  0.5182  0.3885
11123TIP3    H154784   4.369   3.350   4.842  0.7493  1.8958  0.2515
11123TIP3    H254785   4.412   3.441   4.955  0.9044 -0.0373  1.8043
11124TIP3   OH254786   5.374   4.723   1.527  0.7361 -0.4225 -0.7880
11124TIP3    H154787   5.429   4.651   1.496  1.1630 -0.0527 -0.8818
11124TIP3    H254788   5.428   4.801   1.519  0.7506 -0.2655  0.5768
11125TIP3   OH254789   0.991   0.153   4.440  0.0717  0.0807  0.2002
11125TIP3    H154790   0.939   0.105   4.504 -1.6723 -0.0937 -1.2354
11125TIP3    H254791   0.968   0.113   4.356  1.2253  1.1663 -0.6703
11126TIP3   OH254792   4.639   3.988  12.817  0.2480  0.7362  0.4755
11126TIP3    H154793   4.654   3.900  12.852 -1.7370  0.3218  0.4263
11126TIP3    H254794   4.704   4.043  12.860  0.2496 -0.4204  2.0313
11127TIP3   OH254795   1.012   3.289   4.624 -0.0781  0.7903  0.0870
11127TIP3    H154796   0.977   3.201   4.609  1.6142  0.1236 -0.1263
11127TIP3    H254797   0.997   3.336   4.542 -0.4616  0.5198  0.0011
11128TIP3   OH254798   2.776   1.077  13.832 -0.3052 -0.0553  1.2038
11128TIP3    H154799   2.869   1.091  13.851  0.1709 -1.5208  0.1220
11128TIP3    H254800   2.754   1.148  13.771  1.2891 -2.0377 -1.9120
11129TIP3   OH254801   1.691   6.221  15.970 -0.5553 -0.0735  0.3652
11129TIP3    H154802   1.722   6.288  16.030 -0.1637 -0.5357  0.6828
11129TIP3    H254803   1.652   6.154  16.026 -0.4813 -0.3561  0.0850
11130TIP3   OH254804   4.114   6.430   4.857 -0.6121 -0.4570  0.0547
11130TIP3    H154805   4.040   6.376   4.827 -1.2364  1.3992 -2.0533
11130TIP3    H254806   4.074   6.511   4.887  0.4815 -0.1004  0.6040
11131TIP3   OH254807   2.668   5.244   0.666 -0.1219  0.3554 -0.1755
11131TIP3    H154808   2.596   5.189   0.635  0.6253 -0.3965 -0.6263
11131TIP3    H254809   2.729   5.182   0.706 -0.4944  1.1696  1.7419
11132TIP3   OH254810   2.072   2.857  15.342 -0.0141  0.4807 -0.5024
11132TIP3    H154811   2.127   2.885  15.415  1.7089 -1.5230 -0.9600
11132TIP3    H254812   1.990   2.906  15.354  0.1008  0.0998  2.8610
11133TIP3   OH254813   1.039   3.598  11.425 -0.2763  0.0272 -0.4106
11133TIP3    H154814   1.025   3.646  11.344 -1.1716  0.9508  0.2606
11133TIP3    H254815   1.049   3.666  11.492  0.9911 -0.7048  0.1862
11134TIP3   OH254816   2.354   5.526   2.603  0.5046  0.2387  0.1379
11134TIP3    H154817   2.426   5.580   2.571 -0.5284  1.5492 -0.0413
11134TIP3    H254818   2.393   5.439   2.613  1.0357 -0.2743 -4.3739
11135TIP3   OH254819   0.432   3.296  11.112  0.4235  0.0895 -0.1724
11135TIP3    H154820   0.399   3.359  11.175  1.0851 -0.0100  0.2915
11135TIP3    H254821   0.519   3.329  11.088  1.6138 -1.5611  1.5082
11136TIP3   OH254822   4.086   3.536   4.257  0.3227  0.3294  0.1517
11136TIP3    H154823   4.063   3.484   4.333 -0.3048 -0.5968 -0.6447
11136TIP3    H254824   4.016   3.519   4.194  1.3329  0.2751 -0.9976
11137TIP3   OH254825   0.525   5.699  11.593  0.3478  0.0560  0.5172
11137TIP3    H154826   0.516   5.604  11.603 -1.6471  0.1343 -0.0884
11137TIP3    H254827   0.518   5.714  11.499 -0.8451  0.8814  0.7065
11138TIP3   OH254828   3.784   0.785  14.597 -0.1969 -0.1808 -0.4704
11138TIP3    H154829   3.727   0.799  14.672  1.7909 -0.7860  1.2257
11138TIP3    H254830   3.785   0.869  14.551  0.3444  0.9235  1.4669
11139TIP3   OH254831   4.208   0.325  15.950 -0.2483 -0.0411  0.9146
11139TIP3    H154832   4.144   0.279  16.004 -2.0163  0.5155 -0.6081
11139TIP3    H254833   4.155   0.374  15.887  1.6833  0.8914 -0.0564
11140TIP3   OH254834   1.910   3.322   1.905 -0.0437  0.1567 -0.6104
11140TIP3    H154835   1.959   3.320   1.822  1.0111 -0.4477  0.0048
11140TIP3    H254836   1.838   3.260   1.892  2.5234 -3.3504  0.3031
11141TIP3   OH254837   5.689   5.619  13.735 -0.2327  0.2107  0.5964
11141TIP3    H154838   5.662   5.529  13.751  0.2116 -0.2946 -1.2121
11141TIP3    H254839   5.785   5.618  13.744 -0.1359  0.2712 -0.3136
11142TIP3   OH254840   0.324   3.389   5.342 -0.5235  0.4254 -0.1267
11142TIP3    H154841   0.339   3.320   5.406  1.8168 -1.0380 -2.0729
11142TIP3    H254842   0.390   3.455   5.361  0.9227 -0.5320 -1.6091
11143TIP3   OH254843   5.605   3.091   4.115 -0.0557  0.2459  0.3836
11143TIP3    H154844   5.656   3.168   4.142 -1.3397  0.3061  2.9253
11143TIP3    H254845   5.670   3.020   4.110  0.7891  1.0099  0.2916
11144TIP3   OH254846   6.104   6.051  14.762  0.3126 -0.7149  0.0647
11144TIP3    H154847   6.146   6.062  14.676 -1.2741 -4.2691 -1.3484
11144TIP3    H254848   6.164   5.995  14.811  2.0532  2.6204  2.1685
11145TIP3   OH254849   1.151   6.648  15.842 -0.5754  0.4375  0.9482
11145TIP3    H154850   1.146   6.743  15.830  1.7960  0.4147 -0.8659
11145TIP3    H254851   1.110   6.612  15.763  0.2330  0.0064  0.7111
11146TIP3   OH254852   2.970   1.788  13.805  0.6499  0.8630  0.0990
11146TIP3    H154853   3.050   1.832  13.833  0.8393  0.3704  0.3404
11146TIP3    H254854   2.984   1.696  13.826  0.2636  0.6803 -0.4210
11147TIP3   OH254855   1.464   4.956  10.920  0.0223 -0.3555 -0.6046
11147TIP3    H154856   1.506   5.011  10.853  1.2936 -1.1063 -0.4488
11147TIP3    H254857   1.471   5.008  11.000 -0.3771  0.0060 -0.7982
11148TIP3   OH254858   6.228   3.349   1.749  0.0244  0.0831 -0.4784
11148TIP3    H154859   6.296   3.294   1.709 -0.0023 -0.7936  0.6300
11148TIP3    H254860   6.148   3.296   1.744 -0.2091  0.4116 -0.2473
11149TIP3   OH254861   6.294   5.909  13.307  0.6967  0.2268 -0.1304
11149TIP3    H154862   6.373   5.855  13.302  0.6419  0.1751 -0.4571
11149TIP3    H254863   6.222   5.846  13.305  0.6630  0.1859  1.4820
11150TIP3   OH254864   3.869   6.704  14.471  0.1019  0.1334 -0.0721
11150TIP3    H154865   3.848   6.645  14.543  0.2441  0.1847  0.0119
11150TIP3    H254866   3.854   6.792  14.506  1.0255  0.1994  0.1808
11151TIP3   OH254867   3.083   6.668   1.307  0.6244  0.1216 -0.0928
11151TIP3    H154868   3.099   6.705   1.394 -2.0154 -0.9665  0.9591
11151TIP3    H254869   3.143   6.593   1.301 -1.2352 -1.7191  2.1953
11152TIP3   OH254870   6.332   6.395  11.700  0.3467 -0.2292 -0.4921
11152TIP3    H154871   6.322   6.475  11.649 -0.1353 -1.6367 -2.7433
11152TIP3    H254872   6.280   6.409  11.779  0.2303  1.6258 -0.8716
11153TIP3   OH254873   2.545   0.059  13.503 -0.4430  1.0675 -0.6866
11153TIP3    H154874   2.468   0.004  13.518  0.8191 -0.8600 -0.8241
11153TIP3    H254875   2.538   0.086  13.412 -0.0548 -0.6773 -1.2693
11154TIP3   OH254876   4.570   3.841  11.791 -0.1005  0.3551 -0.3597
11154TIP3    H154877   4.598   3.863  11.880 -0.6668 -0.4054  0.0159
11154TIP3    H254878   4.480   3.873  11.786  0.5649  2.2187 -1.3474
11155TIP3   OH254879   1.552   1.704   1.104  0.2283 -0.5418 -0.2277
11155TIP3    H154880   1.574   1.658   1.024  1.4874 -1.1024  0.4078
11155TIP3    H254881   1.518   1.636   1.162  2.2350 -0.7858  0.7660
11156TIP3   OH254882   4.150   0.432   1.272 -0.2645 -0.6555  0.3729
11156TIP3    H154883   4.209   0.468   1.338 -0.0845 -2.3933  1.2038
11156TIP3    H254884   4.206   0.414   1.197  0.1286 -1.4937  0.8512
11157TIP3   OH254885   2.678   1.161  12.846  0.2840  0.4014 -0.0923
11157TIP3    H154886   2.647   1.216  12.774 -0.1183 -0.2120 -0.3924
11157TIP3    H254887   2.773   1.172  12.846  0.2417  0.7885 -0.4020
11158TIP3   OH254888   1.773   1.953  12.617 -0.2589  0.8817 -0.1110
11158TIP3    H154889   1.819   1.981  12.696  1.1808  2.4467 -1.4276
11158TIP3    H254890   1.735   2.033  12.581 -0.4300  0.2866 -1.3023
11159TIP3   OH254891   2.792   4.527  14.889 -0.0826  0.3983 -0.2677
11159TIP3    H154892   2.780   4.610  14.934 -1.6796  0.9555 -1.6309
11159TIP3    H254893   2.843   4.474  14.950 -1.9532  1.1579  2.1105
11160TIP3   OH254894   5.717   5.555   4.454 -0.2275 -0.0994  0.0974
11160TIP3    H154895   5.635   5.511   4.474 -1.3996  2.3088  0.9918
11160TIP3    H254896   5.736   5.607   4.533  1.0422  0.9933 -0.8697
11161TIP3   OH254897   6.581   0.657  12.867 -0.1189  0.0044 -0.7460
11161TIP3    H154898   6.579   0.705  12.949 -0.6337  1.0911 -1.3675
11161TIP3    H254899   6.520   0.585  12.880 -2.5836  1.8912 -1.1392
11162TIP3   OH254900   6.156   2.499  13.561  0.3585  0.0465  0.2626
11162TIP3    H154901   6.074   2.452  13.577 -0.2940  0.8841 -0.4816
11162TIP3    H254902   6.203   2.494  13.645 -2.0791  2.6418  1.9948
11163TIP3   OH254903   1.938   4.748   3.924 -0.4681  0.5125 -0.0763
11163TIP3    H154904   1.939   4.711   3.835  1.3863 -0.7643  0.4088
11163TIP3    H254905   2.027   4.781   3.936 -0.5549  0.2255  1.4805
11164TIP3   OH254906   6.751   6.763  12.058 -0.1987 -0.3190 -0.4451
11164TIP3    H154907   6.766   6.819  11.982 -0.7309  1.7813  0.9227
11164TIP3    H254908   6.674   6.712  12.036  0.6273 -0.9945 -1.9495
11165TIP3   OH254909   2.643   2.453   2.004  0.1083  0.0726 -0.2294
11165TIP3    H154910   2.692   2.421   2.080 -0.1323 -1.4654 -0.6890
11165TIP3    H254911   2.646   2.548   2.012 -0.0153 -0.0460  1.7736
11166TIP3   OH254912   5.897   4.227   0.163 -0.4088  0.3021  0.1603
11166TIP3    H154913   5.875   4.302   0.109 -2.4313 -0.6438 -0.4286
11166TIP3    H254914   5.939   4.166   0.102 -0.3385  0.2614  0.2491
11167TIP3   OH254915   1.733   4.582  16.859 -0.0886 -0.0063  0.1293
11167TIP3    H154916   1.826   4.607  16.859  0.2155 -1.0906 -0.2467
11167TIP3    H254917   1.732   4.491  16.887 -0.8407 -0.6496 -1.8127
11168TIP3   OH254918   2.923   2.039   2.306 -0.0798 -0.5578 -0.3162
11168TIP3    H154919   2.991   2.039   2.239  2.3415 -3.2853  1.8627
11168TIP3    H254920   2.888   1.950   2.304 -0.6036 -0.4179  1.3677
11169TIP3   OH254921   1.452   2.352   5.371 -0.8653 -0.4278 -0.1809
11169TIP3    H154922   1.404   2.269   5.379  0.4507 -1.1168  1.0536
11169TIP3    H254923   1.432   2.400   5.452 -2.6642  1.0915 -1.4492
11170TIP3   OH254924   5.050   1.682  15.855  0.8324  0.0160  0.4335
11170TIP3    H154925   5.144   1.686  15.872  0.9144  0.5388 -0.0947
11170TIP3    H254926   5.020   1.773  15.861  0.2738 -0.2024  1.0544
11171TIP3   OH254927   3.303   4.051  13.414 -0.8114 -0.2839  0.0721
11171TIP3    H154928   3.208   4.047  13.422 -0.9053 -1.7864 -1.2665
11171TIP3    H254929   3.334   3.974  13.461 -0.1511  0.6598  1.2569
11172TIP3   OH254930   1.396   3.841  16.684 -0.5435 -0.4385  0.0080
11172TIP3    H154931   1.422   3.756  16.651  0.7406  0.4901 -1.5205
11172TIP3    H254932   1.313   3.826  16.729 -0.2005 -2.5138  0.0315
11173TIP3   OH254933   3.555   4.780  12.780 -0.2625 -0.1042 -0.4222
11173TIP3    H154934   3.593   4.708  12.729  0.0797  0.7135 -1.3529
11173TIP3    H254935   3.469   4.794  12.742 -0.9567 -1.0165  0.7627
11174TIP3   OH254936   2.307   2.170  11.072  0.1557  0.1289 -0.0582
11174TIP3    H154937   2.388   2.219  11.056 -0.1268  0.5031 -0.3578
11174TIP3    H254938   2.301   2.110  10.997  0.8421 -0.8491  0.6346
11175TIP3   OH254939   1.095   5.987  15.446  0.3917  0.2740 -0.0302
11175TIP3    H154940   1.066   6.074  15.418 -0.5966  0.7879  2.3283
11175TIP3    H254941   1.061   5.928  15.379 -2.8614  1.3064  0.5132
11176TIP3   OH254942   0.817   2.850   1.057 -0.3754 -0.0555 -0.5350
11176TIP3    H154943   0.771   2.777   1.014  1.1378 -1.1785 -0.3528
11176TIP3    H254944   0.780   2.928   1.018 -1.1124 -0.9672 -1.7423
11177TIP3   OH254945   0.923   0.005   0.636  0.1360 -0.1548 -0.4793
11177TIP3    H154946   0.968  -0.061   0.689 -0.8871 -0.7437 -0.3084
11177TIP3    H254947   0.831  -0.006   0.658 -0.1096  0.9489 -0.9000
11178TIP3   OH254948   3.399   1.316   5.653  0.2977  0.3187 -0.7476
11178TIP3    H154949   3.305   1.325   5.669  0.0379  0.3041 -2.1195
11178TIP3    H254950   3.418   1.224   5.673 -0.2264  0.0265 -1.5330
11179TIP3   OH254951   5.948   0.273  11.247  0.1646 -0.2708 -0.4368
11179TIP3    H154952   5.915   0.310  11.329  2.4858 -0.1343  0.5189
11179TIP3    H254953   5.917   0.183  11.247 -0.1437 -0.1794  0.4322
11180TIP3   OH254954   2.484   0.059   0.161 -0.3186 -0.4503 -0.2522
11180TIP3    H154955   2.546   0.027   0.227 -0.8257  0.7110  0.8108
11180TIP3    H254956   2.401   0.020   0.186 -0.7118  0.7675  0.3943
11181TIP3   OH254957   3.043   1.100   5.685  0.4141 -0.1878  0.0104
11181TIP3    H154958   3.013   1.125   5.772 -2.2126 -0.2187 -0.7924
11181TIP3    H254959   3.064   1.007   5.693 -0.8769 -0.4700  0.3996
11182TIP3   OH254960   1.267   1.092   1.823 -0.0976 -0.2456 -0.4279
11182TIP3    H154961   1.176   1.080   1.851  0.1288  0.0638  0.4766
11182TIP3    H254962   1.303   1.003   1.820 -1.0180 -0.6006 -2.9602
11183TIP3   OH254963   5.206   4.246   6.070  0.1507 -0.1301  0.3088
11183TIP3    H154964   5.259   4.242   5.990  0.2786 -0.2453  0.3998
11183TIP3    H254965   5.199   4.339   6.090  0.6287 -0.1356  0.5055
11184TIP3   OH254966   0.630   0.080  17.132 -0.0121  0.3940  0.0669
11184TIP3    H154967   0.724   0.083  17.115 -0.4565 -0.5487 -3.6087
11184TIP3    H254968   0.610  -0.014  17.132 -1.2586  0.5843 -2.2783
11185TIP3   OH254969   0.576   2.734  15.583  0.4656 -0.6241  0.5087
11185TIP3    H154970   0.500   2.777  15.544  1.0653 -0.1578 -0.1584
11185TIP3    H254971   0.546   2.706  15.670 -0.6317 -0.9379  0.0472
11186TIP3   OH254972   2.340   3.340   4.623  0.3247  0.5705 -0.0710
11186TIP3    H154973   2.375   3.256   4.653  1.9805  0.2459 -2.6302
11186TIP3    H254974   2.260   3.319   4.576 -0.5605  0.7518  1.2815
11187TIP3   OH254975   3.047   2.065   5.847 -0.6047 -0.3955 -0.7543
11187TIP3    H154976   2.967   2.056   5.899 -0.2534  1.8979  0.3294
11187TIP3    H254977   3.115   2.022   5.899 -0.7592 -0.5122 -0.6486
11188TIP3   OH254978   2.340   5.452   6.552 -0.1532 -0.3232  0.0007
11188TIP3    H154979   2.356   5.380   6.613 -0.7025 -0.9238 -0.5364
11188TIP3    H254980   2.246   5.469   6.561 -0.2389 -0.4188 -0.6651
11189TIP3   OH254981   5.016   3.476   3.958  0.2709  0.1109 -0.2861
11189TIP3    H154982   4.985   3.446   4.043  0.8683  1.5942  0.4957
11189TIP3    H254983   5.079   3.410   3.931 -1.0773 -1.1950 -0.3420
11190TIP3   OH254984   6.235   3.475   5.329  0.3160 -0.2586 -0.2361
11190TIP3    H154985   6.244   3.390   5.371  0.0970 -0.7514 -1.1754
11190TIP3    H254986   6.179   3.525   5.389 -2.7057 -1.9976 -1.3746
11191TIP3   OH254987   1.343   1.537   0.389 -0.2034 -0.3769  0.2286
11191TIP3    H154988   1.365   1.488   0.468 -0.3551  1.0815  1.2043
11191TIP3    H254989   1.271   1.487   0.350 -0.1302 -1.1105  0.9902
11192TIP3   OH254990   5.978   2.368   2.667 -0.1686  0.1453 -0.0119
11192TIP3    H154991   5.902   2.361   2.726  1.0421 -1.9735  1.4283
11192TIP3    H254992   5.940   2.389   2.582 -2.1765  1.2445  1.0673
11193TIP3   OH254993   6.326   5.346   5.537  0.4328  0.0908 -0.0167
11193TIP3    H154994   6.414   5.368   5.567  0.2123 -1.2661  1.8540
11193TIP3    H254995   6.339   5.286   5.464  1.0326  0.7812 -0.4882
11194TIP3   OH254996   5.864   6.581   0.526 -0.7762  0.2944  0.6175
11194TIP3    H154997   5.849   6.503   0.580 -0.2263  1.4274  2.5159
11194TIP3    H254998   5.887   6.649   0.589  0.7062  1.5174 -1.1383
11195TIP3   OH254999   5.325   5.070   5.795  0.7942  0.2381  0.2485
11195TIP3    H155000   5.351   4.978   5.786  0.1874  0.1842 -1.1425
11195TIP3    H255001   5.359   5.096   5.881  0.7981 -1.3358  0.7540
11196TIP3   OH255002   1.264   1.141   0.613 -0.3851 -0.1577  0.4134
11196TIP3    H155003   1.254   1.235   0.626  0.3604  0.0106 -0.1813
11196TIP3    H255004   1.250   1.103   0.700  0.3903  0.5821  0.8711
11197TIP3   OH255005   2.529   6.546   3.200 -0.4834  0.0870 -0.0733
11197TIP3    H155006   2.531   6.547   3.296 -1.6818 -0.8855 -0.0180
11197TIP3    H255007   2.442   6.581   3.178  0.1882  1.3297 -0.8500
11198TIP3   OH255008   3.321   0.515   3.389 -0.6626 -0.4169  0.1890
11198TIP3    H155009   3.346   0.469   3.309 -1.6423 -1.7408  0.6203
11198TIP3    H255010   3.404   0.529   3.436 -0.3783 -2.1140  0.2341
11199TIP3   OH255011   0.776   2.276   4.015  0.0320  0.3758 -0.4047
11199TIP3    H155012   0.707   2.339   4.034 -0.1422 -0.0728  0.4705
11199TIP3    H255013   0.831   2.319   3.950 -0.8462  0.8951 -0.8154
11200TIP3   OH255014   2.281   0.485   6.279  0.3940  0.3187 -0.2691
11200TIP3    H155015   2.328   0.483   6.196  0.1375  1.0125 -0.4403
11200TIP3    H255016   2.209   0.423   6.267  0.2014  0.6150 -0.6630
11201TIP3   OH255017   5.064   4.604  10.576 -0.4527  0.5140  0.3603
11201TIP3    H155018   5.079   4.533  10.637 -1.8051  1.2106  1.5691
11201TIP3    H255019   5.097   4.571  10.492  2.0365 -0.2155  1.5472
11202TIP3   OH255020   2.303   5.020  11.378  0.7847  0.4458 -0.2636
11202TIP3    H155021   2.334   5.103  11.342 -1.4408  1.1760 -0.6970
11202TIP3    H255022   2.234   4.992  11.318 -2.3240  1.1314  2.6706
11203TIP3   OH255023   5.785   3.976  13.219  0.1503  0.0866 -0.1761
11203TIP3    H155024   5.750   4.054  13.174 -0.4045  0.1622  0.3752
11203TIP3    H255025   5.748   3.903  13.170 -0.3563  0.1695  0.0755
11204TIP3   OH255026   4.464   2.886   5.849 -0.7036 -0.7798  0.6871
11204TIP3    H155027   4.369   2.877   5.837 -0.6604  1.0135 -1.5551
11204TIP3    H255028   4.502   2.839   5.775 -0.0151  1.5512 -0.5361
11205TIP3   OH255029   3.595   2.628  13.626 -0.4400  0.5857 -0.4418
11205TIP3    H155030   3.620   2.710  13.669 -1.7358  0.5739  0.3925
11205TIP3    H255031   3.676   2.577  13.622  0.3094  1.7465 -0.6475
11206TIP3   OH255032   3.215   2.177  12.306  0.0998  0.2508 -0.2384
11206TIP3    H155033   3.276   2.251  12.304 -0.6361  0.8598 -0.3167
11206TIP3    H255034   3.154   2.193  12.235  0.4435 -0.8895 -0.8098
11207TIP3   OH255035   0.504   3.748  16.091  0.0759 -0.7301 -0.3106
11207TIP3    H155036   0.499   3.742  15.996 -2.5029  1.4891 -0.4172
11207TIP3    H255037   0.445   3.680  16.123  0.1520 -0.7995 -0.3168
11208TIP3   OH255038   4.377   4.101   4.230 -0.3893  0.1245 -0.9243
11208TIP3    H155039   4.353   4.097   4.137  0.2851 -0.5787 -1.0790
11208TIP3    H255040   4.470   4.079   4.232 -0.7603 -1.4851  0.0700
11209TIP3   OH255041   6.461   2.756   2.380  0.3377 -0.0461  0.3667
11209TIP3    H155042   6.474   2.728   2.471 -0.7632  1.1764  0.9238
11209TIP3    H255043   6.542   2.802   2.357  1.4688 -2.0952 -0.0008
11210TIP3   OH255044   0.062   1.969  14.991  0.8131 -0.1933  0.6850
11210TIP3    H155045   0.154   1.957  14.969  1.0536  1.5161  0.6607
11210TIP3    H255046   0.017   1.900  14.942  1.8813  0.1781 -0.9149
11211TIP3   OH255047   0.193   2.460  13.524 -0.0478  0.4835 -0.3240
11211TIP3    H155048   0.283   2.456  13.494 -0.5538 -0.3676 -1.8241
11211TIP3    H255049   0.141   2.430  13.450 -1.3631 -2.2486  1.4937
11212TIP3   OH255050   2.581   2.504  10.345 -0.1880  0.0495  0.6476
11212TIP3    H155051   2.651   2.544  10.396 -0.5299  2.2217 -0.4654
11212TIP3    H255052   2.554   2.572  10.283 -2.2263 -1.2375  0.0013
11213TIP3   OH255053   0.310   1.871   3.942  0.4083 -0.2622 -0.1920
11213TIP3    H155054   0.350   1.892   3.857  0.2890 -0.2749 -0.2518
11213TIP3    H255055   0.226   1.916   3.940  1.1515  1.2554  0.6620
11214TIP3   OH255056   2.378   2.059   4.734  0.1184 -0.7884  0.5080
11214TIP3    H155057   2.449   2.064   4.797 -0.0222  1.9802  0.5449
11214TIP3    H255058   2.419   2.077   4.649 -0.3560 -0.2888  0.3783
11215TIP3   OH255059   5.068   6.315  16.249 -0.3932  0.0932  0.2975
11215TIP3    H155060   5.123   6.246  16.212 -0.5390 -1.0049  2.0274
11215TIP3    H255061   5.083   6.391  16.192  0.6502 -1.0196 -0.9740
11216TIP3   OH255062   1.153   6.588   6.196  0.0560  0.3641  0.1182
11216TIP3    H155063   1.067   6.553   6.174  0.2716  0.6027 -1.1792
11216TIP3    H255064   1.212   6.513   6.192 -0.1150  0.1553  1.2420
11217TIP3   OH255065   1.192   5.946   0.034 -0.2471  0.0714  0.0189
11217TIP3    H155066   1.236   6.031   0.026 -1.9598  0.9702 -0.2950
11217TIP3    H255067   1.101   5.963   0.008 -0.4992 -1.9954 -0.6544
11218TIP3   OH255068   3.407   0.776   1.842  0.1134  0.3206 -0.1612
11218TIP3    H155069   3.488   0.732   1.815  0.5121  0.9952 -0.0845
11218TIP3    H255070   3.340   0.708   1.834  0.2423  0.3954 -2.5266
11219TIP3   OH255071   2.840   0.787  16.019 -0.2919  0.2401  0.4440
11219TIP3    H155072   2.926   0.805  16.055 -0.1133  1.8431 -0.6828
11219TIP3    H255073   2.811   0.708  16.064  1.8833 -0.5066  0.6223
11220TIP3   OH255074   3.660   2.051  12.171 -0.5360 -0.0874  0.0108
11220TIP3    H155075   3.676   2.120  12.235 -1.9656 -0.5502  0.9101
11220TIP3    H255076   3.665   2.095  12.086 -0.5894  0.9371  0.5323
11221TIP3   OH255077   3.242   0.077   5.737  0.0833 -0.2736  1.3443
11221TIP3    H155078   3.165   0.037   5.776 -0.2549 -1.2725 -0.2648
11221TIP3    H255079   3.226   0.171   5.743 -0.6743 -0.4414  2.1331
11222TIP3   OH255080   3.100   0.040  14.429  0.0354 -0.2004  0.0350
11222TIP3    H155081   3.181   0.092  14.427 -0.7635  1.0914  0.4419
11222TIP3    H255082   3.108  -0.015  14.507  1.4895 -1.7443 -1.1190
11223TIP3   OH255083   4.261   3.907   4.761 -0.1078  0.0532  0.3091
11223TIP3    H155084   4.176   3.940   4.730  0.2208  0.3184 -0.3282
11223TIP3    H255085   4.323   3.934   4.694  0.6250  0.6000  1.1716
11224TIP3   OH255086   1.412   0.213  13.277  0.0882  0.6590  0.0522
11224TIP3    H155087   1.344   0.210  13.209  1.0728 -0.3944 -0.9178
11224TIP3    H255088   1.493   0.189  13.232  0.5308 -1.6029  1.8813
11225TIP3   OH255089   0.296   6.028  13.218  0.1433 -0.2823 -0.2796
11225TIP3    H155090   0.225   5.987  13.169  0.6906 -2.3454  0.5349
11225TIP3    H255091   0.365   5.962  13.220  1.2364  0.8256  0.8328
11226TIP3   OH255092   5.180   4.329  13.792 -0.0150  0.3691  0.7199
11226TIP3    H155093   5.254   4.274  13.767 -0.9396 -0.4817 -0.2484
11226TIP3    H255094   5.131   4.277  13.855 -0.7685  0.1459 -0.0275
11227TIP3   OH255095   1.065   2.954  17.211  0.8130  0.0541 -0.0458
11227TIP3    H155096   1.155   2.986  17.207  0.9158 -0.3671 -2.1847
11227TIP3    H255097   1.011   3.031  17.194  0.9222 -0.1989 -1.6888
11228TIP3   OH255098   5.472   6.745  13.111  0.2734  0.5860 -0.4298
11228TIP3    H155099   5.455   6.839  13.117 -0.5028  0.5261 -1.5102
11228TIP3    H255100   5.451   6.722  13.021 -1.2865 -0.9588  0.2689
11229TIP3   OH255101   4.753   5.974   4.314 -0.5636  0.0532  0.4596
11229TIP3    H155102   4.674   5.920   4.311  0.2107 -1.1474  0.9663
11229TIP3    H255103   4.722   6.061   4.340 -2.0561  0.3368 -2.0232
11230TIP3   OH255104   0.226   6.565  13.647 -0.2006  0.6649 -0.8468
11230TIP3    H155105   0.308   6.516  13.647 -1.0179 -0.7767  0.1556
11230TIP3    H255106   0.249   6.652  13.614  1.6507  0.1846 -0.8784
11231TIP3   OH255107   5.859   6.679   5.847  0.8133  0.5794 -0.2837
11231TIP3    H155108   5.927   6.641   5.903 -1.6874 -0.8564  1.9897
11231TIP3    H255109   5.824   6.752   5.898 -0.2244  0.4998 -0.8642
11232TIP3   OH255110   1.396   4.083  13.209  0.0447 -0.1880 -0.0395
11232TIP3    H155111   1.376   4.155  13.269 -0.2288 -1.3432  1.3294
11232TIP3    H255112   1.346   4.103  13.130  0.1481  1.2175  0.2315
11233TIP3   OH255113   1.953   4.463   1.419 -0.0572 -0.4783  0.0142
11233TIP3    H155114   1.992   4.477   1.333 -0.0171 -0.8599 -0.0312
11233TIP3    H255115   2.020   4.494   1.481  0.5067 -1.5144 -0.0509
11234TIP3   OH255116   4.951   6.134  16.721  0.3934  0.1436  0.1329
11234TIP3    H155117   4.882   6.076  16.686  0.1808 -0.9297  2.1766
11234TIP3    H255118   4.960   6.203  16.655 -0.4874 -1.3380 -1.6416
11235TIP3   OH255119   2.387   5.729   3.982  0.0424  0.5922  0.0169
11235TIP3    H155120   2.396   5.818   4.013  1.9998 -0.0957  1.6171
11235TIP3    H255121   2.362   5.678   4.059 -0.0462 -0.4077 -0.6372
11236TIP3   OH255122   4.249   3.062   5.511  0.2883 -0.5149  0.4464
11236TIP3    H155123   4.200   3.088   5.432  1.1179 -0.2156  0.0225
11236TIP3    H255124   4.306   3.136   5.530 -0.1580 -0.4421  1.5484
11237TIP3   OH255125   0.084   5.476   2.605  0.2246  0.1794 -0.1684
11237TIP3    H155126   0.012   5.538   2.614 -1.6072 -1.8732  0.2661
11237TIP3    H255127   0.140   5.493   2.681  0.7614  2.3881 -0.9810
11238TIP3   OH255128   3.178   2.483   1.862 -0.6240 -0.2480 -0.2217
11238TIP3    H155129   3.089   2.463   1.893  0.0756 -0.6563  1.6378
11238TIP3    H255130   3.174   2.576   1.839 -1.6358 -0.3638 -0.5786
11239TIP3   OH255131   2.282   2.944  13.642  0.4474  0.3182  0.0951
11239TIP3    H155132   2.312   2.865  13.596 -0.3083  0.8565 -1.3869
11239TIP3    H255133   2.352   2.964  13.704 -0.1758 -2.5916  1.9258
11240TIP3   OH255134   3.984   2.297   0.704 -0.8657 -0.4193  0.4512
11240TIP3    H155135   4.073   2.330   0.695  0.3689 -3.5394 -0.0297
11240TIP3    H255136   3.966   2.301   0.798 -0.7814  1.3985  0.4322
11241TIP3   OH255137   2.491   5.606  11.925 -0.1518 -0.0841 -0.3420
11241TIP3    H155138   2.401   5.638  11.909 -0.2361 -0.1826 -0.0671
11241TIP3    H255139   2.479   5.528  11.978  0.0977 -0.1183 -0.3387
11242TIP3   OH255140   6.642   3.395   3.149  0.3416  1.0440 -0.0266
11242TIP3    H155141   6.621   3.383   3.057  0.5014  1.0886 -0.0697
11242TIP3    H255142   6.665   3.488   3.157  1.8349  0.7267 -0.2567
11243TIP3   OH255143   0.718   5.331   2.117  0.3036 -0.0832  0.2601
11243TIP3    H155144   0.681   5.271   2.182  1.9113 -2.1734 -0.6292
11243TIP3    H255145   0.644   5.358   2.063 -0.5335 -0.8780  0.9918
11244TIP3   OH255146   6.191   6.527   3.856 -0.2984 -0.1164  0.0882
11244TIP3    H155147   6.130   6.587   3.898  0.1625  0.8472 -0.5979
11244TIP3    H255148   6.162   6.440   3.885 -3.2262  0.1175 -1.7033
11245TIP3   OH255149   0.526   1.903   2.664 -0.0196 -0.4427  0.5392
11245TIP3    H155150   0.553   1.923   2.574 -0.4053 -0.1630  0.4835
11245TIP3    H255151   0.591   1.946   2.719 -0.8736  1.0549  0.4243
11246TIP3   OH255152   4.813   4.477  15.544 -0.3201  0.2358 -0.1092
11246TIP3    H155153   4.904   4.503  15.528 -0.1750  0.4359  0.9801
11246TIP3    H255154   4.768   4.560  15.557 -0.4231  0.0806  0.5321
11247TIP3   OH255155   3.159   5.328  14.185  0.3052 -0.5356 -0.0263
11247TIP3    H155156   3.065   5.338  14.167  0.0836 -1.0779  0.7840
11247TIP3    H255157   3.164   5.311  14.279  1.1772 -1.0251 -0.1473
11248TIP3   OH255158   0.179   2.685  13.706  0.3117 -0.1402 -0.3167
11248TIP3    H155159   0.254   2.694  13.764  0.2639 -0.4186 -0.2128
11248TIP3    H255160   0.189   2.599  13.665  1.4975  0.8869 -2.3603
11249TIP3   OH255161   2.391   3.916  13.915  0.4098 -0.4640 -0.1171
11249TIP3    H155162   2.464   3.925  13.977  0.1501 -0.8398  0.2456
11249TIP3    H255163   2.400   3.828  13.880 -0.5283 -0.9382  0.7820
11250TIP3   OH255164   0.476   1.272   2.336  0.2805 -0.1247  0.0798
11250TIP3    H155165   0.552   1.233   2.293 -0.9420 -0.1579 -2.2396
11250TIP3    H255166   0.457   1.213   2.410  1.1003 -1.4493 -0.7220
11251TIP3   OH255167   3.935   2.557  15.762  0.1203  0.6122  0.4889
11251TIP3    H155168   3.882   2.548  15.682 -0.8157 -0.0145  1.1555
11251TIP3    H255169   3.922   2.649  15.789  1.1056  1.0655 -0.5061
11252TIP3   OH255170   5.652   4.745   6.351 -0.8436  0.0836 -0.5843
11252TIP3    H155171   5.648   4.786   6.438  0.1067 -0.5374 -0.2403
11252TIP3    H255172   5.641   4.818   6.290 -0.7472  0.6333  0.0451
11253TIP3   OH255173   2.056   6.284   0.657  0.4082 -0.4376 -0.5755
11253TIP3    H155174   2.059   6.209   0.716  1.2935 -0.9968 -1.2981
11253TIP3    H255175   1.964   6.288   0.629  0.1373 -0.6045  0.2601
11254TIP3   OH255176   1.023   1.905   6.311 -0.2513  0.4876 -0.2426
11254TIP3    H155177   1.046   1.955   6.232  0.0003 -0.9778 -1.1429
11254TIP3    H255178   1.105   1.863   6.338 -0.2348  1.3302  1.0942
11255TIP3   OH255179   4.946   5.698  11.022 -0.6628 -0.0929 -0.1579
11255TIP3    H155180   4.952   5.720  11.115 -1.2754 -0.9286  0.0859
11255TIP3    H255181   4.903   5.613  11.019 -1.0325  0.1083 -1.2290
11256TIP3   OH255182   4.695   1.608   1.882 -0.2302 -0.4156  0.4341
11256TIP3    H155183   4.711   1.526   1.836 -0.5494  0.8998 -2.2488
11256TIP3    H255184   4.601   1.607   1.900 -1.1125  0.8823 -3.1767
11257TIP3   OH255185   0.256   4.414   1.566 -0.2985  0.5066 -0.2045
11257TIP3    H155186   0.164   4.439   1.573 -0.2752  0.3721  0.7326
11257TIP3    H255187   0.288   4.459   1.488 -1.0031  1.0479 -0.1853
11258TIP3   OH255188   4.006   4.820  15.842  0.1335 -0.1739  0.3043
11258TIP3    H155189   3.966   4.746  15.797 -1.0328  0.5617  0.0673
11258TIP3    H255190   4.016   4.791  15.933 -2.4631  0.1138  0.7574
11259TIP3   OH255191   5.648   5.209   5.806  0.1139  0.1559 -0.0365
11259TIP3    H155192   5.646   5.188   5.900 -0.6680 -0.9474 -0.2865
11259TIP3    H255193   5.663   5.125   5.763 -0.6699  0.4772 -0.9548
11260TIP3   OH255194   2.881   1.331  13.196 -0.0873  0.6645  0.4487
11260TIP3    H155195   2.876   1.382  13.115 -0.4494 -0.1803 -0.0801
11260TIP3    H255196   2.793   1.339  13.234 -0.6249 -0.7374 -0.3994
11261TIP3   OH255197   2.561   2.023  16.572 -0.4354  0.1935  0.4520
11261TIP3    H155198   2.615   2.023  16.493 -0.0755 -0.0103  0.6941
11261TIP3    H255199   2.556   2.114  16.599  2.4827 -0.0535  2.2333
11262TIP3   OH255200   3.783   5.963   0.736  0.0666  0.7261  0.7307
11262TIP3    H155201   3.841   5.976   0.812  1.1677  3.7520 -0.4659
11262TIP3    H255202   3.842   5.965   0.661 -0.9542 -2.6480 -0.3302
11263TIP3   OH255203   2.627   0.026   2.417  0.8228 -0.3044 -0.3329
11263TIP3    H155204   2.712  -0.019   2.417 -0.1585 -2.4726  2.6259
11263TIP3    H255205   2.629   0.081   2.495  0.3309  1.5757 -1.5764
11264TIP3   OH255206   6.590   0.818  15.448  1.0044 -0.4362  0.3508
11264TIP3    H155207   6.567   0.868  15.369  0.6814  0.8221  1.2104
11264TIP3    H255208   6.619   0.733  15.415 -0.0877 -0.2915 -1.0587
11265TIP3   OH255209   3.011   5.273  15.790 -0.1670 -0.5759 -0.1204
11265TIP3    H155210   2.933   5.317  15.756 -0.7170  0.0335  1.8403
11265TIP3    H255211   3.051   5.234  15.712 -2.3539 -0.8245 -1.2211
11266TIP3   OH255212   6.485   0.720  15.125  0.0521  0.0871 -0.0541
11266TIP3    H155213   6.420   0.659  15.161 -0.2688  0.6846  0.3945
11266TIP3    H255214   6.434   0.791  15.088  0.3768 -0.4740 -1.6896
11267TIP3   OH255215   0.103   5.052  13.550 -0.5006  0.7134 -0.3119
11267TIP3    H155216   0.162   4.999  13.604 -0.4690  1.3540  0.2961
11267TIP3    H255217   0.115   5.018  13.461  0.1896  0.3107 -0.0753
11268TIP3   OH255218   4.828   1.362  12.261  0.2547  0.7269 -0.2671
11268TIP3    H155219   4.788   1.291  12.211  0.2976  0.7162 -0.2864
11268TIP3    H255220   4.874   1.414  12.195  1.0307  0.2301 -0.1419
11269TIP3   OH255221   1.326   4.759   3.996 -0.4703  0.2176 -0.2910
11269TIP3    H155222   1.376   4.798   4.068 -0.5668  1.4986 -0.8889
11269TIP3    H255223   1.267   4.697   4.039 -0.5032  0.9279  0.7245
11270TIP3   OH255224   1.896   4.258  16.437  0.4353  0.2732  0.7301
11270TIP3    H155225   1.839   4.256  16.514  0.1153 -0.5171  0.4830
11270TIP3    H255226   1.903   4.350  16.414  0.4918  0.5185  1.6746
11271TIP3   OH255227   2.926   2.026   6.244  0.2025 -0.1741 -0.1126
11271TIP3    H155228   2.843   2.061   6.273  0.0612 -0.8417  0.3101
11271TIP3    H255229   2.904   1.942   6.202  0.7547 -0.8881  0.9763
11272TIP3   OH255230   4.940   1.954  14.930 -0.2271 -0.3215  0.0637
11272TIP3    H155231   4.962   1.870  14.970 -0.5842 -0.1645  0.5952
11272TIP3    H255232   4.866   1.987  14.980 -0.5244  0.0018 -0.5716
11273TIP3   OH255233   2.021   3.298   1.665 -0.1808 -0.1431 -0.6794
11273TIP3    H155234   2.112   3.293   1.693 -0.1007  0.4779 -0.8069
11273TIP3    H255235   2.003   3.214   1.623  0.1340 -0.5197 -0.0687
11274TIP3   OH255236   1.029   6.506   5.214 -0.4964 -0.3898  0.3675
11274TIP3    H155237   1.008   6.564   5.141  0.4949  0.7045  0.9245
11274TIP3    H255238   0.982   6.425   5.194 -1.2994  0.3328 -0.8110
11275TIP3   OH255239   6.631   5.506  15.262 -0.2740 -0.0245 -0.6550
11275TIP3    H155240   6.648   5.428  15.210  1.0896  0.3826 -0.8684
11275TIP3    H255241   6.560   5.481  15.320 -0.4795 -1.1268 -1.3492
11276TIP3   OH255242   4.594   6.262  12.135  0.0081 -0.5118  0.2107
11276TIP3    H155243   4.562   6.223  12.054 -1.1583  1.2577 -0.2393
11276TIP3    H255244   4.668   6.315  12.108 -0.4472  0.1627  0.2656
11277TIP3   OH255245   5.792   0.620  12.234  0.0091 -0.1908 -0.0543
11277TIP3    H155246   5.880   0.585  12.248 -0.0008 -0.6310 -1.0354
11277TIP3    H255247   5.734   0.554  12.273  0.1454  1.1070  2.5687
11278TIP3   OH255248   6.156   6.026   0.655 -0.0435 -0.3942  0.1260
11278TIP3    H155249   6.122   5.959   0.714  1.3615 -0.1619  1.2699
11278TIP3    H255250   6.152   6.107   0.707 -2.1212  0.5340 -1.3717
11279TIP3   OH255251   4.070   3.881  13.938 -0.2005  0.6949  0.5516
11279TIP3    H155252   4.145   3.821  13.932 -1.2639 -0.8441  1.9367
11279TIP3    H255253   4.110   3.967  13.952  1.3392  0.1947 -0.4295
11280TIP3   OH255254   5.328   0.089   5.401 -0.5808  0.1156 -0.6552
11280TIP3    H155255   5.277   0.145   5.460  1.2814  1.8634 -0.6067
11280TIP3    H255256   5.289   0.002   5.412 -3.0473  1.1821 -0.0944
11281TIP3   OH255257   1.415   1.303   1.731  0.5177  0.6905 -0.6503
11281TIP3    H155258   1.387   1.221   1.771  1.1925  1.2919  1.1486
11281TIP3    H255259   1.464   1.276   1.653  0.0308 -0.5736 -0.5378
11282TIP3   OH255260   1.409   2.908   2.487 -0.1588 -0.0925  0.2241
11282TIP3    H155261   1.350   2.975   2.452 -0.9826 -2.2897 -2.9308
11282TIP3    H255262   1.355   2.858   2.548 -0.1330  0.7474  0.9665
11283TIP3   OH255263   5.319   4.748   3.138  0.0056 -0.3189 -0.4860
11283TIP3    H155264   5.322   4.773   3.046 -1.0258 -2.5951 -1.2201
11283TIP3    H255265   5.411   4.733   3.161  0.2022 -0.8515 -1.5217
11284TIP3   OH255266   3.803   2.425   1.422 -0.1844  0.1939  0.3541
11284TIP3    H155267   3.743   2.360   1.459  1.0168 -0.0094  2.1047
11284TIP3    H255268   3.818   2.487   1.493  2.5231 -0.3972  0.4345
11285TIP3   OH255269   3.327   3.680   2.559 -0.2620 -0.0360 -0.1860
11285TIP3    H155270   3.387   3.754   2.549  0.4690 -0.4506  0.8590
11285TIP3    H255271   3.240   3.716   2.541 -0.0745  1.3764  1.4803
11286TIP3   OH255272   0.291   0.766   2.811  0.1196  0.2556  0.6126
11286TIP3    H155273   0.325   0.821   2.741 -0.7388 -0.8300 -0.6913
11286TIP3    H255274   0.284   0.825   2.886 -1.3274  2.0894 -0.8732
11287TIP3   OH255275   0.014   3.845   5.159 -0.1165  0.1898 -0.0884
11287TIP3    H155276   0.085   3.786   5.185  0.7658  1.5590  0.7697
11287TIP3    H255277   0.031   3.863   5.067  1.3015  1.3088  0.3582
11288TIP3   OH255278   6.675   5.162   0.951 -0.3922  0.0223 -0.1334
11288TIP3    H155279   6.753   5.151   0.898  0.8311 -0.8782  1.7309
11288TIP3    H255280   6.672   5.083   1.006 -2.0396  0.5125  0.5557
11289TIP3   OH255281   6.143   6.662   1.139  0.6979 -0.2065  0.1780
11289TIP3    H155282   6.048   6.649   1.129  0.2141  2.1700  1.0670
11289TIP3    H255283   6.181   6.617   1.064 -1.0022 -2.3265  0.4658
11290TIP3   OH255284   5.618   5.037   2.998  0.2431  0.1656 -0.1786
11290TIP3    H155285   5.611   5.041   2.903  0.5370  0.6305 -0.1834
11290TIP3    H255286   5.611   5.128   3.027  0.7797  0.0948  0.2015
11291TIP3   OH255287   4.953   1.959   3.427  0.3427  0.1153  0.2063
11291TIP3    H155288   5.045   1.935   3.431  0.5093  0.8960  2.6877
11291TIP3    H255289   4.953   2.049   3.395  0.2691 -0.4402 -1.4578
11292TIP3   OH255290   4.517   4.974   1.150  0.4739 -0.0638 -0.2569
11292TIP3    H155291   4.443   4.937   1.197 -1.0588  1.6589 -1.1845
11292TIP3    H255292   4.478   5.021   1.076  2.5658  0.0397 -1.3826
11293TIP3   OH255293   1.458   5.560  12.596  0.4426 -0.0616  0.2795
11293TIP3    H155294   1.502   5.639  12.563 -0.1560  0.9246  1.7251
11293TIP3    H255295   1.405   5.591  12.669 -2.0171 -1.3404 -0.8239
11294TIP3   OH255296   6.758   5.415  16.800  0.0182 -0.4290 -0.5137
11294TIP3    H155297   6.672   5.442  16.768 -1.1074 -1.5370  1.3986
11294TIP3    H255298   6.796   5.494  16.838 -1.6807 -0.5781  1.7143
11295TIP3   OH255299   0.760   0.618  11.708  0.1604 -0.1764  0.5824
11295TIP3    H155300   0.778   0.531  11.675 -0.3401 -1.3005  3.0196
11295TIP3    H255301   0.695   0.654  11.648  1.8888 -0.6048 -1.6442
11296TIP3   OH255302   1.762   1.987   0.748 -0.0117 -0.0856 -0.0429
11296TIP3    H155303   1.833   1.950   0.800  0.0667  1.0717  0.7133
11296TIP3    H255304   1.683   1.944   0.781  0.2245 -0.6187 -0.1702
11297TIP3   OH255305   3.420   3.380   4.798 -0.9529 -0.4032  0.1078
11297TIP3    H155306   3.438   3.439   4.725  1.0400  1.3127  1.9028
11297TIP3    H255307   3.335   3.409   4.832 -0.2880  1.0681  0.5756
11298TIP3   OH255308   0.330   1.480   5.809 -0.8712 -0.3721 -0.7102
11298TIP3    H155309   0.284   1.562   5.825 -0.6322 -0.6008  1.3944
11298TIP3    H255310   0.372   1.493   5.724 -1.1919  1.5055 -0.6337
11299TIP3   OH255311   5.975   3.529  14.730 -0.3338  0.3062  0.1964
11299TIP3    H155312   5.927   3.491  14.656 -0.7145  0.8818  0.1460
11299TIP3    H255313   5.946   3.620  14.734 -1.1677 -0.0035  1.7657
11300TIP3   OH255314   1.898   3.075   0.760  0.0415  0.0023 -0.1455
11300TIP3    H155315   1.886   3.011   0.830  0.1213 -0.3001 -0.4057
11300TIP3    H255316   1.957   3.032   0.698  0.1672  0.3621 -0.2797
11301TIP3   OH255317   2.775   5.846  12.322 -0.1730  0.2960 -0.0828
11301TIP3    H155318   2.795   5.900  12.399 -1.4884 -0.7912  1.0990
11301TIP3    H255319   2.767   5.908  12.250  2.5969  1.2171  0.2899
11302TIP3   OH255320   1.481   0.213  14.966 -0.1332  0.2422 -0.3436
11302TIP3    H155321   1.526   0.283  14.919  1.1590 -1.2240 -1.4287
11302TIP3    H255322   1.537   0.194  15.041 -0.7310  0.6914  0.2198
11303TIP3   OH255323   1.426   5.758  14.616  0.5591  0.0599  0.3807
11303TIP3    H155324   1.503   5.765  14.559  1.7122  2.2557  2.0826
11303TIP3    H255325   1.371   5.832  14.591 -1.5422 -1.9244 -1.3760
11304TIP3   OH255326   6.579   0.679   5.256  1.0278  0.0738 -0.3292
11304TIP3    H155327   6.663   0.650   5.291  1.0396 -0.0927 -0.4948
11304TIP3    H255328   6.590   0.773   5.242  1.0381  0.1307  0.0676
11305TIP3   OH255329   0.469   5.949  15.166 -0.2763  0.4655 -0.4351
11305TIP3    H155330   0.512   5.910  15.242 -0.2693 -1.2174 -1.2601
11305TIP3    H255331   0.377   5.957  15.191 -0.2894 -0.1554 -0.2748
11306TIP3   OH255332   6.327   5.128  11.350  0.0887  0.2664  0.0292
11306TIP3    H155333   6.240   5.101  11.382 -0.7913  1.3299 -1.3211
11306TIP3    H255334   6.332   5.221  11.371  1.3350  0.0021  0.9629
11307TIP3   OH255335   6.709   1.060  12.066  0.5466 -0.1627 -0.1312
11307TIP3    H155336   6.735   0.969  12.080  1.8803 -0.0138 -1.4241
11307TIP3    H255337   6.704   1.070  11.971  0.4135  1.1178 -0.0153
11308TIP3   OH255338   3.775   0.618   0.116 -0.0570 -0.4959  0.5349
11308TIP3    H155339   3.754   0.710   0.128 -0.1258 -0.5355  0.7199
11308TIP3    H255340   3.690   0.573   0.122  0.2286 -0.8548  3.0677
11309TIP3   OH255341   5.750   2.257   1.874  0.2966 -0.7010  0.2083
11309TIP3    H155342   5.727   2.244   1.782  0.8179 -2.0284  0.2410
11309TIP3    H255343   5.745   2.170   1.912  0.9003 -0.2962  1.2473
11310TIP3   OH255344   3.399   1.926  13.235 -0.2047 -0.0859 -0.3043
11310TIP3    H155345   3.454   1.930  13.313 -0.3673 -0.3846 -0.1723
11310TIP3    H255346   3.425   1.844  13.191  1.9408  1.4287 -2.1035
11311TIP3   OH255347   2.423   5.964   5.271 -0.2912 -0.4691  0.5219
11311TIP3    H155348   2.473   6.034   5.313 -0.4883 -0.6321  1.0451
11311TIP3    H255349   2.336   6.001   5.258  0.0590 -0.0435 -0.7684
11312TIP3   OH255350   4.893   4.009   1.819  0.3227 -0.3507  0.2424
11312TIP3    H155351   4.799   4.009   1.799  0.6487  1.6946 -1.7024
11312TIP3    H255352   4.936   4.003   1.734  1.9913 -1.2731  1.1041
11313TIP3   OH255353   5.671   3.742   1.474  0.1216 -0.5987 -0.3997
11313TIP3    H155354   5.664   3.813   1.410  0.4287 -0.9734 -0.8591
11313TIP3    H255355   5.729   3.776   1.542 -1.5477  0.4383  0.5688
11314TIP3   OH255356   3.025   2.447   2.667 -0.2489  0.2377 -0.1426
11314TIP3    H155357   2.964   2.486   2.729  0.2636 -0.5146  0.8573
11314TIP3    H255358   3.009   2.353   2.673  0.9140  0.0406  0.0545
11315TIP3   OH255359   5.705   0.118   5.910  0.5299  0.8338  0.0892
11315TIP3    H155360   5.741   0.206   5.921 -0.5643  1.3162 -0.0485
11315TIP3    H255361   5.611   0.128   5.927  0.6579 -0.7072  2.1798
11316TIP3   OH255362   5.423   1.087   5.612 -0.9519 -0.1526 -0.4022
11316TIP3    H155363   5.442   1.031   5.687  2.6379  0.6373 -0.5765
11316TIP3    H255364   5.387   1.167   5.651  0.5734  0.1318  0.4862
11317TIP3   OH255365   3.676   4.335  11.904 -0.2028  0.1283  0.7654
11317TIP3    H155366   3.634   4.347  11.990 -1.8618  1.1638 -0.1262
11317TIP3    H255367   3.606   4.301  11.848  0.1097  1.9234 -0.8026
11318TIP3   OH255368   1.292   3.467  11.050 -0.0358 -0.1405 -0.0969
11318TIP3    H155369   1.259   3.556  11.055  0.2070 -0.0700  0.3064
11318TIP3    H255370   1.387   3.477  11.046 -0.0207 -0.3716 -0.3449
11319TIP3   OH255371   2.952   0.216  15.640 -0.1185 -0.0692  0.0587
11319TIP3    H155372   3.038   0.257  15.655 -0.2972 -0.0769  1.1948
11319TIP3    H255373   2.896   0.288  15.610  0.8524 -0.5068 -3.1945
11320TIP3   OH255374   0.132   4.710  13.997  0.2237  0.0881  0.0959
11320TIP3    H155375   0.220   4.674  13.990 -0.4333 -1.3647 -1.4150
11320TIP3    H255376   0.074   4.635  13.984 -1.2918  0.8092  2.0530
11321TIP3   OH255377   2.908   2.133   5.387  0.5263  0.2905  0.3608
11321TIP3    H155378   2.984   2.160   5.336  0.2136 -1.8067 -1.3316
11321TIP3    H255379   2.943   2.068   5.449  0.2032 -0.3236 -0.0970
11322TIP3   OH255380   5.591   4.801   4.874  0.0226 -0.1692 -0.1234
11322TIP3    H155381   5.657   4.747   4.917  1.1657  0.8922 -0.4992
11322TIP3    H255382   5.572   4.755   4.792  1.2018  0.1129 -0.5765
11323TIP3   OH255383   1.591   5.708  16.352 -0.4990 -0.2588 -0.6116
11323TIP3    H155384   1.598   5.700  16.447  0.4019  0.8958 -0.5585
11323TIP3    H255385   1.568   5.620  16.322  0.1190 -0.8515  0.5976
11324TIP3   OH255386   3.506   1.092   1.289 -0.2887  0.3056 -0.3904
11324TIP3    H155387   3.531   1.182   1.313 -0.7465  0.0404  1.1687
11324TIP3    H255388   3.586   1.041   1.301 -0.9282 -0.1560  2.5198
11325TIP3   OH255389   6.125   6.450  14.920  0.0214  0.0451  0.2384
11325TIP3    H155390   6.112   6.358  14.944  1.7051  0.0383  1.2828
11325TIP3    H255391   6.124   6.450  14.825  1.7709 -1.3921  0.1561
11326TIP3   OH255392   3.692   6.081  14.469 -0.1102 -0.0500 -0.1647
11326TIP3    H155393   3.716   6.008  14.412 -0.5493 -0.4994  0.2146
11326TIP3    H255394   3.622   6.046  14.525 -2.9220  1.6913 -2.3428
11327TIP3   OH255395   4.430   2.994   5.123  0.2214  0.3463 -0.0696
11327TIP3    H155396   4.504   3.038   5.080  0.3653  2.0516  1.7751
11327TIP3    H255397   4.368   2.977   5.052  1.2783  1.2258 -1.2566
11328TIP3   OH255398   0.718   4.758   3.386 -0.0281  0.1397 -0.4888
11328TIP3    H155399   0.695   4.695   3.454 -0.4417  0.6033 -0.1906
11328TIP3    H255400   0.807   4.785   3.407 -1.0041  2.1567  1.3661
11329TIP3   OH255401   2.335   5.726   1.174 -0.4795 -0.1385  0.7782
11329TIP3    H155402   2.401   5.778   1.130 -2.1123  0.7126 -0.8127
11329TIP3    H255403   2.363   5.724   1.265  2.2808 -0.7613  0.0121
11330TIP3   OH255404   3.438   0.056   0.822  0.6281  0.7451  0.5434
11330TIP3    H155405   3.443  -0.034   0.856 -1.9807 -0.6511 -2.2620
11330TIP3    H255406   3.493   0.055   0.744  0.3589  1.5211  0.3357
11331TIP3   OH255407   4.569   4.537   0.246 -0.1992  0.0127 -0.6853
11331TIP3    H155408   4.589   4.574   0.160  1.7878  0.1565 -0.2017
11331TIP3    H255409   4.537   4.611   0.298 -0.3950  0.1376 -0.9830
11332TIP3   OH255410   4.007   4.460  13.170 -0.1360 -0.1023  0.1631
11332TIP3    H155411   3.956   4.451  13.251  0.2286 -0.4046  0.3591
11332TIP3    H255412   4.037   4.372  13.150  1.3247  0.2345  0.7177
11333TIP3   OH255413   6.012   6.423  14.472  0.0142 -0.4081 -0.0325
11333TIP3    H155414   6.020   6.366  14.396  1.3387  1.1738 -1.1547
11333TIP3    H255415   6.087   6.400  14.527 -0.5420 -1.0575  0.4693
11334TIP3   OH255416   2.874   6.663  10.818  0.8509 -0.2743  0.0482
11334TIP3    H155417   2.838   6.736  10.769  0.0150 -0.7759 -0.1063
11334TIP3    H255418   2.943   6.701  10.872  0.1854  0.6902  0.2428
11335TIP3   OH255419   2.533   0.272   0.523  0.0303  0.1194 -0.7969
11335TIP3    H155420   2.610   0.225   0.553 -0.9109 -1.2798 -0.4745
11335TIP3    H255421   2.504   0.321   0.601  0.0400 -0.1240 -0.6381
11336TIP3   OH255422   0.571   2.565   4.756 -0.7987 -0.5501  0.0161
11336TIP3    H155423   0.510   2.504   4.797  1.0039 -0.7752  2.6705
11336TIP3    H255424   0.548   2.650   4.794  1.1959 -0.8344  2.1399
11337TIP3   OH255425   3.034   6.753  14.168  0.6057 -0.4927 -0.5492
11337TIP3    H155426   2.978   6.683  14.204 -0.6840  0.4819 -0.5915
11337TIP3    H255427   3.063   6.801  14.246 -0.1127  0.0848 -0.6247
11338TIP3   OH255428   4.037   5.709   3.659 -0.1702  0.1839 -0.0080
11338TIP3    H155429   4.038   5.660   3.741  0.2902 -0.4517 -0.3871
11338TIP3    H255430   4.116   5.763   3.662  0.2904 -0.4491 -0.3836
11339TIP3   OH255431   1.752   3.589  13.846 -0.0217 -0.4007 -0.7076
11339TIP3    H155432   1.813   3.531  13.892  0.8746  0.3148 -0.9698
11339TIP3    H255433   1.758   3.560  13.755  0.4267  0.0901 -0.8383
11340TIP3   OH255434   4.574   3.376  15.323  0.3047  1.1853  0.5831
11340TIP3    H155435   4.531   3.439  15.265  0.3808  0.7211  0.0165
11340TIP3    H255436   4.524   3.381  15.405  0.3163  1.9843  0.5436
11341TIP3   OH255437   3.029   4.693   3.421  0.0016  0.3953 -0.2605
11341TIP3    H155438   3.064   4.605   3.407 -0.2971  0.4253 -1.2625
11341TIP3    H255439   2.935   4.684   3.410  0.0827  1.0780 -1.7387
11342TIP3   OH255440   2.500   0.470   2.641 -1.0441  0.8825  0.0882
11342TIP3    H155441   2.506   0.565   2.653 -0.3599  0.7214  1.1435
11342TIP3    H255442   2.531   0.433   2.724  1.0589 -0.2927 -1.1120
11343TIP3   OH255443   6.762   2.157   1.975  0.3521 -0.3298 -0.1422
11343TIP3    H155444   6.673   2.150   1.941  0.9146  2.3131 -2.4553
11343TIP3    H255445   6.751   2.168   2.069 -1.7009 -0.8348 -0.2800
11344TIP3   OH255446   3.989   4.071  15.453 -0.2379  0.5452  0.5034
11344TIP3    H155447   4.071   4.120  15.444  0.4473 -0.5909  0.4114
11344TIP3    H255448   3.958   4.059  15.363  0.7492 -1.0747  0.3529
11345TIP3   OH255449   3.020   5.273   3.845  0.2454 -0.2278  0.3254
11345TIP3    H155450   3.072   5.193   3.843 -2.1755 -1.9394  1.2900
11345TIP3    H255451   2.951   5.258   3.781 -0.4583  0.9161  0.7864
11346TIP3   OH255452   4.997   0.944  12.320  0.1705  0.0735  0.2440
11346TIP3    H155453   5.059   1.015  12.336 -0.7601  1.0236 -0.2273
11346TIP3    H255454   4.943   0.941  12.399 -1.0050  1.1948 -0.4758
11347TIP3   OH255455   2.606   2.800   5.616  0.9468  0.6223  0.5806
11347TIP3    H155456   2.683   2.771   5.567  0.3359  0.2982 -0.2148
11347TIP3    H255457   2.613   2.755   5.700  1.4306  0.2973  0.3722
11348TIP3   OH255458   2.543   5.193   3.247 -0.3944  0.5048 -0.4564
11348TIP3    H155459   2.479   5.264   3.235 -0.5847  0.2693 -0.8588
11348TIP3    H255460   2.491   5.121   3.282 -0.0593  0.8070  0.7226
11349TIP3   OH255461   2.383   1.829   5.254 -0.1719 -0.0545 -0.2409
11349TIP3    H155462   2.365   1.807   5.163  1.0210  1.1274 -0.7993
11349TIP3    H255463   2.436   1.757   5.287 -2.1921 -1.4594  0.1632
11350TIP3   OH255464   0.157   6.698  14.713 -0.2322 -0.4030 -0.3953
11350TIP3    H155465   0.233   6.728  14.664  0.0668 -0.6388 -0.0802
11350TIP3    H255466   0.143   6.765  14.780 -1.6007  0.7394 -1.7537
11351TIP3   OH255467   3.390   5.109   0.357 -0.1288  0.0440  0.4761
11351TIP3    H155468   3.367   5.170   0.426 -0.8425  0.3530 -0.0147
11351TIP3    H255469   3.462   5.057   0.392  1.0538  1.7112  0.5994
11352TIP3   OH255470   1.914   3.462  14.356 -0.0489 -0.2877 -0.4424
11352TIP3    H155471   1.941   3.371  14.343 -1.3398 -0.7220 -0.2878
11352TIP3    H255472   1.865   3.484  14.277 -0.2011  0.0847 -0.2482
11353TIP3   OH255473   1.385   0.179   6.638 -0.7984  0.1705  0.3339
11353TIP3    H155474   1.395   0.268   6.672 -1.4546  0.0668  0.8192
11353TIP3    H255475   1.434   0.125   6.699 -2.3808 -0.0747  1.4411
11354TIP3   OH255476   5.673   5.426   1.492 -0.2570 -0.2954 -0.5360
11354TIP3    H155477   5.612   5.465   1.429 -1.0480 -0.3808  0.1676
11354TIP3    H255478   5.632   5.345   1.519 -0.2483  0.0605  0.5971
11355TIP3   OH255479   3.901   2.411  15.217  0.0960  0.5274 -0.1848
11355TIP3    H155480   3.913   2.331  15.269 -0.3857  0.0137 -0.8535
11355TIP3    H255481   3.923   2.482  15.278 -3.8486  0.2218  1.9569
11356TIP3   OH255482   2.467   2.143  11.696 -0.4270  0.3248 -0.1328
11356TIP3    H155483   2.374   2.136  11.717 -0.4674  0.4721 -0.2668
11356TIP3    H255484   2.511   2.109  11.774 -0.6204 -1.8891 -0.9261
11357TIP3   OH255485   2.909   1.965   0.451  0.6452  0.1721 -0.3999
11357TIP3    H155486   2.924   1.952   0.357 -0.4136  2.4698 -0.9549
11357TIP3    H255487   2.938   2.054   0.468  0.2098  0.0245  1.3331
11358TIP3   OH255488   0.370   2.901  15.455  0.1733 -0.1578  0.1655
11358TIP3    H155489   0.321   2.927  15.377 -0.8942 -0.1013  0.8330
11358TIP3    H255490   0.450   2.953  15.452  0.4111 -0.5701 -1.1814
11359TIP3   OH255491   0.419   6.358   4.801  0.2850 -0.0523 -0.0511
11359TIP3    H155492   0.367   6.280   4.781 -0.4503  0.3388  0.3000
11359TIP3    H255493   0.357   6.419   4.840  1.1995  0.0793  1.2566
11360TIP3   OH255494   6.780   2.211  16.885  0.0472  0.1708  0.0791
11360TIP3    H155495   6.740   2.134  16.845  1.0783 -0.8360  0.9034
11360TIP3    H255496   6.764   2.281  16.823 -1.3036 -0.6051 -0.4902
11361TIP3   OH255497   3.825   2.243  12.831  0.4203  0.3940  0.4141
11361TIP3    H155498   3.736   2.271  12.853  0.5547  1.7109 -0.6113
11361TIP3    H255499   3.855   2.306  12.765  1.7153 -0.6717 -0.0734
11362TIP3   OH255500   5.722   5.779  11.009  0.2615 -0.5231  0.4527
11362TIP3    H155501   5.738   5.719  10.937 -1.0287 -2.1276  1.4292
11362TIP3    H255502   5.763   5.861  10.982  1.2419 -1.5505 -1.3503
11363TIP3   OH255503   4.968   2.039   6.289  0.1894  0.5072  0.0774
11363TIP3    H155504   4.969   1.961   6.345 -0.2586  0.1851 -0.3552
11363TIP3    H255505   4.884   2.080   6.307 -0.6608 -0.4422 -1.4836
11364TIP3   OH255506   0.362   5.483  11.333  0.0076 -0.3129 -0.1297
11364TIP3    H155507   0.313   5.449  11.408 -0.9022  0.5963 -0.2817
11364TIP3    H255508   0.371   5.577  11.352  0.9596 -0.3158 -0.5214
11365TIP3   OH255509   0.870   5.254  15.147  0.2504  0.5601  0.2698
11365TIP3    H155510   0.925   5.269  15.071 -0.2188  0.8172 -0.0264
11365TIP3    H255511   0.928   5.268  15.222  0.6175  0.6936 -0.0366
11366TIP3   OH255512   0.184   5.912   3.900  0.1115 -0.8944 -0.4782
11366TIP3    H155513   0.262   5.923   3.846  0.1229 -2.2531 -0.7867
11366TIP3    H255514   0.182   5.989   3.956  1.7779 -0.9070 -0.3378
11367TIP3   OH255515   3.400   0.300   5.077 -0.3316  0.3269 -0.1360
11367TIP3    H155516   3.478   0.284   5.025 -0.5797  2.4636 -1.2851
11367TIP3    H255517   3.420   0.378   5.129 -0.6216 -0.9081  1.9753
11368TIP3   OH255518   5.946   0.140  16.076 -0.0602 -0.1062 -0.3033
11368TIP3    H155519   5.852   0.136  16.089 -0.2959  0.7578 -1.5766
11368TIP3    H255520   5.972   0.226  16.109  0.3126 -0.3749  0.1283
11369TIP3   OH255521   6.668   2.745   0.583 -0.6824  0.3672  0.5548
11369TIP3    H155522   6.754   2.766   0.621 -1.1627 -0.1261  1.9636
11369TIP3    H255523   6.676   2.653   0.556 -0.7299  0.3572  0.5756
11370TIP3   OH255524   3.777   0.704   1.062  0.2157  1.3153  0.3270
11370TIP3    H155525   3.815   0.783   1.026 -0.3086  0.4393 -2.3967
11370TIP3    H255526   3.842   0.636   1.046  0.2645  0.9742  1.7788
11371TIP3   OH255527   4.067   6.423  12.978 -0.0081  0.0034 -0.0789
11371TIP3    H155528   3.988   6.463  13.016  0.3280 -0.1454  0.7923
11371TIP3    H255529   4.033   6.355  12.919 -0.5403  0.3924 -0.2317
11372TIP3   OH255530   4.222   4.303  16.851 -0.3257 -0.1459  0.1875
11372TIP3    H155531   4.148   4.349  16.812  0.2908  0.3160 -0.4637
11372TIP3    H255532   4.191   4.276  16.937 -0.0617  3.2666  1.4965
11373TIP3   OH255533   4.088   3.381  16.293  0.2909  0.5019 -0.1160
11373TIP3    H155534   4.132   3.450  16.343 -1.4234  1.5135  0.0656
11373TIP3    H255535   4.089   3.413  16.203  0.4632  0.2359 -0.2099
11374TIP3   OH255536   3.356   2.871   4.479  0.2029 -0.0698  0.2204
11374TIP3    H155537   3.273   2.825   4.471  0.1418 -0.3120  1.9009
11374TIP3    H255538   3.404   2.822   4.546  1.8989 -0.2060 -1.0357
11375TIP3   OH255539   3.768   4.853  13.667 -0.0536 -0.0285 -0.2306
11375TIP3    H155540   3.743   4.860  13.575  0.4306 -0.1111 -0.3728
11375TIP3    H255541   3.689   4.875  13.715 -0.2129  0.3808 -0.6674
11376TIP3   OH255542   1.907   5.089  16.135 -1.0988 -0.3238  0.2149
11376TIP3    H155543   1.857   5.170  16.129 -0.3873  0.4704  3.3527
11376TIP3    H255544   1.914   5.072  16.229  3.0374 -1.2573 -0.0828
11377TIP3   OH255545   1.421   1.850   0.080 -0.6125  0.2242 -0.5906
11377TIP3    H155546   1.329   1.867   0.102 -0.8412  0.2078 -1.4755
11377TIP3    H255547   1.440   1.767   0.121 -0.0873  1.5759  2.0980
11378TIP3   OH255548   5.001   5.191  16.685  0.0778 -0.5358  0.1914
11378TIP3    H155549   5.003   5.278  16.647  3.3704 -0.0637  1.1163
11378TIP3    H255550   5.043   5.135  16.620 -2.6426 -1.7200 -0.7165
11379TIP3   OH255551   5.504   2.749   2.114  0.5308  0.3291  0.3939
11379TIP3    H155552   5.522   2.711   2.028  0.7862  0.6661  0.2954
11379TIP3    H255553   5.440   2.690   2.154  0.2566  0.2811 -0.1082
11380TIP3   OH255554   0.122   4.501   5.874 -0.0462 -0.6150  0.2073
11380TIP3    H155555   0.197   4.481   5.930 -0.4281  0.2695  1.0525
11380TIP3    H255556   0.122   4.596   5.867 -0.4005 -0.6704 -0.7741
11381TIP3   OH255557   5.846   1.827  16.205  0.3483 -0.1361  0.2200
11381TIP3    H155558   5.851   1.752  16.265  0.6207  0.1917  0.6095
11381TIP3    H255559   5.888   1.899  16.253 -0.2486  0.3637 -0.0050
11382TIP3   OH255560   0.492   2.662   5.893  0.2562  0.1151 -0.0904
11382TIP3    H155561   0.505   2.618   5.977  0.2900  0.2000 -0.0505
11382TIP3    H255562   0.550   2.616   5.833  0.7478  0.4902  0.0857
11383TIP3   OH255563   4.004   0.567  11.909 -0.0808 -0.5799 -0.5490
11383TIP3    H155564   4.004   0.475  11.883 -0.0001 -0.8310  0.3207
11383TIP3    H255565   3.960   0.612  11.837 -1.6046 -1.5084 -0.2394
11384TIP3   OH255566   1.565   5.043  16.630  0.1585  0.3129  0.1570
11384TIP3    H155567   1.584   4.958  16.668 -1.2346  0.1004  0.4150
11384TIP3    H255568   1.505   5.024  16.558  0.5126  0.9992 -0.3287
11385TIP3   OH255569   4.028   4.871   2.762 -0.2664 -0.6387  0.1520
11385TIP3    H155570   3.969   4.804   2.726 -0.9569 -0.3211  0.6782
11385TIP3    H255571   4.036   4.936   2.693 -0.1124 -0.9322 -0.1140
11386TIP3   OH255572   6.318   1.737   3.050  1.1869 -0.3641 -0.2651
11386TIP3    H155573   6.354   1.678   2.984 -0.9312 -2.2647  0.1558
11386TIP3    H255574   6.362   1.712   3.131  2.0726  0.3599 -0.5058
11387TIP3   OH255575   2.214   4.708   0.590  0.4865  0.8312  0.5246
11387TIP3    H155576   2.302   4.670   0.583  0.5305  1.1923 -1.6436
11387TIP3    H255577   2.186   4.721   0.499 -2.0343  0.2711  1.1449
11388TIP3   OH255578   4.800   6.419   2.859 -0.0308 -0.1315  0.3103
11388TIP3    H155579   4.745   6.353   2.900  0.2650  0.4191  1.6366
11388TIP3    H255580   4.739   6.481   2.820 -0.3116 -1.0141 -0.6969
11389TIP3   OH255581   1.542   3.630   5.897 -0.3851 -0.0822 -0.3224
11389TIP3    H155582   1.617   3.593   5.945 -0.0674  0.7539 -0.1525
11389TIP3    H255583   1.474   3.564   5.905  0.6436 -1.3417 -1.3529
11390TIP3   OH255584   6.275   3.377   2.090 -0.7207 -0.2650 -0.5655
11390TIP3    H155585   6.309   3.358   2.177 -0.2078 -3.4739 -1.3499
11390TIP3    H255586   6.353   3.392   2.036 -0.9980  0.8836 -0.6714
11391TIP3   OH255587   4.777   5.075   4.736  0.3445  0.7420 -0.0817
11391TIP3    H155588   4.811   5.159   4.704  0.3861  1.6466  2.1434
11391TIP3    H255589   4.682   5.085   4.733  0.3405  0.6559 -0.2932
11392TIP3   OH255590   3.080   3.448  15.222  0.2226 -0.3710 -0.0653
11392TIP3    H155591   3.163   3.482  15.188 -0.2251 -0.5282 -1.3976
11392TIP3    H255592   3.016   3.516  15.202  0.0271 -0.2300  0.9999
11393TIP3   OH255593   3.661   1.556   2.491  0.6799  0.1469 -0.1539
11393TIP3    H155594   3.742   1.605   2.478  0.3933  0.6249 -0.1373
11393TIP3    H255595   3.592   1.622   2.489  0.5092  0.2148  3.0908
11394TIP3   OH255596   6.656   2.146   0.955 -0.2329 -0.1350  0.4936
11394TIP3    H155597   6.625   2.180   0.871  1.1065 -1.9150 -0.8286
11394TIP3    H255598   6.614   2.060   0.963  2.4068 -1.6425 -0.2940
11395TIP3   OH255599   0.388   5.335  15.119  0.0541 -0.3388 -0.0447
11395TIP3    H155600   0.376   5.280  15.042 -0.3577  0.3475 -0.4865
11395TIP3    H255601   0.459   5.294  15.168 -0.8353 -1.7468  0.1011
11396TIP3   OH255602   3.120   2.411   0.055  0.1967  0.0382  0.0268
11396TIP3    H155603   3.114   2.488  -0.002  0.2631  2.2389  2.7657
11396TIP3    H255604   3.029   2.388   0.073  0.1061  1.2397  1.2965
11397TIP3   OH255605   3.169   6.413  14.773 -0.2035 -0.1570 -0.0436
11397TIP3    H155606   3.255   6.380  14.799  0.9270  2.6299  0.1640
11397TIP3    H255607   3.111   6.386  14.843  0.9483 -0.3176  0.8872
11398TIP3   OH255608   1.254   0.759  11.892  0.2076 -0.2746 -0.0586
11398TIP3    H155609   1.303   0.694  11.942  2.2314  1.1880 -0.0162
11398TIP3    H255610   1.220   0.710  11.817  1.8753 -1.3538 -0.1573
11399TIP3   OH255611   6.412   3.449   3.838 -0.3056 -0.7439 -0.0407
11399TIP3    H155612   6.462   3.378   3.798 -0.3724 -0.1281 -1.2564
11399TIP3    H255613   6.327   3.447   3.794 -1.2087 -1.4322  1.6264
11400TIP3   OH255614   5.265   6.114   1.001 -0.2468 -0.0221  0.0998
11400TIP3    H155615   5.315   6.135   1.080 -0.8302  1.1203  0.1844
11400TIP3    H255616   5.241   6.199   0.965 -0.1207 -0.5392 -1.2296
11401TIP3   OH255617   4.688   3.056   5.753  0.0920 -0.2817  0.2187
11401TIP3    H155618   4.755   3.009   5.703  0.8471  0.6965  0.2860
11401TIP3    H255619   4.642   2.988   5.802  1.1583 -0.9435  0.3124
11402TIP3   OH255620   2.596   0.678  14.772 -1.1886  0.5430  0.5844
11402TIP3    H155621   2.600   0.674  14.868  0.1266 -0.5119  0.5065
11402TIP3    H255622   2.542   0.603  14.747  0.8467 -0.9178  0.3952
11403TIP3   OH255623   6.570   5.947  16.653 -0.0105  0.1278  0.0046
11403TIP3    H155624   6.560   5.986  16.566  0.7531  0.0931 -0.1068
11403TIP3    H255625   6.494   5.891  16.663  0.0105 -0.0498 -0.7447
11404TIP3   OH255626   2.090   1.217   4.910  0.2209  0.8211 -0.2247
11404TIP3    H155627   2.044   1.135   4.927 -0.4646  1.2225 -0.0967
11404TIP3    H255628   2.144   1.199   4.834  3.1826 -0.9718  2.0834
11405TIP3   OH255629   4.903   5.785  15.631  0.1661 -0.1424 -0.2850
11405TIP3    H155630   4.937   5.785  15.720 -0.4912 -0.1535 -0.0314
11405TIP3    H255631   4.970   5.741  15.579  0.5363 -0.1546  0.2090
11406TIP3   OH255632   4.594   5.143  11.162 -0.3215  0.0899 -0.0700
11406TIP3    H155633   4.544   5.088  11.222 -2.1939  1.6362 -0.1011
11406TIP3    H255634   4.528   5.196  11.118  1.1781  0.4030 -2.0595
11407TIP3   OH255635   1.617   3.209   0.922  0.0175 -0.3403 -0.1379
11407TIP3    H155636   1.548   3.171   0.867 -1.1613 -0.0188  1.0665
11407TIP3    H255637   1.584   3.199   1.012 -0.3281  3.3341  0.3036
11408TIP3   OH255638   4.420   6.021   4.102 -0.5045 -0.3346  0.7439
11408TIP3    H155639   4.483   6.071   4.051 -0.1830 -1.7496 -0.3053
11408TIP3    H255640   4.342   6.075   4.104 -0.2641  0.0925 -0.5915
11409TIP3   OH255641   0.065   1.377  16.122  0.3908 -0.4120  0.1225
11409TIP3    H155642   0.096   1.330  16.044  0.7450 -1.0868  0.6539
11409TIP3    H255643   0.136   1.437  16.143 -0.8249  1.8155 -1.6659
11410TIP3   OH255644   2.394   1.777  13.300  0.0381 -0.1684  0.4508
11410TIP3    H155645   2.466   1.837  13.279 -1.0897  0.7481 -0.9472
11410TIP3    H255646   2.408   1.701  13.244  0.0531 -0.1129  0.3802
11411TIP3   OH255647   4.173   3.030  13.876  0.6700  0.0712 -0.1066
11411TIP3    H155648   4.200   2.984  13.796  2.5998  0.4040  0.3141
11411TIP3    H255649   4.150   3.118  13.845 -2.2543 -0.8310 -0.7930
11412TIP3   OH255650   5.433   3.803  13.535 -0.1821  0.6634  0.4788
11412TIP3    H155651   5.411   3.820  13.627 -0.5616 -1.3265  0.8012
11412TIP3    H255652   5.522   3.767  13.538 -1.1096 -1.8755  0.4295
11413TIP3   OH255653   1.511   5.611  10.920 -1.0999  0.1480 -0.1269
11413TIP3    H155654   1.435   5.662  10.949  0.3471  1.9058  0.7496
11413TIP3    H255655   1.571   5.612  10.994  0.3545 -0.0313 -1.2466
11414TIP3   OH255656   0.275   2.528  17.147  0.1694 -1.1622  0.0787
11414TIP3    H155657   0.243   2.450  17.102  0.3174 -3.3051  3.3461
11414TIP3    H255658   0.351   2.556  17.096 -0.6580 -2.3480 -1.9007
11415TIP3   OH255659   1.358   5.738   3.369 -0.2800 -0.5330 -0.5011
11415TIP3    H155660   1.436   5.685   3.353 -1.7184 -2.4386 -1.6825
11415TIP3    H255661   1.329   5.713   3.456  0.9575  0.9960  0.4103
11416TIP3   OH255662   1.107   6.190   6.367  0.0360  0.1852 -0.7300
11416TIP3    H155663   1.042   6.252   6.401  1.1745  1.3976 -0.7020
11416TIP3    H255664   1.134   6.139   6.443 -0.6677 -0.1340 -0.6880
11417TIP3   OH255665   1.277   0.266   5.809 -0.0325 -0.0772 -0.2131
11417TIP3    H155666   1.228   0.315   5.743  1.0731  0.7545 -0.4502
11417TIP3    H255667   1.228   0.184   5.819 -1.1345  0.4684 -0.8494
11418TIP3   OH255668   6.070   6.231   2.729  1.0500  0.1948  0.1400
11418TIP3    H155669   5.982   6.252   2.760 -0.7314 -3.0437 -2.1392
11418TIP3    H255670   6.128   6.285   2.783 -2.2389  2.0147  2.1868
11419TIP3   OH255671   5.587   0.735  13.506  0.8089 -0.3773 -0.1805
11419TIP3    H155672   5.654   0.779  13.558 -2.6993  3.3768  1.7200
11419TIP3    H255673   5.602   0.764  13.416  1.1484  1.2928  0.3925
11420TIP3   OH255674   4.495   1.841  12.081  0.1116  0.0132  0.1028
11420TIP3    H155675   4.404   1.852  12.108 -0.4878  0.0706 -1.7896
11420TIP3    H255676   4.515   1.749  12.102  0.0864  0.3494  1.7423
11421TIP3   OH255677   6.289   4.163   0.455 -0.3167  0.1988 -0.1323
11421TIP3    H155678   6.355   4.114   0.504 -1.2305  0.3548  1.3272
11421TIP3    H255679   6.263   4.233   0.515 -0.9534  0.8514 -1.1489
11422TIP3   OH255680   4.146   3.861   5.007  0.5482  0.1122  0.7853
11422TIP3    H155681   4.177   3.842   4.919  2.4060 -0.0760  1.4317
11422TIP3    H255682   4.127   3.955   5.007  1.2676  0.2615  0.3814
11423TIP3   OH255683   6.258   2.978  16.581 -0.5449  0.5892 -0.0851
11423TIP3    H155684   6.183   2.931  16.617 -0.9582  1.7883  0.6736
11423TIP3    H255685   6.241   3.070  16.601 -0.1585  1.1903 -2.2309
11424TIP3   OH255686   1.713   2.587   4.836  0.1044 -0.0532 -0.1925
11424TIP3    H155687   1.636   2.639   4.861  1.0390  0.5838  1.5000
11424TIP3    H255688   1.771   2.649   4.793  0.5617 -0.0343  0.4388
11425TIP3   OH255689   3.849   4.922   3.756 -0.7214  0.5927 -0.2742
11425TIP3    H155690   3.914   4.852   3.745 -0.3563  0.9337 -0.3131
11425TIP3    H255691   3.846   4.965   3.671  0.1941  1.5959  0.1786
11426TIP3   OH255692   3.775   6.416  13.730  0.0120  0.3606 -0.2268
11426TIP3    H155693   3.760   6.415  13.824  0.3201 -0.0452 -0.1764
11426TIP3    H255694   3.689   6.434  13.692 -0.6182 -1.7383  0.0627
11427TIP3   OH255695   2.454   3.195  15.713 -0.2521  0.2581  0.5221
11427TIP3    H155696   2.529   3.191  15.772  0.4159  2.1062 -0.1391
11427TIP3    H255697   2.433   3.288  15.707 -1.0063  0.0142 -1.2674
11428TIP3   OH255698   4.471   5.321   5.414  0.5830 -0.3427  0.2551
11428TIP3    H155699   4.505   5.249   5.468  0.6476 -1.0538 -0.6934
11428TIP3    H255700   4.400   5.359   5.465  0.0283 -1.5934  0.4608
11429TIP3   OH255701   3.652   3.402  13.322  0.6882  0.3219 -0.3183
11429TIP3    H155702   3.685   3.322  13.363 -2.5493 -1.7504 -1.2751
11429TIP3    H255703   3.582   3.432  13.380 -0.5607  0.2754 -1.7361
11430TIP3   OH255704   3.085   6.391  14.261  0.0094 -0.0278  0.1512
11430TIP3    H155705   3.039   6.368  14.342  0.4341  0.2860  0.4851
11430TIP3    H255706   3.151   6.454  14.288 -0.9594  1.4083 -0.6968
11431TIP3   OH255707   3.190   0.470  12.534 -0.7302  0.1725  0.0496
11431TIP3    H155708   3.209   0.386  12.577  1.6391  0.6317  0.0310
11431TIP3    H255709   3.155   0.446  12.448  0.9851 -0.8422 -0.3992
11432TIP3   OH255710   5.749   2.006   0.842 -0.2710  0.5276  0.0103
11432TIP3    H155711   5.815   2.062   0.802 -0.7173  0.0952 -1.4070
11432TIP3    H255712   5.792   1.921   0.851 -0.0414  0.7290  0.8483
11433TIP3   OH255713   1.538   5.308   2.747 -0.5579 -0.4157 -0.2124
11433TIP3    H155714   1.475   5.246   2.784  0.4635 -1.3725 -0.0553
11433TIP3    H255715   1.564   5.268   2.663 -0.8582  0.4371 -0.7271
11434TIP3   OH255716   2.313   5.819  14.254 -0.5641  0.6839 -0.5779
11434TIP3    H155717   2.299   5.858  14.168 -0.5972  0.9304 -0.4620
11434TIP3    H255718   2.225   5.793  14.283 -0.3179 -1.5513 -1.6184
11435TIP3   OH255719   0.229   3.599  15.998 -0.0775  0.3315 -0.8675
11435TIP3    H155720   0.218   3.656  15.922  1.4139  0.7272 -0.8159
11435TIP3    H255721   0.175   3.640  16.066  0.4933  1.3569 -1.0109
11436TIP3   OH255722   0.844   3.187  11.420  0.5111 -0.1625 -0.0947
11436TIP3    H155723   0.793   3.187  11.338 -0.6744 -1.3052  0.5936
11436TIP3    H255724   0.778   3.176  11.488  1.3867  1.7190  1.1164
11437TIP3   OH255725   5.406   1.955  15.637 -0.3950  0.1385 -0.7484
11437TIP3    H155726   5.435   1.947  15.728  1.4348  0.7949 -1.2294
11437TIP3    H255727   5.366   2.042  15.633  2.2637  1.4408 -1.1948
11438TIP3   OH255728   4.374   6.654   6.632  0.7291  0.0777 -0.0881
11438TIP3    H155729   4.345   6.668   6.542  0.2357 -1.0803 -0.1290
11438TIP3    H255730   4.317   6.710   6.684 -0.8827 -1.3171 -0.2716
11439TIP3   OH255731   1.760   6.469  14.027 -0.2407 -0.4947 -0.6774
11439TIP3    H155732   1.766   6.552  14.073 -0.2994 -0.0200 -1.5098
11439TIP3    H255733   1.849   6.432  14.032 -0.4592 -0.9064  0.6155
11440TIP3   OH255734   6.246   1.709  14.298  0.5039 -0.2692  0.1393
11440TIP3    H155735   6.181   1.758  14.247  2.3904  1.7588 -0.4933
11440TIP3    H255736   6.258   1.762  14.377  0.1095 -1.5847  1.1038
11441TIP3   OH255737   2.032   3.100   5.350 -0.1325  0.2141  0.3128
11441TIP3    H155738   1.957   3.049   5.319 -1.1066  1.8419 -0.1465
11441TIP3    H255739   2.046   3.069   5.440 -2.3428  0.8451  0.9589
11442TIP3   OH255740   3.831   4.207   3.590 -0.2359 -0.3353  0.5170
11442TIP3    H155741   3.889   4.267   3.543  0.6444 -1.8542 -0.4142
11442TIP3    H255742   3.800   4.257   3.665 -0.1620  1.5304 -0.6346
11443TIP3   OH255743   2.416   2.962   6.331 -0.1110 -0.3716  0.4483
11443TIP3    H155744   2.386   2.885   6.379  0.0221  0.7395  2.4054
11443TIP3    H255745   2.502   2.937   6.296 -0.1250 -1.1424  0.9633
11444TIP3   OH255746   6.740   6.058  16.862 -1.0020 -0.3522  0.0202
11444TIP3    H155747   6.719   6.151  16.868  0.8785  0.2912 -1.9319
11444TIP3    H255748   6.680   6.023  16.796  0.7594  0.4319 -2.1206
11445TIP3   OH255749   1.924   6.497   1.007 -0.1925 -0.3088 -0.3278
11445TIP3    H155750   1.892   6.416   0.967 -0.3098  0.1854 -1.2673
11445TIP3    H255751   2.004   6.471   1.052 -0.1266 -0.9165 -0.7758
11446TIP3   OH255752   3.181   6.410   0.726 -0.5712  0.4221  0.1732
11446TIP3    H155753   3.160   6.415   0.820  0.0214  0.0250  0.3301
11446TIP3    H255754   3.222   6.324   0.716 -0.9898  0.3009 -0.5268
11447TIP3   OH255755   0.398   0.882  10.584  0.6869 -0.0562 -0.0883
11447TIP3    H155756   0.476   0.930  10.612 -0.0395  1.0223  0.1363
11447TIP3    H255757   0.426   0.790  10.583  1.7130  0.2220  0.8280
11448TIP3   OH255758   0.269   1.761   6.156 -0.4979 -0.2468 -0.4205
11448TIP3    H155759   0.326   1.749   6.232 -0.6647 -0.2396 -0.2933
11448TIP3    H255760   0.222   1.679   6.148 -0.2391 -0.3686 -0.7210
11449TIP3   OH255761   6.540   1.488   3.219  0.0105  0.1825 -0.1732
11449TIP3    H155762   6.622   1.538   3.216  1.0285 -1.4707 -1.3083
11449TIP3    H255763   6.490   1.529   3.289  2.7154 -0.0930  2.1130
11450TIP3   OH255764   3.105   5.237  15.526 -0.5181  0.7612 -0.0238
11450TIP3    H155765   3.022   5.265  15.487 -0.9059  0.2233  0.4172
11450TIP3    H255766   3.168   5.304  15.497 -0.8422  0.5013 -1.3819
11451TIP3   OH255767   4.887   1.221   5.224  0.7012  0.2368  0.1127
11451TIP3    H155768   4.927   1.228   5.138 -0.7342 -0.6147 -0.6631
11451TIP3    H255769   4.834   1.141   5.220 -0.9234  1.1999  1.1250
11452TIP3   OH255770   1.578   4.323  15.565 -0.4248 -0.6120 -0.1402
11452TIP3    H155771   1.612   4.320  15.476 -1.0273 -0.0626 -0.3968
11452TIP3    H255772   1.504   4.262  15.564 -1.0207  0.0972 -0.2840
11453TIP3   OH255773   0.257   0.839  15.060 -0.0237 -0.1191 -0.6643
11453TIP3    H155774   0.176   0.806  15.021  0.0129 -0.1572 -0.7079
11453TIP3    H255775   0.323   0.827  14.992 -0.3806  1.8738 -1.4591
11454TIP3   OH255776   5.229   2.907  14.075 -0.0329 -0.4037  0.0119
11454TIP3    H155777   5.186   2.927  13.992 -0.5159  2.6107  0.8994
11454TIP3    H255778   5.322   2.904  14.054 -0.2072 -0.4860 -0.7758
11455TIP3   OH255779   4.549   6.679   5.299  0.3605 -0.7822 -0.3524
11455TIP3    H155780   4.486   6.639   5.239 -1.9323  0.9433  0.7318
11455TIP3    H255781   4.531   6.638   5.383  0.6467 -0.2500 -0.0222
11456TIP3   OH255782   1.722   5.168   3.021  0.0843  0.2816  0.1339
11456TIP3    H155783   1.761   5.207   2.943 -0.7315  1.1756  0.1456
11456TIP3    H255784   1.629   5.160   2.999 -0.3577  1.5885  1.4048
11457TIP3   OH255785   5.604   5.729   5.908 -0.0230 -0.1725 -0.0392
11457TIP3    H155786   5.645   5.816   5.911  1.9104 -1.0114 -0.5403
11457TIP3    H255787   5.561   5.720   5.994  1.7483  0.3731  0.9502
11458TIP3   OH255788   6.269   0.626   3.489 -0.3882  0.2259  0.2075
11458TIP3    H155789   6.346   0.626   3.546 -1.5536  0.8241  1.8756
11458TIP3    H255790   6.295   0.575   3.413  1.1835 -0.7988  1.3725
11459TIP3   OH255791   5.745   5.309   3.667 -0.1664 -0.2406  0.2245
11459TIP3    H155792   5.814   5.287   3.728 -0.3557  1.5779  1.1467
11459TIP3    H255793   5.790   5.353   3.594 -0.2939  0.7128  0.7060
11460TIP3   OH255794   3.734   1.941   3.091 -0.5634 -0.4280 -0.2721
11460TIP3    H155795   3.743   1.900   3.005 -0.4734 -1.7662  0.3555
11460TIP3    H255796   3.824   1.956   3.120 -0.5942  0.0888 -0.4174
11461TIP3   OH255797   1.696   1.027  12.075  0.2867 -0.5979  0.1290
11461TIP3    H155798   1.651   1.109  12.056  0.8009 -0.4000 -0.2428
11461TIP3    H255799   1.636   0.980  12.133 -0.4373 -0.3728 -0.4237
11462TIP3   OH255800   3.201   3.709  11.955 -0.1850 -0.4039 -0.3313
11462TIP3    H155801   3.117   3.754  11.958  0.7894  1.5499 -0.1558
11462TIP3    H255802   3.181   3.617  11.969 -2.2659  0.0226 -0.2681
11463TIP3   OH255803   5.279   0.753  16.527 -0.1022  0.5159  0.4482
11463TIP3    H155804   5.325   0.671  16.507 -0.5581  0.2403  0.5197
11463TIP3    H255805   5.244   0.782  16.443 -1.4429 -0.2906  0.7014
11464TIP3   OH255806   5.345   0.626   1.514  0.4968 -0.0482  0.4009
11464TIP3    H155807   5.336   0.673   1.431 -2.1135  0.5979  0.9660
11464TIP3    H255808   5.381   0.540   1.489  3.1061  1.2886 -0.9145
11465TIP3   OH255809   0.200   0.078  15.726  0.6920  0.3460 -0.1296
11465TIP3    H155810   0.178   0.076  15.819 -0.1388 -0.3060 -0.3219
11465TIP3    H255811   0.265   0.008  15.716 -1.7195 -2.0093 -0.5796
11466TIP3   OH255812   5.178   6.407  11.945 -0.2231  0.1131 -0.1696
11466TIP3    H155813   5.185   6.503  11.944  1.9351  0.0160 -1.5297
11466TIP3    H255814   5.268   6.377  11.936 -1.0165 -2.0335 -1.6824
11467TIP3   OH255815   1.125   0.082   2.748 -0.3573 -0.2784 -0.1675
11467TIP3    H155816   1.194   0.148   2.746  1.5987 -2.1649  1.4970
11467TIP3    H255817   1.047   0.131   2.775  0.6139  1.6370 -0.6211
11468TIP3   OH255818   6.379   6.278   5.269 -0.3133 -0.2512 -0.2325
11468TIP3    H155819   6.399   6.369   5.246  1.0952 -0.6915 -0.8201
11468TIP3    H255820   6.402   6.227   5.191  0.6236 -1.2944  0.6821
11469TIP3   OH255821   2.398   1.116  12.636 -0.2963 -0.1382  0.0341
11469TIP3    H155822   2.410   1.108  12.542  2.0445 -0.9861  0.3366
11469TIP3    H255823   2.380   1.209  12.651  1.5308  0.4415 -1.0760
11470TIP3   OH255824   1.416   2.660   5.963 -0.3203 -0.4759  0.1844
11470TIP3    H155825   1.490   2.635   6.019  0.7701 -0.8161 -1.3381
11470TIP3    H255826   1.454   2.721   5.900 -1.2151 -1.0786 -0.9694
11471TIP3   OH255827   4.487   5.412   5.732 -0.0723 -0.8165 -0.2292
11471TIP3    H155828   4.495   5.455   5.647 -0.3257 -1.7573 -0.7394
11471TIP3    H255829   4.546   5.461   5.789  0.2050 -0.2607 -0.9756
11472TIP3   OH255830   5.327   0.376   3.562 -0.2793  0.1673  0.2128
11472TIP3    H155831   5.246   0.343   3.522 -0.4605 -0.2915  0.9260
11472TIP3    H255832   5.298   0.426   3.638  0.0587  1.0233 -0.2130
11473TIP3   OH255833   1.411   5.568   1.019  0.2398 -0.1506 -0.1524
11473TIP3    H155834   1.330   5.611   1.046  1.9623  3.9684 -0.8593
11473TIP3    H255835   1.400   5.552   0.925 -0.0579 -0.4870 -0.0643
11474TIP3   OH255836   5.616   0.399   5.712  0.3232 -0.0687  0.3752
11474TIP3    H155837   5.689   0.383   5.771 -0.9559  1.7298  2.6651
11474TIP3    H255838   5.599   0.315   5.671  2.7287 -0.8652  0.8519
11475TIP3   OH255839   4.987   2.780  14.616 -0.0332 -0.0647 -0.2376
11475TIP3    H155840   5.028   2.696  14.593  0.9985  0.2571  0.3446
11475TIP3    H255841   5.000   2.835  14.539  2.1138  0.5436  0.4852
11476TIP3   OH255842   3.604   5.513   5.023 -0.5120 -0.4223  0.1169
11476TIP3    H155843   3.607   5.431   4.972  2.7177  0.1942 -0.8604
11476TIP3    H255844   3.572   5.486   5.109 -0.0875 -2.6280 -0.3548
11477TIP3   OH255845   3.124   4.367  15.062  1.0483  0.2067  0.1523
11477TIP3    H155846   3.136   4.372  14.968  0.3448  1.2766  0.1155
11477TIP3    H255847   3.191   4.425  15.098 -0.5535  2.1609  0.1547
11478TIP3   OH255848   3.825   5.495   4.645 -0.2569 -0.7451 -0.3199
11478TIP3    H155849   3.821   5.547   4.725  2.3938 -0.4606 -0.2945
11478TIP3    H255850   3.868   5.413   4.671  0.2079 -0.8462 -1.3370
11479TIP3   OH255851   0.499   2.420  15.789  0.4815 -0.2298  0.6260
11479TIP3    H155852   0.476   2.453  15.702  1.9578  3.1257  1.3679
11479TIP3    H255853   0.417   2.384  15.822 -0.8209  0.9610 -1.0928
11480TIP3   OH255854   4.065   3.599   5.337 -0.4046 -0.3574  0.1767
11480TIP3    H155855   4.116   3.679   5.342  0.1806 -0.7534  0.6494
11480TIP3    H255856   3.987   3.617   5.390  0.2965 -0.5087  1.2763
11481TIP3   OH255857   0.780   0.777   0.117 -0.6199  0.3678  0.5989
11481TIP3    H155858   0.817   0.727   0.190 -0.4555 -0.1380  0.1733
11481TIP3    H255859   0.776   0.867   0.150 -0.2284  0.2057  1.1129
11482TIP3   OH255860   0.218   2.307   1.919  0.2649  0.0829 -0.1134
11482TIP3    H155861   0.296   2.256   1.897 -0.2364 -0.4916 -0.6041
11482TIP3    H255862   0.147   2.243   1.919  0.0517  0.2316  2.1895
11483TIP3   OH255863   0.983   6.619   2.608  0.7400  0.1511  0.3748
11483TIP3    H155864   0.897   6.630   2.650  0.4274  1.1552 -0.4566
11483TIP3    H255865   1.031   6.698   2.632  1.1381 -0.0346  0.1941
11484TIP3   OH255866   1.853   3.179  12.202  0.1260  0.0210  0.4906
11484TIP3    H155867   1.825   3.139  12.284  3.0578 -0.8224  1.2106
11484TIP3    H255868   1.861   3.106  12.140  1.5278  0.0299  0.6117
11485TIP3   OH255869   4.989   6.387   4.656 -0.2859  0.3189 -0.9133
11485TIP3    H155870   5.032   6.332   4.591  1.6084  1.4576 -0.6778
11485TIP3    H255871   4.907   6.341   4.675  0.9223 -2.0854 -1.1746
11486TIP3   OH255872   4.065   0.472  14.498 -0.9544  0.0701  0.5456
11486TIP3    H155873   4.149   0.466  14.542 -1.4342 -0.2985  1.4402
11486TIP3    H255874   4.006   0.508  14.564 -1.4827  0.3939 -0.0925
11487TIP3   OH255875   1.315   2.125  11.162 -0.3805 -0.4141  0.0023
11487TIP3    H155876   1.253   2.188  11.126 -2.3318 -2.5991 -0.7197
11487TIP3    H255877   1.381   2.178  11.207 -1.5120  2.1124 -1.1684
11488TIP3   OH255878   4.227   6.108  17.225 -0.2511 -0.6655 -0.3458
11488TIP3    H155879   4.205   6.018  17.249  0.4071 -0.3974  1.4560
11488TIP3    H255880   4.265   6.145  17.305  2.4373  0.2503 -1.9136
11489TIP3   OH255881   1.917   3.992   0.584  0.6425 -0.4350  0.5970
11489TIP3    H155882   2.003   3.985   0.542  0.7819 -2.1846  1.1070
11489TIP3    H255883   1.924   4.069   0.641  1.3754  0.2893 -0.4398
11490TIP3   OH255884   1.120   2.563   5.754 -0.0486 -0.9944 -0.1617
11490TIP3    H155885   1.051   2.498   5.743  0.6942 -1.6397 -1.1567
11490TIP3    H255886   1.198   2.512   5.776 -0.1589 -0.1744  2.3980
11491TIP3   OH255887   6.376   3.390   4.737  0.0967  0.0717  0.4806
11491TIP3    H155888   6.284   3.413   4.721  0.0589  0.1289  0.7668
11491TIP3    H255889   6.380   3.295   4.723  0.0135  0.0832  0.3764
11492TIP3   OH255890   0.487   6.322  11.964  0.3155 -0.0771  0.2536
11492TIP3    H155891   0.580   6.308  11.945  0.5971  1.1785  0.5784
11492TIP3    H255892   0.461   6.393  11.905 -0.3411 -0.1718  0.4200
11493TIP3   OH255893   5.472   2.096   3.711  0.0289  0.0516  0.5458
11493TIP3    H155894   5.527   2.063   3.783  2.2685  0.0690 -1.0284
11493TIP3    H255895   5.397   2.037   3.708  2.6582 -3.5989 -0.5767
11494TIP3   OH255896   5.697   3.103  16.580 -0.1728 -0.1078  0.2419
11494TIP3    H155897   5.694   3.100  16.675  1.3533  1.2781  0.3881
11494TIP3    H255898   5.702   3.196  16.559  0.1210 -0.4157 -1.1560
11495TIP3   OH255899   4.737   6.020  15.731  0.0076  0.0373  0.2593
11495TIP3    H155900   4.734   5.991  15.640  0.7472 -0.0826  0.2677
11495TIP3    H255901   4.830   6.013  15.756 -0.1385  0.3554  0.9253
11496TIP3   OH255902   3.842   6.606   5.809 -0.0852 -0.2458 -0.2775
11496TIP3    H155903   3.846   6.689   5.761  1.0110  0.3007  0.7180
11496TIP3    H255904   3.828   6.540   5.741 -1.5864  0.7871 -1.0252
11497TIP3   OH255905   4.037   0.990   6.065  0.3166 -0.0112 -0.5219
11497TIP3    H155906   3.968   0.928   6.087 -0.8932  1.9845  1.8377
11497TIP3    H255907   4.119   0.944   6.084 -0.4517 -1.3998 -0.4606
11498TIP3   OH255908   1.706   3.785  12.592  0.5325 -0.4238 -0.1395
11498TIP3    H155909   1.678   3.792  12.501  2.0297 -1.1158 -0.6939
11498TIP3    H255910   1.636   3.827  12.643 -0.4227 -0.2168 -1.5789
11499TIP3   OH255911   0.421   4.102   0.481  0.1598  0.2098 -0.7553
11499TIP3    H155912   0.468   4.035   0.431 -0.2408 -0.0767 -0.7586
11499TIP3    H255913   0.329   4.082   0.466  0.0383  0.4945 -0.3967
11500TIP3   OH255914   1.870   5.074   0.073 -0.3077  0.0471  0.4122
11500TIP3    H155915   1.928   5.032   0.009 -0.3641 -1.8139  1.5244
11500TIP3    H255916   1.835   5.150   0.026  1.3375  0.0026 -1.0160
11501TIP3   OH255917   4.511   2.637   3.600  0.2881  0.4666  0.1725
11501TIP3    H155918   4.525   2.667   3.690  0.4409 -0.5378  0.4948
11501TIP3    H255919   4.533   2.544   3.602 -1.0811  0.1055 -0.5958
11502TIP3   OH255920   4.098   5.801  12.982  0.7362  0.7158  0.0988
11502TIP3    H155921   4.015   5.816  12.937 -0.9018 -3.2877  1.3517
11502TIP3    H255922   4.165   5.819  12.915 -1.3024  0.3621 -2.1672
11503TIP3   OH255923   6.602   1.823   1.239 -1.1155 -1.0034  0.1704
11503TIP3    H155924   6.560   1.801   1.156 -1.6387  0.1735  0.1072
11503TIP3    H255925   6.693   1.797   1.227 -0.9469  0.1089 -1.1768
11504TIP3   OH255926   0.444   5.194  14.343  0.3896 -0.0913  0.4627
11504TIP3    H155927   0.377   5.127  14.335  0.9107 -0.4340 -1.3800
11504TIP3    H255928   0.503   5.161  14.411 -1.0586  0.0669  1.8794
11505TIP3   OH255929   0.612   2.408   2.720  0.2959 -0.0397  0.1049
11505TIP3    H155930   0.545   2.360   2.769 -0.5379  0.2130 -0.7561
11505TIP3    H255931   0.641   2.477   2.780 -0.0004 -0.3334  0.5939
11506TIP3   OH255932   0.446   6.113   5.478 -0.6673  0.0111  0.1220
11506TIP3    H155933   0.411   6.177   5.416 -0.3218 -1.4364 -1.6564
11506TIP3    H255934   0.540   6.110   5.460 -0.7574 -1.3630 -0.2218
11507TIP3   OH255935   6.344   5.462  12.941 -0.2749 -0.6495  1.0467
11507TIP3    H155936   6.283   5.435  12.871  0.7883 -1.1891  0.2978
11507TIP3    H255937   6.287   5.496  13.010 -1.2961  1.5736 -0.7627
11508TIP3   OH255938   3.217   0.998  15.346 -0.2861  0.0380  0.0440
11508TIP3    H155939   3.214   1.093  15.357  0.8655 -0.1436  3.1590
11508TIP3    H255940   3.128   0.969  15.364  0.0133  0.3936  2.4719
11509TIP3   OH255941   0.825   0.587  13.108  0.1550  1.1750  0.2423
11509TIP3    H155942   0.888   0.521  13.080 -0.3501  1.0933 -0.7481
11509TIP3    H255943   0.868   0.632  13.180 -0.7862 -2.4323  3.3578
11510TIP3   OH255944   1.081   0.920   1.547 -0.2731  0.3366 -0.4795
11510TIP3    H155945   1.007   0.982   1.542  0.7850  1.5653 -1.5545
11510TIP3    H255946   1.064   0.857   1.477 -0.8560 -0.0469 -0.0063
11511TIP3   OH255947   0.054   3.187  14.540 -0.3358 -0.1080 -0.6433
11511TIP3    H155948  -0.022   3.245  14.534  0.9217  1.4894 -1.7456
11511TIP3    H255949   0.081   3.192  14.632 -1.0837 -0.1030 -0.4139
11512TIP3   OH255950   2.572   2.282   1.804 -0.8854 -0.0513 -0.5623
11512TIP3    H155951   2.562   2.232   1.885  0.2980 -1.6066 -1.3153
11512TIP3    H255952   2.580   2.373   1.832  0.4049 -0.6488  1.1651
11513TIP3   OH255953   3.437   4.578  12.364  0.3081 -0.4231 -0.7381
11513TIP3    H155954   3.341   4.575  12.360  0.2004 -1.5449  1.5054
11513TIP3    H255955   3.458   4.668  12.338 -1.5787  0.7558  1.3920
11514TIP3   OH255956   4.753   0.716   0.546  0.1482 -0.0230 -0.2824
11514TIP3    H155957   4.777   0.807   0.531 -0.0627  0.1004  0.1463
11514TIP3    H255958   4.691   0.718   0.619  0.9179 -0.5985  0.4024
11515TIP3   OH255959   1.835   5.360   1.104 -0.0018  0.3900 -0.0852
11515TIP3    H155960   1.776   5.379   1.031 -0.9099 -1.2448  0.1590
11515TIP3    H255961   1.822   5.267   1.121  1.0348  0.4851  1.4357
11516TIP3   OH255962   1.913   1.502  13.004  0.4173  0.2696  0.3683
11516TIP3    H155963   1.877   1.460  13.083 -0.9084 -0.2600 -0.4788
11516TIP3    H255964   1.848   1.568  12.980  0.5443  0.0599 -0.5876
11517TIP3   OH255965   1.190   0.361   3.090  0.7576 -0.0243 -0.3539
11517TIP3    H155966   1.165   0.453   3.079  1.0611  0.0630 -0.3130
11517TIP3    H255967   1.108   0.317   3.113  0.3465 -0.0038 -1.6950
11518TIP3   OH255968   0.605   4.402  16.214 -0.0374 -0.6040  0.5613
11518TIP3    H155969   0.698   4.426  16.209 -0.3613  0.6663  0.3174
11518TIP3    H255970   0.560   4.485  16.229 -1.3825 -0.7991 -1.9602
11519TIP3   OH255971   2.137   2.580   5.374  0.7668 -0.4107 -0.3886
11519TIP3    H155972   2.210   2.598   5.434  1.3404 -1.9269 -0.5922
11519TIP3    H255973   2.138   2.485   5.363 -0.0312 -0.2670 -1.9403
11520TIP3   OH255974   2.318   1.845   1.066 -0.6078  0.0795 -0.0139
11520TIP3    H155975   2.392   1.810   1.115 -0.2007 -3.0281 -2.4756
11520TIP3    H255976   2.358   1.904   1.001 -0.4142 -0.5042 -0.4358
11521TIP3   OH255977   3.521   0.738   3.527 -0.1882 -0.3670 -0.2922
11521TIP3    H155978   3.471   0.737   3.609  0.2293 -0.5501 -0.0354
11521TIP3    H255979   3.590   0.803   3.543  1.4755 -2.2381  0.4657
11522TIP3   OH255980   3.778   4.778   5.076 -0.2709 -0.0243 -0.3876
11522TIP3    H155981   3.745   4.852   5.126 -1.7886 -0.7651 -0.2498
11522TIP3    H255982   3.702   4.745   5.028  0.3708 -1.4856 -0.4481
11523TIP3   OH255983   1.346   6.652  16.126  0.1008 -0.0878 -0.0796
11523TIP3    H155984   1.254   6.680  16.128 -0.3524 -1.3744 -1.1442
11523TIP3    H255985   1.355   6.609  16.041  2.1158  1.3282 -0.6615
11524TIP3   OH255986   2.299   1.049   3.746 -0.0552 -0.2906  0.7592
11524TIP3    H155987   2.317   1.038   3.839 -0.1887  1.1534  0.9784
11524TIP3    H255988   2.363   1.114   3.716  0.6050 -1.4114 -0.3914
11525TIP3   OH255989   2.999   1.158   1.886 -0.0925  0.0552  0.4354
11525TIP3    H155990   2.996   1.242   1.842  0.5970 -0.4177 -0.5738
11525TIP3    H255991   3.091   1.148   1.912  0.0544 -0.8354 -0.3912
11526TIP3   OH255992   4.093   4.262  13.510  0.4813  0.0860 -0.5490
11526TIP3    H155993   4.070   4.262  13.603  1.7417  4.1605 -0.0094
11526TIP3    H255994   4.040   4.332  13.472  1.7319  0.1327 -2.3445
11527TIP3   OH255995   1.726   6.785  12.509  0.5133  0.6223 -0.1228
11527TIP3    H155996   1.821   6.780  12.495  0.3395 -0.7807 -0.9153
11527TIP3    H255997   1.694   6.836  12.435  0.7098  1.7849  0.5613
11528TIP3   OH255998   2.223   3.879  17.053  0.7373  0.3858  0.3792
11528TIP3    H155999   2.292   3.825  17.091  1.1113  0.3520 -0.3368
11528TIP3    H256000   2.178   3.917  17.129  0.5333 -0.8339  0.8976
11529TIP3   OH256001   4.561   4.384   4.894  0.3390  0.5060  0.2605
11529TIP3    H156002   4.587   4.370   4.803 -1.5456  1.0502 -0.4054
11529TIP3    H256003   4.599   4.310   4.941 -0.9292 -1.3334 -1.4359
11530TIP3   OH256004   1.175   2.378  16.426 -0.0274 -0.4351 -0.1450
11530TIP3    H156005   1.107   2.414  16.482  0.5467 -0.1046  0.3515
11530TIP3    H256006   1.218   2.455  16.387  0.4396 -0.6164  0.0021
11531TIP3   OH256007   3.754   0.637   4.583  0.2304  0.0659 -0.2452
11531TIP3    H156008   3.820   0.581   4.624  0.3983  0.2002 -0.3273
11531TIP3    H256009   3.805   0.709   4.544  0.1590 -0.4936 -1.4254
11532TIP3   OH256010   3.118   5.542  13.454 -0.0848  0.2025  0.3104
11532TIP3    H156011   3.053   5.475  13.477 -0.2543  0.1380 -0.3356
11532TIP3    H256012   3.200   5.510  13.492 -0.2144 -0.2470  0.2174
11533TIP3   OH256013   5.985   4.690   0.929  0.2147  0.2795 -0.1485
11533TIP3    H156014   6.062   4.673   0.875 -0.1041  2.3958 -1.4035
11533TIP3    H256015   6.010   4.765   0.983  0.1757 -1.1768  1.9975
11534TIP3   OH256016   5.228   5.148   1.199 -0.4344  0.6765 -0.2653
11534TIP3    H156017   5.155   5.210   1.189 -0.0256  1.4285  1.1414
11534TIP3    H256018   5.188   5.062   1.188 -1.3885  1.1133 -0.3154
11535TIP3   OH256019   3.137   5.890  16.980  0.3186 -0.6849 -0.1083
11535TIP3    H156020   3.145   5.984  16.964 -0.0234 -0.9129 -1.8426
11535TIP3    H256021   3.051   5.879  17.021  0.2184 -0.2756 -0.2133
11536TIP3   OH256022   1.196   0.724  10.899  0.6666  0.1818 -0.4085
11536TIP3    H156023   1.248   0.756  10.825  1.4375  2.3207  0.9953
11536TIP3    H256024   1.167   0.637  10.871  3.7579 -0.5181 -1.8674
11537TIP3   OH256025   2.479   1.535   5.697  0.0791  0.0513 -0.3666
11537TIP3    H156026   2.513   1.451   5.727 -1.3196 -0.2767  0.4290
11537TIP3    H256027   2.439   1.574   5.775 -1.9799  0.0472 -1.3306
11538TIP3   OH256028   3.114   1.094  12.486 -0.3959  1.1096  0.0778
11538TIP3    H156029   3.124   1.059  12.574  1.8950  0.3640 -0.4096
11538TIP3    H256030   3.137   1.187  12.494  2.0087  0.6068 -0.0066
11539TIP3   OH256031   5.545   4.555   5.711  0.2376 -0.2271  0.1291
11539TIP3    H156032   5.618   4.540   5.771 -0.9883 -0.1751  1.6991
11539TIP3    H256033   5.478   4.492   5.739 -0.4168 -0.1243 -1.1352
11540TIP3   OH256034   2.256   2.569  12.065 -0.2904 -0.4510 -0.4030
11540TIP3    H156035   2.309   2.613  11.999 -1.2446 -1.1233 -1.6776
11540TIP3    H256036   2.318   2.542  12.132  0.8064 -0.1975 -1.2818
11541TIP3   OH256037   0.691   2.247   2.337  0.2302 -0.8322 -0.8303
11541TIP3    H156038   0.699   2.279   2.247  1.1839 -0.6348 -0.6939
11541TIP3    H256039   0.778   2.261   2.374 -0.3412 -0.3008  0.3350
11542TIP3   OH256040   3.412   0.965  17.008  0.3020  0.0563 -0.2143
11542TIP3    H156041   3.408   0.915  17.089 -1.3514  0.6504  0.1049
11542TIP3    H256042   3.491   0.933  16.964  1.5966  0.1877  1.9036
11543TIP3   OH256043   0.301   3.284   1.410  0.9085 -0.4134  0.2898
11543TIP3    H156044   0.238   3.234   1.461 -1.9790  0.3795 -2.2191
11543TIP3    H256045   0.314   3.365   1.460 -2.4252  0.6785 -0.3188
11544TIP3   OH256046   4.659   5.576  15.179 -0.0896 -0.9865  0.0066
11544TIP3    H156047   4.718   5.523  15.233 -0.7265 -0.7334  0.9832
11544TIP3    H256048   4.680   5.551  15.089  0.1505 -2.3411  0.4157
11545TIP3   OH256049   5.354   2.498  11.299 -0.5605 -0.2513 -0.0407
11545TIP3    H156050   5.380   2.552  11.225  0.6437 -0.7339 -0.0008
11545TIP3    H256051   5.364   2.408  11.268 -3.1870 -0.5261 -0.3301
11546TIP3   OH256052   4.867   1.880  16.708 -0.0975  0.6778  0.3343
11546TIP3    H156053   4.885   1.969  16.739  2.4768  0.2625  0.2716
11546TIP3    H256054   4.951   1.834  16.716 -1.0463 -1.4144 -0.7683
11547TIP3   OH256055   3.706   5.213  14.985 -0.1274  0.1917  0.3967
11547TIP3    H156056   3.702   5.151  15.058  0.3974 -2.2672 -1.5776
11547TIP3    H256057   3.621   5.205  14.942  0.0681  0.6019 -0.0787
11548TIP3   OH256058   0.097   3.351  16.307 -0.0668 -0.0475 -0.2769
11548TIP3    H156059   0.140   3.373  16.224  1.8385 -0.1760  0.6432
11548TIP3    H256060   0.168   3.344  16.370 -1.5546  1.1090  1.6443
11549TIP3   OH256061   1.608   2.176   0.921  0.1160 -0.7331 -0.4036
11549TIP3    H156062   1.600   2.081   0.911 -0.2470 -0.8841  1.0441
11549TIP3    H256063   1.523   2.204   0.954  0.2729  0.0784 -0.6549
11550TIP3   OH256064   3.520   4.371  17.130  0.9636 -0.3300  0.2569
11550TIP3    H156065   3.614   4.374  17.146  1.0014  1.8859 -0.0923
11550TIP3    H256066   3.498   4.457  17.094 -1.1627 -0.8697  0.0852
11551TIP3   OH256067   3.688   3.568   1.438  0.0997  0.1176  0.7730
11551TIP3    H156068   3.651   3.654   1.416 -0.6643  0.1482  2.0442
11551TIP3    H256069   3.619   3.506   1.415  0.3504 -0.0888  0.5763
11552TIP3   OH256070   3.980   6.289  14.903 -0.0247  0.8278  0.0471
11552TIP3    H156071   4.036   6.293  14.825  0.1507 -1.1924  0.0112
11552TIP3    H256072   3.909   6.351  14.885 -1.3488 -1.2768 -2.8818
11553TIP3   OH256073   0.913   3.375  14.663 -0.0396  0.1317  0.3751
11553TIP3    H156074   0.929   3.324  14.743 -0.4497 -0.9361 -0.1910
11553TIP3    H256075   0.862   3.315  14.608 -0.4767  1.1613 -0.3498
11554TIP3   OH256076   5.712   6.144  13.136  0.0137  0.3909  0.1362
11554TIP3    H156077   5.689   6.227  13.178  1.8834  0.8050  0.4458
11554TIP3    H256078   5.631   6.114  13.095 -0.7992  2.1695  0.3602
11555TIP3   OH256079   5.694   6.692  11.952  0.5165  0.4111 -0.0294
11555TIP3    H156080   5.720   6.770  11.903  0.0985 -0.2358 -1.3047
11555TIP3    H256081   5.672   6.726  12.039  0.2229  1.7388 -0.5871
11556TIP3   OH256082   0.236   0.528  15.628 -0.2886 -0.4625 -0.5883
11556TIP3    H156083   0.234   0.551  15.535 -2.8648 -0.1135 -0.4995
11556TIP3    H256084   0.150   0.551  15.661  0.9997  0.7326  2.2643
11557TIP3   OH256085   4.285   4.957  13.748  0.0759  0.6931  0.7278
11557TIP3    H156086   4.196   4.948  13.779 -0.3327 -0.3532 -0.6208
11557TIP3    H256087   4.276   4.985  13.657  1.1625  1.7965  0.9325
11558TIP3   OH256088   0.106   5.552  16.207 -0.3805  0.4132  0.8854
11558TIP3    H156089   0.163   5.628  16.215 -0.5706  0.6950 -0.2633
11558TIP3    H256090   0.067   5.560  16.120 -0.9233 -0.6394  1.0131
11559TIP3   OH256091   2.292   3.175  14.826  0.0293  0.6335  0.3786
11559TIP3    H156092   2.323   3.156  14.914  1.9234 -1.1648 -0.5823
11559TIP3    H256093   2.292   3.091  14.781  0.8072  1.7224 -1.8426
11560TIP3   OH256094   2.155   1.951  13.197  0.3648 -0.2254  0.5041
11560TIP3    H156095   2.180   1.860  13.177  0.0120  0.0363 -1.2732
11560TIP3    H256096   2.116   1.983  13.116  3.3208  2.5440 -0.0014
11561TIP3   OH256097   1.776   1.169  14.720  0.3594 -0.2303 -0.1158
11561TIP3    H156098   1.794   1.169  14.814  0.0215 -1.1103 -0.0364
11561TIP3    H256099   1.681   1.154  14.713  0.2068  0.8182 -0.5879
11562TIP3   OH256100   5.253   0.820  14.364 -0.5364  0.2523 -0.0807
11562TIP3    H156101   5.166   0.788  14.387 -1.9607  3.1070 -1.0291
11562TIP3    H256102   5.256   0.909  14.399  1.6609  0.5558 -0.8805
11563TIP3   OH256103   6.177   1.102   4.294  0.0501 -0.3483  0.2292
11563TIP3    H156104   6.219   1.038   4.236 -0.4751 -0.0560 -0.4871
11563TIP3    H256105   6.235   1.106   4.371 -0.2677 -2.2024  0.6131
11564TIP3   OH256106   2.486   0.150   4.749  0.1257 -0.4578  0.0109
11564TIP3    H156107   2.579   0.153   4.728  0.3121 -1.7307  0.6300
11564TIP3    H256108   2.481   0.162   4.843 -0.2970 -0.9373  0.0554
11565TIP3   OH256109   4.855   2.476   2.398  0.1166 -0.1151  0.2053
11565TIP3    H156110   4.904   2.546   2.356 -1.9197 -0.3497 -2.8173
11565TIP3    H256111   4.860   2.402   2.337 -0.5076 -1.5252  1.7676
11566TIP3   OH256112   2.485   0.276  12.169 -0.3716 -0.1890  0.0838
11566TIP3    H156113   2.562   0.265  12.225 -0.5567  0.0744  0.3932
11566TIP3    H256114   2.505   0.224  12.090  0.1283 -0.1057  0.1514
11567TIP3   OH256115   0.838   3.489  11.586 -0.5977 -0.2384 -0.7240
11567TIP3    H156116   0.918   3.500  11.535 -0.0609 -2.6034 -0.5036
11567TIP3    H256117   0.853   3.538  11.666  0.3362 -0.1026 -0.9770
11568TIP3   OH256118   3.905   1.026  13.537  0.0475  0.1176  0.4959
11568TIP3    H156119   3.858   1.081  13.599  0.2893 -0.9130  1.6209
11568TIP3    H256120   3.856   0.944  13.533 -0.2919  0.3531 -1.1383
11569TIP3   OH256121   0.191   2.637  15.233 -0.0792 -0.5302 -0.6168
11569TIP3    H156122   0.214   2.726  15.206 -0.7097  0.0469  0.6651
11569TIP3    H256123   0.106   2.620  15.192 -1.2541  0.5179  1.2563
11570TIP3   OH256124   1.483   3.157  13.588  0.0439  0.3841  0.3289
11570TIP3    H156125   1.447   3.085  13.536 -1.0034 -0.1436  1.7380
11570TIP3    H256126   1.562   3.120  13.629 -1.0668 -0.3381  1.8908
11571TIP3   OH256127   2.314   1.532   5.326 -0.1667  0.0797 -0.0519
11571TIP3    H156128   2.270   1.457   5.285 -3.1837  1.7118 -0.0838
11571TIP3    H256129   2.334   1.503   5.415 -0.1624 -1.1444 -0.4409
11572TIP3   OH256130   1.086   5.543  15.610 -0.3895  0.0900 -0.1540
11572TIP3    H156131   1.094   5.454  15.644 -0.4922  0.3766  0.6269
11572TIP3    H256132   1.175   5.576  15.610 -0.4824  0.3486  0.5500
11573TIP3   OH256133   0.573   3.258  15.515 -0.4485  0.6408 -0.3204
11573TIP3    H156134   0.499   3.310  15.546 -0.4360  1.3329 -1.3886
11573TIP3    H256135   0.538   3.209  15.441 -0.5305 -1.1320  0.8351
11574TIP3   OH256136   3.302   4.708   1.068  0.0251  0.1165  0.0346
11574TIP3    H156137   3.297   4.714   0.973 -1.4625  2.2801  0.1639
11574TIP3    H256138   3.363   4.778   1.093 -0.4650  0.3169  0.7066
11575TIP3   OH256139   0.779   2.094  17.105 -0.4434 -0.3789 -0.3895
11575TIP3    H156140   0.864   2.049  17.103  0.0088  0.4813 -1.6306
11575TIP3    H256141   0.717   2.026  17.131  0.5619 -1.1202  0.1755
11576TIP3   OH256142   1.161   0.726   0.260 -0.3312 -0.0059 -0.0581
11576TIP3    H156143   1.199   0.677   0.187  2.3164 -0.3114  1.3986
11576TIP3    H256144   1.178   0.672   0.337  1.7608  2.5639  1.4673
11577TIP3   OH256145   4.080   6.549  14.415  0.1194  0.8369  0.2205
11577TIP3    H156146   4.040   6.517  14.334 -0.0840  1.7620 -0.0537
11577TIP3    H256147   4.023   6.621  14.443  0.7882  1.2271  0.6007
11578TIP3   OH256148   4.459   3.568  15.150 -0.4551 -0.0684 -0.2685
11578TIP3    H156149   4.377   3.524  15.128 -0.3171 -0.1043 -0.7221
11578TIP3    H256150   4.467   3.639  15.086  0.2917 -0.5971 -0.7754
11579TIP3   OH256151   6.284   5.258   3.693  0.2751  0.3434  0.1627
11579TIP3    H156152   6.283   5.351   3.714 -1.5216  0.1491  1.0731
11579TIP3    H256153   6.322   5.216   3.770 -1.2226  0.1305  0.8190
11580TIP3   OH256154   3.460   1.487  17.030 -0.2737  0.5640 -0.0252
11580TIP3    H156155   3.442   1.406  17.078 -1.2164  0.2031 -0.9399
11580TIP3    H256156   3.551   1.507  17.050  0.2170 -1.1440 -0.3933
11581TIP3   OH256157   0.942   1.789   0.059 -0.4336 -0.0717  0.1253
11581TIP3    H156158   0.973   1.829  -0.022 -0.1789  1.4591  0.9511
11581TIP3    H256159   0.849   1.771   0.043 -0.5540  0.8515 -0.2875
11582TIP3   OH256160   5.350   1.961  16.769  0.5603 -0.4032 -0.2178
11582TIP3    H156161   5.357   1.870  16.742  1.2590 -0.0494 -1.3106
11582TIP3    H256162   5.433   2.001  16.742  0.8161  0.2604  1.4625
11583TIP3   OH256163   4.454   2.557  17.220 -0.2021 -0.1720 -0.8120
11583TIP3    H156164   4.506   2.621  17.267  0.6342 -0.2723 -1.5597
11583TIP3    H256165   4.373   2.603  17.197 -0.4226  0.0107  0.3018
11584TIP3   OH256166   0.932   1.006  15.449  0.0257 -0.1778  0.3773
11584TIP3    H156167   0.926   1.096  15.417  0.4596  0.4583  1.9740
11584TIP3    H256168   1.022   0.997  15.480  0.9489 -2.2105 -2.5441
11585TIP3   OH256169   4.965   6.706  12.922 -0.0101  0.4383 -0.1448
11585TIP3    H156170   4.972   6.712  12.827 -0.0684  1.1001 -0.1135
11585TIP3    H256171   5.024   6.774  12.955  0.6998 -0.3799  0.3177
11586TIP3   OH256172   6.668   0.437  16.182 -0.3633  0.6173  0.0601
11586TIP3    H156173   6.691   0.491  16.106  0.0308 -1.0045 -1.0148
11586TIP3    H256174   6.752   0.406  16.216 -0.6515 -1.0041 -0.6290
11587TIP3   OH256175   3.026   3.509  16.497 -0.5672 -0.0334  0.1964
11587TIP3    H156176   2.967   3.436  16.515 -0.1708  0.0975  2.2923
11587TIP3    H256177   2.999   3.577  16.558  0.2758  0.8798 -0.4281
11588TIP3   OH256178   2.398   4.307   0.293 -0.2111  0.6104 -0.6968
11588TIP3    H156179   2.323   4.358   0.324  0.0833  2.8106 -3.2502
11588TIP3    H256180   2.369   4.270   0.210  0.2588 -1.9295  0.1923
11589TIP3   OH256181   2.361   4.504   2.626 -0.5790 -0.0005 -0.3768
11589TIP3    H156182   2.411   4.423   2.616 -0.0018  0.6377 -3.2094
11589TIP3    H256183   2.269   4.475   2.628 -0.3166 -0.8221  0.2700
11590TIP3   OH256184   3.673   3.179   2.270  0.1283  0.5556  0.2727
11590TIP3    H156185   3.619   3.138   2.201  1.5052 -1.5185  0.3429
11590TIP3    H256186   3.709   3.257   2.229 -0.1801  0.0952 -0.9206
11591TIP3   OH256187   4.411   0.697   2.247  0.6427  0.4868  0.3819
11591TIP3    H156188   4.493   0.655   2.276  0.5724  0.2301  0.2126
11591TIP3    H256189   4.349   0.678   2.317  0.5039 -0.0337  0.1200
11592TIP3   OH256190   5.783   0.266  14.831 -0.0228 -0.1156 -0.0052
11592TIP3    H156191   5.815   0.343  14.784 -0.6944 -0.8676 -1.7982
11592TIP3    H256192   5.806   0.192  14.774 -2.7290 -0.9040 -0.2300
11593TIP3   OH256193   3.294   0.931  12.312  0.1444  0.5139 -0.0704
11593TIP3    H156194   3.378   0.962  12.343 -0.1192 -0.8590  2.2074
11593TIP3    H256195   3.230   0.989  12.352 -0.2426 -1.6998  2.8409
11594TIP3   OH256196   6.220   3.922   3.407  0.2658  0.3097 -0.7287
11594TIP3    H156197   6.212   4.014   3.432  0.3844  0.0005  0.5462
11594TIP3    H256198   6.135   3.884   3.431  0.5787 -0.1138 -0.2643
11595TIP3   OH256199   5.069   3.831  17.137 -0.2528  0.3119  0.0941
11595TIP3    H156200   4.995   3.858  17.192  1.1452  1.0418  1.7042
11595TIP3    H256201   5.096   3.912  17.093  0.3278  0.3291  0.4636
11596TIP3   OH256202   6.002   5.308   2.311 -0.5624 -0.1759 -0.4678
11596TIP3    H156203   5.951   5.283   2.233 -0.9589  1.2973 -0.7112
11596TIP3    H256204   5.953   5.381   2.348  0.3679  0.0205  0.3951
11597TIP3   OH256205   4.959   4.481   6.070 -0.1738 -0.0083 -0.5000
11597TIP3    H156206   4.876   4.525   6.086 -0.8602 -1.1995 -0.6537
11597TIP3    H256207   4.934   4.399   6.027  1.2015  0.5112 -2.4054
11598TIP3   OH256208   5.654   1.414  14.013 -0.1360 -0.0859  0.1080
11598TIP3    H156209   5.628   1.459  14.093  1.0366 -0.3864  0.6862
11598TIP3    H256210   5.578   1.362  13.988 -0.1317 -0.8878  1.6882
11599TIP3   OH256211   4.710   4.857  12.779  0.2698  0.2963  0.3611
11599TIP3    H156212   4.766   4.934  12.779  1.3288 -0.4594  0.3240
11599TIP3    H256213   4.669   4.856  12.693 -0.9164  1.6181  0.8607
11600TIP3   OH256214   2.443   0.043  13.876  0.1377 -0.0564  1.0059
11600TIP3    H156215   2.449  -0.041  13.921  3.3204 -0.4847  0.0282
11600TIP3    H256216   2.530   0.058  13.840 -0.7870  2.8409 -0.4012
11601TIP3   OH256217   4.827   6.387  12.052 -0.4564 -0.1052 -0.4647
11601TIP3    H156218   4.866   6.396  12.139 -0.3816 -0.6652 -0.4351
11601TIP3    H256219   4.873   6.312  12.014 -1.5884 -0.8540 -0.3853
11602TIP3   OH256220   3.548   5.313  17.205  0.2995 -0.4221 -0.3934
11602TIP3    H156221   3.454   5.329  17.213  0.2350 -1.0645  0.1894
11602TIP3    H256222   3.586   5.401  17.194 -0.2350 -0.0283  0.7460
11603TIP3   OH256223   0.510   0.776  11.455 -0.0942 -0.6054  0.1840
11603TIP3    H156224   0.486   0.765  11.547 -3.8202 -2.1903 -0.7787
11603TIP3    H256225   0.460   0.853  11.428  2.0159  0.6713 -0.3106
11604TIP3   OH256226   1.706   6.587  10.990  0.1506 -0.2450  0.1711
11604TIP3    H156227   1.755   6.510  10.960 -0.5972 -0.1688 -1.3301
11604TIP3    H256228   1.734   6.658  10.932 -1.8127 -0.2400 -0.8623
11605TIP3   OH256229   1.566   4.203   2.785  0.1523  0.4988  0.9775
11605TIP3    H156230   1.502   4.211   2.715 -0.2762 -0.2388  1.2731
11605TIP3    H256231   1.530   4.136   2.843  1.1549  0.1112  1.1759
11606TIP3   OH256232   5.715   4.344   3.048 -0.6513  0.3606 -0.0121
11606TIP3    H156233   5.794   4.301   3.084  0.6345  1.1708 -1.7311
11606TIP3    H256234   5.650   4.274   3.044  0.7097 -0.9186 -0.6992
11607TIP3   OH256235   5.145   2.356   1.755  0.4124  0.3653 -0.7449
11607TIP3    H156236   5.060   2.378   1.717 -0.7105 -1.6377  0.4227
11607TIP3    H256237   5.164   2.268   1.722  0.3700 -0.6046  1.5690
11608TIP3   OH256238   0.582   6.589   2.332  0.0849 -0.1085  0.2874
11608TIP3    H156239   0.571   6.633   2.247  0.0025 -1.3435 -0.3680
11608TIP3    H256240   0.501   6.540   2.344  1.2247 -2.3288 -0.4000
11609TIP3   OH256241   6.246   5.434  15.538  0.0441  0.3098  0.2828
11609TIP3    H156242   6.210   5.347  15.554  1.2671 -0.0493  1.2647
11609TIP3    H256243   6.239   5.479  15.622 -0.0647  0.9720 -0.0702
11610TIP3   OH256244   4.066   2.257   5.823  0.3392 -0.0515 -0.1492
11610TIP3    H156245   4.104   2.310   5.894  1.1727 -0.4441 -0.2959
11610TIP3    H256246   4.058   2.318   5.750  0.4996  0.0806 -0.0581
11611TIP3   OH256247   5.610   1.491   3.962  0.2027  0.0526 -0.8310
11611TIP3    H156248   5.702   1.471   3.981  0.4585  0.7313 -1.3277
11611TIP3    H256249   5.579   1.416   3.912 -0.1652 -1.2379  1.2387
11612TIP3   OH256250   2.112   5.594   1.449 -0.3852 -0.3086 -0.0218
11612TIP3    H156251   2.035   5.589   1.506 -0.5672 -0.1675 -0.2542
11612TIP3    H256252   2.182   5.624   1.506 -0.3337 -1.1150  0.3541
11613TIP3   OH256253   5.365   2.297  14.474 -0.2488  0.3687  0.7419
11613TIP3    H156254   5.336   2.343  14.554  1.8216 -1.2652  2.5779
11613TIP3    H256255   5.381   2.207  14.503  1.2482 -0.1076 -1.3562
11614TIP3   OH256256   3.393   4.480  11.742 -0.1451  0.5217  0.3853
11614TIP3    H156257   3.341   4.483  11.662  2.9653  1.5273 -1.7722
11614TIP3    H256258   3.371   4.561  11.788 -2.0265 -0.1082  0.6642
11615TIP3   OH256259   3.932   6.211   3.638  0.2753  0.1125  0.1676
11615TIP3    H156260   3.943   6.262   3.558  0.6008  0.4770  0.4388
11615TIP3    H256261   3.932   6.276   3.708  0.7528 -0.2646  0.5226
11616TIP3   OH256262   1.836   5.696   3.655  0.0739  0.0808 -0.1032
11616TIP3    H156263   1.914   5.644   3.636  1.4132  1.4819  1.2645
11616TIP3    H256264   1.767   5.631   3.667  0.8785 -1.1793 -1.8321
11617TIP3   OH256265   0.921   1.225   3.002  0.5586  0.2189  0.1047
11617TIP3    H156266   0.885   1.164   3.067  0.3858  0.0105 -0.1866
11617TIP3    H256267   0.986   1.276   3.051 -0.9682  1.4469  0.9364
11618TIP3   OH256268   4.858   2.367   2.817  0.1173 -0.8756 -0.2995
11618TIP3    H156269   4.889   2.431   2.880  0.6837 -1.5838  0.1553
11618TIP3    H256270   4.927   2.362   2.751  0.2924 -1.3431 -0.0890
11619TIP3   OH256271   6.443   5.488  10.802  0.4539  0.1862  0.0258
11619TIP3    H156272   6.428   5.410  10.856  0.5287  0.2237  0.1018
11619TIP3    H256273   6.410   5.560  10.856  1.6887  0.3732  0.5681
11620TIP3   OH256274   2.212   5.178   1.972  0.1059 -0.3183  0.1922
11620TIP3    H156275   2.238   5.270   1.964 -2.8507  0.6334  0.2801
11620TIP3    H256276   2.163   5.175   2.054 -2.1331 -1.3293 -1.1102
11621TIP3   OH256277   6.068   4.002   4.141  0.1722 -0.1556 -0.7907
11621TIP3    H156278   6.147   4.002   4.087  2.1507 -0.2604  1.9167
11621TIP3    H256279   6.098   4.026   4.228 -2.9616  0.6587  0.2020
11622TIP3   OH256280   0.465   1.548  14.320  0.1134 -0.5870 -0.1834
11622TIP3    H156281   0.509   1.629  14.348  0.9328 -1.2742  0.5917
11622TIP3    H256282   0.532   1.500  14.272 -1.0971  0.2747 -2.8953
11623TIP3   OH256283   4.010   6.401  13.592 -0.6188 -0.0912 -0.3343
11623TIP3    H156284   3.940   6.411  13.656 -0.9138 -0.3139 -0.6173
11623TIP3    H256285   4.090   6.417  13.641 -0.8966  0.6875 -0.1191
11624TIP3   OH256286   5.223   2.987  12.040 -0.4644 -0.2670 -0.1524
11624TIP3    H156287   5.282   3.039  12.094  0.1915 -1.0610 -0.0858
11624TIP3    H256288   5.272   2.972  11.959 -0.6324 -0.8044 -0.1592
11625TIP3   OH256289   0.526   4.193   1.477 -0.6137  0.0095  0.2250
11625TIP3    H156290   0.600   4.139   1.449 -0.1104 -0.0327  1.5675
11625TIP3    H256291   0.491   4.230   1.396  0.7722 -0.1048 -0.4481
11626TIP3   OH256292   6.749   1.134  11.469 -0.2196  0.2691 -0.0061
11626TIP3    H156293   6.698   1.061  11.502 -1.3476  0.9114 -0.2692
11626TIP3    H256294   6.834   1.096  11.446 -0.7946 -0.9554 -0.1714
11627TIP3   OH256295   4.186   4.248  17.131  0.6402 -0.5191  0.1482
11627TIP3    H156296   4.212   4.312  17.199  1.2763  0.0925 -0.6424
11627TIP3    H256297   4.240   4.171  17.150  0.4240 -0.5551  0.6516
11628TIP3   OH256298   6.114   1.752   0.642 -0.4067 -0.0485  0.0701
11628TIP3    H156299   6.078   1.811   0.576 -1.6435 -1.5235 -0.6179
11628TIP3    H256300   6.050   1.682   0.651  1.1306 -1.4635  0.6554
11629TIP3   OH256301   3.392   1.824   3.385 -0.1021  0.2377  0.0593
11629TIP3    H156302   3.439   1.854   3.463 -0.6361 -1.6551  1.1724
11629TIP3    H256303   3.460   1.807   3.321  0.5820 -0.6186  0.9843
11630TIP3   OH256304   1.025   2.409   1.520  0.2210 -0.4536  0.2519
11630TIP3    H156305   0.945   2.452   1.551  0.9885  0.9387  0.3783
11630TIP3    H256306   1.095   2.447   1.572  0.7620 -3.7481  2.2354
11631TIP3   OH256307   4.486   4.209  13.197  0.0199 -0.4348 -0.1504
11631TIP3    H156308   4.445   4.269  13.135 -1.2392 -0.6410  0.4351
11631TIP3    H256309   4.443   4.228  13.281 -1.3602 -2.9447 -0.1827
11632TIP3   OH256310   5.855   1.904  11.118 -0.3282 -0.0012  0.1628
11632TIP3    H156311   5.905   1.892  11.198  1.2052  0.2895 -0.7023
11632TIP3    H256312   5.911   1.960  11.063 -2.1681  1.4564 -0.3643
11633TIP3   OH256313   6.411   2.592  11.987  0.0463 -0.1468 -0.7932
11633TIP3    H156314   6.375   2.639  11.912  0.5436  1.7298  0.0786
11633TIP3    H256315   6.490   2.641  12.010 -0.2171 -0.5393  1.0922
11634TIP3   OH256316   2.074   2.562   4.681  0.0023  0.1600  0.2666
11634TIP3    H156317   2.170   2.554   4.677  0.1013  1.0563  0.5630
11634TIP3    H256318   2.042   2.479   4.647  0.8713  0.3384 -1.0735
11635TIP3   OH256319   4.633   3.238  14.126  0.0420  0.2839 -0.2749
11635TIP3    H156320   4.612   3.147  14.147  1.9830 -0.4642 -1.3506
11635TIP3    H256321   4.611   3.287  14.205 -2.1404 -0.9067 -0.0750
11636TIP3   OH256322   6.386   0.003  15.758 -0.2046  0.2549  0.4070
11636TIP3    H156323   6.461   0.043  15.802 -0.5385  1.4089 -0.0363
11636TIP3    H256324   6.399   0.024  15.665 -1.5532  1.2905  0.4285
11637TIP3   OH256325   3.581   4.388  12.188  0.4636  0.1952  0.0174
11637TIP3    H156326   3.557   4.460  12.246  0.8953 -0.7313  1.3886
11637TIP3    H256327   3.566   4.309  12.240 -0.5493 -0.7617 -1.6333
11638TIP3   OH256328   2.497   0.593   0.297  0.4772  0.1442 -0.3572
11638TIP3    H156329   2.556   0.667   0.280 -0.0882  0.2707 -1.9292
11638TIP3    H256330   2.472   0.562   0.210 -0.7412 -0.7388  0.2787
11639TIP3   OH256331   5.840   0.346   1.560 -0.4729  0.4024  0.2414
11639TIP3    H156332   5.813   0.314   1.646 -0.3674  0.0422  0.1415
11639TIP3    H256333   5.935   0.353   1.566 -0.5528  1.5270  0.5425
11640TIP3   OH256334   2.611   1.837  12.213  0.7755  0.0025  0.4315
11640TIP3    H156335   2.532   1.886  12.191  0.8813  0.5538  1.2396
11640TIP3    H256336   2.596   1.805  12.303  1.1513 -0.5427  0.3096
11641TIP3   OH256337   4.973   2.512   5.708  0.1492 -0.5474 -0.1279
11641TIP3    H156338   5.040   2.443   5.702 -0.2093 -0.7583 -3.3277
11641TIP3    H256339   4.902   2.481   5.652 -1.7082  0.6992  1.4593
11642TIP3   OH256340   3.897   4.000   5.928  0.5863 -0.3269  0.1788
11642TIP3    H156341   3.942   4.062   5.986 -2.0190  1.3403  0.5763
11642TIP3    H256342   3.968   3.952   5.884  2.7975  3.0234 -0.2570
11643TIP3   OH256343   2.830   6.018   4.780 -0.5251 -0.1201 -0.3937
11643TIP3    H156344   2.879   5.948   4.735 -1.5452  0.6430 -2.8527
11643TIP3    H256345   2.888   6.045   4.851  0.5015 -2.4913 -0.2291
11644TIP3   OH256346   3.839   6.149   5.568  0.0049  0.5422  0.3791
11644TIP3    H156347   3.827   6.090   5.494 -0.4703 -0.0252  0.8974
11644TIP3    H256348   3.756   6.146   5.615 -0.1271  1.8378  0.2702
11645TIP3   OH256349   1.851   4.538  13.491 -0.0695 -0.2476  0.2085
11645TIP3    H156350   1.797   4.464  13.521 -2.9719  0.8432 -1.8368
11645TIP3    H256351   1.811   4.615  13.531  0.2703  0.5690 -0.9589
11646TIP3   OH256352   2.246   4.818   2.442  0.5141  0.4654 -0.1731
11646TIP3    H156353   2.214   4.818   2.532  0.0548  1.3029 -0.3274
11646TIP3    H256354   2.339   4.841   2.449  0.3080  1.2677  0.0427
11647TIP3   OH256355   1.407   3.369   5.787 -0.0769  0.1438  0.1447
11647TIP3    H156356   1.442   3.318   5.860 -1.5023  0.1173  0.8501
11647TIP3    H256357   1.470   3.357   5.717 -0.3056 -2.5878  0.2903
11648TIP3   OH256358   2.587   2.769   3.332 -0.5666 -0.6282  0.1737
11648TIP3    H156359   2.637   2.848   3.352 -1.1076  0.5029 -2.4858
11648TIP3    H256360   2.501   2.784   3.372 -0.7407  0.2779 -0.5054
11649TIP3   OH256361   1.583   4.176  12.536 -0.3999  0.4223  0.3615
11649TIP3    H156362   1.545   4.126  12.609 -0.3442  2.0062  1.5104
11649TIP3    H256363   1.658   4.123  12.508 -1.1621 -0.8400  0.5764
11650TIP3   OH256364   3.207   3.179   2.229 -0.4120  0.8393 -0.1211
11650TIP3    H156365   3.297   3.150   2.217 -0.7236 -0.1251 -0.2343
11650TIP3    H256366   3.174   3.126   2.302 -0.1915  2.8262  1.5388
11651TIP3   OH256367   0.862   1.922  13.449  0.2599 -1.1547 -0.1151
11651TIP3    H156368   0.869   1.957  13.538 -3.2627  0.6651 -0.3762
11651TIP3    H256369   0.839   1.830  13.462  0.1395 -1.0059  0.8407
11652TIP3   OH256370   4.345   3.533   2.170 -0.1407  0.4202 -0.0219
11652TIP3    H156371   4.312   3.519   2.082  1.9309  0.5940 -0.8924
11652TIP3    H256372   4.399   3.612   2.163  2.0259 -0.9074  0.7728
11653TIP3   OH256373   3.068   5.925  11.231 -0.1397 -0.3844 -0.3683
11653TIP3    H156374   3.129   5.872  11.282  0.5649  0.5259 -0.2356
11653TIP3    H256375   3.118   5.950  11.153 -1.6283 -2.9575 -2.3368
11654TIP3   OH256376   3.457   3.983  16.872 -0.2433  0.0773 -0.3644
11654TIP3    H156377   3.363   3.970  16.857 -0.1757 -0.5362 -0.2940
11654TIP3    H256378   3.463   4.010  16.964 -0.1246 -3.2562  0.7542
11655TIP3   OH256379   3.251   4.125  12.174  0.3649 -0.1480  0.4526
11655TIP3    H156380   3.257   4.101  12.082 -1.1824 -1.1274  0.5647
11655TIP3    H256381   3.262   4.220  12.175 -1.4568  0.1212 -0.9669
11656TIP3   OH256382   6.681   0.025   0.410  0.0086 -0.5597 -0.1783
11656TIP3    H156383   6.598   0.028   0.457  1.3337 -2.5439  2.5317
11656TIP3    H256384   6.715  -0.063   0.427  1.8435 -0.4595 -2.7749
11657TIP3   OH256385   4.798   0.986  16.550  0.5137  0.2485  0.1105
11657TIP3    H156386   4.878   1.018  16.591  0.3523  0.5143  0.2146
11657TIP3    H256387   4.820   0.979  16.457 -0.1699  3.0508 -0.3616
11658TIP3   OH256388   5.247   0.098   1.294 -0.0090 -0.3045  0.3344
11658TIP3    H156389   5.317   0.070   1.236 -0.4423 -1.1208  0.1890
11658TIP3    H256390   5.210   0.175   1.252  0.1674 -0.4475 -0.0878
11659TIP3   OH256391   2.349   5.257   3.940 -0.1063  0.8275 -0.2384
11659TIP3    H156392   2.317   5.224   4.024  1.3901 -0.5898 -0.1788
11659TIP3    H256393   2.414   5.193   3.912  0.2526  1.8705 -1.9391
11660TIP3   OH256394   6.044   2.464   5.406 -0.0498 -0.1425  0.3157
11660TIP3    H156395   6.074   2.444   5.317 -0.0199  1.6531 -0.1243
11660TIP3    H256396   6.100   2.412   5.463 -0.0652 -1.3134 -0.7065
11661TIP3   OH256397   6.737   4.248   3.596 -0.2126 -0.4033  0.0980
11661TIP3    H156398   6.665   4.310   3.611 -1.4771 -1.9718  0.8033
11661TIP3    H256399   6.723   4.216   3.506  0.3452  0.1981 -0.2087
11662TIP3   OH256400   4.264   0.763   5.057 -0.2399 -1.0739 -0.1841
11662TIP3    H156401   4.224   0.774   5.143  2.2966  1.4442  0.8366
11662TIP3    H256402   4.349   0.723   5.074  0.9574  0.8398 -1.2214
11663TIP3   OH256403   4.586   1.583   3.932  0.3370 -0.6788 -0.0304
11663TIP3    H156404   4.636   1.660   3.904 -1.1860  0.1905 -0.4968
11663TIP3    H256405   4.631   1.509   3.891  1.4952  0.0088 -0.0508
11664TIP3   OH256406   5.643   1.336  15.349  0.0987  0.3506 -0.3398
11664TIP3    H156407   5.561   1.360  15.305 -0.4762 -0.6105  0.1594
11664TIP3    H256408   5.670   1.415  15.395 -0.7664  0.5676 -0.1898
11665TIP3   OH256409   0.297   3.839   6.301  0.2265 -0.2043  0.2373
11665TIP3    H156410   0.252   3.906   6.353  1.2839  1.2792 -0.6848
11665TIP3    H256411   0.384   3.833   6.341  1.4911  1.8380 -1.9691
11666TIP3   OH256412   6.346   1.827  13.622  0.1423  0.3477  0.1374
11666TIP3    H156413   6.314   1.746  13.662 -0.1738 -0.4469 -1.5945
11666TIP3    H256414   6.436   1.808  13.597 -0.3144  0.0386 -1.4014
11667TIP3   OH256415   5.856   6.610   1.086  0.4378  0.1856  0.5260
11667TIP3    H156416   5.774   6.581   1.046 -0.8037  0.8069  2.5287
11667TIP3    H256417   5.832   6.684   1.142  2.1836 -0.2888  2.0041
11668TIP3   OH256418   0.589   5.603   3.153  0.0060 -0.0798  0.5089
11668TIP3    H156419   0.560   5.655   3.078  0.8555 -0.2389  0.0534
11668TIP3    H256420   0.566   5.513   3.130 -0.5723 -0.0279  0.8602
11669TIP3   OH256421   2.140   1.919  17.034 -0.3151  0.3243 -0.3320
11669TIP3    H156422   2.208   1.986  17.041  2.9965 -2.4819 -2.3939
11669TIP3    H256423   2.125   1.910  16.940  0.6098 -2.8036 -0.2832
11670TIP3   OH256424   0.032   4.976   0.565  0.1790 -0.1597 -0.0058
11670TIP3    H156425   0.109   4.921   0.560  0.6009  0.5163 -1.9317
11670TIP3    H256426   0.064   5.064   0.547 -0.8869  0.2999  0.2585
11671TIP3   OH256427   5.597   4.390   0.744 -0.0468 -0.3575  0.2566
11671TIP3    H156428   5.564   4.371   0.656 -0.1356 -0.7620  0.3720
11671TIP3    H256429   5.641   4.474   0.736 -0.5632 -0.1136 -0.0402
11672TIP3   OH256430   5.414   1.451  14.492  0.4708 -0.8360  0.3862
11672TIP3    H156431   5.335   1.484  14.535 -0.7204 -1.7440 -0.9939
11672TIP3    H256432   5.427   1.364  14.531 -0.3786 -1.4930 -0.7301
11673TIP3   OH256433   5.945   3.649   0.838  0.0942  0.3816 -0.0167
11673TIP3    H156434   5.863   3.636   0.791 -0.0850 -1.0462  0.6415
11673TIP3    H256435   6.006   3.588   0.797  0.5660  0.7539  0.1195
11674TIP3   OH256436   1.600   2.119   3.405  0.2707 -0.2617  0.3346
11674TIP3    H156437   1.572   2.211   3.409  1.7583  0.1980  1.1004
11674TIP3    H256438   1.653   2.113   3.325  1.2930 -0.0886  0.9798
11675TIP3   OH256439   1.236   1.098   3.807  0.1994 -0.6565 -0.0839
11675TIP3    H156440   1.225   1.040   3.731 -1.1315  0.2096 -0.5839
11675TIP3    H256441   1.328   1.090   3.829  0.6730 -0.8057 -1.9128
11676TIP3   OH256442   2.071   5.525   5.143  0.1226 -0.7301 -0.3297
11676TIP3    H156443   2.007   5.483   5.200 -0.7519 -0.5744 -1.1625
11676TIP3    H256444   2.086   5.611   5.182  1.1935 -1.4376  0.8519
11677TIP3   OH256445   1.732   6.472  13.560  0.3245 -0.1598 -0.2303
11677TIP3    H156446   1.806   6.473  13.619  1.1813  0.0620 -1.2714
11677TIP3    H256447   1.771   6.466  13.472 -0.9144 -1.1679 -0.7487
11678TIP3   OH256448   2.728   2.942  11.697  0.5991 -0.4529 -0.0495
11678TIP3    H156449   2.720   2.856  11.738 -0.3267  0.0912  0.9545
11678TIP3    H256450   2.659   2.944  11.631  0.1939 -0.2429  0.3773
11679TIP3   OH256451   1.421   3.248  11.852  0.0000  1.3239 -0.3879
11679TIP3    H156452   1.363   3.248  11.776  1.4212 -0.7733 -1.5798
11679TIP3    H256453   1.378   3.188  11.914  0.1972  0.8403 -0.7108
11680TIP3   OH256454   5.126   2.527   5.256  0.2899 -0.0067 -0.0344
11680TIP3    H156455   5.214   2.561   5.272 -0.1924  1.3366 -0.0432
11680TIP3    H256456   5.095   2.577   5.181  0.1560 -1.7369 -1.1847
11681TIP3   OH256457   2.674   4.790   2.132  0.4042  0.2576 -0.1849
11681TIP3    H156458   2.669   4.855   2.062 -1.5589 -0.0580 -0.3826
11681TIP3    H256459   2.590   4.744   2.129 -0.0078  0.6243  2.7820
11682TIP3   OH256460   1.045   6.168  12.683  0.2615 -0.4208 -0.5593
11682TIP3    H156461   0.991   6.112  12.739 -0.6448 -0.7057 -1.6719
11682TIP3    H256462   1.112   6.203  12.741 -0.1519 -1.3558  0.5135
11683TIP3   OH256463   0.750   0.451   3.761  0.0447  0.7377 -0.0298
11683TIP3    H156464   0.684   0.430   3.826  1.4027  0.5439  1.3342
11683TIP3    H256465   0.771   0.543   3.776  0.9474  0.4778  0.3716
11684TIP3   OH256466   3.526   0.114  14.395  0.3529  0.4540 -0.4962
11684TIP3    H156467   3.502   0.088  14.306  2.2624 -3.2790 -0.1211
11684TIP3    H256468   3.614   0.150  14.386  0.7354 -0.3590 -0.1220
11685TIP3   OH256469   0.014   6.149   3.246 -0.3142  0.6365  1.0761
11685TIP3    H156470  -0.035   6.215   3.197 -2.1225 -1.2059  0.2424
11685TIP3    H256471   0.102   6.184   3.253 -1.0307  2.7868  0.0486
11686TIP3   OH256472   5.822   1.435   5.452  0.1411 -0.0201 -0.2294
11686TIP3    H156473   5.813   1.378   5.375 -0.3504 -2.1441  1.2921
11686TIP3    H256474   5.732   1.442   5.485  0.6395 -1.2993  1.5442
11687TIP3   OH256475   5.651   0.838   0.612 -0.2001  0.5699  0.4196
11687TIP3    H156476   5.591   0.888   0.556 -1.3932 -0.8013  0.3879
11687TIP3    H256477   5.694   0.777   0.552 -0.6707 -0.1591  0.8013
11688TIP3   OH256478   0.952   2.494   0.156  0.0474  0.3316  0.6213
11688TIP3    H156479   1.025   2.454   0.110  0.1607  2.1630 -0.8886
11688TIP3    H256480   0.875   2.447   0.124  0.1895  1.1367 -0.9919
11689TIP3   OH256481   3.237   2.452   0.720 -0.1186  0.5362  0.0858
11689TIP3    H156482   3.268   2.408   0.799  0.5923  2.6574  1.0764
11689TIP3    H256483   3.149   2.416   0.705  0.6943 -1.6800  0.3718
11690TIP3   OH256484   1.044   0.946  15.861 -0.4658  0.5347 -0.0533
11690TIP3    H156485   0.963   0.906  15.893  0.0889 -0.7942 -0.2395
11690TIP3    H256486   1.094   0.964  15.941  0.1365 -1.0727 -0.0259
11691TIP3   OH256487   5.673   4.444   0.280 -0.5382 -0.1371 -0.5579
11691TIP3    H156488   5.667   4.494   0.361  0.2707  1.2378 -1.3026
11691TIP3    H256489   5.752   4.477   0.237 -1.0837 -0.6334 -2.0234
11692TIP3   OH256490   1.548   0.274   5.674 -0.4742  0.1313 -0.4472
11692TIP3    H156491   1.486   0.321   5.730  1.5486 -0.8112  2.8537
11692TIP3    H256492   1.632   0.316   5.689  0.4248 -1.0755 -1.7392
11693TIP3   OH256493   5.461   2.049  13.861  0.3901  0.0036 -0.4533
11693TIP3    H156494   5.522   2.008  13.923  0.7361  1.1644 -0.0060
11693TIP3    H256495   5.456   2.140  13.889 -0.2800  0.3026 -1.4957
11694TIP3   OH256496   4.525   3.385   5.336 -0.2221 -0.0620 -0.0972
11694TIP3    H156497   4.548   3.317   5.273  0.5789 -0.2550  0.3833
11694TIP3    H256498   4.445   3.425   5.301 -0.3109 -0.7830 -0.7430
11695TIP3   OH256499   1.597   4.250  11.672  0.4234 -0.2192  0.0497
11695TIP3    H156500   1.616   4.300  11.752  0.2297  0.5797 -0.3957
11695TIP3    H256501   1.672   4.268  11.615  0.0916  0.0031 -0.3198
11696TIP3   OH256502   0.544   5.154   1.787  0.3953 -0.4299  0.0993
11696TIP3    H156503   0.579   5.118   1.869  0.9827 -0.1209 -0.0132
11696TIP3    H256504   0.450   5.137   1.792  0.3285  0.1781  1.1464
11697TIP3   OH256505   4.145   5.534   1.299  0.0803 -0.0988  0.3589
11697TIP3    H156506   4.148   5.470   1.228  0.5932 -0.6311  0.8522
11697TIP3    H256507   4.054   5.563   1.301  0.2084  0.5015 -1.0158
11698TIP3   OH256508   1.444   5.978   5.399 -0.0590 -0.1552 -0.1386
11698TIP3    H156509   1.482   6.036   5.465 -0.3670 -0.4572  0.3126
11698TIP3    H256510   1.353   6.005   5.393 -0.2790 -0.7706  0.2848
11699TIP3   OH256511   0.141   0.387   0.975  0.0425  0.1531 -0.9397
11699TIP3    H156512   0.084   0.332   0.921  0.6225  0.4697 -1.8982
11699TIP3    H256513   0.230   0.358   0.954  0.2628 -0.3526  0.5520
11700TIP3   OH256514   2.036   1.720   3.077  0.3883  0.1332 -0.9394
11700TIP3    H156515   2.102   1.758   3.135 -0.2003 -0.8906  0.4520
11700TIP3    H256516   2.082   1.649   3.032 -0.1275 -1.6944  1.2823
11701TIP3   OH256517   3.527   6.483  13.612 -0.3609  0.0714 -0.2870
11701TIP3    H156518   3.554   6.476  13.521 -0.4254  0.9297 -0.3796
11701TIP3    H256519   3.487   6.569  13.619  0.4119  0.3704  0.7481
11702TIP3   OH256520   4.877   0.174   1.311 -1.0873  0.6101 -0.5519
11702TIP3    H156521   4.888   0.179   1.216  0.6794  1.0041 -0.3599
11702TIP3    H256522   4.932   0.246   1.345 -2.3111  0.9687  0.7339
11703TIP3   OH256523   6.689   1.389  17.042  0.0359 -0.0305  0.0153
11703TIP3    H156524   6.697   1.416  16.950 -0.5162  0.3690  0.0830
11703TIP3    H256525   6.674   1.295  17.038  0.9125 -0.1671 -0.2681
11704TIP3   OH256526   4.661   3.084  15.997 -0.2568 -0.2401  0.1552
11704TIP3    H156527   4.590   3.057  16.055 -1.2000 -1.4699 -1.4888
11704TIP3    H256528   4.683   3.005  15.947  0.1190  0.8924 -1.5579
11705TIP3   OH256529   2.671   2.111   0.892  0.6281  0.3495 -0.2456
11705TIP3    H156530   2.675   2.197   0.849 -0.2909  0.6160  0.1772
11705TIP3    H256531   2.708   2.051   0.828  1.1223  1.0386 -0.6178
11706TIP3   OH256532   4.051   5.387  16.429  0.2815  0.0427 -0.1867
11706TIP3    H156533   4.114   5.377  16.357 -0.2531 -1.8837 -0.4508
11706TIP3    H256534   4.048   5.301  16.470 -1.5900  0.2902  0.3061
11707TIP3   OH256535   6.246   1.863   2.783  0.2563  0.5925 -1.1055
11707TIP3    H156536   6.277   1.941   2.736  0.6824  1.0004 -0.1719
11707TIP3    H256537   6.307   1.854   2.856  0.3664 -0.7799 -1.3551
11708TIP3   OH256538   3.337   6.394  11.791 -0.2592 -0.1746 -0.4844
11708TIP3    H156539   3.271   6.463  11.786  1.1225  1.1785 -1.2079
11708TIP3    H256540   3.332   6.362  11.881 -0.5569  1.3027  0.0538
11709TIP3   OH256541   5.862   6.383  11.415  0.0769  0.3950  0.3835
11709TIP3    H156542   5.833   6.325  11.485  0.5373  0.2236  0.4321
11709TIP3    H256543   5.956   6.394  11.430  0.5305 -0.9747 -1.1549
11710TIP3   OH256544   5.052   5.929   0.985  0.3815  0.0821  0.1028
11710TIP3    H156545   5.117   5.996   1.004 -0.0517  0.3892  0.5309
11710TIP3    H256546   4.997   5.926   1.063 -0.4217  0.1891 -0.4516
11711TIP3   OH256547   4.230   6.339   0.918  0.1002 -0.3280 -0.2538
11711TIP3    H156548   4.323   6.317   0.926 -0.0997 -0.8166  0.9877
11711TIP3    H256549   4.224   6.428   0.954  0.0903 -0.2897 -0.3503
11712TIP3   OH256550   6.699   1.078  14.058  0.1766 -0.7608 -0.6481
11712TIP3    H156551   6.690   1.026  14.138 -0.1288 -0.8211 -0.7199
11712TIP3    H256552   6.773   1.136  14.075 -1.4640  1.0666  0.7185
11713TIP3   OH256553   5.162   2.313  10.316  0.6139 -0.2585 -0.0669
11713TIP3    H156554   5.244   2.311  10.266  0.0838 -0.0764 -0.9520
11713TIP3    H256555   5.164   2.233  10.368  0.4478 -1.2625 -1.5527
11714TIP3   OH256556   3.069   0.064  16.499  0.0636 -0.0504 -0.1804
11714TIP3    H156557   3.124   0.043  16.574 -1.9683 -0.0025  1.3968
11714TIP3    H256558   2.986   0.093  16.537 -0.6707  1.0394 -2.4361
11715TIP3   OH256559   2.121   3.061   5.617 -0.0373 -0.4751 -0.0298
11715TIP3    H156560   2.126   2.988   5.678 -0.7108 -0.6512 -0.1762
11715TIP3    H256561   2.179   3.127   5.654 -1.2655 -0.1473  1.4177
11716TIP3   OH256562   0.619   0.289  12.672 -0.3708  0.1508 -0.4225
11716TIP3    H156563   0.628   0.353  12.743  1.1439  0.3939 -0.7994
11716TIP3    H256564   0.525   0.282  12.657 -0.6686  0.7280  1.0375
11717TIP3   OH256565   3.523   2.682   2.420  0.3154 -0.6541  0.0563
11717TIP3    H156566   3.495   2.595   2.448  1.1227 -0.6089  1.0715
11717TIP3    H256567   3.529   2.733   2.501 -0.7361  0.5325 -0.5826
11718TIP3   OH256568   3.691   0.619  15.117  0.0405 -0.3346  0.4561
11718TIP3    H156569   3.732   0.608  15.203 -0.9427  1.1283  1.1564
11718TIP3    H256570   3.735   0.695  15.079  0.2491 -0.7816 -0.2119
11719TIP3   OH256571   1.262   3.321  14.793  0.5031 -0.1372 -0.0491
11719TIP3    H156572   1.318   3.366  14.729  1.7143 -0.2133  0.9275
11719TIP3    H256573   1.309   3.240  14.813 -0.0553 -0.2987  0.6412
11720TIP3   OH256574   3.248   1.305  16.387  0.0464 -0.1416 -0.1709
11720TIP3    H156575   3.267   1.389  16.428  2.1770 -1.9221  2.8524
11720TIP3    H256576   3.162   1.280  16.422  0.1697  0.0021  0.2296
11721TIP3   OH256577   5.264   4.569  11.363  0.4426  0.2514 -1.0110
11721TIP3    H156578   5.300   4.597  11.447 -1.1796  1.5696 -0.7086
11721TIP3    H256579   5.321   4.496  11.336  1.3473  0.1725  0.9286
11722TIP3   OH256580   1.313   3.116   2.306 -0.1779  0.1978 -0.0803
11722TIP3    H156581   1.347   3.070   2.230 -0.3847 -0.8421  0.4359
11722TIP3    H256582   1.237   3.065   2.334  1.6323 -1.2825  2.6264
11723TIP3   OH256583   0.626   5.184   3.283 -0.6693  0.1864  0.4698
11723TIP3    H156584   0.600   5.244   3.353  0.6010  0.1690  0.9999
11723TIP3    H256585   0.721   5.177   3.292 -0.8335 -2.4890  0.9061
11724TIP3   OH256586   4.912   6.599  16.928 -0.4307  0.0801  0.5019
11724TIP3    H156587   4.980   6.554  16.879  0.2090  1.0705  0.4476
11724TIP3    H256588   4.835   6.596  16.872 -0.0973 -0.0251  0.0503
11725TIP3   OH256589   2.319   6.256   1.683  0.8797 -0.2271 -0.3786
11725TIP3    H156590   2.236   6.209   1.686  1.4157 -1.2265 -0.8611
11725TIP3    H256591   2.332   6.288   1.772 -0.7704  1.3066 -0.6335
11726TIP3   OH256592   1.121   5.768   1.330 -0.5447  0.0500 -0.4555
11726TIP3    H156593   1.083   5.838   1.277  0.3075  0.9334  0.0670
11726TIP3    H256594   1.189   5.811   1.381 -0.3535 -1.0707  0.2668
11727TIP3   OH256595   2.144   1.991   2.485 -0.2440 -0.2022  0.7412
11727TIP3    H156596   2.095   1.942   2.419 -0.0334 -0.5529  0.8436
11727TIP3    H256597   2.231   1.952   2.484 -0.4203 -0.6406  1.6829
11728TIP3   OH256598   5.926   4.776  12.652  0.9215 -0.1031  0.0229
11728TIP3    H156599   5.984   4.848  12.679 -0.4386  1.2895 -0.5865
11728TIP3    H256600   5.855   4.777  12.716 -0.8225  1.3276 -1.8060
11729TIP3   OH256601   6.574   4.661  12.193  0.0784 -0.2378 -0.0707
11729TIP3    H156602   6.580   4.571  12.161  2.7758  0.0939 -0.7484
11729TIP3    H256603   6.636   4.666  12.265  0.1529  1.1218 -0.1911
11730TIP3   OH256604   2.648   3.402  13.176  0.3419  0.0652 -0.5634
11730TIP3    H156605   2.693   3.399  13.092 -0.3778  0.9089 -0.9967
11730TIP3    H256606   2.657   3.493  13.205  1.7487 -0.5043  0.9490
11731TIP3   OH256607   4.081   4.301   5.958  0.4643 -0.2550 -0.9509
11731TIP3    H156608   4.063   4.314   5.864  2.7540 -0.2801 -1.4440
11731TIP3    H256609   4.042   4.377   6.000  0.0584  0.1533 -2.0122
11732TIP3   OH256610   0.622   3.433   5.456  0.4827 -0.6233 -0.6594
11732TIP3    H156611   0.606   3.353   5.506 -0.0972 -0.7464 -1.0366
11732TIP3    H256612   0.683   3.483   5.509 -2.6904  0.8715  1.9161
11733TIP3   OH256613   3.040   0.820  16.924  0.5352  0.5115  0.5310
11733TIP3    H156614   3.087   0.768  16.859 -1.1386  0.2384 -0.5133
11733TIP3    H256615   3.082   0.906  16.920  0.5522  0.4608 -0.8091
11734TIP3   OH256616   4.874   3.748   1.539  0.5571 -0.2760  0.5566
11734TIP3    H156617   4.808   3.718   1.601  0.9536 -1.0741  0.6035
11734TIP3    H256618   4.920   3.818   1.584 -0.8749  0.9617  0.1678
11735TIP3   OH256619   0.524   5.495  16.586  0.2461 -0.0173  0.1525
11735TIP3    H156620   0.456   5.549  16.545 -0.3136 -0.5703  0.3433
11735TIP3    H256621   0.494   5.484  16.677  0.5189 -0.3766  0.1998
11736TIP3   OH256622   1.536   2.464  12.750 -0.1131  0.7905  0.1260
11736TIP3    H156623   1.525   2.556  12.772  0.6046  1.4052 -1.7844
11736TIP3    H256624   1.449   2.434  12.723 -0.0604  1.3906 -0.7627
11737TIP3   OH256625   3.443   0.015  12.297  0.1110  0.6543 -0.2750
11737TIP3    H156626   3.355   0.032  12.262 -0.1675  0.1605  0.1699
11737TIP3    H256627   3.458  -0.077  12.279 -0.4378  0.1216  1.7395
11738TIP3   OH256628   3.517   5.549  16.394  0.2113 -0.5325  0.0793
11738TIP3    H156629   3.552   5.620  16.448  0.7272 -0.8771  0.2068
11738TIP3    H256630   3.424   5.545  16.417  0.0669  0.4241 -0.2978
11739TIP3   OH256631   2.161   2.678   4.230 -0.2283  0.2834 -0.2061
11739TIP3    H156632   2.070   2.694   4.206 -0.0429  1.4224 -0.1932
11739TIP3    H256633   2.205   2.762   4.217  0.7831 -0.1964 -0.0139
11740TIP3   OH256634   4.945   3.187   3.815 -0.1299 -0.1178  0.1275
11740TIP3    H156635   5.014   3.121   3.824 -0.5508 -0.5555  0.1568
11740TIP3    H256636   4.905   3.191   3.901  0.3595  0.6988  0.3248
11741TIP3   OH256637   5.611   4.813  11.937 -0.3769  0.1431 -0.1829
11741TIP3    H156638   5.561   4.870  11.879 -0.5510 -0.1542 -0.3295
11741TIP3    H256639   5.597   4.725  11.902  0.8281  0.1240 -0.6602
11742TIP3   OH256640   3.439   1.743  12.257  0.4033 -0.1379  0.1018
11742TIP3    H156641   3.460   1.783  12.173  2.5223  0.1395  0.6834
11742TIP3    H256642   3.502   1.671  12.266 -0.7304 -1.0938  0.8330
11743TIP3   OH256643   5.241   5.223   3.304 -0.3281  0.2619  0.1665
11743TIP3    H156644   5.328   5.261   3.300 -0.4516  1.4631  4.1546
11743TIP3    H256645   5.254   5.138   3.347 -0.8838 -1.0497 -2.0812
11744TIP3   OH256646   6.164   5.451  13.863  0.5727  0.5933  0.4456
11744TIP3    H156647   6.144   5.367  13.905  1.2100 -0.4161 -1.1453
11744TIP3    H256648   6.174   5.513  13.935 -0.8606 -0.4699  1.6242
11745TIP3   OH256649   0.543   5.903   2.397 -0.4159 -0.4729 -0.2870
11745TIP3    H156650   0.572   5.812   2.410 -0.1799 -0.5776 -1.4889
11745TIP3    H256651   0.572   5.925   2.309  0.3566  1.1080  0.3281
11746TIP3   OH256652   4.784   3.582   1.261  0.0668 -0.6649  0.1879
11746TIP3    H156653   4.799   3.546   1.348  1.1847 -0.7615 -0.0248
11746TIP3    H256654   4.706   3.538   1.229  0.9099 -2.2774  0.2818
11747TIP3   OH256655   5.932   0.266  12.109 -0.2784 -0.4106  0.5630
11747TIP3    H156656   5.957   0.315  12.188  1.1530 -1.1945  0.6258
11747TIP3    H256657   5.840   0.243  12.123 -0.3070  0.2659  1.5713
11748TIP3   OH256658   3.922   4.338  15.936  0.0148 -0.1832 -0.2394
11748TIP3    H156659   3.855   4.395  15.897  1.1822  1.0571 -0.5189
11748TIP3    H256660   4.005   4.382  15.916  0.8362 -1.0145  1.2141
11749TIP3   OH256661   4.871   4.560  13.722  0.2601  0.1722 -0.0336
11749TIP3    H156662   4.851   4.653  13.733 -0.8551  0.0339 -0.7665
11749TIP3    H256663   4.844   4.540  13.632  1.7261 -0.5667 -0.3505
11750TIP3   OH256664   5.334   5.926   0.775 -0.3588  0.2474 -0.0108
11750TIP3    H156665   5.318   5.969   0.690  0.6735  0.3673 -0.1627
11750TIP3    H256666   5.320   5.995   0.839 -0.0467  0.4585 -0.1658
11751TIP3   OH256667   3.585   1.771   4.616 -0.0951  0.5737 -0.0012
11751TIP3    H156668   3.547   1.703   4.671  0.5764  0.7598  0.7208
11751TIP3    H256669   3.584   1.735   4.528 -0.0742 -0.2268  0.3184
11752TIP3   OH256670   0.248   4.501  13.198 -0.7417 -0.6662  0.2691
11752TIP3    H156671   0.232   4.460  13.113  0.2845 -0.9208  0.1819
11752TIP3    H256672   0.189   4.455  13.258  0.3806 -2.3307  0.1696
11753TIP3   OH256673   2.362   4.785   5.270  0.2329 -0.7118 -0.0268
11753TIP3    H156674   2.449   4.754   5.296  0.2952 -1.4312 -1.0316
11753TIP3    H256675   2.372   4.880   5.262 -0.1314 -0.1995  3.7655
11754TIP3   OH256676   4.994   1.784  12.878 -0.6829 -0.7541 -0.0493
11754TIP3    H156677   4.941   1.855  12.913 -2.1802 -0.3492 -2.7892
11754TIP3    H256678   4.961   1.771  12.789  0.5572 -3.8806 -0.2105
11755TIP3   OH256679   3.213   0.720  13.482  0.2081 -0.2033 -0.1262
11755TIP3    H156680   3.207   0.702  13.576  0.0858  0.3720 -0.0187
11755TIP3    H256681   3.307   0.717  13.463  0.4554  1.9885  0.5074
11756TIP3   OH256682   4.412   3.054   4.814  0.2612 -0.2816  0.6898
11756TIP3    H156683   4.364   2.976   4.784  0.4949  0.3511 -1.4050
11756TIP3    H256684   4.363   3.128   4.778 -0.3497  0.6496  3.2082
11757TIP3   OH256685   5.120   4.045  15.121 -0.1715 -0.2136 -0.5005
11757TIP3    H156686   5.078   4.101  15.187  1.8012  1.8441 -0.8934
11757TIP3    H256687   5.168   3.980  15.172 -0.7563 -0.2710  0.0014
11758TIP3   OH256688   4.766   0.242   4.833  0.6265  0.2597 -0.3136
11758TIP3    H156689   4.769   0.158   4.879  1.5728  0.6478  0.3811
11758TIP3    H256690   4.767   0.219   4.740  0.3090 -0.5058 -0.1326
11759TIP3   OH256691   6.631   2.153   5.367 -0.3487 -0.0622 -0.5298
11759TIP3    H156692   6.672   2.165   5.281  0.3632  0.3543 -0.1501
11759TIP3    H256693   6.576   2.076   5.357 -1.2577  0.7050 -1.7153
11760TIP3   OH256694   5.530   2.142  11.361 -0.7782 -0.0375  0.2394
11760TIP3    H156695   5.454   2.147  11.302  0.3896  1.5890 -1.2226
11760TIP3    H256696   5.579   2.066  11.329  0.0725  1.0793 -1.2820
11761TIP3   OH256697   4.232   2.495   0.456  0.9455  0.3677  0.1084
11761TIP3    H156698   4.237   2.495   0.552  1.1186  0.5765  0.1004
11761TIP3    H256699   4.297   2.430   0.429 -1.2279 -2.0515  0.2200
11762TIP3   OH256700   5.602   1.007  11.200  0.3735  0.1972  0.3519
11762TIP3    H156701   5.619   1.095  11.234 -1.7611  0.9686 -0.4653
11762TIP3    H256702   5.565   1.021  11.113 -1.7507 -1.4033  0.9180
11763TIP3   OH256703   0.464   3.422  14.715 -0.1351 -0.6094  0.4093
11763TIP3    H156704   0.384   3.474  14.713 -0.0267 -0.3905 -2.6083
11763TIP3    H256705   0.449   3.351  14.652  2.0566 -0.4657 -0.3665
11764TIP3   OH256706   6.129   0.168   5.625 -0.2058  0.1212 -0.0440
11764TIP3    H156707   6.161   0.091   5.578  0.7156 -0.1881  1.0220
11764TIP3    H256708   6.141   0.145   5.717 -3.1565  0.1811  0.4510
11765TIP3   OH256709   0.026   6.275   4.318  0.3944  0.2836  0.7291
11765TIP3    H156710   0.084   6.199   4.325 -1.5417 -1.4891 -0.9710
11765TIP3    H256711   0.059   6.323   4.242 -0.4644 -0.9204 -0.4639
11766TIP3   OH256712   6.031   0.938  14.449  0.5907 -0.0271  0.5059
11766TIP3    H156713   6.038   1.024  14.409 -1.2324  0.2801  0.7690
11766TIP3    H256714   5.980   0.953  14.529  1.2259 -1.1727  1.1486
11767TIP3   OH256715   0.947   4.319  11.155  0.1756 -0.9411  0.4707
11767TIP3    H156716   0.981   4.332  11.067 -1.0636 -1.4431 -0.1113
11767TIP3    H256717   0.865   4.370  11.156  0.3591 -0.6447  1.4531
11768TIP3   OH256718   1.217   4.472   4.436 -0.1875 -0.1034  0.4556
11768TIP3    H156719   1.248   4.470   4.527 -0.6778  0.5983  0.6470
11768TIP3    H256720   1.287   4.431   4.386  1.4503  2.0881  0.7831
11769TIP3   OH256721   0.668   3.421   0.165 -0.2282  0.0910 -0.6920
11769TIP3    H156722   0.755   3.456   0.144 -0.2639  0.1658 -0.7154
11769TIP3    H256723   0.658   3.346   0.106 -0.4060  0.4162 -1.0751
11770TIP3   OH256724   6.317   5.012   0.454  0.1577 -0.1511 -0.1505
11770TIP3    H156725   6.264   5.087   0.479 -0.3192 -0.1430 -1.1696
11770TIP3    H256726   6.402   5.029   0.495  0.4041  1.4857 -1.2283
11771TIP3   OH256727   2.024   6.246   3.433 -0.5392 -0.0629  0.1131
11771TIP3    H156728   2.031   6.340   3.445  0.1357 -0.0358 -0.4363
11771TIP3    H256729   2.106   6.211   3.469  0.7252 -0.1361 -2.5551
11772TIP3   OH256730   4.753   0.478   0.723 -0.0880 -0.4128 -0.8148
11772TIP3    H156731   4.821   0.457   0.788  0.6115 -1.3033 -1.7991
11772TIP3    H256732   4.715   0.561   0.754  0.9667 -0.2580  0.1366
11773TIP3   OH256733   6.387   3.263  17.187  0.9704 -0.7417 -0.1745
11773TIP3    H156734   6.482   3.255  17.197  0.9345 -0.9128  0.0135
11773TIP3    H256735   6.355   3.282  17.274  0.8153 -0.8288 -0.2125
11774TIP3   OH256736   4.963   4.693  13.406 -0.1705  0.0805 -0.3318
11774TIP3    H156737   4.931   4.730  13.324  1.7036 -1.0239 -1.6345
11774TIP3    H256738   5.039   4.746  13.429  1.3725 -1.6184 -1.2050
11775TIP3   OH256739   4.214   1.749  11.929  0.3727  0.9018  0.1276
11775TIP3    H156740   4.228   1.782  12.018  4.1347  0.1323 -0.0081
11775TIP3    H256741   4.254   1.815  11.873  0.4267  0.1088 -0.7889
11776TIP3   OH256742   4.334   6.141  13.293  0.1938 -0.5794 -0.3392
11776TIP3    H156743   4.418   6.183  13.313 -0.1719 -0.4916  1.0775
11776TIP3    H256744   4.272   6.213  13.285  0.1514 -0.6758 -0.9059
11777TIP3   OH256745   1.925   4.763  15.870  0.5929  0.2058 -0.1610
11777TIP3    H156746   2.004   4.777  15.817  1.1320  0.0188  0.5756
11777TIP3    H256747   1.855   4.751  15.806  1.4305 -1.2065 -0.8565
11778TIP3   OH256748   2.602   5.588   4.636  0.0049  0.1558 -0.0539
11778TIP3    H156749   2.550   5.637   4.572  0.3835 -0.5894 -0.9606
11778TIP3    H256750   2.539   5.529   4.677  0.0436 -0.5362 -0.9404
11779TIP3   OH256751   3.176   3.037  11.972  0.2216  0.5814  0.4025
11779TIP3    H156752   3.206   3.053  11.882  3.8848 -1.4977  1.0277
11779TIP3    H256753   3.223   3.102  12.024  1.4881 -0.8893  1.1599
11780TIP3   OH256754   6.311   0.811  10.509  0.1388  0.1626  0.7449
11780TIP3    H156755   6.399   0.836  10.483 -1.0219 -0.0652 -4.4507
11780TIP3    H256756   6.266   0.893  10.528  0.8626  0.4163  1.4274
11781TIP3   OH256757   3.522   5.345  14.738 -0.2138 -0.2349 -0.2923
11781TIP3    H156758   3.589   5.296  14.690  1.3006 -0.1103  1.5703
11781TIP3    H256759   3.484   5.282  14.798  1.7238  0.7306  2.1014
11782TIP3   OH256760   5.331   4.621   3.522 -0.1633  0.4744 -0.2414
11782TIP3    H156761   5.295   4.577   3.600  0.0224  1.6051  0.5038
11782TIP3    H256762   5.282   4.584   3.449 -1.5431  0.6230  0.5730
11783TIP3   OH256763   3.087   3.666   1.589  0.1016 -0.5127  0.1116
11783TIP3    H156764   3.005   3.643   1.632 -0.5422  0.2809 -0.6517
11783TIP3    H256765   3.085   3.619   1.506 -0.1980  0.5165 -0.4804
11784TIP3   OH256766   0.255   5.705   6.276 -0.3937 -0.6559 -0.4499
11784TIP3    H156767   0.214   5.729   6.193  0.0957 -0.7474 -0.7257
11784TIP3    H256768   0.213   5.761   6.341 -0.1113  0.0995 -0.9004
11785TIP3   OH256769   6.617   5.787   3.931 -0.5753  0.4707 -0.4263
11785TIP3    H156770   6.652   5.776   4.019  2.1605  0.8474 -1.3678
11785TIP3    H256771   6.564   5.867   3.936 -1.5636 -0.2402  1.1266
11786TIP3   OH256772   6.010   0.522  11.989  0.1441 -0.5175 -0.0255
11786TIP3    H156773   6.042   0.509  11.900 -0.5872  0.4612 -0.4579
11786TIP3    H256774   5.988   0.434  12.020  0.7838 -0.9085 -0.6589
11787TIP3   OH256775   4.166   6.260   1.569  0.0358 -0.2054  0.2307
11787TIP3    H156776   4.111   6.234   1.643 -0.0825 -1.1862 -0.1780
11787TIP3    H256777   4.134   6.207   1.496  1.8741 -1.2353  0.1172
11788TIP3   OH256778   2.108   2.339  11.969  0.1195  0.0222 -0.1254
11788TIP3    H156779   2.022   2.371  11.998  0.6640  0.5889  0.9258
11788TIP3    H256780   2.169   2.373  12.034  1.3164  0.6375 -1.5345
11789TIP3   OH256781   0.695   1.206   1.639 -0.4564 -0.1155  0.1921
11789TIP3    H156782   0.694   1.298   1.613 -1.6695 -0.2283 -0.2285
11789TIP3    H256783   0.699   1.208   1.735  0.9938  0.3349  0.1472
11790TIP3   OH256784   2.381   2.774   5.310  0.7464 -0.1554 -0.2062
11790TIP3    H156785   2.388   2.843   5.376  1.1145 -1.2158  0.9125
11790TIP3    H256786   2.459   2.720   5.324 -0.0391 -1.3806 -0.3541
11791TIP3   OH256787   5.000   1.233   0.754  0.0528 -0.1464  1.0112
11791TIP3    H156788   5.007   1.306   0.693  0.6483 -1.6336 -0.7652
11791TIP3    H256789   5.084   1.188   0.748 -0.6541 -1.5732  1.2895
11792TIP3   OH256790   0.545   0.338  16.456  0.5561  0.0750 -0.2925
11792TIP3    H156791   0.483   0.358  16.526  1.1476  0.0852  0.2427
11792TIP3    H256792   0.589   0.258  16.485  2.7772  1.5783  0.7242
11793TIP3   OH256793   4.938   2.540  13.781  0.2292  0.2084 -0.2804
11793TIP3    H156794   4.918   2.447  13.794  1.0939 -0.2146 -1.7037
11793TIP3    H256795   5.020   2.553  13.829  1.5710 -0.4959 -2.2187
11794TIP3   OH256796   2.170   3.369  15.159  0.0091 -0.5452 -0.0095
11794TIP3    H156797   2.245   3.415  15.197 -0.3604  0.1927 -0.1421
11794TIP3    H256798   2.200   3.279  15.146  1.0924 -0.0965 -0.7156
11795TIP3   OH256799   5.941   2.418   1.213 -0.4775  0.0355 -0.1398
11795TIP3    H156800   5.920   2.474   1.289  1.7900  1.0070 -0.1625
11795TIP3    H256801   5.951   2.331   1.251  0.2532  0.4391  0.6396
11796TIP3   OH256802   3.103   5.165   5.295  0.2380  0.7406  0.2779
11796TIP3    H156803   3.189   5.188   5.330  1.7784  2.5001 -3.9802
11796TIP3    H256804   3.114   5.077   5.259 -0.4800  0.0902  1.5689
11797TIP3   OH256805   1.333   2.444  11.568  0.2547  0.0156 -0.0092
11797TIP3    H156806   1.320   2.349  11.575 -1.0236 -0.0504 -2.2213
11797TIP3    H256807   1.253   2.476  11.527  1.2542  1.8549 -0.6466
11798TIP3   OH256808   5.613   6.790  13.669  0.5541 -0.4210  0.3157
11798TIP3    H156809   5.536   6.847  13.663 -0.0951 -1.2798  0.1369
11798TIP3    H256810   5.685   6.843  13.636 -0.1697  0.0542 -0.5652
11799TIP3   OH256811   2.883   4.831  11.912  0.0524 -0.3408 -0.1952
11799TIP3    H156812   2.876   4.909  11.967 -1.9768 -0.8536  0.3302
11799TIP3    H256813   2.843   4.856  11.829  3.2881  0.4980 -1.6709
11800TIP3   OH256814   6.431   0.869  13.117 -0.2389  0.2586  0.5976
11800TIP3    H156815   6.337   0.861  13.129 -0.2237  1.0714  1.3630
11800TIP3    H256816   6.466   0.785  13.148 -0.7152 -0.1467  0.0678
11801TIP3   OH256817   0.138   6.469  15.650 -0.2558 -0.2560  0.2597
11801TIP3    H156818   0.148   6.389  15.701 -0.9203 -1.4577 -1.3944
11801TIP3    H256819   0.043   6.483  15.647 -0.1689  0.3397  0.1384
11802TIP3   OH256820   2.495   0.717   1.195  0.2727 -0.4608 -0.2168
11802TIP3    H156821   2.520   0.696   1.105  0.8404 -0.9168  0.0442
11802TIP3    H256822   2.400   0.710   1.195  0.2096  0.2686 -0.9648
11803TIP3   OH256823   2.709   5.915   5.020  0.0921 -0.1058  0.0085
11803TIP3    H156824   2.723   5.895   5.113  1.8841  1.3274  0.0886
11803TIP3    H256825   2.723   5.831   4.975 -1.0852 -0.8850  1.0122
11804TIP3   OH256826   0.880   4.118   4.746 -0.1963 -0.1128 -0.2260
11804TIP3    H156827   0.948   4.079   4.691  0.8066  0.6667  0.4239
11804TIP3    H256828   0.816   4.048   4.758  0.5370 -0.8978 -0.7888
11805TIP3   OH256829   2.029   4.011  11.220  0.1962  0.2137 -0.2240
11805TIP3    H156830   1.999   4.100  11.240 -0.0775 -0.0906  0.7553
11805TIP3    H256831   1.949   3.965  11.194 -0.2364 -0.5586  2.2472
11806TIP3   OH256832   2.658   3.522  11.910  0.4677  0.4227  0.2677
11806TIP3    H156833   2.681   3.611  11.884  0.9413 -0.1187 -1.3197
11806TIP3    H256834   2.612   3.486  11.834  2.5529 -1.5031 -0.2071
11807TIP3   OH256835   5.987   3.659   3.062  0.1426  0.0569  0.2553
11807TIP3    H156836   6.013   3.666   2.970 -0.5419 -0.0003  0.0481
11807TIP3    H256837   5.972   3.566   3.076  1.4144 -0.0921  0.7709
11808TIP3   OH256838   1.705   3.267   0.577 -0.0905 -0.1112  0.1470
11808TIP3    H156839   1.704   3.355   0.539  1.0116  0.5739  1.6096
11808TIP3    H256840   1.755   3.215   0.515  0.6254  0.6834  0.0309
11809TIP3   OH256841   0.006   4.195   4.896  0.4961 -0.1121  0.1368
11809TIP3    H156842  -0.021   4.231   4.980 -1.8185 -0.4768 -0.3742
11809TIP3    H256843   0.014   4.271   4.838 -1.5392 -0.1040 -0.2025
11810TIP3   OH256844   4.660   3.646  13.368  0.1254  0.3455 -0.0237
11810TIP3    H156845   4.748   3.684  13.373  0.2749  0.0960 -0.5829
11810TIP3    H256846   4.673   3.554  13.391  0.0794  0.2211 -0.4785
11811TIP3   OH256847   2.712   3.033   4.471 -0.4143 -0.3038  0.7381
11811TIP3    H156848   2.669   2.951   4.444  2.5695 -1.7715 -0.0243
11811TIP3    H256849   2.686   3.097   4.405  0.0733 -1.6403 -0.8168
11812TIP3   OH256850   6.021   0.281  17.061 -0.0409 -0.0693 -0.4471
11812TIP3    H156851   6.078   0.294  17.137  0.3805 -1.4715 -0.4882
11812TIP3    H256852   5.970   0.361  17.055  0.5144  0.4036  0.8168
11813TIP3   OH256853   6.431   3.701  10.836 -0.1304  0.3969 -0.1004
11813TIP3    H156854   6.376   3.625  10.856 -0.4422  0.0996 -1.8640
11813TIP3    H256855   6.515   3.664  10.809  0.4275  0.7877  1.0565
11814TIP3   OH256856   0.390   3.911   5.093  0.6054 -0.1040 -0.2354
11814TIP3    H156857   0.483   3.917   5.115  0.6376  0.6166 -0.5545
11814TIP3    H256858   0.363   4.001   5.076  0.2456 -0.4580 -1.7341
11815TIP3   OH256859   3.093   6.193   4.421  0.0985  0.2413 -0.1736
11815TIP3    H156860   3.145   6.125   4.464 -0.4818 -0.2262 -0.1966
11815TIP3    H256861   3.083   6.162   4.331 -1.3523 -0.3629  0.1605
11816TIP3   OH256862   1.440   6.212  16.859 -0.2876 -0.2586  0.1019
11816TIP3    H156863   1.407   6.189  16.772  2.6596  1.5490 -1.7053
11816TIP3    H256864   1.396   6.294  16.881  0.3770  0.3164 -0.6556
11817TIP3   OH256865   4.887   4.486  14.314  0.5729  0.0050 -0.0851
11817TIP3    H156866   4.955   4.438  14.267 -0.1496 -0.4659 -0.6769
11817TIP3    H256867   4.893   4.575  14.281  1.9728  0.3816  1.0727
11818TIP3   OH256868   6.037   0.495  15.050 -0.4344  0.1372  0.1279
11818TIP3    H156869   5.967   0.560  15.037  0.1540  0.4762 -1.5802
11818TIP3    H256870   5.992   0.418  15.084 -1.2907  1.1080  1.2623
11819TIP3   OH256871   1.798   1.596   3.157  0.0593 -0.3237  0.4848
11819TIP3    H156872   1.862   1.664   3.137  0.7762 -1.0900  0.0741
11819TIP3    H256873   1.849   1.528   3.202 -0.3724 -1.1161 -0.1906
11820TIP3   OH256874   3.540   5.751  13.279 -0.4043  0.5325  0.2264
11820TIP3    H156875   3.530   5.797  13.196 -0.2965 -1.3728 -0.9097
11820TIP3    H256876   3.629   5.771  13.306  0.6408 -1.1004 -1.6752
11821TIP3   OH256877   4.838   0.293   4.186 -0.3340  0.1424  0.5016
11821TIP3    H156878   4.764   0.233   4.194  0.2235 -0.4339  1.5865
11821TIP3    H256879   4.915   0.240   4.205  0.2355  1.0313  0.7807
11822TIP3   OH256880   0.238   2.237  15.802  0.2519 -0.5710 -0.8226
11822TIP3    H156881   0.156   2.189  15.811  0.3623 -0.4674  1.2759
11822TIP3    H256882   0.211   2.328  15.790  0.0151 -0.4609  0.3732
11823TIP3   OH256883   0.588   5.642   0.209 -0.2139 -0.3954  0.4258
11823TIP3    H156884   0.577   5.547   0.201 -1.3958 -0.1549 -1.8217
11823TIP3    H256885   0.571   5.675   0.121  2.2558  1.7615  0.6436
11824TIP3   OH256886   6.788   6.669   6.129 -0.1227 -0.2208 -0.6550
11824TIP3    H156887   6.736   6.659   6.209 -0.2438  0.5511 -0.6292
11824TIP3    H256888   6.723   6.674   6.059 -0.0915  0.7917 -0.6176
11825TIP3   OH256889   0.081   4.023  12.126 -0.0347  0.7819  0.3949
11825TIP3    H156890   0.098   4.055  12.038 -0.0846  0.0648  0.1180
11825TIP3    H256891   0.064   3.930  12.115  3.1898 -0.0758  1.4981
11826TIP3   OH256892   2.116   6.414  15.580 -0.1974  0.4642  0.6152
11826TIP3    H156893   2.158   6.334  15.548 -0.5593 -0.0627  1.4110
11826TIP3    H256894   2.054   6.383  15.646 -0.6790  1.3690  0.5956
11827TIP3   OH256895   1.404   1.164  13.831 -0.2998  0.3072  0.0923
11827TIP3    H156896   1.473   1.230  13.842  0.3198 -0.1132 -1.0588
11827TIP3    H256897   1.336   1.190  13.893 -0.0138  1.9427 -0.2324
11828TIP3   OH256898   2.195   0.826  14.949  0.0456  0.0059  0.1244
11828TIP3    H156899   2.137   0.889  14.992 -0.3931 -1.2412  1.4198
11828TIP3    H256900   2.212   0.759  15.015  1.0321 -0.9053 -0.9993
11829TIP3   OH256901   0.367   3.655  12.677 -0.2580 -0.3724  0.5449
11829TIP3    H156902   0.289   3.600  12.671 -0.0458 -0.6974  0.7487
11829TIP3    H256903   0.439   3.594  12.697 -0.0073 -0.0361  0.6871
11830TIP3   OH256904   6.128   0.385  16.248 -1.0276  0.0426  0.1388
11830TIP3    H156905   6.224   0.390  16.249 -0.9176 -1.6150  1.1602
11830TIP3    H256906   6.103   0.429  16.166  0.6890 -0.7081 -0.8627
11831TIP3   OH256907   6.277   5.845   5.504  0.3308  0.2152  0.2426
11831TIP3    H156908   6.358   5.888   5.476  0.4849  0.6407  1.2853
11831TIP3    H256909   6.284   5.756   5.471  0.5916  0.6376 -0.8692
11832TIP3   OH256910   3.739   1.517   0.680  0.2039 -0.3912 -0.3574
11832TIP3    H156911   3.693   1.578   0.622 -0.2815  1.3378  1.7042
11832TIP3    H256912   3.830   1.517   0.649  0.4585  2.2561  0.1819
11833TIP3   OH256913   1.755   1.340  16.527  0.2669  0.3427 -0.3483
11833TIP3    H156914   1.759   1.244  16.525 -2.7080  0.1381 -1.3069
11833TIP3    H256915   1.804   1.364  16.605 -0.1058 -2.0642  0.7352
11834TIP3   OH256916   6.446   1.028   1.080 -0.0142  0.0891 -0.3419
11834TIP3    H156917   6.439   1.011   0.986 -1.6431  0.1100 -0.2486
11834TIP3    H256918   6.427   1.122   1.088 -0.0208  0.0569  0.0162
11835TIP3   OH256919   2.847   2.014  12.257  0.1081 -0.3776 -0.1990
11835TIP3    H156920   2.851   1.942  12.319 -0.4906  0.5751  0.9872
11835TIP3    H256921   2.768   1.997  12.205  0.4446 -1.0140 -0.5200
11836TIP3   OH256922   2.165   5.971   0.617  0.0441 -0.0694 -0.1005
11836TIP3    H156923   2.188   5.957   0.709 -1.7455  1.7741  0.7378
11836TIP3    H256924   2.207   6.054   0.594 -1.4624  0.7181 -0.1339
11837TIP3   OH256925   3.162   4.002   2.266 -0.1872  0.1394 -0.1648
11837TIP3    H156926   3.251   4.037   2.276 -0.6279  0.7356  2.0222
11837TIP3    H256927   3.173   3.907   2.274  0.5513 -0.0848 -2.7126
11838TIP3   OH256928   1.256   4.609   2.940  0.0214 -0.1704  0.2399
11838TIP3    H156929   1.234   4.526   2.982  0.1050 -0.0034  0.6256
11838TIP3    H256930   1.198   4.673   2.983  0.3273  0.0526  0.3239
11839TIP3   OH256931   4.440   1.540  17.018  0.1349  0.0913  0.1299
11839TIP3    H156932   4.527   1.500  17.011  2.1596  3.8680  0.9122
11839TIP3    H256933   4.428   1.555  17.112 -1.2889 -0.1363  0.0046
11840TIP3   OH256934   4.707   1.974   0.166  0.3217 -0.4236 -0.4258
11840TIP3    H156935   4.635   2.037   0.163  0.5138  0.0914  2.4886
11840TIP3    H256936   4.679   1.909   0.231  1.3817 -1.7317 -1.2181
11841TIP3   OH256937   6.423   6.466   5.591  0.4560  0.1057  0.1313
11841TIP3    H156938   6.460   6.378   5.597  1.0092  0.0589 -2.6324
11841TIP3    H256939   6.334   6.453   5.558  0.8861  0.5565 -1.3196
11842TIP3   OH256940   5.153   2.084   2.533 -0.2167  0.0550  0.2261
11842TIP3    H156941   5.077   2.116   2.582 -0.0731 -0.4548  0.8034
11842TIP3    H256942   5.176   2.155   2.474 -1.3642  0.0774 -0.2092
11843TIP3   OH256943   0.918   0.064  14.323  0.0502 -0.0593  0.5753
11843TIP3    H156944   0.933   0.001  14.393  1.6773 -0.0620  0.2531
11843TIP3    H256945   0.986   0.130  14.335  0.2717  0.0077 -0.9272
11844TIP3   OH256946   6.562   4.816  12.538 -0.5054 -0.9166 -0.1622
11844TIP3    H156947   6.544   4.904  12.570  1.1823 -1.1524  1.5839
11844TIP3    H256948   6.486   4.765  12.566 -0.9269 -0.2749 -0.1042
11845TIP3   OH256949   0.707   1.419  15.657 -0.2297 -0.2841  0.1924
11845TIP3    H156950   0.756   1.465  15.725 -0.1110 -0.8905  0.5249
11845TIP3    H256951   0.621   1.404  15.695 -1.0738  1.6978 -0.7634
11846TIP3   OH256952   0.988   4.214  14.298 -0.6529 -0.0917 -0.3973
11846TIP3    H156953   1.025   4.282  14.241 -0.4955  1.5591  1.5597
11846TIP3    H256954   0.894   4.231  14.298 -0.6590 -0.1325 -0.1811
11847TIP3   OH256955   0.723   4.599   0.641 -0.8957  0.3168 -0.0111
11847TIP3    H156956   0.707   4.692   0.650 -2.5412  0.1019 -0.4155
11847TIP3    H256957   0.683   4.560   0.718  1.9830  0.1006  1.5002
11848TIP3   OH256958   4.250   5.538   2.964  0.0445 -0.4840  0.1315
11848TIP3    H156959   4.255   5.504   3.053  0.5812 -2.7013 -0.6804
11848TIP3    H256960   4.251   5.633   2.975  0.1417 -0.6859  2.4660
11849TIP3   OH256961   5.733   2.372  17.003 -0.3779  0.1242 -0.5476
11849TIP3    H156962   5.687   2.450  16.972 -1.4356  0.0353  0.7226
11849TIP3    H256963   5.770   2.333  16.924  2.2916  3.1984 -1.0239
11850TIP3   OH256964   0.289   4.782  14.698  0.5303  0.4162  1.3700
11850TIP3    H156965   0.209   4.787  14.751  0.0370  0.7400  0.6110
11850TIP3    H256966   0.339   4.710  14.736  0.6514  1.2597  2.9031
11851TIP3   OH256967   5.926   5.856  16.225 -0.3566  0.2239 -0.0311
11851TIP3    H156968   5.890   5.771  16.200  0.5192 -0.5213  1.1253
11851TIP3    H256969   5.871   5.884  16.298 -1.8877  1.6209 -1.6522
11852TIP3   OH256970   2.278   3.032   3.708 -0.4217  0.4568  0.0584
11852TIP3    H156971   2.223   3.061   3.635  0.1421  0.9353 -0.1851
11852TIP3    H256972   2.317   3.112   3.743  1.7763 -0.0179 -1.1179
11853TIP3   OH256973   5.182   0.435   0.708  0.2453  0.6314 -0.1615
11853TIP3    H156974   5.252   0.489   0.745  1.5323 -0.8254 -0.3402
11853TIP3    H256975   5.205   0.346   0.736 -2.7917  0.2988  1.7352
11854TIP3   OH256976   5.021   5.127  16.228  0.2280  0.0870 -0.2593
11854TIP3    H156977   5.061   5.074  16.161  2.0657  1.3991 -0.2691
11854TIP3    H256978   4.948   5.171  16.184  0.6942  0.0415 -1.0914
11855TIP3   OH256979   1.033   2.339   5.096 -0.0575  0.7335 -0.0843
11855TIP3    H156980   1.041   2.249   5.127  0.4981  1.0676  0.7983
11855TIP3    H256981   1.001   2.332   5.006 -2.6495 -0.2596  0.8249
11856TIP3   OH256982   2.658   1.838   0.355  0.1713  0.0152  0.5275
11856TIP3    H156983   2.629   1.922   0.319  1.2047  0.0089 -0.3758
11856TIP3    H256984   2.579   1.800   0.393 -0.2941  1.4204  1.0349
11857TIP3   OH256985   6.230   0.531   5.577 -0.6240  0.3195  0.1401
11857TIP3    H156986   6.190   0.507   5.661  0.3309  0.3860  0.6200
11857TIP3    H256987   6.159   0.573   5.528 -0.7863  1.7434  1.5261
11858TIP3   OH256988   3.069   1.328  11.458  0.0779  0.8092 -0.1873
11858TIP3    H156989   2.985   1.332  11.504 -0.2586 -1.5072 -0.4680
11858TIP3    H256990   3.056   1.382  11.380 -0.5781  1.8043  0.5843
11859TIP3   OH256991   0.959   6.535   3.263  0.1953 -0.1492 -0.3292
11859TIP3    H156992   1.046   6.542   3.301  0.9135 -1.0556 -1.6956
11859TIP3    H256993   0.902   6.510   3.336  1.1386  0.0852  0.5026
11860TIP3   OH256994   5.550   6.685   5.710 -0.8764  0.2978  0.0003
11860TIP3    H156995   5.644   6.698   5.723 -0.9974  0.1996  1.0703
11860TIP3    H256996   5.544   6.621   5.640 -0.0309 -2.1186  1.9787
11861TIP3   OH256997   1.389   1.621   4.799  0.2169  0.1153 -0.5568
11861TIP3    H156998   1.391   1.554   4.867  0.4712 -1.1297 -1.7377
11861TIP3    H256999   1.454   1.686   4.826  2.1275 -1.5938 -0.7995
11862TIP3   OH257000   2.669   2.632  14.745  0.5491  0.2659 -0.5523
11862TIP3    H157001   2.667   2.577  14.823  0.3336 -0.0188 -0.7547
11862TIP3    H257002   2.727   2.587  14.685  1.7977  1.1762 -0.0646
11863TIP3   OH257003   4.184   4.742  14.033  0.4725  0.3232  0.6146
11863TIP3    H157004   4.224   4.764  13.949 -2.3248  0.8648 -0.6903
11863TIP3    H257005   4.157   4.651  14.024  1.1228  0.0426  1.3761
11864TIP3   OH257006   4.205   0.157   1.435 -0.1563 -0.1543  0.0398
11864TIP3    H157007   4.156   0.075   1.439 -0.3750 -0.1079 -1.1885
11864TIP3    H257008   4.168   0.210   1.505 -3.0806  0.4964 -1.7818
11865TIP3   OH257009   3.079   2.378  14.965  0.2900  0.2726 -0.2437
11865TIP3    H157010   3.096   2.436  15.039 -0.2198  0.4475 -0.2579
11865TIP3    H257011   3.155   2.321  14.960  0.3201  0.2529  0.4208
11866TIP3   OH257012   1.425   4.481  11.635  0.0074 -0.1476 -0.3744
11866TIP3    H157013   1.478   4.514  11.707 -1.8620  2.0599  0.1039
11866TIP3    H257014   1.481   4.418  11.591  1.9276 -0.0808  1.8072
11867TIP3   OH257015   0.516   1.593  13.575  0.1659 -0.1119 -0.3000
11867TIP3    H157016   0.469   1.659  13.524  2.6580  0.7826 -1.6229
11867TIP3    H257017   0.495   1.510  13.532  0.3206  0.3544 -1.3117
11868TIP3   OH257018   0.082   2.685  10.885 -0.0742  0.9348  0.0295
11868TIP3    H157019   0.152   2.638  10.930  2.5366  3.8463 -0.6609
11868TIP3    H257020   0.075   2.642  10.800 -1.3934 -1.2879  1.1684
11869TIP3   OH257021   1.024   0.216  15.578  0.5438 -0.0098 -0.2305
11869TIP3    H157022   1.057   0.231  15.490  0.2867 -0.6319 -0.4408
11869TIP3    H257023   0.945   0.163  15.565 -1.6002  2.8575  0.0959
11870TIP3   OH257024   6.227   2.578  15.202  0.6311 -0.3520 -0.2907
11870TIP3    H157025   6.201   2.649  15.143 -0.9537  0.4990  1.3515
11870TIP3    H257026   6.147   2.527  15.215  0.4898  0.4145  2.3215
11871TIP3   OH257027   2.264   0.021   1.568  0.1567  0.4417 -0.4919
11871TIP3    H157028   2.205  -0.039   1.521  0.0843  1.1901 -1.3904
11871TIP3    H257029   2.335   0.037   1.505  0.6636  0.5596  0.1022
11872TIP3   OH257030   4.995   5.710  13.194  0.3010  0.0383 -0.4004
11872TIP3    H157031   4.911   5.690  13.154 -0.3061 -1.8972  1.6584
11872TIP3    H257032   5.059   5.700  13.123 -0.9955 -0.2248 -1.5750
11873TIP3   OH257033   0.287   1.302  16.890 -0.5968  0.2545  0.4834
11873TIP3    H157034   0.238   1.365  16.943 -1.6256  2.5479 -2.8568
11873TIP3    H257035   0.237   1.221  16.896 -2.8416  1.5311  0.0946
11874TIP3   OH257036   2.707   2.747  11.132  0.2429 -0.4550  0.4627
11874TIP3    H157037   2.656   2.669  11.110 -2.3042  1.7184 -2.1788
11874TIP3    H257038   2.744   2.775  11.048  0.5399  1.5469  1.2276
11875TIP3   OH257039   3.317   3.511  11.587 -0.5236  0.0825  0.4873
11875TIP3    H157040   3.226   3.493  11.611 -1.1998  1.8987 -0.4986
11875TIP3    H257041   3.315   3.522  11.492  0.8028 -0.2090  0.4148
11876TIP3   OH257042   2.368   6.191   1.291  0.4536 -0.5779  0.4006
11876TIP3    H157043   2.297   6.129   1.273  1.4085 -0.6675 -4.1615
11876TIP3    H257044   2.323   6.266   1.332 -2.5254 -0.4158 -2.6927
11877TIP3   OH257045   6.496   6.135  12.974  0.0342  0.3466  0.1238
11877TIP3    H157046   6.494   6.204  12.907  0.8699 -0.8798 -1.2198
11877TIP3    H257047   6.565   6.076  12.945 -0.9630 -1.3041  1.0045
11878TIP3   OH257048   5.263   5.791  10.583 -0.3084  0.5603 -0.3204
11878TIP3    H157049   5.203   5.863  10.563 -1.1383 -0.0176 -0.0036
11878TIP3    H257050   5.265   5.738  10.503 -0.6980  0.2621 -0.1386
11879TIP3   OH257051   4.697   5.544   5.867  0.3601  0.1749 -0.2968
11879TIP3    H157052   4.728   5.506   5.949 -1.0919 -0.6514 -0.0859
11879TIP3    H257053   4.765   5.606   5.842  2.5411 -2.0424 -0.2910
11880TIP3   OH257054   5.708   2.946  11.521  0.4325  0.1372 -0.2183
11880TIP3    H157055   5.701   2.875  11.457 -0.5919 -0.4480  0.5195
11880TIP3    H257056   5.658   2.916  11.597  3.2944 -0.0853  1.7247
11881TIP3   OH257057   2.956   3.851  14.087 -0.1837  0.1307 -0.5377
11881TIP3    H157058   2.879   3.807  14.122 -0.7402 -0.7281 -2.6486
11881TIP3    H257059   2.920   3.917  14.027  0.7048  1.2484  0.1200
11882TIP3   OH257060   5.475   2.322  16.379 -0.4807  0.4624 -0.1478
11882TIP3    H157061   5.548   2.353  16.433 -1.2960  1.8132  0.2327
11882TIP3    H257062   5.503   2.339  16.289 -0.1530  0.5562 -0.0307
11883TIP3   OH257063   2.328   5.386  14.279 -0.4173 -0.4516 -0.7545
11883TIP3    H157064   2.304   5.394  14.187 -0.6373 -1.4690 -0.7962
11883TIP3    H257065   2.378   5.465  14.298 -1.2007  0.2389 -1.4791
11884TIP3   OH257066   3.689   1.444  11.551  0.4974 -0.7093  0.0749
11884TIP3    H157067   3.758   1.382  11.574  0.3569 -0.8630  0.0917
11884TIP3    H257068   3.609   1.403  11.583  0.6246  0.5179  2.1229
11885TIP3   OH257069   1.036   0.414  16.384  0.0468  0.1456  0.2658
11885TIP3    H157070   0.971   0.383  16.320  1.0602  0.6008 -1.0197
11885TIP3    H257071   1.094   0.340  16.398  0.9659  0.6429 -0.8461
11886TIP3   OH257072   5.639   4.295  12.792 -0.2698  0.0012 -0.2367
11886TIP3    H157073   5.597   4.249  12.719  0.0281 -0.6959  0.0177
11886TIP3    H257074   5.719   4.332  12.755 -0.6385  0.5478 -0.5033
11887TIP3   OH257075   6.467   5.510   0.324 -0.3674  0.0746 -0.3178
11887TIP3    H157076   6.442   5.434   0.377  1.2301  0.6087  1.3320
11887TIP3    H257077   6.561   5.499   0.311 -0.2968  1.2658 -0.9033
11888TIP3   OH257078   0.898   6.513  16.861  0.1360 -0.1230  0.2073
11888TIP3    H157079   0.841   6.504  16.784  2.5016 -1.5155 -1.5244
11888TIP3    H257080   0.924   6.605  16.859  0.9583 -0.3478 -1.3257
11889TIP3   OH257081   5.844   5.228   1.373  0.2396  0.4693 -0.0095
11889TIP3    H157082   5.908   5.288   1.411  0.5228  1.3597 -1.7670
11889TIP3    H257083   5.771   5.227   1.436  0.9691  1.2910  0.8746
11890TIP3   OH257084   6.067   1.709   4.627 -0.2498  0.0809  0.5059
11890TIP3    H157085   6.126   1.767   4.578  1.6218  0.0264  2.5148
11890TIP3    H257086   6.013   1.768   4.679  0.0080  0.0861  0.7717
11891TIP3   OH257087   4.869   3.772   2.518  0.6620  0.8503 -0.2072
11891TIP3    H157088   4.852   3.863   2.542 -0.3960  0.6400 -0.1469
11891TIP3    H257089   4.841   3.766   2.426  1.7228  0.8443 -0.5451
11892TIP3   OH257090   2.398   3.369  15.967  0.3724 -0.1891  0.8040
11892TIP3    H157091   2.488   3.338  15.973 -0.4343 -2.6669  1.0622
11892TIP3    H257092   2.361   3.350  16.053 -0.1108  2.0318  1.1647
11893TIP3   OH257093   1.188   3.321  16.993 -0.0055  0.5696  0.4361
11893TIP3    H157094   1.233   3.298  17.074  0.6150 -0.8484 -0.2689
11893TIP3    H257095   1.252   3.373  16.944  0.7134 -0.9465 -0.3105
11894TIP3   OH257096   3.818   5.349   5.942 -0.2590 -0.2368  0.1285
11894TIP3    H157097   3.732   5.389   5.926  0.2424  0.6464 -0.4030
11894TIP3    H257098   3.877   5.423   5.955  0.9099 -0.7389 -1.9792
11895TIP3   OH257099   5.395   1.756  14.124 -0.1010 -0.5993 -0.2418
11895TIP3    H157100   5.368   1.699  14.196 -0.3902 -2.5263 -1.7892
11895TIP3    H257101   5.320   1.815  14.111 -0.1397 -0.3890  0.8390
11896TIP3   OH257102   6.670   1.814  11.948 -0.2523 -0.2145 -0.2541
11896TIP3    H157103   6.581   1.813  11.913 -0.6958  0.8436  0.7706
11896TIP3    H257104   6.725   1.838  11.874 -0.9913  0.5288 -0.5743
11897TIP3   OH257105   2.370   6.603   1.781  0.3724 -0.5025 -0.2062
11897TIP3    H157106   2.282   6.570   1.767 -0.0999  0.9531 -0.7939
11897TIP3    H257107   2.405   6.618   1.693  1.2503 -1.1347  0.0145
11898TIP3   OH257108   5.481   3.833   5.348 -0.1806  0.2019 -0.0909
11898TIP3    H157109   5.477   3.906   5.286  3.1814  0.3697 -0.2865
11898TIP3    H257110   5.570   3.800   5.340 -0.9166 -2.5003  1.6663
11899TIP3   OH257111   3.109   2.178  12.644 -0.0177  0.0634  0.0587
11899TIP3    H157112   3.148   2.139  12.566 -0.7141  0.8882 -0.7202
11899TIP3    H257113   3.136   2.270  12.642 -1.5685  0.5382 -0.2469
11900TIP3   OH257114   1.186   1.668  16.041  0.3612 -0.0582  0.2090
11900TIP3    H157115   1.137   1.696  15.964  1.0340  3.7512  0.9553
11900TIP3    H257116   1.273   1.706  16.030  1.3933 -1.8392  1.5730
11901TIP3   OH257117   2.434   6.207   2.785  0.7369 -0.4555 -0.2733
11901TIP3    H157118   2.420   6.267   2.858  1.7895 -1.3740  0.7208
11901TIP3    H257119   2.479   6.132   2.823  1.4087 -0.9297 -1.8884
11902TIP3   OH257120   3.585   2.046   0.138 -0.7885 -0.0902  0.1980
11902TIP3    H157121   3.515   2.111   0.142 -0.0519  0.6769  2.7031
11902TIP3    H257122   3.658   2.092   0.096 -0.7938  0.1485  0.4494
11903TIP3   OH257123   5.860   5.914   6.022 -0.1468  0.1316  0.3242
11903TIP3    H157124   5.782   5.921   6.078  1.8027  0.4778  3.1948
11903TIP3    H257125   5.918   5.983   6.054  2.8881 -2.5307  1.0377
11904TIP3   OH257126   0.520   3.108  11.641  0.2291  0.8853 -0.1499
11904TIP3    H157127   0.529   3.141  11.551 -1.5716  0.9632 -0.3305
11904TIP3    H257128   0.608   3.116  11.678  1.1294  0.4037 -2.0498
11905TIP3   OH257129   4.156   6.609  14.134  0.4692 -0.6532  0.2557
11905TIP3    H157130   4.106   6.690  14.144 -0.4914 -1.3365  1.1600
11905TIP3    H257131   4.247   6.638  14.132  0.1483  0.4457  0.7121
11906TIP3   OH257132   2.616   6.230  15.536  0.4966 -0.5135  0.7838
11906TIP3    H157133   2.565   6.294  15.486  0.5864 -0.4390  0.7876
11906TIP3    H257134   2.657   6.281  15.606  0.0427 -0.6862  1.1833
11907TIP3   OH257135   2.765   4.559   4.840  0.6401  0.3559  0.3210
11907TIP3    H157136   2.697   4.510   4.795  2.0069 -0.0538 -1.4003
11907TIP3    H257137   2.774   4.516   4.925  0.6058 -1.3206 -0.4816
11908TIP3   OH257138   5.037   3.830   3.449  0.3397 -0.3237 -0.2196
11908TIP3    H157139   5.069   3.852   3.536 -0.2195 -0.5140  0.0382
11908TIP3    H257140   5.112   3.844   3.392  0.5240  0.4573  0.1935
11909TIP3   OH257141   4.225   4.301   4.341  0.3373  0.0703  0.3161
11909TIP3    H157142   4.246   4.324   4.431  0.8909 -1.4020  0.5931
11909TIP3    H257143   4.274   4.220   4.324 -1.2337 -0.7392 -0.6729
11910TIP3   OH257144   2.338   3.523  12.968 -0.0982  0.0649 -0.7043
11910TIP3    H157145   2.312   3.609  13.001 -0.0823  0.1396 -0.8882
11910TIP3    H257146   2.354   3.537  12.875  0.4549 -0.0135 -0.6248
11911TIP3   OH257147   5.005   3.178  11.583  0.5609  0.4051  0.1285
11911TIP3    H157148   5.054   3.124  11.521 -0.6025 -0.8670  0.2649
11911TIP3    H257149   4.917   3.182  11.546  0.0911  0.4277  1.2069
11912TIP3   OH257150   4.169   6.577   4.112 -0.7057 -0.0430  0.5929
11912TIP3    H157151   4.144   6.668   4.099 -1.9408 -0.0687  2.4182
11912TIP3    H257152   4.095   6.538   4.159  0.4963 -1.5621  1.3220
11913TIP3   OH257153   1.319   0.120  10.639  0.3836 -0.2334 -0.3074
11913TIP3    H157154   1.230   0.107  10.607  1.4116 -2.9888 -2.4557
11913TIP3    H257155   1.361   0.175  10.573 -0.0080  2.3277  1.4394
11914TIP3   OH257156   3.559   3.706   5.499 -0.1291 -0.1640  0.7257
11914TIP3    H157157   3.590   3.757   5.574 -1.7234 -0.8410  1.9223
11914TIP3    H257158   3.465   3.722   5.497 -0.5325 -2.2727  0.5616
11915TIP3   OH257159   5.281   0.824  13.434 -0.3528  0.0626  0.3204
11915TIP3    H157160   5.203   0.838  13.488  0.2530  0.6578  1.0513
11915TIP3    H257161   5.346   0.886  13.468  0.5249 -0.5917 -0.1228
11916TIP3   OH257162   4.647   6.721   1.399 -0.2425 -0.3481  0.2741
11916TIP3    H157163   4.682   6.776   1.329 -0.3266 -0.9428 -0.2508
11916TIP3    H257164   4.589   6.778   1.449 -0.9505 -0.1617 -0.7348
11917TIP3   OH257165   0.085   1.293   1.880  0.8478 -0.2882  0.1048
11917TIP3    H157166   0.145   1.280   1.954  2.1004 -0.4749 -0.9170
11917TIP3    H257167   0.036   1.211   1.874 -0.8189  0.4654  2.0205
11918TIP3   OH257168   0.502   2.156  14.750  0.0779  0.1347  0.3289
11918TIP3    H157169   0.551   2.208  14.685  0.6704 -1.9163 -0.9505
11918TIP3    H257170   0.424   2.208  14.767 -0.4595  0.4704 -2.5981
11919TIP3   OH257171   3.139   3.184   3.664  0.8051 -0.2881 -0.0833
11919TIP3    H157172   3.218   3.228   3.697  0.3829 -1.4036  2.6765
11919TIP3    H257173   3.166   3.149   3.579  2.7904  0.7053  0.0610
11920TIP3   OH257174   0.159   5.470  14.326 -0.9306 -0.0734  0.1653
11920TIP3    H157175   0.206   5.515  14.396 -2.4285 -0.0855  1.2137
11920TIP3    H257176   0.155   5.534  14.255 -0.5953  0.4344  0.5961
11921TIP3   OH257177   2.708   1.882   5.256  0.4359  0.4985 -0.1429
11921TIP3    H157178   2.670   1.927   5.332  0.4885  0.8117 -0.2988
11921TIP3    H257179   2.779   1.829   5.292 -0.2767 -0.2607  0.1853
11922TIP3   OH257180   6.370   4.461   2.740  0.0185  0.0530  0.3197
11922TIP3    H157181   6.279   4.434   2.741  0.2895 -0.9013 -0.1744
11922TIP3    H257182   6.390   4.482   2.831 -0.2492 -1.3062  0.7142
11923TIP3   OH257183   5.025   1.707   1.096 -0.4997  0.0760 -0.2627
11923TIP3    H157184   5.084   1.777   1.069 -1.7827  0.6943 -1.6017
11923TIP3    H257185   5.027   1.644   1.024 -0.4011 -0.6045  0.3231
11924TIP3   OH257186   0.808   5.471   3.709  0.0636 -0.1651  0.3203
11924TIP3    H157187   0.881   5.533   3.710 -0.0585  0.0141 -0.7960
11924TIP3    H257188   0.736   5.519   3.750 -0.8775  1.5827 -3.0103
11925TIP3   OH257189   4.380   2.576   1.373 -0.5590 -0.2013 -0.3024
11925TIP3    H157190   4.343   2.509   1.431 -2.1069  1.7147  1.0310
11925TIP3    H257191   4.409   2.527   1.296 -0.7720 -2.5093  0.9903
11926TIP3   OH257192   5.713   3.423   1.562 -0.0158  0.5783 -0.0514
11926TIP3    H157193   5.694   3.507   1.603  1.9958  0.2751  1.7502
11926TIP3    H257194   5.808   3.425   1.548 -0.0174 -1.1539 -0.5103
11927TIP3   OH257195   2.527   2.495   4.038  0.2924 -0.2712  0.4520
11927TIP3    H157196   2.442   2.451   4.031  0.3307 -0.2582 -0.1859
11927TIP3    H257197   2.590   2.433   4.002  0.2937  0.4292 -0.8445
11928TIP3   OH257198   5.097   2.657   4.517 -0.1314 -0.9881 -0.7636
11928TIP3    H157199   5.100   2.712   4.596 -2.4646  1.0135 -1.9428
11928TIP3    H257200   5.009   2.620   4.518  1.3826 -5.0149  0.0268
11929TIP3   OH257201   5.880   2.883  12.501 -0.4997  0.8375 -0.0970
11929TIP3    H157202   5.901   2.976  12.504  0.4543  0.6411 -0.2212
11929TIP3    H257203   5.883   2.860  12.408 -0.7744  0.6966 -0.0707
11930TIP3   OH257204   6.362   1.554  10.997 -0.4738  0.6903 -0.1548
11930TIP3    H157205   6.399   1.636  10.965 -0.9845  1.0006  0.0395
11930TIP3    H257206   6.418   1.529  11.070 -0.5813  1.1090  0.0766
11931TIP3   OH257207   0.186   1.736  11.303  0.1219 -0.4861 -0.8629
11931TIP3    H157208   0.189   1.831  11.315 -1.3039 -0.6540  1.3378
11931TIP3    H257209   0.135   1.724  11.223  0.3494  0.5767 -1.1907
11932TIP3   OH257210   3.677   0.675   5.598  0.1639  1.1872  0.4955
11932TIP3    H157211   3.691   0.639   5.510  1.1740  0.3177  0.9870
11932TIP3    H257212   3.739   0.747   5.604 -0.5170  1.8133  0.2011
11933TIP3   OH257213   1.211   5.999   2.520 -0.5145 -0.2208 -0.2701
11933TIP3    H157214   1.194   5.929   2.584 -2.6868 -1.5644 -2.1247
11933TIP3    H257215   1.228   6.077   2.573 -1.1346 -1.4832  1.9176
11934TIP3   OH257216   2.051   2.077   1.118 -0.0284  0.0375  0.3524
11934TIP3    H157217   2.003   2.089   1.200 -0.9624  0.9659 -0.3006
11934TIP3    H257218   2.132   2.126   1.130 -0.4826  0.7740  0.4644
11935TIP3   OH257219   1.070   6.439  15.016  0.1974 -0.2504  0.0826
11935TIP3    H157220   1.022   6.452  15.098 -0.8579  0.6221 -0.6514
11935TIP3    H257221   1.100   6.348  15.021  1.2273  0.1440  1.9704
11936TIP3   OH257222   6.608   2.817   6.349  0.4813  0.1794  0.4119
11936TIP3    H157223   6.539   2.883   6.357  1.2970  1.2016 -0.6688
11936TIP3    H257224   6.610   2.775   6.435 -1.0202  0.5893  0.6768
11937TIP3   OH257225   2.042   1.831   5.796 -0.2990  0.1175  0.2007
11937TIP3    H157226   2.048   1.881   5.877 -0.1305  0.3302  0.0574
11937TIP3    H257227   1.959   1.858   5.757  0.3587  1.2201 -0.4890
11938TIP3   OH257228   4.255   2.582  12.121 -0.1048 -0.0174 -0.1119
11938TIP3    H157229   4.274   2.528  12.044  1.8798 -1.5806  1.3759
11938TIP3    H257230   4.272   2.672  12.091  0.2600 -0.5406 -1.5814
11939TIP3   OH257231   1.252   6.488  16.980  0.2372  0.4050 -0.3501
11939TIP3    H157232   1.289   6.572  16.949  1.3690 -0.5373 -1.6921
11939TIP3    H257233   1.312   6.460  17.048  0.5815  0.0935 -0.7754
11940TIP3   OH257234   4.114   3.648  13.609  0.0369 -0.1919 -0.4167
11940TIP3    H157235   4.137   3.722  13.554 -1.5862 -0.2169 -1.1870
11940TIP3    H257236   4.085   3.687  13.692  1.5156 -0.1112  0.0924
11941TIP3   OH257237   1.783   2.906  16.064  0.0081 -0.5494 -0.1781
11941TIP3    H157238   1.743   2.961  15.997 -0.0610 -0.9644 -0.4837
11941TIP3    H257239   1.718   2.902  16.134 -0.7329 -1.6660 -0.9055
11942TIP3   OH257240   0.686   1.652   0.069  0.4629 -0.3328  0.1727
11942TIP3    H157241   0.599   1.632   0.103  0.3940  0.4585  0.4910
11942TIP3    H257242   0.715   1.571   0.027  0.0009 -0.9118  0.9589
11943TIP3   OH257243   1.576   4.555   2.487 -0.4619 -0.2198 -0.3553
11943TIP3    H157244   1.660   4.589   2.457 -0.5183 -0.4724 -0.8128
11943TIP3    H257245   1.588   4.538   2.580  0.2065 -0.8720 -0.5511
11944TIP3   OH257246   2.700   6.285   4.890  0.4893  0.4485  0.0194
11944TIP3    H157247   2.643   6.361   4.899  0.8142  0.7342 -0.2883
11944TIP3    H257248   2.760   6.292   4.964 -1.3470 -1.1700  1.7694
11945TIP3   OH257249   6.672   1.630  15.065  0.0891 -0.0385  0.1837
11945TIP3    H157250   6.662   1.699  14.999 -0.8833  0.0208  0.3856
11945TIP3    H257251   6.712   1.557  15.016  0.1727  0.3050 -0.2701
11946TIP3   OH257252   2.568   4.821  14.312 -0.6121  0.5266  0.1094
11946TIP3    H157253   2.528   4.904  14.338  0.5897  1.1325  0.0588
11946TIP3    H257254   2.496   4.772  14.272 -1.1921  1.7897 -0.4611
11947TIP3   OH257255   4.264   3.508   2.476  0.1032  0.0433  0.4469
11947TIP3    H157256   4.273   3.508   2.380 -0.1742 -0.2638  0.4194
11947TIP3    H257257   4.196   3.573   2.493 -0.0472 -0.1033  0.4130
11948TIP3   OH257258   3.369   2.061  11.942 -0.4354  0.0876  0.5009
11948TIP3    H157259   3.407   1.974  11.925  0.8345  0.8735 -1.0400
11948TIP3    H257260   3.441   2.122  11.925 -1.5487  1.5028  0.6601
11949TIP3   OH257261   1.520   4.780   4.468 -0.3764 -0.0397 -0.5400
11949TIP3    H157262   1.481   4.811   4.550  0.5582 -0.9670  0.2741
11949TIP3    H257263   1.595   4.727   4.495 -0.3779 -0.8251 -1.9772
11950TIP3   OH257264   6.409   0.219  13.065 -0.1984  0.1112 -0.6445
11950TIP3    H157265   6.333   0.217  13.123  0.7866 -2.1142  0.6852
11950TIP3    H257266   6.375   0.189  12.980 -0.8293 -0.9147 -0.0463
11951TIP3   OH257267   2.334   2.681   4.480 -0.3686 -0.4248 -0.0499
11951TIP3    H157268   2.312   2.647   4.393  0.2701 -2.3817  0.5138
11951TIP3    H257269   2.254   2.726   4.509 -0.6979 -0.0330 -1.4991
11952TIP3   OH257270   3.731   0.901   5.164 -0.6559  0.2796 -0.7843
11952TIP3    H157271   3.771   0.885   5.078  1.2932  0.1586  0.1005
11952TIP3    H257272   3.746   0.820   5.213 -0.0351  1.0362  0.3059
11953TIP3   OH257273   1.064   0.981  11.145  0.1154 -0.6470 -0.2780
11953TIP3    H157274   1.152   1.016  11.158 -0.1235  0.0932 -0.5896
11953TIP3    H257275   1.037   1.015  11.060 -0.7018 -0.3676  0.0791
11954TIP3   OH257276   6.015   3.628  10.910  0.3399 -0.1678 -0.0957
11954TIP3    H157277   6.089   3.680  10.876  0.6988  0.1725  1.1678
11954TIP3    H257278   6.003   3.559  10.844  1.7321 -0.1825 -0.3766
11955TIP3   OH257279   2.072   2.184   5.581  0.2055 -0.0172  0.6589
11955TIP3    H157280   2.158   2.163   5.546  0.2591 -0.4223  1.0211
11955TIP3    H257281   2.020   2.105   5.563 -0.5083  0.7623 -0.8856
11956TIP3   OH257282   5.628   4.360  15.013 -0.0381 -0.4012 -0.0446
11956TIP3    H157283   5.567   4.294  14.981 -0.0997  0.5215 -1.9594
11956TIP3    H257284   5.714   4.331  14.981 -0.0401  0.3258 -0.7348
11957TIP3   OH257285   6.125   0.559  10.550  0.4726 -0.2379  0.5114
11957TIP3    H157286   6.162   0.483  10.505  1.3559  0.6702 -0.3493
11957TIP3    H257287   6.187   0.629  10.532 -1.3613  1.2126 -0.4829
11958TIP3   OH257288   0.719   6.453  13.023  0.6225  0.5658  0.4672
11958TIP3    H157289   0.712   6.410  13.108 -0.5843  2.0491  1.1698
11958TIP3    H257290   0.813   6.458  13.006  0.8322 -1.6949  0.6421
11959TIP3   OH257291   0.906   5.519  14.865 -0.1363  0.0188  0.1671
11959TIP3    H157292   0.944   5.602  14.893 -0.1135 -0.3389  1.2522
11959TIP3    H257293   0.964   5.452  14.902 -1.3926 -0.5220  1.2602
11960TIP3   OH257294   5.500   2.832   0.415  0.6468  0.0739 -0.5200
11960TIP3    H157295   5.594   2.825   0.435  0.7041 -0.2711 -0.8862
11960TIP3    H257296   5.467   2.895   0.478  0.4096 -2.3686  2.0174
11961TIP3   OH257297   3.574   1.392   4.805 -0.5607 -0.3049 -0.0054
11961TIP3    H157298   3.522   1.327   4.853 -0.2190  0.2964  1.2257
11961TIP3    H257299   3.524   1.473   4.811 -0.1724 -0.0576 -0.0549
11962TIP3   OH257300   2.145   2.132   0.730 -0.2109  0.1602  0.2338
11962TIP3    H157301   2.188   2.157   0.648  2.5045  0.1795  1.5606
11962TIP3    H257302   2.115   2.043   0.714  0.6919 -0.0112 -0.6520
11963TIP3   OH257303   4.729   6.233  14.348  0.2236  0.1490 -0.9942
11963TIP3    H157304   4.652   6.226  14.404 -0.6004 -0.3914 -2.1733
11963TIP3    H257305   4.712   6.308  14.292  1.1072  0.7730 -0.4541
11964TIP3   OH257306   1.092   5.455   3.511  0.4226  0.3197 -0.1997
11964TIP3    H157307   1.059   5.371   3.482  0.1733  0.1305  0.5951
11964TIP3    H257308   1.182   5.438   3.538  0.1335  0.1296  0.6833
11965TIP3   OH257309   2.520   0.837  16.967 -0.6813  0.0212 -0.1059
11965TIP3    H157310   2.524   0.893  16.889 -0.3803  0.1493  0.0022
11965TIP3    H257311   2.486   0.893  17.036  0.4377  0.3308  0.2200
11966TIP3   OH257312   1.812   0.855  11.421  0.1154 -0.1617 -0.5008
11966TIP3    H157313   1.728   0.812  11.406  0.9883 -1.6971 -1.2611
11966TIP3    H257314   1.847   0.871  11.333  1.0640 -0.5016 -0.2000
11967TIP3   OH257315   5.515   2.267  11.610 -0.2552  0.2628  0.1585
11967TIP3    H157316   5.549   2.232  11.528  0.6672  0.3738  0.4779
11967TIP3    H257317   5.498   2.360  11.592 -1.5224 -0.0455 -0.3340
11968TIP3   OH257318   1.640   4.293   5.234  0.2655 -0.3055 -0.2664
11968TIP3    H157319   1.720   4.242   5.244 -0.5215 -1.6039 -0.2945
11968TIP3    H257320   1.665   4.368   5.182  1.5823 -0.3878  0.2202
11969TIP3   OH257321   6.728   3.124   1.440  0.0575  0.8735  0.2392
11969TIP3    H157322   6.649   3.097   1.394 -0.6050 -0.4724  2.0367
11969TIP3    H257323   6.722   3.219   1.446  0.7153  1.2754 -3.2626
11970TIP3   OH257324   2.706   6.401   0.454 -0.1033 -0.3218  0.4078
11970TIP3    H157325   2.778   6.445   0.409 -1.1326 -1.2960 -2.3855
11970TIP3    H257326   2.702   6.444   0.540  1.9733  1.6668 -0.3807
11971TIP3   OH257327   2.726   5.289   4.282  0.3578  0.4611  0.7642
11971TIP3    H157328   2.812   5.287   4.240  0.3779  0.5313  0.8011
11971TIP3    H257329   2.734   5.229   4.356  0.8828  1.6449  1.7245
11972TIP3   OH257330   6.163   0.508   2.245 -0.7411  0.2315  0.5078
11972TIP3    H157331   6.107   0.430   2.240  1.8214 -1.6944  0.0416
11972TIP3    H257332   6.218   0.493   2.321  1.5962  0.2275 -1.0897
11973TIP3   OH257333   6.086   5.547   6.137 -0.2393  0.3975  0.3592
11973TIP3    H157334   6.110   5.454   6.127  0.1111  0.3968  1.1007
11973TIP3    H257335   6.110   5.567   6.227 -1.3081  0.9317  0.5287
11974TIP3   OH257336   5.280   1.623   2.849 -0.1878  0.7545 -0.0022
11974TIP3    H157337   5.251   1.706   2.813 -0.0847  0.8552  0.1414
11974TIP3    H257338   5.330   1.647   2.928  1.4839  0.6922 -0.9821
11975TIP3   OH257339   0.520   1.576  15.989 -0.3428 -0.6483 -0.0418
11975TIP3    H157340   0.565   1.535  16.062 -0.0711 -1.0493 -0.4290
11975TIP3    H257341   0.550   1.666  15.989 -0.5499 -0.5744  0.5016
11976TIP3   OH257342   4.505   3.788  13.716  0.1232 -0.0608  0.2805
11976TIP3    H157343   4.461   3.821  13.638 -0.6819 -0.9824  0.3404
11976TIP3    H257344   4.578   3.736  13.682  1.1251  1.3476  0.1817
11977TIP3   OH257345   2.099   4.240   5.719 -0.6332 -0.3645 -0.8517
11977TIP3    H157346   2.186   4.200   5.724 -0.1008  0.4786 -2.5542
11977TIP3    H257347   2.059   4.220   5.804  0.6324 -2.0757 -0.5952
11978TIP3   OH257348   6.013   3.101   2.991  0.7609  0.2943  0.1216
11978TIP3    H157349   6.069   3.171   2.956 -0.1049  0.5405 -0.7940
11978TIP3    H257350   5.993   3.046   2.916  1.3842 -0.9411  0.8160
11979TIP3   OH257351   2.080   6.596   4.824 -0.2506  0.1129  0.1645
11979TIP3    H157352   2.136   6.527   4.860 -0.5857 -0.1844  0.1297
11979TIP3    H257353   2.109   6.606   4.734  1.2156  1.5099  0.7494
11980TIP3   OH257354   0.097   3.418   6.180 -0.0818 -0.7196 -0.0773
11980TIP3    H157355   0.151   3.491   6.150  0.8930 -1.1308  0.6466
11980TIP3    H257356   0.028   3.459   6.233  0.4339 -0.3172  0.2906
11981TIP3   OH257357   0.956   3.774   5.995  0.1104  0.6876  0.0344
11981TIP3    H157358   0.958   3.755   5.901 -0.2712  0.2903  0.1012
11981TIP3    H257359   1.021   3.715   6.033 -0.0905  0.4909  0.0767
11982TIP3   OH257360   4.863   5.779   1.492  0.0479 -0.5437  0.2000
11982TIP3    H157361   4.814   5.831   1.557  0.5514  0.5607 -0.2734
11982TIP3    H257362   4.944   5.756   1.537  0.6234  0.6596 -0.1788
11983TIP3   OH257363   5.515   4.495  13.326  0.4206  0.3840 -0.3050
11983TIP3    H157364   5.464   4.441  13.386 -1.3650  0.9799 -1.2001
11983TIP3    H257365   5.509   4.450  13.242 -0.0072  1.2990 -0.7779
11984TIP3   OH257366   2.699   1.122   4.433  0.4125 -0.2569  0.0757
11984TIP3    H157367   2.623   1.157   4.479  1.1498  0.1566  1.0184
11984TIP3    H257368   2.732   1.052   4.491 -0.6305 -2.0971 -1.4470
11985TIP3   OH257369   3.476   1.315   2.603 -0.2392  0.1564 -0.1662
11985TIP3    H157370   3.432   1.308   2.688  0.7546 -2.2698  0.2181
11985TIP3    H257371   3.569   1.313   2.623  0.0831 -3.2976 -1.3496
11986TIP3   OH257372   4.807   1.973  16.444 -0.1631 -0.3703 -0.4004
11986TIP3    H157373   4.755   2.053  16.440  0.0237 -0.0925  1.6775
11986TIP3    H257374   4.793   1.939  16.532  1.2980 -1.5860 -0.5858
11987TIP3   OH257375   5.080   3.352  13.600  0.4223 -0.2388  0.0364
11987TIP3    H157376   5.090   3.350  13.696  0.1857 -0.1543  0.0614
11987TIP3    H257377   4.994   3.313  13.584 -0.4284  1.5955 -0.0132
11988TIP3   OH257378   3.322   5.790   1.486  0.3170 -0.1800  0.4515
11988TIP3    H157379   3.409   5.821   1.461  0.2079  0.2594  0.6105
11988TIP3    H257380   3.335   5.698   1.510  0.7399 -0.1079  0.4981
11989TIP3   OH257381   2.045   3.058  11.176 -0.4287  1.1776  0.2184
11989TIP3    H157382   2.128   3.032  11.138 -0.5419  0.2394  0.5778
11989TIP3    H257383   2.066   3.132  11.233 -0.1137  1.9775 -0.9053
11990TIP3   OH257384   2.641   4.485   0.901  0.3574 -1.1076 -0.1015
11990TIP3    H157385   2.678   4.419   0.959  0.9785  0.2419  1.1091
11990TIP3    H257386   2.550   4.458   0.889 -0.3394 -0.5245  2.9887
11991TIP3   OH257387   3.270   6.706  11.610  0.2912 -0.5641 -0.3510
11991TIP3    H157388   3.354   6.669  11.582  0.5154  0.7822 -1.5935
11991TIP3    H257389   3.244   6.654  11.686  2.8030 -0.3110  0.7676
11992TIP3   OH257390   3.667   5.100  12.650  0.0061  0.3082 -0.0598
11992TIP3    H157391   3.598   5.101  12.584 -0.5686 -2.9407  0.3218
11992TIP3    H257392   3.740   5.148  12.610 -1.8105  2.3404 -1.1441
11993TIP3   OH257393   3.819   3.579   6.303 -0.0489 -0.1850  0.6799
11993TIP3    H157394   3.848   3.626   6.225  4.0825 -1.0078  1.4747
11993TIP3    H257395   3.812   3.646   6.371  2.2709 -0.1328  0.9415
11994TIP3   OH257396   0.075   5.788  16.043 -0.0531  0.4080 -0.5718
11994TIP3    H157397   0.053   5.809  15.953 -0.1592 -2.2551 -1.2426
11994TIP3    H257398   0.006   5.829  16.095 -0.0325  1.9103 -1.6656
11995TIP3   OH257399   6.052   2.566  14.174  0.5175  0.4633  0.5895
11995TIP3    H157400   6.143   2.554  14.201  0.2917 -1.9283  0.5329
11995TIP3    H257401   6.024   2.479  14.144 -1.0500  1.6522 -1.7806
11996TIP3   OH257402   6.125   1.440   0.060 -0.6179 -0.0370  1.1358
11996TIP3    H157403   6.041   1.438   0.015  1.1974 -1.6827 -2.5892
11996TIP3    H257404   6.129   1.357   0.108  0.1619 -1.6866 -1.5891
11997TIP3   OH257405   0.851   3.830   2.207  0.0576  0.1005  0.3292
11997TIP3    H157406   0.920   3.836   2.140 -0.5670 -1.0325 -0.4465
11997TIP3    H257407   0.823   3.921   2.219 -0.9373  0.2202 -2.1859
11998TIP3   OH257408   4.477   0.518  10.847  0.5751  0.4756 -0.3817
11998TIP3    H157409   4.555   0.554  10.805  0.6175  1.7530  0.6856
11998TIP3    H257410   4.510   0.481  10.930  0.4685 -1.7897 -1.2964
11999TIP3   OH257411   0.054   5.522   3.165  0.5269 -0.2140 -0.7228
11999TIP3    H157412   0.117   5.462   3.203 -0.1823 -0.1256  0.6355
11999TIP3    H257413   0.090   5.543   3.079  2.4283 -0.0083  0.0910
12000TIP3   OH257414   4.059   3.503  12.458 -0.1881 -0.0092 -0.0194
12000TIP3    H157415   4.035   3.491  12.550 -2.0022  1.8394 -0.1877
12000TIP3    H257416   3.996   3.450  12.410 -1.0582  1.2249 -0.2804
12001TIP3   OH257417   0.369   5.552  14.726  0.3398  0.0726 -0.4159
12001TIP3    H157418   0.403   5.463  14.723  0.2969 -0.1539  2.8492
12001TIP3    H257419   0.308   5.552  14.800 -0.4365  2.5872 -0.9662
12002TIP3   OH257420   1.748   2.212  11.402 -0.5169  0.8229 -1.2271
12002TIP3    H157421   1.662   2.171  11.404  1.1761 -3.4700  2.2333
12002TIP3    H257422   1.804   2.147  11.358  1.6377  1.4643  0.3902
12003TIP3   OH257423   6.654   1.104  15.815 -0.2828  0.4170  0.1106
12003TIP3    H157424   6.744   1.098  15.785  0.2614  0.5849  1.6431
12003TIP3    H257425   6.608   1.147  15.743  0.8226  0.2068 -0.7443
12004TIP3   OH257426   1.267   6.290   2.299 -0.1231 -0.2882 -0.0959
12004TIP3    H157427   1.290   6.346   2.373  2.5599  0.8260 -1.5800
12004TIP3    H257428   1.323   6.213   2.309 -1.0904 -0.9973 -0.0259
12005TIP3   OH257429   4.421   3.856  15.658  1.1545 -0.4826  0.3249
12005TIP3    H157430   4.348   3.794  15.660 -0.1471  0.9659 -0.1772
12005TIP3    H257431   4.464   3.839  15.574  0.3944 -0.2906 -0.1202
12006TIP3   OH257432   3.126   4.140   1.563 -0.0357 -0.2844  0.6537
12006TIP3    H157433   3.051   4.149   1.623 -0.8402 -2.1303  0.0215
12006TIP3    H257434   3.148   4.229   1.538  0.0990  0.5498  3.3857
12007TIP3   OH257435   0.362   3.309   2.598 -0.0857 -0.0402  0.6853
12007TIP3    H157436   0.417   3.234   2.622  0.0623  0.3444  1.5684
12007TIP3    H257437   0.275   3.271   2.582  0.1628 -0.4951  0.3910
12008TIP3   OH257438   0.170   2.540   6.087 -0.7264 -0.4223 -0.2417
12008TIP3    H157439   0.253   2.501   6.115 -0.2513  0.2909 -0.6324
12008TIP3    H257440   0.137   2.481   6.021 -0.6287 -0.8168  0.0580
12009TIP3   OH257441   0.574   2.902   4.616  0.0086  0.0430  0.1847
12009TIP3    H157442   0.609   2.973   4.671  0.0368 -0.6332  1.0620
12009TIP3    H257443   0.479   2.911   4.624  0.0055  0.2792 -0.1009
12010TIP3   OH257444   5.873   5.034  11.779  0.2618 -0.4761  0.0540
12010TIP3    H157445   5.951   4.984  11.757  0.4518 -0.2954  0.3082
12010TIP3    H257446   5.895   5.124  11.755  0.3147 -0.3467  0.5866
12011TIP3   OH257447   2.986   3.128   3.248  0.2661  0.2615 -0.2558
12011TIP3    H157448   2.949   3.205   3.290  0.5273  1.5136 -2.2148
12011TIP3    H257449   2.933   3.115   3.170  1.9678  0.2203 -1.4682
12012TIP3   OH257450   0.006   2.107  14.590  0.0109 -0.0402 -0.5128
12012TIP3    H157451   0.000   2.012  14.583  0.3314 -0.1161  0.1940
12012TIP3    H257452  -0.038   2.127  14.673  2.2559  0.1715  0.6829
12013TIP3   OH257453   2.665   2.002   4.799 -0.3842 -0.8207 -0.6065
12013TIP3    H157454   2.759   2.008   4.787 -0.5087 -0.0590 -1.2797
12013TIP3    H257455   2.653   1.933   4.864  0.8216  1.1698  1.9043
12014TIP3   OH257456   4.640   5.837  17.125  0.1850 -0.0246 -0.3071
12014TIP3    H157457   4.546   5.824  17.130  0.3745 -1.1984  0.5252
12014TIP3    H257458   4.674   5.756  17.088  0.8875  0.3543 -0.5215
12015TIP3   OH257459   6.289   0.196  11.895  0.1375 -0.2695 -0.0889
12015TIP3    H157460   6.361   0.193  11.832 -0.7733  0.5791 -1.2131
12015TIP3    H257461   6.211   0.208  11.841 -0.7295  0.0015  1.1870
12016TIP3   OH257462   4.426   1.231   2.665 -0.1698 -0.6502  0.1152
12016TIP3    H157463   4.338   1.201   2.687 -0.0761 -2.4632 -1.6754
12016TIP3    H257464   4.432   1.220   2.570  0.9796  2.3459 -0.2781
12017TIP3   OH257465   6.190   4.074   1.782 -0.2360  0.1778 -0.4892
12017TIP3    H157466   6.250   4.134   1.826  0.0407 -0.7862  0.5033
12017TIP3    H257467   6.199   3.992   1.830 -1.0316 -0.4982 -1.4517
12018TIP3   OH257468   2.227   5.536   0.641  0.0725  0.0605 -0.1456
12018TIP3    H157469   2.266   5.607   0.691  1.1965  0.2563 -1.2563
12018TIP3    H257470   2.297   5.504   0.585 -1.3131  0.3343 -2.1374
12019TIP3   OH257471   2.238   1.168  15.100  0.0273  0.5297  0.2565
12019TIP3    H157472   2.203   1.137  15.016  1.1630 -0.6544  0.1893
12019TIP3    H257473   2.171   1.141  15.164  0.0583 -0.3193 -0.0517
12020TIP3   OH257474   3.877   6.659   2.814 -0.2208 -0.5711  0.6250
12020TIP3    H157475   3.901   6.729   2.874 -2.4496 -0.1235  1.0745
12020TIP3    H257476   3.826   6.598   2.868 -3.3082  0.4201 -0.9337
12021TIP3   OH257477   4.231   1.390   6.382  0.1536 -0.0419  0.2378
12021TIP3    H157478   4.168   1.432   6.440  1.3831  1.0054  0.8804
12021TIP3    H257479   4.272   1.322   6.436  0.4921  0.1645  0.2466
12022TIP3   OH257480   3.625   0.101  11.777  0.0215 -0.1595  0.4407
12022TIP3    H157481   3.590   0.012  11.779 -2.0885  0.6312  1.1473
12022TIP3    H257482   3.640   0.119  11.684 -0.6144 -0.8658  0.1919
12023TIP3   OH257483   3.845   3.163   7.196 -0.1380 -0.1216 -0.3122
12023TIP3    H157484   3.913   3.195   7.137 -0.9997  0.8947 -0.7861
12023TIP3    H257485   3.817   3.240   7.244 -0.0343 -0.7894  0.8467
12024TIP3   OH257486   5.701   0.565  14.790  0.4907  0.3173  0.2922
12024TIP3    H157487   5.619   0.519  14.807  1.3228 -0.5937  2.1360
12024TIP3    H257488   5.720   0.613  14.870  1.4708  0.9895 -0.3120
12025TIP3   OH257489   4.085   0.036   3.081 -0.0228  0.0601 -1.1307
12025TIP3    H157490   4.051  -0.053   3.071 -0.9354  0.4220 -1.3590
12025TIP3    H257491   4.042   0.086   3.012 -0.5232  0.9621 -0.2028
12026TIP3   OH257492   1.864   4.734  14.047 -0.2883  0.1537  0.3352
12026TIP3    H157493   1.934   4.669  14.056 -3.0533 -2.9709  1.8874
12026TIP3    H257494   1.788   4.682  14.021 -2.2284  3.2346 -0.5914
12027TIP3   OH257495   4.563   5.642  12.537  0.1149 -0.7667 -0.2032
12027TIP3    H157496   4.608   5.714  12.581 -0.3804 -0.2693 -0.5014
12027TIP3    H257497   4.631   5.577  12.520  0.5288 -0.4526  0.2406
12028TIP3   OH257498   6.175   5.531   2.128 -0.4604  0.4849 -0.0897
12028TIP3    H157499   6.132   5.497   2.049  0.2289  0.6287 -0.5325
12028TIP3    H257500   6.226   5.457   2.161  1.1557  1.0940 -1.1347
12029TIP3   OH257501   1.648   1.414  16.011 -0.0217  0.3012 -0.0205
12029TIP3    H157502   1.699   1.456  16.080  0.2241  0.7263 -0.4492
12029TIP3    H257503   1.677   1.323  16.012 -0.9677 -0.0172  1.2931
12030TIP3   OH257504   5.740   4.741   4.552 -0.0181  0.0813  0.5538
12030TIP3    H157505   5.721   4.651   4.578  0.2674  0.6432  2.9368
12030TIP3    H257506   5.821   4.763   4.597  0.2343  1.3754 -0.4514
12031TIP3   OH257507   4.611   0.146   5.650 -0.0198  0.8964  0.0331
12031TIP3    H157508   4.591   0.055   5.673  0.3907  0.9757  0.7225
12031TIP3    H257509   4.616   0.191   5.734  1.3446  1.2340 -0.2174
12032TIP3   OH257510   5.553   4.843  14.698  1.0308  0.4069 -0.7151
12032TIP3    H157511   5.501   4.828  14.777  0.8734 -2.4760 -1.2723
12032TIP3    H257512   5.641   4.862  14.731  0.6508  0.7259  0.1549
12033TIP3   OH257513   1.784   1.174   4.878 -0.0810  0.0406 -0.3668
12033TIP3    H157514   1.704   1.122   4.867 -0.5463  0.5831  0.3220
12033TIP3    H257515   1.819   1.184   4.789 -0.2479 -1.0134 -0.5645
12034TIP3   OH257516   4.285   5.548  13.392 -0.4101  0.1728 -0.1780
12034TIP3    H157517   4.294   5.469  13.339 -1.4910 -0.4468  0.5120
12034TIP3    H257518   4.287   5.620  13.329  0.0229 -0.4429 -0.8741
12035TIP3   OH257519   6.649   0.067   2.330 -0.1110 -0.2900  0.6171
12035TIP3    H157520   6.671   0.042   2.419 -0.9184  1.8239  1.4836
12035TIP3    H257521   6.553   0.068   2.328 -0.1037 -0.0592 -0.1882
12036TIP3   OH257522   2.435   3.328  13.632 -0.5823  0.2473 -0.0222
12036TIP3    H157523   2.458   3.421  13.632 -1.0211  0.4432 -2.6572
12036TIP3    H257524   2.343   3.326  13.607 -0.2556 -0.8978 -1.2698
12037TIP3   OH257525   6.483   3.697  12.510 -0.6496  0.5139 -0.6338
12037TIP3    H157526   6.486   3.776  12.455 -2.3038  0.1475 -1.3050
12037TIP3    H257527   6.406   3.708  12.565 -0.1568 -0.0625  0.2034
12038TIP3   OH257528   1.977   3.048  15.742 -0.1461  0.3354 -0.0899
12038TIP3    H157529   1.885   3.061  15.765  0.2538  3.1015  0.2913
12038TIP3    H257530   1.991   3.105  15.666  0.7116 -1.9519 -1.7564
12039TIP3   OH257531   0.772   6.620  12.057 -0.3394 -0.9814  0.4276
12039TIP3    H157532   0.860   6.651  12.075 -0.7099 -0.5225  1.5183
12039TIP3    H257533   0.730   6.692  12.010  0.6107 -2.1580 -2.4370
12040TIP3   OH257534   3.840   3.390  17.068 -0.3213 -0.5899  0.5069
12040TIP3    H157535   3.873   3.307  17.033  1.4038 -0.6726  2.1206
12040TIP3    H257536   3.748   3.373  17.088 -0.6387 -1.3377 -1.3702
12041TIP3   OH257537   4.460   3.839  13.445 -0.5517  0.6217  0.3597
12041TIP3    H157538   4.407   3.851  13.366 -1.3159  0.6452  0.8653
12041TIP3    H257539   4.525   3.773  13.420 -0.7730  0.6408 -0.2901
12042TIP3   OH257540   5.307   4.235   5.798  0.0030 -0.2787  0.0079
12042TIP3    H157541   5.313   4.177   5.723  0.0113 -0.8890  0.4785
12042TIP3    H257542   5.218   4.270   5.794  0.0118 -0.2871 -0.2931
12043TIP3   OH257543   1.966   3.233  16.076 -0.1041 -0.5258  0.3690
12043TIP3    H157544   2.027   3.307  16.073 -1.7118  0.8325 -0.6955
12043TIP3    H257545   2.019   3.157  16.052  1.0914  0.6667 -0.9866
12044TIP3   OH257546   4.759   1.758   5.198  0.1886 -0.1908  0.3703
12044TIP3    H157547   4.841   1.710   5.185  1.2243  1.3970  0.6534
12044TIP3    H257548   4.759   1.779   5.292  0.5005  1.5538  0.0089
12045TIP3   OH257549   1.944   6.506  11.894  0.2136  0.2312  0.1441
12045TIP3    H157550   1.985   6.444  11.953 -2.3371 -0.5402  1.2606
12045TIP3    H257551   2.009   6.520  11.825  3.4169  1.3029  3.0772
12046TIP3   OH257552   6.769   1.645   4.700 -0.0329  0.0830 -0.0199
12046TIP3    H157553   6.711   1.607   4.634 -1.1040 -1.2949  1.6060
12046TIP3    H257554   6.761   1.585   4.775  0.9921  1.6539  1.4115
12047TIP3   OH257555   1.533   6.271  14.599 -0.5850  0.4075 -0.8121
12047TIP3    H157556   1.586   6.323  14.539  0.8050  1.7176  1.3792
12047TIP3    H257557   1.504   6.333  14.666 -1.0216 -1.1639  0.5398
12048TIP3   OH257558   5.012   1.456   0.581  0.0150  0.7232  0.4034
12048TIP3    H157559   5.067   1.401   0.525 -1.1324 -0.0731  0.0325
12048TIP3    H257560   5.024   1.545   0.546  1.3033  0.6296  0.5489
12049TIP3   OH257561   1.110   1.561   0.822  0.0311  0.3852 -0.0087
12049TIP3    H157562   1.116   1.642   0.772 -0.8117  0.5602  0.1567
12049TIP3    H257563   1.097   1.493   0.756  1.3656  0.2868 -0.1954
12050TIP3   OH257564   3.435   0.607   2.298  0.5285 -0.2948 -0.1017
12050TIP3    H157565   3.398   0.552   2.229  0.7596 -1.2760  0.5248
12050TIP3    H257566   3.501   0.660   2.253 -1.8155  1.8174 -1.3294
12051TIP3   OH257567   1.840   3.561   2.871  0.4060  0.4127  0.3980
12051TIP3    H157568   1.822   3.506   2.948 -0.0381 -0.2439 -0.1599
12051TIP3    H257569   1.880   3.501   2.808  0.4081  0.8554 -0.0291
12052TIP3   OH257570   1.076   1.120   0.959  1.0205 -0.1755 -0.4366
12052TIP3    H157571   1.070   1.035   0.916 -1.3720 -0.9028  1.0897
12052TIP3    H257572   1.063   1.100   1.052 -0.6654  1.9175 -0.1425
12053TIP3   OH257573   5.714   4.932   1.300 -0.5501  0.4001  0.2084
12053TIP3    H157574   5.647   4.973   1.245  0.2396  0.5383 -0.6634
12053TIP3    H257575   5.721   4.842   1.266  0.6593  0.7825 -0.6127
12054TIP3   OH257576   6.531   4.455   3.818 -0.2471 -0.0058  0.5171
12054TIP3    H157577   6.456   4.506   3.787  1.8463  2.7300 -0.4372
12054TIP3    H257578   6.602   4.519   3.825  2.1599 -2.5381  0.8551
12055TIP3   OH257579   4.844   6.659   5.387  0.1036 -0.4422  0.0630
12055TIP3    H157580   4.823   6.567   5.374 -1.1745  0.0408 -1.6026
12055TIP3    H257581   4.761   6.705   5.373  0.7957  0.9901  0.4775
12056TIP3   OH257582   1.297   4.751  14.384  0.5404 -0.1902 -0.0823
12056TIP3    H157583   1.216   4.793  14.412 -0.5974 -2.5698  0.4332
12056TIP3    H257584   1.329   4.806  14.313 -1.0439  1.2888  0.2718
12057TIP3   OH257585   6.672   1.731   5.518 -0.4128  0.5872 -0.7744
12057TIP3    H157586   6.764   1.743   5.493 -0.2447  0.0297 -0.4512
12057TIP3    H257587   6.628   1.705   5.437 -0.2076  0.4784 -0.8541
12058TIP3   OH257588   1.576   2.433   3.324  0.0636 -0.0859  0.1564
12058TIP3    H157589   1.509   2.435   3.392 -1.9259  0.7056 -1.7149
12058TIP3    H257590   1.646   2.490   3.358 -3.0492  4.6562 -0.3905
12059TIP3   OH257591   1.748   6.161  13.423  0.0879  0.4706  0.1336
12059TIP3    H157592   1.839   6.130  13.424  0.0443  0.2302 -1.5058
12059TIP3    H257593   1.696   6.081  13.416 -0.1609  0.6933 -0.6850
12060TIP3   OH257594   1.277   1.500  14.641 -0.0592 -0.7550  0.3804
12060TIP3    H157595   1.369   1.513  14.666 -0.4367  0.6446  1.1441
12060TIP3    H257596   1.249   1.423  14.690  0.6025 -0.9732  0.4214
12061TIP3   OH257597   1.616   5.130   6.346  0.0003  0.4511  0.6240
12061TIP3    H157598   1.696   5.109   6.298  0.9617  2.6023  1.1888
12061TIP3    H257599   1.641   5.125   6.438 -0.6953  0.5136  0.8211
12062TIP3   OH257600   5.814   4.849  15.221  0.0651  0.5568 -0.3725
12062TIP3    H157601   5.813   4.944  15.225 -0.3453  0.5293  0.2335
12062TIP3    H257602   5.723   4.824  15.204  0.1030  0.2644 -0.1643
12063TIP3   OH257603   6.373   0.190   0.863  0.2903  0.7838 -0.1174
12063TIP3    H157604   6.356   0.167   0.954  1.8436  0.9816  0.2433
12063TIP3    H257605   6.316   0.132   0.813  0.8122 -0.6976  0.9337
12064TIP3   OH257606   4.328   5.791  11.821  0.3455  0.4210  0.3056
12064TIP3    H157607   4.232   5.800  11.826  0.1671  0.2325 -1.8595
12064TIP3    H257608   4.359   5.875  11.790  0.8857  0.3970  0.7538
12065TIP3   OH257609   3.430   5.147   5.450 -0.1074  0.3653 -0.1037
12065TIP3    H157610   3.476   5.230   5.442  0.9578 -0.2242 -0.3150
12065TIP3    H257611   3.432   5.110   5.362 -0.5565  0.0954 -0.0055
12066TIP3   OH257612   6.617   5.428   5.263  0.2799  0.6268 -0.9592
12066TIP3    H157613   6.589   5.386   5.344 -1.6152  1.6470 -1.0147
12066TIP3    H257614   6.541   5.420   5.205  1.4081  0.3928 -2.4498
12067TIP3   OH257615   2.478   0.467  11.660  0.0012 -0.4329  0.4654
12067TIP3    H157616   2.473   0.524  11.583 -0.3349  0.6938  1.2981
12067TIP3    H257617   2.425   0.391  11.636  0.9615 -0.7183 -0.8964
12068TIP3   OH257618   3.330   4.737   4.816  0.0033 -0.0212 -0.6595
12068TIP3    H157619   3.380   4.667   4.774 -1.8677 -0.9239 -1.5412
12068TIP3    H257620   3.269   4.692   4.874  0.6178  1.0799  0.9255
12069TIP3   OH257621   0.077   6.026  14.992 -0.1366  0.2747  0.0588
12069TIP3    H157622   0.111   6.098  14.939 -0.1585  1.0279  1.0336
12069TIP3    H257623  -0.017   6.041  14.996 -0.1365  0.2262  0.2976
12070TIP3   OH257624   2.117   5.679   3.648 -0.0690 -0.1308  0.3884
12070TIP3    H157625   2.178   5.751   3.634  1.9490 -1.5161  1.4486
12070TIP3    H257626   2.076   5.698   3.732  0.4085 -0.1609  0.6324
12071TIP3   OH257627   6.576   6.016  16.391  0.3991 -0.3812  0.2210
12071TIP3    H157628   6.482   6.029  16.381  0.6642  2.1767  0.4226
12071TIP3    H257629   6.615   6.059  16.315  1.4042 -3.0383 -0.8958
12072TIP3   OH257630   2.734   4.149   0.559 -0.3909 -0.2010  0.0221
12072TIP3    H157631   2.747   4.068   0.609  0.1652 -0.7041 -0.9012
12072TIP3    H257632   2.808   4.205   0.585 -1.2505  0.3748  1.3141
12073TIP3   OH257633   3.105   5.729   0.550 -0.2512 -0.1947  0.4828
12073TIP3    H157634   3.047   5.780   0.493  1.5466  2.6944  1.0228
12073TIP3    H257635   3.189   5.729   0.504  0.5378 -0.1313  1.8886
12074TIP3   OH257636   5.673   3.776  11.428 -0.4489 -0.4540  0.0052
12074TIP3    H157637   5.746   3.715  11.420  0.8486  1.0785 -0.6599
12074TIP3    H257638   5.615   3.737  11.493  1.8043 -0.9623  1.8467
12075TIP3   OH257639   3.568   4.459   2.621  0.2091  0.7266 -0.1547
12075TIP3    H157640   3.574   4.484   2.528 -1.7714  2.4767  0.1052
12075TIP3    H257641   3.493   4.508   2.654  0.5932 -0.1925  2.3020
12076TIP3   OH257642   3.061   6.208  16.212 -0.4588  0.9248  0.6625
12076TIP3    H157643   3.071   6.113  16.207 -1.9985  0.8154 -1.2075
12076TIP3    H257644   3.151   6.241  16.210  0.0691 -0.4459  0.4061
12077TIP3   OH257645   3.642   4.061  12.110 -0.0199  0.5455  0.2837
12077TIP3    H157646   3.553   4.024  12.106 -0.6805  1.8955  1.5133
12077TIP3    H257647   3.644   4.109  12.193  2.4820 -0.9247  1.1750
12078TIP3   OH257648   2.091   6.458  16.314  0.4181 -0.4169  0.1859
12078TIP3    H157649   2.072   6.478  16.223 -2.4958 -0.4267  0.6954
12078TIP3    H257650   2.150   6.384  16.311 -0.5338 -1.1463 -1.7160
12079TIP3   OH257651   2.338   2.881  12.293 -0.2990 -0.5624 -0.2594
12079TIP3    H157652   2.391   2.801  12.290 -0.9064 -0.9651 -0.4500
12079TIP3    H257653   2.270   2.862  12.357 -1.7570 -1.0304 -1.8803
12080TIP3   OH257654   6.391   5.022  15.047 -0.1064  0.0954 -0.4073
12080TIP3    H157655   6.383   5.042  14.954 -0.8343 -0.3979 -0.4643
12080TIP3    H257656   6.352   4.935  15.056  0.2361  0.0104  0.3100
12081TIP3   OH257657   2.769   3.837   1.741  0.6071 -0.2905  0.3593
12081TIP3    H157658   2.719   3.769   1.696 -0.8362  0.8974  0.0629
12081TIP3    H257659   2.791   3.900   1.672  2.6734 -0.8403  0.4683
12082TIP3   OH257660   2.736   0.293  13.491  0.2911  0.2680 -0.1537
12082TIP3    H157661   2.821   0.252  13.510  0.6006  0.6229 -0.7225
12082TIP3    H257662   2.672   0.225  13.510  0.8614 -0.9267 -2.1851
12083TIP3   OH257663   2.507   0.219  16.705  0.1254  0.4396 -0.2131
12083TIP3    H157664   2.477   0.257  16.622 -0.8261 -1.9187 -1.0488
12083TIP3    H257665   2.432   0.225  16.763  0.3998  0.9752  0.0973
12084TIP3   OH257666   2.255   3.823  15.069  0.0286  0.1642  0.0548
12084TIP3    H157667   2.292   3.834  14.982  1.0807 -1.2045  0.2954
12084TIP3    H257668   2.187   3.757  15.059 -0.7343  0.9326  0.0548
12085TIP3   OH257669   1.537   2.124  12.501  0.3574 -0.2786  0.4780
12085TIP3    H157670   1.460   2.091  12.547 -0.5456 -0.2808 -0.9722
12085TIP3    H257671   1.508   2.136  12.410 -0.1119  6.3002  1.0184
12086TIP3   OH257672   6.513   2.284  12.518  0.1668 -0.1706  0.2868
12086TIP3    H157673   6.509   2.320  12.429  0.0971 -2.0120 -0.5037
12086TIP3    H257674   6.445   2.218  12.520 -1.1964  1.1762  2.4076
12087TIP3   OH257675   5.276   0.944   0.037 -0.1329  0.0138 -0.4006
12087TIP3    H157676   5.288   0.850   0.054 -0.5481 -0.2763 -1.5878
12087TIP3    H257677   5.263   0.949  -0.058 -0.4058  1.2438 -0.3085
12088TIP3   OH257678   2.262   3.968   1.740 -0.6918  0.3071  0.2981
12088TIP3    H157679   2.213   3.953   1.821 -0.6692  2.4055  0.7709
12088TIP3    H257680   2.344   3.921   1.752 -1.5186 -1.1083  0.5977
12089TIP3   OH257681   5.372   3.732  10.279 -0.1290  0.0564  0.5041
12089TIP3    H157682   5.278   3.746  10.288 -0.6198 -2.4419  0.1349
12089TIP3    H257683   5.406   3.737  10.369 -0.6937  0.5258  0.6917
12090TIP3   OH257684   1.094   4.688   2.208  0.1547 -0.7943 -0.1601
12090TIP3    H157685   1.012   4.644   2.184  0.2082 -0.3623 -1.1942
12090TIP3    H257686   1.074   4.782   2.200  0.5051 -0.6635  0.4316
12091TIP3   OH257687   3.004   4.884  16.265 -0.0006 -0.5539 -0.3184
12091TIP3    H157688   3.085   4.895  16.215  0.1642  0.8445  0.2111
12091TIP3    H257689   2.953   4.821  16.214  1.3650 -1.3886 -0.7104
12092TIP3   OH257690   0.330   0.032   5.648 -0.5585  0.2610  0.8290
12092TIP3    H157691   0.377   0.059   5.569  0.9272 -1.0792  1.2059
12092TIP3    H257692   0.239   0.023   5.619 -0.4070  1.7003 -0.2294
12093TIP3   OH257693   4.906   0.287   5.613  0.0345 -0.1106 -0.2780
12093TIP3    H157694   4.920   0.295   5.518  0.6777 -2.6303 -0.4543
12093TIP3    H257695   4.831   0.228   5.622 -1.8243  2.2376  0.8413
12094TIP3   OH257696   1.900   4.695  16.557 -0.2004  0.1656  0.5359
12094TIP3    H157697   1.965   4.635  16.520  1.6535 -0.7079  4.6062
12094TIP3    H257698   1.817   4.649  16.547  0.1903 -0.1579 -1.9461
12095TIP3   OH257699   2.509   5.591  13.090 -0.2121  0.0267  0.0008
12095TIP3    H157700   2.556   5.548  13.019 -0.9728 -1.1664  0.1828
12095TIP3    H257701   2.499   5.523  13.157 -1.5326  0.4432  0.2711
12096TIP3   OH257702   2.603   1.229  17.036 -0.0981  0.3539  0.4592
12096TIP3    H157703   2.510   1.210  17.022  0.0307 -2.0043  2.2222
12096TIP3    H257704   2.648   1.149  17.010  1.5122  1.5536 -0.6013
12097TIP3   OH257705   1.305   3.556   0.227  0.3703  0.4028 -0.0471
12097TIP3    H157706   1.392   3.529   0.199  0.1996  0.2631 -0.4542
12097TIP3    H257707   1.256   3.474   0.234  0.5213  0.4027  1.0481
12098TIP3   OH257708   4.598   0.221  15.136 -0.4218  0.2415 -0.4687
12098TIP3    H157709   4.571   0.245  15.225 -0.7070  1.6351 -0.8991
12098TIP3    H257710   4.571   0.130  15.127  0.9824 -0.4241  1.3845
12099TIP3   OH257711   1.352   6.073  14.868  0.2807 -0.6571  0.3960
12099TIP3    H157712   1.416   6.011  14.833 -0.0409 -0.6841 -0.1461
12099TIP3    H257713   1.285   6.079  14.801  0.3233  0.3092  0.4312
12100TIP3   OH257714   5.663   3.771  13.096  0.0883  0.4945  0.0614
12100TIP3    H157715   5.583   3.776  13.148 -0.7311 -0.8877 -0.9883
12100TIP3    H257716   5.636   3.802  13.009  1.1632  1.7344  0.1309
12101TIP3   OH257717   6.069   0.530   4.728 -0.3760 -0.4052  0.1731
12101TIP3    H157718   6.135   0.565   4.668  0.1242 -0.6831  0.5508
12101TIP3    H257719   5.994   0.510   4.672  0.1819 -0.9281 -0.4032
12102TIP3   OH257720   3.197   0.841   0.692 -0.1165  0.1011 -0.7646
12102TIP3    H157721   3.238   0.906   0.636  1.2289 -0.2828 -0.2681
12102TIP3    H257722   3.110   0.876   0.710  1.1088  2.6144  0.8420
12103TIP3   OH257723   1.854   2.974   3.949 -0.0457 -0.3593 -0.1935
12103TIP3    H157724   1.800   3.007   4.021 -0.1847 -0.8170 -0.0889
12103TIP3    H257725   1.942   3.009   3.967  0.0053 -0.7822  0.4041
12104TIP3   OH257726   0.264   2.936   0.968 -0.0011 -0.0837  0.7399
12104TIP3    H157727   0.335   2.977   0.919 -0.7461  1.3690  0.8140
12104TIP3    H257728   0.266   2.979   1.053 -0.7955 -0.2278  0.8390
12105TIP3   OH257729   3.099   3.927   4.846 -0.0269  0.0280  0.9635
12105TIP3    H157730   3.126   3.954   4.758 -1.0278  0.6061  0.8316
12105TIP3    H257731   3.103   4.007   4.898  0.5992 -0.3213  1.4629
12106TIP3   OH257732   1.144   1.643  13.444  0.0407 -0.1783 -0.1667
12106TIP3    H157733   1.238   1.627  13.445  0.1234  0.3191 -0.0339
12106TIP3    H257734   1.131   1.706  13.373  0.0046  0.9893  0.8624
12107TIP3   OH257735   3.649   6.674  14.955 -0.5856  0.1181  0.1077
12107TIP3    H157736   3.596   6.667  14.876 -0.6140 -1.2360  0.2282
12107TIP3    H257737   3.622   6.757  14.995 -3.4059 -1.0321  0.7532
12108TIP3   OH257738   6.140   0.382  11.076 -0.2369  0.2393 -0.4248
12108TIP3    H157739   6.061   0.353  11.121 -0.1626  1.0896  0.2778
12108TIP3    H257740   6.182   0.301  11.047 -0.7182 -0.2897  0.3200
12109TIP3   OH257741   6.535   4.310  11.793  0.7149 -0.3554  0.3529
12109TIP3    H157742   6.571   4.396  11.770 -0.2886  0.3627  1.3673
12109TIP3    H257743   6.574   4.250  11.729  1.3379  0.8664 -0.4562
12110TIP3   OH257744   1.821   0.627   2.910 -0.0944 -0.5218 -0.8836
12110TIP3    H157745   1.821   0.699   2.972 -1.0770 -0.7746 -0.5737
12110TIP3    H257746   1.735   0.631   2.868 -0.3104 -1.7267 -0.5906
12111TIP3   OH257747   0.056   2.454   4.342 -0.4273  0.2973 -0.0833
12111TIP3    H157748   0.122   2.509   4.384  0.7960  0.8773 -2.5436
12111TIP3    H257749   0.103   2.372   4.322 -0.5588  0.5156 -1.3854
12112TIP3   OH257750   0.559   2.903  16.267  0.1532  0.3041  0.6875
12112TIP3    H157751   0.571   2.860  16.182  1.4131  1.4659  0.2419
12112TIP3    H257752   0.517   2.837  16.322  0.4473 -0.8875 -0.4755
12113TIP3   OH257753   2.897   3.235   5.196  0.1744 -0.2207  0.3562
12113TIP3    H157754   2.835   3.213   5.266  0.2401 -1.4509  0.0543
12113TIP3    H257755   2.983   3.225   5.237  0.2089 -0.7691  0.1615
12114TIP3   OH257756   4.626   4.641   2.788 -0.1168 -0.1558 -0.4500
12114TIP3    H157757   4.567   4.716   2.800 -0.7932 -0.5138 -1.4252
12114TIP3    H257758   4.597   4.578   2.854  1.6886  1.1148  1.7177
12115TIP3   OH257759   4.575   2.818   0.036 -0.3255  0.3377 -0.8162
12115TIP3    H157760   4.644   2.883   0.046 -0.5250  0.9322 -2.8447
12115TIP3    H257761   4.500   2.853   0.083  0.7190 -0.3698  1.5165
12116TIP3   OH257762   0.152   0.215   3.545  0.0567 -0.3539 -0.2056
12116TIP3    H157763   0.093   0.280   3.506  0.0654 -0.7728 -0.9454
12116TIP3    H257764   0.235   0.262   3.555 -0.4211  0.2638  0.9312
12117TIP3   OH257765   5.022   6.417   3.057 -0.4154  0.1098  0.5632
12117TIP3    H157766   4.941   6.454   3.092  1.4708  4.6505  0.8124
12117TIP3    H257767   5.080   6.409   3.133  0.5352  0.5259 -0.1021
12118TIP3   OH257768   5.906   2.632  16.246 -0.1076 -0.5207  0.7237
12118TIP3    H157769   5.819   2.617  16.281 -1.4262  1.2729 -1.4885
12118TIP3    H257770   5.920   2.726  16.254 -0.4725  0.0407 -3.0673
12119TIP3   OH257771   6.161   1.714  15.811  0.1131 -0.1737 -0.0907
12119TIP3    H157772   6.248   1.747  15.787  0.6032 -1.2934  0.0747
12119TIP3    H257773   6.168   1.696  15.905 -0.4126  0.0892 -0.0043
12120TIP3   OH257774   1.867   1.582  12.341 -0.1683 -0.5587 -0.0603
12120TIP3    H157775   1.848   1.515  12.275 -0.8254 -0.0732 -0.3771
12120TIP3    H257776   1.887   1.532  12.420 -0.0905 -1.1365 -0.4356
12121TIP3   OH257777   3.628   0.962  16.027 -0.3702 -0.4517 -0.1490
12121TIP3    H157778   3.625   0.978  15.933  1.3559 -0.0481 -0.1628
12121TIP3    H257779   3.536   0.963  16.054 -0.8154  1.4496 -1.4935
12122TIP3   OH257780   1.497   2.702  13.250  0.0675  0.2314  0.4001
12122TIP3    H157781   1.535   2.768  13.193  0.6435  0.1280  0.6503
12122TIP3    H257782   1.474   2.750  13.330  0.5706  0.1140  0.6161
12123TIP3   OH257783   5.444   6.760  12.392  0.0897  0.2225  0.2076
12123TIP3    H157784   5.376   6.820  12.423 -0.3747 -0.0022 -0.3579
12123TIP3    H257785   5.402   6.674  12.393 -0.1756  0.2910 -1.6568
12124TIP3   OH257786   1.424   3.628   1.508  0.7490  0.2215 -0.4351
12124TIP3    H157787   1.342   3.673   1.529  0.1605  0.2328 -2.4838
12124TIP3    H257788   1.410   3.538   1.535  0.1400  0.2712 -0.5734
12125TIP3   OH257789   6.693   1.786  14.832 -0.0950 -0.4113 -0.2617
12125TIP3    H157790   6.732   1.838  14.762  2.4652  1.7941  2.5512
12125TIP3    H257791   6.604   1.821  14.841  0.2388  0.6970 -1.0485
12126TIP3   OH257792   0.571   1.028   4.740 -0.3002  0.0693 -0.0244
12126TIP3    H157793   0.561   0.947   4.690 -1.5139 -0.4859  1.0629
12126TIP3    H257794   0.661   1.055   4.722  0.2373 -1.6635 -0.2018
12127TIP3   OH257795   5.645   3.187  12.962 -0.2119 -0.0840 -0.2079
12127TIP3    H157796   5.589   3.207  12.887  0.0482  0.1816 -0.3362
12127TIP3    H257797   5.719   3.247  12.953 -1.2661  1.5666  1.5051
12128TIP3   OH257798   3.886   0.116   5.013 -0.3196  0.2106 -0.5560
12128TIP3    H157799   3.818   0.155   5.068 -0.6253 -0.7464 -0.2444
12128TIP3    H257800   3.851   0.120   4.924 -0.6962 -0.0939 -0.4230
12129TIP3   OH257801   0.523   1.926   0.620 -0.0694 -0.3024  0.0983
12129TIP3    H157802   0.509   2.020   0.618  0.1238 -0.2351  1.0572
12129TIP3    H257803   0.484   1.898   0.704  1.3897 -0.8038  0.6509
12130TIP3   OH257804   2.906   3.105   2.694  0.0166  0.3716 -0.4871
12130TIP3    H157805   2.883   3.180   2.639 -0.0170  0.5947 -0.1764
12130TIP3    H257806   2.849   3.115   2.771 -0.5962 -0.4442 -0.8260
12131TIP3   OH257807   0.456   4.225   5.816  0.5116 -0.3047  0.3418
12131TIP3    H157808   0.450   4.219   5.912 -4.0229 -2.2313  0.2129
12131TIP3    H257809   0.453   4.134   5.786  0.5040  0.3070 -1.6424
12132TIP3   OH257810   1.060   5.929  15.178  0.0065 -0.1091 -0.8983
12132TIP3    H157811   0.966   5.919  15.192 -0.1351  0.2783 -1.5187
12132TIP3    H257812   1.100   5.869  15.241 -0.5769  1.1465  0.7466
12133TIP3   OH257813   3.211   3.070   3.408  0.4025 -0.2797  0.0356
12133TIP3    H157814   3.140   3.093   3.348 -0.6517 -0.6864  1.0864
12133TIP3    H257815   3.280   3.133   3.388 -0.1694 -0.0038 -1.1516
12134TIP3   OH257816   2.306   6.334  16.995  0.2454  0.1699  0.5012
12134TIP3    H157817   2.303   6.429  17.005  0.6963  0.1939  0.4655
12134TIP3    H257818   2.298   6.300  17.084  2.0854  0.3145  0.7699
12135TIP3   OH257819   2.553   5.210   1.311 -0.0099 -0.5497  0.1008
12135TIP3    H157820   2.561   5.199   1.217  0.4379 -1.3748  0.2248
12135TIP3    H257821   2.567   5.304   1.326  0.7760 -0.5543 -0.5667
12136TIP3   OH257822   5.100   5.595   5.962  0.1675  0.0336  0.0678
12136TIP3    H157823   5.164   5.611   5.894  0.4971  1.8092  0.7488
12136TIP3    H257824   5.144   5.620   6.043 -1.1283  0.5716  0.6271
12137TIP3   OH257825   6.101   4.989  11.669 -0.1457 -0.2579 -0.5153
12137TIP3    H157826   6.172   4.931  11.645 -0.7503 -0.9756 -0.5942
12137TIP3    H257827   6.052   5.003  11.587 -0.2359  0.0399 -0.4145
12138TIP3   OH257828   3.624   3.657  13.685 -0.2027 -0.1050 -0.2562
12138TIP3    H157829   3.678   3.681  13.761 -0.8295 -0.7805  0.4299
12138TIP3    H257830   3.541   3.628  13.724  0.2828 -2.7790 -1.0150
12139TIP3   OH257831   6.164   5.283   3.045  0.1903 -0.1611 -0.1836
12139TIP3    H157832   6.180   5.274   2.951 -1.4514  0.9474 -0.6075
12139TIP3    H257833   6.247   5.315   3.080  0.9287 -0.8999 -1.1866
12140TIP3   OH257834   0.834   4.970   4.377 -0.6920 -0.6247 -0.6461
12140TIP3    H157835   0.927   4.988   4.364 -0.5921  1.2964  1.8751
12140TIP3    H257836   0.832   4.908   4.451 -1.3784  0.4690  0.2971
12141TIP3   OH257837   3.730   5.960   1.166  0.4516 -0.1736  0.5572
12141TIP3    H157838   3.806   5.958   1.107 -1.4785 -1.1621 -2.0872
12141TIP3    H257839   3.724   6.051   1.195  1.9614  0.1556 -0.0765
12142TIP3   OH257840   5.992   0.786  17.176  0.0426  0.0239 -0.5386
12142TIP3    H157841   6.051   0.752  17.109 -0.9027  1.1826 -2.0305
12142TIP3    H257842   6.028   0.753  17.258  1.0788 -1.7008 -1.6122
12143TIP3   OH257843   4.486   0.254   4.621  0.6407  0.3461  0.1921
12143TIP3    H157844   4.394   0.225   4.621  0.4968  0.7966  0.3183
12143TIP3    H257845   4.483   0.343   4.657  1.2736 -0.0734  1.3361
12144TIP3   OH257846   1.267   2.438  16.984 -0.0948 -0.0312 -0.1518
12144TIP3    H157847   1.271   2.368  16.919 -0.6967  0.4880 -0.7614
12144TIP3    H257848   1.270   2.519  16.932 -0.8086  0.3899  0.4452
12145TIP3   OH257849   4.352   2.915  12.189  0.0838  0.0890 -0.0647
12145TIP3    H157850   4.345   3.004  12.223  1.4392  0.5206 -0.8134
12145TIP3    H257851   4.425   2.920  12.127  1.2020 -1.8833  0.9986
12146TIP3   OH257852   2.375   5.687  16.663 -0.7180  0.6090  0.4086
12146TIP3    H157853   2.359   5.773  16.624 -2.8566 -0.2577 -0.8092
12146TIP3    H257854   2.449   5.652  16.614 -2.4466  0.1396 -2.0848
12147TIP3   OH257855   1.980   4.369  14.736  0.2328  0.4472  0.1301
12147TIP3    H157856   1.896   4.333  14.761  0.3315 -0.1744 -0.4206
12147TIP3    H257857   2.002   4.326  14.653  0.6635  1.2718 -0.2056
12148TIP3   OH257858   4.635   6.047   1.366  0.4648  0.1392 -0.1935
12148TIP3    H157859   4.560   6.044   1.425 -1.3354  0.4417 -2.3203
12148TIP3    H257860   4.706   6.082   1.419 -0.7772 -0.5079  2.0141
12149TIP3   OH257861   5.643   1.706   6.405  0.3015 -0.0147 -0.4080
12149TIP3    H157862   5.547   1.714   6.406  0.1873 -1.2175  0.7740
12149TIP3    H257863   5.666   1.705   6.312 -1.0015 -1.4308 -0.7521
12150TIP3   OH257864   1.973   0.111  12.397  0.3494  0.3464 -0.1240
12150TIP3    H157865   2.021   0.165  12.459  0.6855  0.2480 -0.3010
12150TIP3    H257866   1.952   0.169  12.324 -1.6887  0.9919  0.8839
12151TIP3   OH257867   3.424   5.856   2.187 -0.0485  0.1833  0.5974
12151TIP3    H157868   3.367   5.859   2.110  1.2133 -1.6686 -0.4937
12151TIP3    H257869   3.502   5.808   2.158  1.9423  2.2516  2.1363
12152TIP3   OH257870   2.767   2.398  15.231  0.0164  0.3455  0.0588
12152TIP3    H157871   2.701   2.429  15.293  1.9178 -0.3638  2.6286
12152TIP3    H257872   2.821   2.474  15.212  1.3291 -0.0550  1.9121
12153TIP3   OH257873   0.008   6.769  17.181 -0.5050  0.0805  1.0086
12153TIP3    H157874  -0.041   6.845  17.211  2.6092  1.8297  2.1243
12153TIP3    H257875  -0.002   6.704  17.250 -1.1217  0.4450  1.2668
12154TIP3   OH257876   5.061   2.765   5.489 -0.1418 -0.0854  0.0220
12154TIP3    H157877   4.994   2.743   5.424 -0.5217  2.5793 -0.6336
12154TIP3    H257878   5.139   2.783   5.437  0.2921 -0.4665  0.5368
12155TIP3   OH257879   3.089   2.845   2.490  0.1372  0.1557 -0.7289
12155TIP3    H157880   3.081   2.751   2.473 -1.4389 -0.0619  0.9293
12155TIP3    H257881   3.002   2.881   2.474  0.0948  0.8973  0.9232
12156TIP3   OH257882   2.190   6.030   5.417 -0.1467  0.7200  0.0180
12156TIP3    H157883   2.177   6.123   5.399  2.5165  1.3532  1.0000
12156TIP3    H257884   2.214   6.026   5.510 -2.2119 -1.2145  0.5790
12157TIP3   OH257885   5.660   4.169  11.077 -0.3338  0.4060 -0.4837
12157TIP3    H157886   5.708   4.165  10.994  0.7425 -0.1314  0.1375
12157TIP3    H257887   5.661   4.261  11.101 -1.5715  0.7381 -1.5593
12158TIP3   OH257888   1.277   0.061   4.119  0.2213  0.4750  0.2176
12158TIP3    H157889   1.275   0.137   4.177 -0.6255  0.3133  0.4078
12158TIP3    H257890   1.205   0.074   4.058  0.1905 -0.0806  0.1251
12159TIP3   OH257891   1.673   0.227  11.374 -0.0674  0.3736 -0.4407
12159TIP3    H157892   1.613   0.267  11.438 -0.2090 -1.3699  0.6073
12159TIP3    H257893   1.616   0.197  11.304 -0.3555 -0.5024  0.1426
12160TIP3   OH257894   4.254   4.766   4.447 -0.1257 -0.3760  0.0157
12160TIP3    H157895   4.230   4.738   4.359 -0.7650  0.4136 -0.0725
12160TIP3    H257896   4.182   4.823   4.475  0.3840 -0.0899  0.7938
12161TIP3   OH257897   2.298   5.168   4.616  0.4412 -0.1191 -0.0099
12161TIP3    H157898   2.253   5.107   4.557 -0.8342  0.7347  0.0462
12161TIP3    H257899   2.304   5.120   4.699  0.2985 -0.5175 -0.2240
12162TIP3   OH257900   5.269   4.160   4.955 -0.3708  0.5286 -0.6684
12162TIP3    H157901   5.322   4.218   5.010 -0.0514 -0.3469 -0.0172
12162TIP3    H257902   5.333   4.101   4.914 -0.7437  0.1415 -0.7072
12163TIP3   OH257903   5.128   0.349  16.258 -0.0908 -0.5923  0.3611
12163TIP3    H157904   5.120   0.414  16.328  1.4502  0.2673 -0.2021
12163TIP3    H257905   5.188   0.389  16.195  0.0160 -2.1083 -0.5589
12164TIP3   OH257906   4.392   2.046   2.001  0.5885  0.2065  0.2995
12164TIP3    H157907   4.473   1.997   2.011  1.1434  1.2547  1.0815
12164TIP3    H257908   4.333   1.985   1.956  0.7644 -1.6976  2.4446
12165TIP3   OH257909   0.015   2.774  17.046 -0.6956 -0.3295  0.0069
12165TIP3    H157910   0.083   2.711  17.068  3.5267  3.4997 -0.5192
12165TIP3    H257911  -0.000   2.761  16.952 -0.9491 -1.3990  0.1870
12166TIP3   OH257912   1.609   0.890  14.752 -0.4246 -0.3512 -0.2203
12166TIP3    H157913   1.673   0.844  14.806  0.0047  1.1322  0.6021
12166TIP3    H257914   1.577   0.824  14.691  1.6102 -1.2429 -0.4171
12167TIP3   OH257915   0.727   5.285  13.931  0.0764 -0.3743 -0.3568
12167TIP3    H157916   0.741   5.377  13.956 -0.2677 -0.6032  0.7584
12167TIP3    H257917   0.769   5.276  13.846  2.1639  0.2371  0.5456
12168TIP3   OH257918   4.454   5.365   0.148 -0.5655  0.4677 -0.1064
12168TIP3    H157919   4.408   5.325   0.223  1.8811 -1.4789  0.5065
12168TIP3    H257920   4.448   5.299   0.079 -0.1473  0.9210 -0.5783
12169TIP3   OH257921   1.461   5.115  11.155 -0.4974  0.0352  0.2401
12169TIP3    H157922   1.556   5.106  11.149 -0.6384 -0.2829 -2.8868
12169TIP3    H257923   1.446   5.209  11.160 -0.0357  0.1999 -1.1128
12170TIP3   OH257924   5.441   0.927   3.757  0.5616 -0.1035 -0.3626
12170TIP3    H157925   5.407   0.864   3.693 -2.2431  0.3422  0.5548
12170TIP3    H257926   5.486   0.993   3.705  0.7701 -1.1823 -1.6015
12171TIP3   OH257927   3.654   4.946   3.951 -0.2135 -0.5543  0.2096
12171TIP3    H157928   3.732   4.938   3.896 -0.8549 -0.6038 -0.7043
12171TIP3    H257929   3.659   4.872   4.011  1.1877  0.2489  1.1274
12172TIP3   OH257930   0.762   2.508  14.695  0.7119 -0.1924 -0.3109
12172TIP3    H157931   0.800   2.593  14.715  2.0557 -0.4290 -1.6834
12172TIP3    H257932   0.779   2.454  14.773  1.8701  0.1514 -0.3157
12173TIP3   OH257933   5.144   6.067   1.588  0.1235  0.4856 -0.0286
12173TIP3    H157934   5.092   6.117   1.652  1.3594 -0.3961  1.7360
12173TIP3    H257935   5.092   5.988   1.572  0.3523  0.1629  0.8006
12174TIP3   OH257936   6.186   2.163  13.114 -0.3807  0.2339  0.1101
12174TIP3    H157937   6.125   2.220  13.066 -0.2731 -0.8511 -1.3727
12174TIP3    H257938   6.131   2.092  13.147 -0.3782  0.7509  1.2856
12175TIP3   OH257939   5.877   3.467  14.086 -0.2964 -0.3305 -0.4186
12175TIP3    H157940   5.803   3.432  14.037 -0.6044 -0.2930  0.0097
12175TIP3    H257941   5.855   3.449  14.178 -0.3182  0.7066 -0.2099
12176TIP3   OH257942   2.199   3.609   2.678 -0.1117 -0.2508 -0.1195
12176TIP3    H157943   2.148   3.528   2.678  0.4733 -0.6260 -0.3356
12176TIP3    H257944   2.174   3.653   2.597  1.4889 -1.4711 -1.3551
12177TIP3   OH257945   6.563   0.270  14.939  0.4417  0.3241  0.1179
12177TIP3    H157946   6.508   0.336  14.981  2.0301  2.0517 -0.3970
12177TIP3    H257947   6.604   0.316  14.865  0.2898 -1.7214 -1.3156
12178TIP3   OH257948   2.889   4.633   2.255 -0.2442  0.3393  0.4444
12178TIP3    H157949   2.915   4.651   2.346 -1.3019  2.6670  0.3736
12178TIP3    H257950   2.854   4.717   2.224  0.3035 -0.3398 -2.2029
12179TIP3   OH257951   0.840   5.318  12.930 -0.1723 -0.1439  0.2865
12179TIP3    H157952   0.816   5.364  12.850 -0.5618  1.0029  1.0429
12179TIP3    H257953   0.909   5.372  12.969  0.0979 -0.7547  0.6699
12180TIP3   OH257954   3.169   4.530   4.501  0.1323 -0.3029  0.2067
12180TIP3    H157955   3.104   4.506   4.435 -0.2439  0.9166  0.0987
12180TIP3    H257956   3.224   4.596   4.458  3.2192 -3.1757 -0.6524
12181TIP3   OH257957   5.453   0.676   4.661  0.3996 -0.4565 -0.5892
12181TIP3    H157958   5.448   0.700   4.754 -0.4608 -0.2926 -0.6726
12181TIP3    H257959   5.473   0.758   4.616 -0.9901 -0.1703 -0.7190
12182TIP3   OH257960   0.536   6.336  12.602  0.2448  0.3074  0.6299
12182TIP3    H157961   0.530   6.424  12.564 -0.8846 -0.9442 -2.3753
12182TIP3    H257962   0.614   6.297  12.561 -0.4979 -0.8025  0.2239
12183TIP3   OH257963   6.354   2.632   1.792  0.0805  0.3951 -0.4309
12183TIP3    H157964   6.391   2.639   1.704  1.3641  0.4106  0.0822
12183TIP3    H257965   6.415   2.575   1.839  1.1458  2.7271  1.2816
12184TIP3   OH257966   0.659   3.827  12.445 -0.1795 -0.1428 -0.9524
12184TIP3    H157967   0.722   3.796  12.380  0.4450 -1.7105  0.3288
12184TIP3    H257968   0.590   3.760  12.445 -1.9513  1.5559 -2.3491
12185TIP3   OH257969   0.181   0.743   0.711  0.4670 -0.4684 -0.0874
12185TIP3    H157970   0.235   0.692   0.650  0.9614 -0.3367  0.2356
12185TIP3    H257971   0.092   0.711   0.696  0.6455 -0.7677 -0.5463
12186TIP3   OH257972   4.428   5.071   0.916 -0.6414 -0.3029  0.2929
12186TIP3    H157973   4.434   5.166   0.905  0.3035 -0.4559 -0.5734
12186TIP3    H257974   4.337   5.056   0.943 -0.5650  0.9220  1.3591
12187TIP3   OH257975   1.232   4.833   0.929  0.3197 -0.2837 -0.1751
12187TIP3    H157976   1.257   4.827   0.837  0.0363  1.9270 -0.4684
12187TIP3    H257977   1.157   4.894   0.930 -1.3719 -2.2347  1.2701
12188TIP3   OH257978   6.405   0.066  11.306  0.1486 -0.9291 -0.2220
12188TIP3    H157979   6.428   0.138  11.248  0.0763  0.6825  1.6187
12188TIP3    H257980   6.488   0.036  11.342  0.2195 -2.0974 -1.2958
12189TIP3   OH257981   3.582   5.957  13.593 -0.0779  0.5642  0.3646
12189TIP3    H157982   3.516   5.888  13.599 -0.9677  1.4732  1.5005
12189TIP3    H257983   3.534   6.034  13.562  0.2825  1.4258  1.8478
12190TIP3   OH257984   5.646   0.841  12.480 -0.2164 -0.2520  0.4853
12190TIP3    H157985   5.698   0.841  12.400 -0.0309  0.8157  0.5949
12190TIP3    H257986   5.591   0.919  12.473 -0.4603 -0.3469  1.2318
12191TIP3   OH257987   6.383   3.323   5.935 -0.5887 -0.2589  0.4510
12191TIP3    H157988   6.418   3.303   6.022 -0.9203  1.5423  1.0435
12191TIP3    H257989   6.331   3.402   5.948 -0.7714 -0.0397 -1.3736
12192TIP3   OH257990   4.391   4.160  11.345  0.1702  0.3704 -0.1170
12192TIP3    H157991   4.448   4.088  11.317  2.0875  1.4185  0.8556
12192TIP3    H257992   4.445   4.211  11.406 -0.9908  2.7893 -0.9665
12193TIP3   OH257993   2.780   6.537  12.498 -0.3646 -0.3295 -0.6799
12193TIP3    H157994   2.706   6.537  12.438 -1.0254 -0.2093  0.1176
12193TIP3    H257995   2.763   6.610  12.558  0.4549 -0.2262 -0.5584
12194TIP3   OH257996   4.099   1.563  13.517  0.0845 -0.1484 -0.0603
12194TIP3    H157997   4.174   1.548  13.461 -1.0718 -1.4326 -1.3301
12194TIP3    H257998   4.077   1.656  13.504  0.6661 -0.0927 -0.6681
12195TIP3   OH257999   3.739   2.951   2.684 -0.1480  0.5818  0.2505
12195TIP3    H158000   3.786   3.030   2.711 -0.1308  0.4412  0.6360
12195TIP3    H258001   3.773   2.932   2.596  1.1667 -0.0054  0.8472
12196TIP3   OH258002   5.526   3.106  12.567  0.0238  0.3615 -0.0231
12196TIP3    H158003   5.550   3.093  12.475  1.9199  2.3479  0.0997
12196TIP3    H258004   5.590   3.054  12.616 -1.4321 -1.2873  0.2341
12197TIP3   OH258005   1.609   4.858   1.799 -0.0060  0.2815  0.2825
12197TIP3    H158006   1.670   4.851   1.725  0.0764  1.6775  0.1884
12197TIP3    H258007   1.560   4.938   1.781 -0.7064  0.0755  1.2260
12198TIP3   OH258008   1.743   4.417   4.770 -0.3044 -0.0897  0.6342
12198TIP3    H158009   1.698   4.397   4.852  1.8758  1.0872  2.2282
12198TIP3    H258010   1.827   4.455   4.798  0.2917  0.8365 -2.1567
12199TIP3   OH258011   0.969   6.676   2.906 -0.1008 -0.2194 -0.3424
12199TIP3    H158012   1.021   6.739   2.857 -0.9766  1.0338  0.2818
12199TIP3    H258013   0.982   6.701   2.998 -1.2177 -0.3295 -0.1434
12200TIP3   OH258014   0.345   1.126   0.960  0.2826 -0.6448 -0.2031
12200TIP3    H158015   0.288   1.196   0.927  0.0740 -0.2984  0.8536
12200TIP3    H258016   0.433   1.153   0.935  0.1027 -0.5489 -0.7474
12201TIP3   OH258017   5.679   1.283  14.452  0.1594 -0.8677  0.0562
12201TIP3    H158018   5.747   1.216  14.440  0.0990 -0.8384 -0.4493
12201TIP3    H258019   5.638   1.291  14.366 -0.5416 -0.9438  0.3809
12202TIP3   OH258020   1.439   4.304   2.482 -0.0979  0.1479  0.2211
12202TIP3    H158021   1.347   4.327   2.471  0.2759  0.6687 -2.2920
12202TIP3    H258022   1.486   4.388   2.482  0.3820 -0.0834  1.8628
12203TIP3   OH258023   2.805   6.676   6.000 -0.3947  0.3435 -0.1491
12203TIP3    H158024   2.754   6.620   6.058  1.1449 -1.1335 -0.1552
12203TIP3    H258025   2.740   6.726   5.951 -1.7649  0.6330  1.8470
12204TIP3   OH258026   3.831   6.599  11.693  0.1517  0.0626 -0.4895
12204TIP3    H158027   3.867   6.663  11.755  2.4110 -1.9785  0.5261
12204TIP3    H258028   3.770   6.547  11.745  0.3347 -0.2365 -0.5674
12205TIP3   OH258029   5.870   1.731   5.378  0.3526 -0.1008  0.8413
12205TIP3    H158030   5.880   1.635   5.380  0.7134 -0.0733  0.3294
12205TIP3    H258031   5.825   1.751   5.460 -1.8430 -0.9480 -0.0739
12206TIP3   OH258032   3.913   1.941   4.210 -0.5063 -0.8007  0.0591
12206TIP3    H158033   3.911   2.006   4.140 -2.3418 -0.3952  0.4504
12206TIP3    H258034   3.999   1.899   4.200 -0.4887 -0.3991 -2.0890
12207TIP3   OH258035   2.834   5.759   1.223 -0.1188 -0.2703  0.3883
12207TIP3    H158036   2.861   5.850   1.208  0.2486 -0.4190  0.1078
12207TIP3    H258037   2.752   5.750   1.174 -0.6379  0.1568  1.1561
12208TIP3   OH258038   4.870   2.377   4.430  0.4523  0.6088  0.4450
12208TIP3    H158039   4.781   2.396   4.459  0.1219 -0.9001  0.4876
12208TIP3    H258040   4.863   2.371   4.334  0.8970  2.2987  0.2677
12209TIP3   OH258041   1.550   0.105   0.534 -0.4786 -0.1676 -0.0504
12209TIP3    H158042   1.565   0.168   0.463 -0.0109  0.1605  0.3320
12209TIP3    H258043   1.506   0.031   0.492 -0.3016  0.0688 -0.6610
12210TIP3   OH258044   2.635   0.971  13.231 -0.3059 -0.4926  0.1204
12210TIP3    H158045   2.634   0.888  13.184 -1.0201 -0.5975  0.3051
12210TIP3    H258046   2.581   0.955  13.309 -1.6823  0.5449 -0.5693
12211TIP3   OH258047   6.593   5.352   5.534 -0.8190  0.1987 -0.5613
12211TIP3    H158048   6.677   5.391   5.508 -1.6009  1.0320 -1.9507
12211TIP3    H258049   6.587   5.369   5.628  0.8579 -0.4713 -0.2950
12212TIP3   OH258050   3.659   5.200  12.156  0.4028 -0.0864 -0.0092
12212TIP3    H158051   3.649   5.230  12.066  0.1572 -1.1938 -0.3653
12212TIP3    H258052   3.743   5.154  12.157  0.1074 -0.6340  0.1612
12213TIP3   OH258053   1.688   6.146   0.357 -0.8939  0.0635  0.8311
12213TIP3    H158054   1.712   6.056   0.380  0.6260  0.0335 -0.6629
12213TIP3    H258055   1.673   6.143   0.262  1.5048  1.7928  0.2997
12214TIP3   OH258056   2.533   0.012   4.031 -0.0453  0.1522  0.1143
12214TIP3    H158057   2.619  -0.011   4.065 -0.2616  0.8567  1.2149
12214TIP3    H258058   2.551   0.065   3.954  0.4797 -0.6551 -0.3298
12215TIP3   OH258059   1.613   3.067   3.394 -0.4018  0.1294  0.5610
12215TIP3    H158060   1.641   2.990   3.442  1.5335  1.5907  1.9455
12215TIP3    H258061   1.518   3.071   3.406 -0.6674 -2.3574 -0.1663
12216TIP3   OH258062   4.502   5.160   5.634  0.1104  0.3222 -0.8850
12216TIP3    H158063   4.466   5.231   5.687  2.1977  0.2344  0.7733
12216TIP3    H258064   4.592   5.150   5.664  0.9177 -0.8521 -3.3679
12217TIP3   OH258065   6.146   1.188   3.335 -0.5200 -0.4020  0.5215
12217TIP3    H158066   6.092   1.118   3.296 -0.2732 -0.1752 -0.2392
12217TIP3    H258067   6.089   1.265   3.335  0.2413  0.2254 -1.6503
12218TIP3   OH258068   5.025   1.247  15.388  0.2731 -0.1752 -0.0588
12218TIP3    H158069   4.960   1.314  15.366 -1.9166 -1.5316  1.7958
12218TIP3    H258070   5.008   1.226  15.480  1.9759 -2.1062 -0.1116
12219TIP3   OH258071   6.386   1.868  11.901 -0.0827 -0.2712 -0.3825
12219TIP3    H158072   6.322   1.905  11.962 -0.2647 -1.0004 -0.1203
12219TIP3    H258073   6.385   1.927  11.826  0.3862  0.8354  0.4544
12220TIP3   OH258074   2.682   4.040  11.239  0.1494  0.3725 -0.3111
12220TIP3    H158075   2.665   3.958  11.194  1.5074 -0.3511  0.4064
12220TIP3    H258076   2.622   4.103  11.200 -0.5335 -0.8344 -1.2558
12221TIP3   OH258077   0.617   2.329  14.542  0.1449  0.2571 -0.1439
12221TIP3    H158078   0.664   2.391  14.598  1.7612 -1.2345  0.2487
12221TIP3    H258079   0.570   2.384  14.479 -0.0881  1.9159  1.3924
12222TIP3   OH258080   3.267   2.361   2.096 -0.3313  0.1328  0.4259
12222TIP3    H158081   3.187   2.313   2.114 -0.0248 -0.5307  0.0727
12222TIP3    H258082   3.244   2.420   2.024 -0.5927  0.1818  0.5497
12223TIP3   OH258083   4.779   1.089  15.449 -0.0970  0.0648  0.1068
12223TIP3    H158084   4.780   1.177  15.410 -0.6364  0.2951  0.5929
12223TIP3    H258085   4.724   1.098  15.526  1.2043 -0.2927  1.1275
12224TIP3   OH258086   4.281   5.868   0.451  0.0444 -0.1849  0.6775
12224TIP3    H158087   4.355   5.822   0.490 -1.0335 -3.5217 -0.8691
12224TIP3    H258088   4.236   5.908   0.526  0.7315 -2.2030  2.2552
12225TIP3   OH258089   4.277   3.755   3.559  0.4426 -0.2547 -0.0645
12225TIP3    H158090   4.350   3.721   3.610  0.6142  0.2701  0.0365
12225TIP3    H258091   4.283   3.708   3.475  1.2824  0.2629 -0.2986
12226TIP3   OH258092   1.506   0.477   3.607  0.3761 -0.0594  0.6613
12226TIP3    H158093   1.577   0.432   3.653  1.8574  1.1511 -0.3309
12226TIP3    H258094   1.476   0.543   3.670 -0.3983 -1.0509  1.3564
12227TIP3   OH258095   5.222   5.809   5.523 -0.3274  0.1799 -0.3100
12227TIP3    H158096   5.204   5.798   5.617  1.5270  2.6008  0.4562
12227TIP3    H258097   5.191   5.897   5.503 -1.5913 -0.6504 -2.2829
12228TIP3   OH258098   0.124   0.798   4.038 -0.4460 -0.0845 -0.3817
12228TIP3    H158099   0.088   0.737   3.974  1.6949  0.1069 -1.8708
12228TIP3    H258100   0.215   0.770   4.050 -0.3847  0.7682  1.5078
12229TIP3   OH258101   5.520   2.634   4.445 -0.4473 -1.0274 -0.4317
12229TIP3    H158102   5.580   2.577   4.494  0.6510  0.5977  0.1867
12229TIP3    H258103   5.571   2.713   4.429 -1.1285 -1.0767 -3.3242
12230TIP3   OH258104   6.098   1.267   3.733  0.4604 -0.1501 -0.1855
12230TIP3    H158105   6.068   1.183   3.769 -0.5907  1.3726  2.7708
12230TIP3    H258106   6.040   1.283   3.658 -1.0523 -0.8681  0.7775
12231TIP3   OH258107   0.629   1.176  11.430  0.0061  0.3474  0.5723
12231TIP3    H158108   0.645   1.261  11.470 -0.0695  0.6220  0.0355
12231TIP3    H258109   0.681   1.178  11.349 -0.8486  0.3196  0.0096
12232TIP3   OH258110   3.608   4.882  14.050  0.0963 -0.0299 -0.0863
12232TIP3    H158111   3.665   4.945  14.095 -0.2085 -1.2029  2.0645
12232TIP3    H258112   3.555   4.935  13.991  0.0025  1.7341  1.4989
12233TIP3   OH258113   1.295   6.024   4.912 -0.0972  0.1492 -0.6991
12233TIP3    H158114   1.292   6.087   4.983 -2.9790 -3.1878  2.5259
12233TIP3    H258115   1.221   6.047   4.856 -2.0392 -1.0846  1.2674
12234TIP3   OH258116   1.496   5.033   2.898 -0.1119 -0.5409 -0.2301
12234TIP3    H158117   1.473   4.954   2.948  1.1505 -1.6779 -1.3446
12234TIP3    H258118   1.415   5.056   2.852 -0.2072 -1.9602 -0.8500
12235TIP3   OH258119   6.386   1.833  16.085  0.0272 -0.1365  0.5464
12235TIP3    H158120   6.308   1.803  16.132  0.1913  1.2248  1.7962
12235TIP3    H258121   6.428   1.754  16.053 -2.4282 -0.8438 -1.1230
12236TIP3   OH258122   3.257   6.598   6.072  0.1206  0.0607 -0.5060
12236TIP3    H158123   3.232   6.680   6.114 -1.2068 -0.5590 -0.0250
12236TIP3    H258124   3.349   6.586   6.095 -0.1903  0.4564  1.0419
12237TIP3   OH258125   5.874   2.245   4.489  0.0658 -0.4288 -0.0733
12237TIP3    H158126   5.945   2.190   4.524  0.0942 -1.3336 -1.4726
12237TIP3    H258127   5.834   2.192   4.420 -1.1408  0.5863 -0.1871
12238TIP3   OH258128   6.626   3.544   1.696  0.1443 -0.1080 -0.5335
12238TIP3    H158129   6.647   3.467   1.644 -0.8935 -1.6593  1.2424
12238TIP3    H258130   6.532   3.555   1.686 -0.0202 -0.2517  0.7520
12239TIP3   OH258131   2.968   5.557   4.821  0.5537 -0.4015 -0.1485
12239TIP3    H158132   2.924   5.477   4.793 -1.3963  0.9500 -1.2227
12239TIP3    H258133   2.897   5.619   4.838  1.9571  0.9029  1.4196
12240TIP3   OH258134   1.315   6.192   0.031 -0.1215  0.5542  0.3796
12240TIP3    H158135   1.360   6.234   0.104  0.3827  0.0628  0.3563
12240TIP3    H258136   1.234   6.243   0.021  1.0186  2.3055 -0.4503
12241TIP3   OH258137   6.348   6.549   6.672 -0.3020 -0.0549 -0.0648
12241TIP3    H158138   6.288   6.533   6.599 -0.3843  0.7764 -0.1974
12241TIP3    H258139   6.431   6.573   6.629 -0.2466  0.0776  0.1159
12242TIP3   OH258140   6.580   2.374   1.805 -0.4135  0.3823 -0.3910
12242TIP3    H158141   6.674   2.368   1.788  0.0729 -0.2589  2.1230
12242TIP3    H258142   6.539   2.349   1.722  1.5564  2.6542 -2.2060
12243TIP3   OH258143   2.250   6.611  15.843  0.0630 -0.0007 -0.8475
12243TIP3    H158144   2.286   6.565  15.767  0.7838 -0.6553 -0.1263
12243TIP3    H258145   2.325   6.654  15.884  0.0785 -1.4173  0.6978
12244TIP3   OH258146   0.586   4.040   3.799 -0.5219  0.1835 -0.6568
12244TIP3    H158147   0.494   4.037   3.771 -0.9458  1.4466  0.5114
12244TIP3    H258148   0.633   3.990   3.731 -2.2560 -1.9720 -0.3889
12245TIP3   OH258149   0.005   2.101  15.859 -0.1592  0.4329 -0.2327
12245TIP3    H158150  -0.010   2.014  15.823 -2.6819 -0.3860  2.3850
12245TIP3    H258151  -0.042   2.160  15.800  0.4725 -0.1168 -1.2981
12246TIP3   OH258152   2.804   4.771   0.349 -0.1390  0.7162  0.4611
12246TIP3    H158153   2.756   4.702   0.303  2.0706 -1.4904  1.2523
12246TIP3    H258154   2.877   4.792   0.291 -1.2284  3.1327 -0.1600
12247TIP3   OH258155   3.389   5.716  14.050 -0.1113 -0.6207 -0.1066
12247TIP3    H158156   3.302   5.717  14.010  0.3506 -0.6015 -1.1447
12247TIP3    H258157   3.404   5.625  14.073 -1.0868 -0.3801  1.6673
12248TIP3   OH258158   5.505   4.365   3.508 -0.4314 -0.3523 -0.3005
12248TIP3    H158159   5.481   4.434   3.445  0.0851 -0.7348 -0.9341
12248TIP3    H258160   5.540   4.294   3.453  0.0270 -0.6961  0.4224
12249TIP3   OH258161   4.643   6.543   2.204 -0.1935 -0.1833  0.0625
12249TIP3    H158162   4.627   6.634   2.179  0.2692  0.3645  1.6334
12249TIP3    H258163   4.738   6.531   2.191 -0.0952 -0.1468  0.7103
12250TIP3   OH258164   2.528   4.754   0.845  0.1222  0.2355 -0.5783
12250TIP3    H158165   2.559   4.667   0.869  0.1759  0.1830 -0.8321
12250TIP3    H258166   2.566   4.770   0.758  1.5081  1.1902  0.1512
12251TIP3   OH258167   5.171   2.749  11.618 -0.4856 -0.0569  0.1090
12251TIP3    H158168   5.089   2.699  11.619  0.7918 -2.3932 -1.5550
12251TIP3    H258169   5.167   2.799  11.537 -0.7869  0.8048  0.6510
12252TIP3   OH258170   6.034   2.586   6.442 -0.0764 -0.2656 -0.6012
12252TIP3    H158171   6.039   2.681   6.434  0.4413 -0.4356 -2.9357
12252TIP3    H258172   6.061   2.553   6.356 -1.6191 -2.4784 -0.3206
12253TIP3   OH258173   6.351   4.602  16.421  0.2385 -0.1510  0.1939
12253TIP3    H158174   6.360   4.579  16.329 -0.9544 -1.6411  0.4168
12253TIP3    H258175   6.390   4.689  16.428  0.5229 -0.0996 -1.6702
12254TIP3   OH258176   0.222   5.026   0.812 -0.4124  0.0454 -0.1594
12254TIP3    H158177   0.151   4.964   0.827 -0.6917  0.4912  0.3713
12254TIP3    H258178   0.197   5.105   0.860  0.3620  0.2660 -0.0955
12255TIP3   OH258179   2.747   4.978  12.935 -0.6591 -0.0530 -0.8638
12255TIP3    H158180   2.732   5.064  12.897 -0.7966  0.1629 -0.3242
12255TIP3    H258181   2.663   4.933  12.926 -1.0977  0.4788  0.4087
12256TIP3   OH258182   5.203   4.115  16.682 -0.1293 -0.0073 -0.3320
12256TIP3    H158183   5.213   4.206  16.656 -1.6592  0.0297 -0.8601
12256TIP3    H258184   5.277   4.070  16.641  0.5281  0.9499 -0.2281
12257TIP3   OH258185   0.812   1.644  15.485  0.4470  0.0864 -0.8121
12257TIP3    H158186   0.888   1.617  15.536 -0.6395  0.8176  1.3048
12257TIP3    H258187   0.757   1.566  15.479  1.2648 -0.4130 -2.2493
12258TIP3   OH258188   0.268   3.284  14.048 -0.2784  0.0453 -0.3127
12258TIP3    H158189   0.318   3.305  14.127 -0.3369 -0.6279 -0.0882
12258TIP3    H258190   0.196   3.229  14.079  0.2457 -1.0312 -0.9583
12259TIP3   OH258191   5.566   6.063   3.619 -0.1068  0.3193 -0.3802
12259TIP3    H158192   5.589   5.971   3.631  1.0751  0.7722  1.2983
12259TIP3    H258193   5.614   6.108   3.689 -1.3590  2.1064 -0.6133
12260TIP3   OH258194   5.749   5.982   5.775 -0.5043 -0.0358 -1.1260
12260TIP3    H158195   5.789   5.939   5.851  0.0719  1.7612 -0.3482
12260TIP3    H258196   5.819   6.038   5.741 -2.4938  4.2976  1.0863
12261TIP3   OH258197   2.818   5.577  14.456  0.2851 -0.0532 -0.2160
12261TIP3    H158198   2.732   5.538  14.442  0.3360 -0.0798 -0.4576
12261TIP3    H258199   2.835   5.565  14.549 -0.6929  1.4170  0.1908
12262TIP3   OH258200   1.375   3.293   1.218 -0.2398  0.4130 -0.2326
12262TIP3    H158201   1.382   3.222   1.282  1.3264  1.6866  1.1133
12262TIP3    H258202   1.359   3.371   1.271  0.3969  1.4125 -1.4607
12263TIP3   OH258203   5.758   4.556   6.654  0.2821 -0.0125 -0.0359
12263TIP3    H158204   5.762   4.527   6.745  0.6832 -0.3714 -0.1620
12263TIP3    H258205   5.697   4.495   6.612  0.1586  0.1042 -0.0263
12264TIP3   OH258206   4.511   4.511   5.539 -0.2012 -0.0425 -0.2056
12264TIP3    H158207   4.498   4.603   5.559  0.8891 -0.0188  0.4955
12264TIP3    H258208   4.599   4.492   5.571 -0.4326 -1.3389 -0.2833
12265TIP3   OH258209   3.674   1.915  16.382  0.4126 -0.0812  0.7764
12265TIP3    H158210   3.611   1.930  16.453  0.2764 -0.6718  0.7853
12265TIP3    H258211   3.736   1.852  16.418  0.1764 -0.6054  0.2714
12266TIP3   OH258212   0.388   3.849   4.305  0.0953 -0.6959 -0.1891
12266TIP3    H158213   0.433   3.829   4.387  0.2658  0.0253 -0.0984
12266TIP3    H258214   0.297   3.863   4.329  0.1778 -0.3120 -0.0916
12267TIP3   OH258215   6.103   3.932   3.089  0.3981 -0.0475  0.2517
12267TIP3    H158216   6.062   3.848   3.067 -1.5225  1.1026 -0.8172
12267TIP3    H258217   6.139   3.963   3.005  0.3249  0.5937  0.4529
12268TIP3   OH258218   0.556   4.046   5.539  0.7871 -0.1601 -0.9144
12268TIP3    H158219   0.578   4.135   5.565  0.1982  0.0427 -1.0925
12268TIP3    H258220   0.514   4.055   5.454 -1.9609 -0.2806  0.3284
12269TIP3   OH258221   1.082   2.334  12.015  0.6698 -0.4063 -0.4597
12269TIP3    H158222   1.118   2.378  12.092 -0.4090 -0.4344  0.0738
12269TIP3    H258223   1.003   2.290  12.046 -0.1436  0.1006 -1.7011
12270TIP3   OH258224   3.492   0.113   1.322  0.0268  0.1840 -0.5071
12270TIP3    H158225   3.514   0.189   1.376  1.2785 -0.7287  0.3048
12270TIP3    H258226   3.568   0.101   1.265 -0.0140 -0.6680 -0.3899
12271TIP3   OH258227   3.597   5.190  14.033 -0.7937  0.3656  0.1564
12271TIP3    H158228   3.654   5.199  13.957 -0.5266 -0.3573  0.2595
12271TIP3    H258229   3.635   5.249  14.098 -0.5033  0.3222  0.0285
12272TIP3   OH258230   4.831   2.873  11.756 -0.1740  0.4732 -0.2891
12272TIP3    H158231   4.916   2.862  11.798 -0.7087 -0.4657  0.5989
12272TIP3    H258232   4.802   2.960  11.783 -0.5185 -0.1174  1.3800
12273TIP3   OH258233   6.533   6.300   0.307  0.4085 -0.3024  0.6278
12273TIP3    H158234   6.475   6.229   0.277  0.1953 -0.7090  1.9164
12273TIP3    H258235   6.612   6.255   0.336  0.5756  0.0579  0.7305
12274TIP3   OH258236   3.147   0.350   1.393  0.3072 -0.8340 -0.1729
12274TIP3    H158237   3.168   0.426   1.448 -1.5906  1.3890 -2.3097
12274TIP3    H258238   3.103   0.289   1.452 -0.6384  0.9565  1.0654
12275TIP3   OH258239   3.809   4.170   5.630  0.0583  0.2624 -0.2213
12275TIP3    H158240   3.825   4.263   5.645  2.0446  0.2009 -1.5032
12275TIP3    H258241   3.892   4.138   5.594 -1.7665 -1.1913 -3.4987
12276TIP3   OH258242   1.983   2.481  11.509  0.1808 -0.2390  0.0678
12276TIP3    H158243   1.911   2.445  11.562 -0.2966  0.0345 -0.3870
12276TIP3    H258244   2.062   2.450  11.553 -0.2007 -2.1890 -0.5177
12277TIP3   OH258245   1.823   3.721  15.322 -0.5265 -0.0146  0.1185
12277TIP3    H158246   1.817   3.751  15.232 -0.6587  1.4582  0.5944
12277TIP3    H258247   1.904   3.670  15.325 -0.3306  0.2314 -0.7390
12278TIP3   OH258248   6.340   6.148   0.217  0.3993 -0.3321  0.5020
12278TIP3    H158249   6.311   6.060   0.192  0.1554 -0.5439  1.4802
12278TIP3    H258250   6.386   6.181   0.140  0.8078 -1.4576  0.2476
12279TIP3   OH258251   4.144   4.413  11.242  0.6186  0.2159  0.9661
12279TIP3    H158252   4.094   4.384  11.318 -0.4960 -0.4905 -0.0081
12279TIP3    H258253   4.080   4.459  11.188  1.3779  0.6250  0.4022
12280TIP3   OH258254   1.766   4.205  14.784 -0.8078  0.3640 -0.6299
12280TIP3    H158255   1.717   4.142  14.732 -1.3562  1.8500 -2.0072
12280TIP3    H258256   1.699   4.264  14.820 -0.2588  0.5679  0.0848
12281TIP3   OH258257   3.477   4.656  14.192 -0.0426 -0.1817 -0.2405
12281TIP3    H158258   3.390   4.627  14.219  0.0827 -0.4497 -0.1212
12281TIP3    H258259   3.475   4.751  14.203  0.2284 -0.3347  1.3912
12282TIP3   OH258260   6.384   5.982  16.131  0.4163 -0.1633 -0.2360
12282TIP3    H158261   6.384   6.037  16.052  2.6233  1.5300  0.8220
12282TIP3    H258262   6.303   6.005  16.176  0.4857  0.9868 -0.6632
12283TIP3   OH258263   0.319   2.173   0.777  0.0912  0.4792  0.3924
12283TIP3    H158264   0.340   2.093   0.826 -1.4760 -1.7690 -2.2936
12283TIP3    H258265   0.225   2.166   0.761  0.5139  1.0110 -2.8975
12284TIP3   OH258266   4.113   0.978   1.597 -0.0483  0.1018 -0.3837
12284TIP3    H158267   4.196   1.016   1.568 -0.6962 -0.4155 -3.0987
12284TIP3    H258268   4.099   1.017   1.684  2.7851  0.5224 -0.0000
12285TIP3   OH258269   6.380   2.630   6.357  0.2458  0.5260 -0.3568
12285TIP3    H158270   6.370   2.720   6.325 -0.3137  0.8865  0.8041
12285TIP3    H258271   6.307   2.583   6.317 -0.4976  0.9911  0.4258
12286TIP3   OH258272   1.421   4.432  14.409  0.1272 -0.5291 -0.3937
12286TIP3    H158273   1.367   4.360  14.443  1.8781 -1.7023  0.0167
12286TIP3    H258274   1.370   4.511  14.428 -0.6486 -1.4311  1.5926
12287TIP3   OH258275   3.577   0.164  11.211  0.3102  0.5059 -0.3423
12287TIP3    H158276   3.502   0.139  11.156  1.0213  0.6494 -1.4002
12287TIP3    H258277   3.538   0.182  11.297 -0.6870 -0.8420 -0.4620
12288TIP3   OH258278   2.329   0.535   2.054 -0.1626  0.4558 -0.2538
12288TIP3    H158279   2.423   0.521   2.049 -0.3057 -2.0697  1.7975
12288TIP3    H258280   2.315   0.569   2.143 -1.4369 -4.3192  1.7199
12289TIP3   OH258281   5.196   3.495   4.802 -0.0943  0.1376 -0.1780
12289TIP3    H158282   5.272   3.532   4.847 -0.9449  1.5658  0.1543
12289TIP3    H258283   5.147   3.449   4.870 -0.8713  1.4676  0.1987
12290TIP3   OH258284   1.534   4.698   1.990 -0.0061 -0.4559  0.0238
12290TIP3    H158285   1.562   4.720   1.901  1.1277 -0.8549  0.2654
12290TIP3    H258286   1.465   4.633   1.979 -1.3057  0.9648 -0.6043
12291TIP3   OH258287   1.152   6.651  13.224 -0.2859 -0.0255  0.1693
12291TIP3    H158288   1.238   6.692  13.239 -0.8645  1.2598  0.1027
12291TIP3    H258289   1.132   6.671  13.133 -1.0128  0.3900  0.4110
12292TIP3   OH258290   4.849   3.846   5.271 -0.0003  0.0843 -0.9937
12292TIP3    H158291   4.798   3.772   5.240  0.9782 -2.9263  3.5974
12292TIP3    H258292   4.934   3.838   5.227  0.0954 -1.6238 -0.5403
12293TIP3   OH258293   4.287   3.831   4.107 -0.4425 -0.3387  0.1140
12293TIP3    H158294   4.275   3.920   4.140 -0.2384 -0.7075  1.2093
12293TIP3    H258295   4.338   3.841   4.027  0.9054  0.4209  1.0358
12294TIP3   OH258296   5.727   2.787   0.544  0.0279 -0.4975  0.1173
12294TIP3    H158297   5.725   2.700   0.504 -0.0872 -1.0164  1.2095
12294TIP3    H258298   5.814   2.794   0.582  0.9074  0.8291 -1.9351
12295TIP3   OH258299   0.189   5.621   2.025  0.2323  0.2557  0.2276
12295TIP3    H158300   0.153   5.537   2.051  0.9865 -0.7330 -1.7245
12295TIP3    H258301   0.278   5.621   2.060  0.1149  0.3993  0.5278
12296TIP3   OH258302   2.760   4.577   3.427 -0.4716  0.5166  0.0198
12296TIP3    H158303   2.680   4.528   3.408 -0.2598  0.4689 -0.7783
12296TIP3    H258304   2.792   4.538   3.509 -0.6883 -0.1966 -0.2255
12297TIP3   OH258305   2.135   4.015  13.898  0.4240 -0.7267 -0.2619
12297TIP3    H158306   2.090   3.953  13.841  0.9058  0.2607 -1.7979
12297TIP3    H258307   2.227   3.990  13.891  0.7277  0.5806 -1.5441
12298TIP3   OH258308   2.912   2.673   2.012 -0.0187  0.3795 -0.2325
12298TIP3    H158309   3.005   2.694   2.010  0.2120 -0.6114 -0.2388
12298TIP3    H258310   2.887   2.663   1.920  0.8206 -3.2707 -0.2078
12299TIP3   OH258311   5.418   5.563   3.568 -0.3271  0.6888 -0.6171
12299TIP3    H158312   5.425   5.636   3.507 -0.2101 -0.3930 -1.9400
12299TIP3    H258313   5.507   5.551   3.601 -0.4160  1.3596 -0.1098
12300TIP3   OH258314   5.951   2.277   3.325 -0.3022 -0.2482 -0.3884
12300TIP3    H158315   5.987   2.365   3.329  1.0397 -0.7403 -1.0206
12300TIP3    H258316   5.882   2.276   3.392  1.1029  0.6401  1.1517
12301TIP3   OH258317   0.515   1.198  12.434 -0.0530  0.3168  0.1880
12301TIP3    H158318   0.425   1.214  12.407  0.0105  0.3708  0.0027
12301TIP3    H258319   0.515   1.208  12.529  0.0119  1.5653  0.0712
12302TIP3   OH258320   3.408   1.482  15.363  0.3380  0.1220 -0.1673
12302TIP3    H158321   3.346   1.417  15.330 -1.7492  1.6572  0.4873
12302TIP3    H258322   3.442   1.526  15.285 -1.0496  0.6735 -0.4801
12303TIP3   OH258323   5.849   2.923   5.327 -0.1724  0.2629 -0.3485
12303TIP3    H158324   5.944   2.916   5.316 -0.2011  1.8833 -1.9645
12303TIP3    H258325   5.832   3.016   5.337 -1.7853  0.2504 -2.3068
12304TIP3   OH258326   2.548   0.924  12.770  0.4833  0.4350 -0.0866
12304TIP3    H158327   2.481   0.979  12.730 -0.3632 -0.0335  0.6310
12304TIP3    H258328   2.602   0.985  12.820  0.3344  0.7710 -0.3312
12305TIP3   OH258329   2.658   5.710  15.091 -0.0756  0.0160  0.0708
12305TIP3    H158330   2.657   5.805  15.083  0.6745 -0.0692 -1.1551
12305TIP3    H258331   2.568   5.683  15.071 -0.3558  0.4700  0.6778
12306TIP3   OH258332   1.764   4.771   0.137  0.6231 -0.0142  0.1441
12306TIP3    H158333   1.726   4.855   0.109  1.1512  0.0637 -0.3722
12306TIP3    H258334   1.789   4.728   0.055  1.0617 -0.3359  0.4447
12307TIP3   OH258335   6.601   0.292   3.832  0.4630 -0.1885 -0.5276
12307TIP3    H158336   6.563   0.237   3.763  1.5021 -1.1391 -0.3581
12307TIP3    H258337   6.527   0.345   3.864 -0.5557 -1.4589 -0.7115
12308TIP3   OH258338   3.587   3.207   3.403  0.0593 -0.1411  0.1795
12308TIP3    H158339   3.583   3.300   3.424  0.9325  0.5563 -2.2988
12308TIP3    H258340   3.520   3.195   3.336  0.7674 -0.9936 -0.4025
12309TIP3   OH258341   2.562   1.811  12.470  0.3866  0.2812  0.1070
12309TIP3    H158342   2.507   1.882  12.503 -1.2251 -0.1106 -1.5598
12309TIP3    H258343   2.514   1.731  12.492 -0.2748 -0.0262 -2.1930
12310TIP3   OH258344   0.465   0.362  12.932  0.5559 -0.2578 -0.3115
12310TIP3    H158345   0.373   0.338  12.919  0.6019  0.0839 -1.2968
12310TIP3    H258346   0.510   0.278  12.943  0.3788 -0.5171 -1.5105
12311TIP3   OH258347   6.394   0.430  16.237 -0.2044 -0.5752 -0.7413
12311TIP3    H158348   6.431   0.400  16.319 -0.4782 -0.2588 -0.4998
12311TIP3    H258349   6.470   0.451  16.182  0.0410  1.9623  0.4341
12312TIP3   OH258350   3.396   0.694  13.813 -0.6046 -0.0397 -0.0115
12312TIP3    H158351   3.416   0.653  13.898 -0.4613 -1.3268 -0.6379
12312TIP3    H258352   3.459   0.655  13.752 -0.8029  0.7584 -0.7428
12313TIP3   OH258353   1.369   5.340   3.665  0.3331  0.2652  0.0991
12313TIP3    H158354   1.373   5.270   3.730 -1.5454 -1.8065 -1.8317
12313TIP3    H258355   1.437   5.318   3.601  1.5734  1.7909  0.8320
12314TIP3   OH258356   4.119   4.737   1.396 -0.4092 -0.1921  0.2961
12314TIP3    H158357   4.121   4.810   1.459 -0.9151 -0.7114  0.9229
12314TIP3    H258358   4.202   4.692   1.409 -0.1523  0.1845 -0.0006
12315TIP3   OH258359   0.694   2.552   2.923  0.2192 -0.3628  0.0210
12315TIP3    H158360   0.712   2.495   2.997  2.5512 -1.1146 -1.0451
12315TIP3    H258361   0.727   2.638   2.950 -0.9318 -0.0863  0.6321
12316TIP3   OH258362   1.082   4.527   0.597  0.4661 -0.0924  0.3940
12316TIP3    H158363   1.116   4.474   0.669  3.9948  0.9378 -0.2929
12316TIP3    H258364   1.047   4.464   0.535 -0.6256 -1.1490  2.0249
12317TIP3   OH258365   3.811   6.343   2.230 -0.3400  0.1939  0.3361
12317TIP3    H158366   3.870   6.301   2.293  1.0480  1.3777 -0.1124
12317TIP3    H258367   3.757   6.272   2.196 -1.0772 -0.5008  2.7677
12318TIP3   OH258368   0.065   5.578   3.751  0.2584  0.8382 -0.0645
12318TIP3    H158369   0.102   5.534   3.675 -1.8640  0.4837 -0.9744
12318TIP3    H258370   0.018   5.653   3.714 -0.3210  0.9839  0.9412
12319TIP3   OH258371   4.274   1.206  12.439  0.1937 -0.6395  0.2191
12319TIP3    H158372   4.252   1.113  12.432 -0.5963 -0.4866  0.5311
12319TIP3    H258373   4.232   1.246  12.362 -0.3943 -0.3876  0.6625
12320TIP3   OH258374   5.191   2.883  15.333 -0.2765 -1.0462 -0.2005
12320TIP3    H158375   5.130   2.933  15.280 -0.0209 -0.3938  0.1019
12320TIP3    H258376   5.244   2.950  15.377  0.0070 -1.5851  0.2880
12321TIP3   OH258377   6.475   4.727  17.194 -0.0422  0.2303  0.0790
12321TIP3    H158378   6.526   4.803  17.165 -0.6458  0.6443  0.0914
12321TIP3    H258379   6.527   4.651  17.166  0.7800  0.6399  0.4439
12322TIP3   OH258380   4.469   3.588  14.508  0.2314  0.5153 -0.0651
12322TIP3    H158381   4.378   3.577  14.535  0.1391  0.1862 -0.5080
12322TIP3    H258382   4.509   3.638  14.579 -0.7647  2.3955 -0.7563
12323TIP3   OH258383   0.689   0.521  12.345  0.9377 -0.6621 -0.4750
12323TIP3    H158384   0.779   0.550  12.326 -0.4446  2.7442 -2.7255
12323TIP3    H258385   0.664   0.470  12.269  0.4476 -0.2311 -0.6041
12324TIP3   OH258386   2.903   1.556   2.437 -0.0934  0.0650  0.8577
12324TIP3    H158387   2.982   1.593   2.398  0.5266 -1.9046  0.1109
12324TIP3    H258388   2.930   1.529   2.525  0.4575 -1.6715  0.2007
12325TIP3   OH258389   3.499   3.341   6.416  0.1886  0.2484 -0.3446
12325TIP3    H158390   3.570   3.350   6.352 -1.6689 -0.6430 -2.7139
12325TIP3    H258391   3.446   3.269   6.383 -1.1289  0.0257  2.0411
12326TIP3   OH258392   5.689   3.623  15.165  0.1154 -0.2766  0.4774
12326TIP3    H158393   5.598   3.618  15.136 -0.4910 -1.7721  2.3841
12326TIP3    H258394   5.692   3.700  15.222  0.3596  0.4464 -0.4920
12327TIP3   OH258395   6.576   2.702   6.101 -0.1420  0.0169 -0.0619
12327TIP3    H158396   6.579   2.714   6.196 -0.1614 -0.8587  0.0525
12327TIP3    H258397   6.569   2.608   6.088  2.2735 -0.1102 -0.9703
12328TIP3   OH258398   6.230   1.691   4.378 -1.1119 -0.1805 -0.3739
12328TIP3    H158399   6.162   1.624   4.377 -0.2844 -1.0535 -1.5423
12328TIP3    H258400   6.293   1.662   4.311  0.1945  0.8021  0.3788
12329TIP3   OH258401   5.950   2.403  13.293 -0.0032 -0.1685  0.0078
12329TIP3    H158402   5.900   2.456  13.356  1.9716  1.0095  0.6592
12329TIP3    H258403   5.902   2.320  13.289 -2.5867  1.2239 -0.2175
12330TIP3   OH258404   0.752   6.498   0.638 -0.3232  0.1397 -0.3560
12330TIP3    H158405   0.711   6.576   0.677 -3.0895 -1.5759  0.3799
12330TIP3    H258406   0.683   6.458   0.586  0.0668 -3.3475  1.5582
12331TIP3   OH258407   0.959   5.682  14.205 -0.4203 -0.3340  0.1820
12331TIP3    H158408   0.915   5.663  14.288 -0.5918  2.2079  0.7598
12331TIP3    H258409   1.008   5.762  14.222  0.2780 -0.2681 -1.9276
12332TIP3   OH258410   5.060   4.935  15.074  0.1580 -0.9372  0.4212
12332TIP3    H158411   5.059   4.883  14.994  0.5525 -2.5364  1.3858
12332TIP3    H258412   5.069   5.025  15.045  2.1998 -1.6035 -1.2984
12333TIP3   OH258413   4.237   6.172  12.900  0.0303  0.6451  0.3318
12333TIP3    H158414   4.171   6.145  12.964 -0.2651  1.3644  0.3430
12333TIP3    H258415   4.267   6.258  12.931  0.6322  0.5369  0.0659
12334TIP3   OH258416   1.904   2.280  14.687  0.0925  0.0196  0.5599
12334TIP3    H158417   1.986   2.243  14.720  0.2090 -0.5511 -0.3474
12334TIP3    H258418   1.860   2.207  14.645  0.3510  0.8987 -1.3365
12335TIP3   OH258419   5.557   1.130  13.538 -0.2861  0.3246  0.3038
12335TIP3    H158420   5.651   1.111  13.544 -0.2075  0.7998  0.6593
12335TIP3    H258421   5.551   1.195  13.468 -0.4194 -0.1377 -0.1164
12336TIP3   OH258422   3.565   5.980   4.142 -0.2081 -0.2185 -0.6442
12336TIP3    H158423   3.547   5.977   4.048  0.2957  0.2000 -0.7616
12336TIP3    H258424   3.655   6.013   4.147 -0.5579  0.6405  0.0167
12337TIP3   OH258425   5.931   2.167  16.253 -0.5017 -0.0591 -0.2269
12337TIP3    H158426   5.869   2.177  16.181 -1.1071  0.7301  0.3991
12337TIP3    H258427   6.015   2.153  16.209 -0.9064  0.1181 -1.0862
12338TIP3   OH258428   0.459   0.340  15.251  0.3687  0.0246  0.5676
12338TIP3    H158429   0.410   0.400  15.195  0.0670  1.3778  2.1844
12338TIP3    H258430   0.547   0.379  15.256  0.1540  0.4208  1.6726
12339TIP3   OH258431   6.532   5.385   3.429 -0.6896 -0.2661  0.4785
12339TIP3    H158432   6.546   5.461   3.373  0.2628 -0.0485  0.9909
12339TIP3    H258433   6.456   5.409   3.482  0.3176  0.8679  1.4806
12340TIP3   OH258434   1.199   0.864  17.053 -0.1383 -0.3875 -0.1471
12340TIP3    H158435   1.121   0.827  17.094  0.1530 -0.1054  0.6954
12340TIP3    H258436   1.165   0.920  16.983 -0.8670  1.5276  1.6268
12341TIP3   OH258437   5.288   5.814  14.153 -0.0966  0.2574  0.3594
12341TIP3    H158438   5.337   5.809  14.235  0.4542 -4.0731 -0.0143
12341TIP3    H258439   5.353   5.793  14.085 -1.3028  0.0851 -0.7731
12342TIP3   OH258440   3.459   0.906   5.073  0.6816 -0.4922  0.1712
12342TIP3    H158441   3.550   0.907   5.104  1.0855 -1.6483 -0.9007
12342TIP3    H258442   3.461   0.853   4.993 -0.4206  1.8874 -1.5524
12343TIP3   OH258443   0.596   5.313  16.397 -0.1505 -0.1153 -0.2288
12343TIP3    H158444   0.591   5.363  16.478 -0.1851  0.0139 -0.3090
12343TIP3    H258445   0.683   5.275  16.397  0.7953  1.8815 -1.2928
12344TIP3   OH258446   5.067   5.295   0.289 -0.4540  0.2993 -0.2897
12344TIP3    H158447   5.009   5.298   0.213 -2.2018  1.2527  1.0022
12344TIP3    H258448   5.060   5.383   0.327  1.8800  0.4461 -0.0685
12345TIP3   OH258449   1.811   0.520  11.147  0.7008  0.5953  0.1743
12345TIP3    H158450   1.754   0.595  11.129  0.1627  0.0101 -0.5825
12345TIP3    H258451   1.836   0.531  11.239  0.2063  1.4176  0.2195
12346TIP3   OH258452   5.403   5.670   1.597 -0.6048 -0.3390 -0.2681
12346TIP3    H158453   5.399   5.743   1.659  0.3758 -0.1325 -0.4317
12346TIP3    H258454   5.405   5.712   1.511  0.4460 -0.5289 -0.3489
12347TIP3   OH258455   3.569   5.330  12.410 -0.3004 -0.4095  0.3383
12347TIP3    H158456   3.538   5.252  12.456  1.0402 -0.4770  1.1725
12347TIP3    H258457   3.598   5.296  12.325  2.7259 -1.3747  1.6092
12348TIP3   OH258458   2.009   2.301  11.074 -0.1385 -0.1241  0.2633
12348TIP3    H158459   2.098   2.296  11.108 -0.1937 -3.2496  0.1668
12348TIP3    H258460   1.960   2.348  11.141  1.1581 -0.1439  1.2574
12349TIP3   OH258461   3.226   6.469  13.576 -0.4369  0.1622 -0.3820
12349TIP3    H158462   3.271   6.404  13.629 -0.1812  0.0042 -0.7929
12349TIP3    H258463   3.292   6.498  13.513 -0.9554 -0.1858 -1.0883
12350TIP3   OH258464   6.518   1.881   2.660 -0.2953  0.0581 -0.4317
12350TIP3    H158465   6.549   1.950   2.718 -1.1708  1.2623 -1.3685
12350TIP3    H258466   6.576   1.885   2.584  1.2493 -1.9238  0.5320
12351TIP3   OH258467   0.510   6.670   2.070  0.5436  0.1683 -0.1877
12351TIP3    H158468   0.429   6.621   2.056  0.3832  0.5089 -0.4926
12351TIP3    H258469   0.486   6.761   2.049  0.0437  0.9313  3.0989
12352TIP3   OH258470   6.437   3.129  15.179  0.0189  0.8363 -0.6188
12352TIP3    H158471   6.469   3.210  15.218 -1.8430  0.4003  2.1104
12352TIP3    H258472   6.342   3.141  15.174 -0.2162 -0.8603 -0.9197
12353TIP3   OH258473   2.864   4.670  15.583  0.3075  0.9788  0.2243
12353TIP3    H158474   2.809   4.714  15.649  1.1243  0.7816  1.0624
12353TIP3    H258475   2.909   4.602  15.632  0.5171  0.4602 -0.6738
12354TIP3   OH258476   3.056   4.578   0.589  0.7638 -0.0056 -0.0512
12354TIP3    H158477   3.128   4.635   0.616  0.3279  0.2001  0.7113
12354TIP3    H258478   3.026   4.537   0.670  2.2204 -2.7459 -0.7723
12355TIP3   OH258479   3.172   1.907   3.221 -0.3275 -0.0646 -0.4552
12355TIP3    H158480   3.242   1.869   3.275  0.4808 -2.2175 -2.8312
12355TIP3    H258481   3.173   2.000   3.244  1.5679 -0.4574  1.4413
12356TIP3   OH258482   2.414   0.808  11.132 -0.5132 -0.1153  0.0778
12356TIP3    H158483   2.412   0.742  11.062  2.4384 -0.6298  0.3393
12356TIP3    H258484   2.378   0.763  11.208  1.6005 -1.5843  0.2905
12357TIP3   OH258485   6.277   0.518  15.190  0.0434  0.6184 -0.1633
12357TIP3    H158486   6.182   0.511  15.191 -0.0839 -0.3401 -3.9671
12357TIP3    H258487   6.306   0.471  15.268 -2.5326 -3.0138 -1.1571
12358TIP3   OH258488   3.978   6.610   0.046 -0.2410 -0.1345  0.0046
12358TIP3    H158489   4.005   6.661   0.123 -0.4652  2.1656 -1.3604
12358TIP3    H258490   4.027   6.527   0.055  0.5018  0.4509  2.0818
12359TIP3   OH258491   0.564   3.784  15.060  0.2980 -0.5146  0.2655
12359TIP3    H158492   0.588   3.870  15.094 -1.1278  0.4217 -0.9708
12359TIP3    H258493   0.622   3.771  14.985 -0.8172  0.2821 -0.7518
12360TIP3   OH258494   5.902   1.960  11.384 -0.4610  0.4446  0.4123
12360TIP3    H158495   5.857   2.021  11.443 -0.1949  2.1217 -1.0326
12360TIP3    H258496   5.856   1.877  11.397 -1.4075  1.1431  1.8307
12361TIP3   OH258497   3.805   5.412   3.498 -0.3676  0.1315  0.8467
12361TIP3    H158498   3.720   5.433   3.460  0.3534 -0.0800 -0.9664
12361TIP3    H258499   3.860   5.390   3.424  1.2819  0.2225  1.9801
12362TIP3   OH258500   6.625   6.549  14.975 -0.4475  0.5263  0.6715
12362TIP3    H158501   6.710   6.579  15.006 -1.0603  0.9582  2.0577
12362TIP3    H258502   6.582   6.628  14.941 -0.2425  0.2806 -0.1753
12363TIP3   OH258503   2.971   1.611  11.134 -0.2008  0.1481  0.6134
12363TIP3    H158504   2.912   1.653  11.196 -3.1834 -1.5391 -0.8582
12363TIP3    H258505   2.915   1.553  11.082  3.0517 -3.2355  0.4130
12364TIP3   OH258506   0.362   4.860   4.125  0.1412  0.9634 -0.3671
12364TIP3    H158507   0.357   4.843   4.031 -0.9587  0.2537 -0.1845
12364TIP3    H258508   0.273   4.882   4.151  0.4979  1.5139  0.4608
12365TIP3   OH258509   5.378   0.551  13.376  0.1787  0.2602 -0.9464
12365TIP3    H158510   5.469   0.547  13.407 -0.2368 -1.3785  0.1862
12365TIP3    H258511   5.349   0.639  13.399  0.7013 -0.0475  1.0657
12366TIP3   OH258512   6.366   3.133  16.352  0.0914  0.0547  0.3938
12366TIP3    H158513   6.456   3.117  16.323  0.3671  0.4646  1.0077
12366TIP3    H258514   6.345   3.059  16.407  0.5867  0.6746  1.4477
12367TIP3   OH258515   5.117   2.424  14.798  0.2529  0.0813  0.5116
12367TIP3    H158516   5.168   2.345  14.782 -1.6409 -1.3457  1.1575
12367TIP3    H258517   5.096   2.420  14.892 -1.1078  0.5606  0.2482
12368TIP3   OH258518   1.098   1.384  11.237 -0.4942 -0.0128 -0.0358
12368TIP3    H158519   1.067   1.473  11.253  1.5758  1.1895 -2.0884
12368TIP3    H258520   1.084   1.369  11.143  0.2618 -1.4092  0.0356
12369TIP3   OH258521   5.031   4.462  14.847  0.2608  0.3265  0.4237
12369TIP3    H158522   5.007   4.456  14.755 -0.3801  1.4007  0.5070
12369TIP3    H258523   4.964   4.411  14.893 -1.1338  2.1373  0.5234
12370TIP3   OH258524   2.615   2.797   0.101 -0.4888 -0.2745  0.0867
12370TIP3    H158525   2.551   2.740   0.144 -1.4523  0.7025 -0.0143
12370TIP3    H258526   2.563   2.870   0.068  0.7564  0.7759  0.4024
12371TIP3   OH258527   6.216   4.368   0.214 -0.0661 -0.2816  0.6954
12371TIP3    H158528   6.166   4.442   0.248  1.6060  2.0633 -1.6222
12371TIP3    H258529   6.242   4.319   0.292 -2.2989  0.7943  2.2134
12372TIP3   OH258530   0.229   1.005  15.864  0.6695 -0.2074  0.2040
12372TIP3    H158531   0.220   0.946  15.939  1.2525 -0.7614 -0.1651
12372TIP3    H258532   0.289   0.961  15.805  2.8936  1.7148  0.8919
12373TIP3   OH258533   5.969   1.892   3.502  0.3608 -0.1089  0.5719
12373TIP3    H158534   5.993   1.803   3.528 -2.0396 -0.6523  1.2296
12373TIP3    H258535   6.029   1.914   3.431  1.4609 -1.9834  0.8618
12374TIP3   OH258536   2.690   5.191   4.999  0.2413  0.3979 -0.0069
12374TIP3    H158537   2.642   5.157   4.923  0.1682  0.3680  0.0526
12374TIP3    H258538   2.675   5.286   4.996  0.7754  0.4775 -0.4036
12375TIP3   OH258539   0.709   4.277  14.305  0.4930 -0.1352 -0.1083
12375TIP3    H158540   0.712   4.304  14.214 -2.4910 -1.1496 -0.6254
12375TIP3    H258541   0.687   4.357  14.354  0.3990  0.0646 -0.4791
12376TIP3   OH258542   2.258   0.137   5.298 -0.5349 -0.4962 -0.3827
12376TIP3    H158543   2.218   0.191   5.230 -0.3921 -1.2208 -1.0599
12376TIP3    H258544   2.276   0.054   5.255  2.5825  0.0833 -0.4165
12377TIP3   OH258545   5.316   2.609   5.070  0.1834 -0.1206 -0.0772
12377TIP3    H158546   5.347   2.682   5.123  0.9868 -0.5567  0.0752
12377TIP3    H258547   5.396   2.567   5.037 -0.2279 -1.3163  0.3792
12378TIP3   OH258548   6.001   5.712   1.812  0.2646  0.6199  0.2200
12378TIP3    H158549   5.951   5.709   1.730  1.5933  0.3366 -0.6098
12378TIP3    H258550   6.007   5.621   1.840  3.1181  0.1402 -1.5082
12379TIP3   OH258551   5.893   6.208  16.278  0.2494  0.0647 -0.1602
12379TIP3    H158552   5.866   6.254  16.358 -0.2712  0.6190 -0.6495
12379TIP3    H258553   5.829   6.137  16.269  0.5142 -0.2075  0.1014
12380TIP3   OH258554   6.543   3.237  11.325 -0.3246  0.4823  0.2180
12380TIP3    H158555   6.494   3.300  11.377  1.3407  2.8252 -0.8686
12380TIP3    H258556   6.500   3.238  11.239 -0.0037  0.5169  0.0546
12381TIP3   OH258557   5.928   1.185  14.575 -0.1773  0.0333 -0.5851
12381TIP3    H158558   6.000   1.244  14.599 -0.6220  0.5194 -0.4252
12381TIP3    H258559   5.855   1.213  14.630  0.3755 -2.5269  1.6384
12382TIP3   OH258560   5.028   2.797   6.419  0.1209 -0.1883  0.3935
12382TIP3    H158561   5.111   2.839   6.396  0.3835 -1.7471 -1.7798
12382TIP3    H258562   4.986   2.779   6.335 -2.3228  0.2813  1.4236
12383TIP3   OH258563   2.994   1.605  14.634 -0.2638 -0.3492 -0.2501
12383TIP3    H158564   3.063   1.566  14.581  0.8997  0.9516  0.2406
12383TIP3    H258565   3.039   1.672  14.685 -2.3064  2.3954 -1.8199
12384TIP3   OH258566   0.051   1.140  15.528 -0.0272  0.2706  0.5477
12384TIP3    H158567  -0.026   1.188  15.498  0.0069  0.5040  0.8342
12384TIP3    H258568   0.051   1.061  15.475 -3.3620 -2.3353  3.9106
12385TIP3   OH258569   2.266   2.717  15.854  0.0607 -0.4948  0.6917
12385TIP3    H158570   2.200   2.738  15.921  0.3843  0.4953  0.7136
12385TIP3    H258571   2.295   2.802  15.821  1.1313 -0.9253  0.4824
12386TIP3   OH258572   2.505   3.894  11.081  0.4537 -0.1616  0.5133
12386TIP3    H158573   2.444   3.843  11.134 -0.4150  0.1973 -0.1341
12386TIP3    H258574   2.451   3.960  11.038  0.9362 -1.2409 -1.8567
12387TIP3   OH258575   4.424   4.098   2.140  0.1276  0.3646 -0.7567
12387TIP3    H158576   4.357   4.110   2.207 -0.2058 -0.6955 -0.8661
12387TIP3    H258577   4.500   4.146   2.171 -0.0440 -0.0572  0.3448
12388TIP3   OH258578   3.981   5.663  15.618  0.1742  0.3272  0.0499
12388TIP3    H158579   4.015   5.752  15.605  3.5711 -0.3660  2.6988
12388TIP3    H258580   3.893   5.675  15.654  0.6304  2.6347  0.5393
12389TIP3   OH258581   4.486   5.158   2.949 -0.3172  0.1654  0.4284
12389TIP3    H158582   4.565   5.210   2.965 -0.2665  0.0308  0.6195
12389TIP3    H258583   4.481   5.098   3.023 -0.0773 -0.4729 -0.0594
12390TIP3   OH258584   6.477   3.412   4.991  0.2518 -0.1434  0.1062
12390TIP3    H158585   6.541   3.484   4.996  3.5891 -2.7138 -1.3142
12390TIP3    H258586   6.447   3.413   4.900 -0.6567  0.1510  0.3967
12391TIP3   OH258587   2.481   1.186  15.238  0.2194 -0.0864  0.2141
12391TIP3    H158588   2.478   1.272  15.279  0.2352 -0.4468  0.9797
12391TIP3    H258589   2.440   1.199  15.152 -0.9961  0.3945  0.8451
12392TIP3   OH258590   0.848   5.425   2.427 -0.3625  0.2440  0.1857
12392TIP3    H158591   0.855   5.503   2.482  0.8087  0.7429 -0.6419
12392TIP3    H258592   0.756   5.423   2.400 -0.2652  1.7554 -0.3538
12393TIP3   OH258593   1.524   2.984   1.579  0.1730 -0.1317  0.5093
12393TIP3    H158594   1.597   3.045   1.590  1.4303 -1.5287  0.2835
12393TIP3    H258595   1.500   2.992   1.487 -0.2694  0.6459  0.6833
12394TIP3   OH258596   3.231   0.338   5.775 -0.8041  0.7925 -0.2256
12394TIP3    H158597   3.260   0.335   5.866  0.1816 -1.3923 -0.5418
12394TIP3    H258598   3.306   0.375   5.728 -0.0493 -1.0224 -0.5145
12395TIP3   OH258599   0.953   5.748   0.751 -0.1085  0.6809 -0.0130
12395TIP3    H158600   1.026   5.784   0.802  0.5268  0.1822 -0.5567
12395TIP3    H258601   0.957   5.654   0.766 -0.8088  0.6699  0.1549
12396TIP3   OH258602   4.429   2.276   3.950 -0.0025  0.5598 -0.0746
12396TIP3    H158603   4.412   2.182   3.939  0.0398  0.7213 -1.7823
12396TIP3    H258604   4.419   2.291   4.044  0.0834 -1.1709  0.2532
12397TIP3   OH258605   6.092   1.498  14.882  0.1778  0.1850  0.0985
12397TIP3    H158606   6.095   1.583  14.927 -2.6351  1.4337 -1.7791
12397TIP3    H258607   6.047   1.440  14.944  1.0112  0.3825  0.9052
12398TIP3   OH258608   3.793   4.178   0.638 -0.2733 -0.0982  0.0683
12398TIP3    H158609   3.744   4.105   0.677  1.9452 -2.3196 -0.9953
12398TIP3    H258610   3.847   4.136   0.571 -0.2822  2.8526 -1.9567
12399TIP3   OH258611   2.539   6.611  13.705 -0.1973  0.2166 -0.5698
12399TIP3    H158612   2.558   6.567  13.787 -1.8066 -3.3245 -1.8874
12399TIP3    H258613   2.457   6.658  13.720 -0.6170 -0.6275 -0.2108
12400TIP3   OH258614   3.351   5.576  12.480 -0.3511  0.4144 -0.1196
12400TIP3    H158615   3.447   5.580  12.474 -0.4571  2.2409 -1.6959
12400TIP3    H258616   3.324   5.525  12.404 -0.6583  1.2217 -0.5720
12401TIP3   OH258617   4.403   6.746   0.537 -0.5515 -0.0175 -0.1936
12401TIP3    H158618   4.439   6.756   0.449 -1.3230 -0.0032 -0.5150
12401TIP3    H258619   4.453   6.809   0.591 -1.4137  1.4259 -1.0162
12402TIP3   OH258620   6.131   6.555   4.780  0.0280  0.3074 -0.0901
12402TIP3    H158621   6.146   6.647   4.757  3.1943  0.2916  1.3835
12402TIP3    H258622   6.153   6.506   4.701  0.2029  0.7223 -0.3015
12403TIP3   OH258623   5.977   6.096   3.167 -0.2136 -0.2371  0.1446
12403TIP3    H158624   6.071   6.105   3.158 -0.1291  0.2360  1.2686
12403TIP3    H258625   5.948   6.053   3.087  0.7633  0.8792 -0.8346
12404TIP3   OH258626   4.457   2.949  13.879 -0.1593  0.3509  0.4084
12404TIP3    H158627   4.549   2.950  13.905 -0.3853  0.8529  1.2202
12404TIP3    H258628   4.438   3.039  13.853 -0.3913  0.2260  0.1467
12405TIP3   OH258629   2.548   1.497   2.227  0.1483  0.2809  0.2628
12405TIP3    H158630   2.515   1.407   2.235 -0.4518  0.3173 -1.2882
12405TIP3    H258631   2.624   1.489   2.169  1.6942  0.4666  2.1964
12406TIP3   OH258632   3.343   3.170  12.156  0.5516  0.1832 -0.2884
12406TIP3    H158633   3.422   3.146  12.204  0.8266 -0.9487 -1.2578
12406TIP3    H258634   3.359   3.260  12.126  0.6203  0.6883  1.1721
12407TIP3   OH258635   5.114   6.716  15.234  0.1887  0.0900 -0.3458
12407TIP3    H158636   5.161   6.786  15.278 -0.3169 -0.0406  0.4301
12407TIP3    H258637   5.165   6.637  15.254  2.4228  0.4961 -3.5860
12408TIP3   OH258638   3.063   4.965  14.246 -0.2517  0.3353  0.3734
12408TIP3    H158639   3.003   4.904  14.289 -0.6223  0.9316  0.7117
12408TIP3    H258640   3.006   5.033  14.210  0.0048 -0.2717 -1.3079
12409TIP3   OH258641   5.984   6.095  16.586 -0.6902 -0.7992 -0.4244
12409TIP3    H158642   5.974   6.188  16.567  0.4101 -0.9303 -1.8414
12409TIP3    H258643   5.905   6.054  16.551 -0.7555 -0.4937 -0.6402
12410TIP3   OH258644   0.938   6.547   1.194 -0.4929  0.9068  0.8742
12410TIP3    H158645   0.917   6.516   1.106 -0.5440  0.3388  1.0848
12410TIP3    H258646   1.023   6.508   1.214 -0.3477  1.2643  0.9696
12411TIP3   OH258647   4.025   2.420  11.445 -0.2611 -0.1599  0.2427
12411TIP3    H158648   4.120   2.433  11.439 -0.2220  0.2456  1.3863
12411TIP3    H258649   4.014   2.355  11.514 -0.7910 -0.9417 -0.5578
12412TIP3   OH258650   1.997   4.951   3.425 -0.0504  0.1838 -0.3390
12412TIP3    H158651   2.043   5.024   3.466 -1.3266 -0.0140  1.5475
12412TIP3    H258652   1.905   4.978   3.424 -0.7511 -1.8232  1.5435
12413TIP3   OH258653   4.960   5.797  11.285  0.9452  0.0955 -0.8400
12413TIP3    H158654   4.992   5.871  11.337 -1.6681  0.9344 -0.2740
12413TIP3    H258655   5.011   5.722  11.317  2.0954  1.2418  0.1573
12414TIP3   OH258656   3.113   1.987   5.204  0.5789  0.4452 -0.3220
12414TIP3    H158657   3.089   2.011   5.114 -1.1072  0.6198  0.1438
12414TIP3    H258658   3.131   1.893   5.199 -2.0938 -0.1433 -0.4049
12415TIP3   OH258659   5.166   6.357   3.336  0.1900  0.2680 -0.2287
12415TIP3    H158660   5.244   6.301   3.337 -0.3738 -0.5770 -1.1378
12415TIP3    H258661   5.093   6.296   3.347 -0.3329  1.1491  1.5888
12416TIP3   OH258662   1.200   5.035   1.634 -0.3131  0.4852  0.0059
12416TIP3    H158663   1.274   5.094   1.648  1.0612 -1.0610 -0.3798
12416TIP3    H258664   1.207   4.972   1.707 -1.2797  0.3513 -0.0149
12417TIP3   OH258665   5.416   0.522   2.117 -0.3635  0.0784  0.1679
12417TIP3    H158666   5.479   0.546   2.049 -0.1640 -2.0481 -0.4628
12417TIP3    H258667   5.338   0.493   2.070 -0.1888 -1.5178  0.7970
12418TIP3   OH258668   3.771   1.468  13.865 -0.2133 -0.4645  0.1959
12418TIP3    H158669   3.775   1.545  13.922  1.6367 -0.4007  0.0499
12418TIP3    H258670   3.824   1.402  13.911 -1.5542 -1.5762  0.1901
12419TIP3   OH258671   2.544   5.506  16.147  0.4427  0.1510  0.2411
12419TIP3    H158672   2.550   5.571  16.217  1.0623  0.8166 -0.4199
12419TIP3    H258673   2.464   5.529  16.100 -1.6644 -2.0711  2.4353
12420TIP3   OH258674   6.590   1.348  12.531 -0.3269 -0.1079 -0.3313
12420TIP3    H158675   6.606   1.422  12.473 -0.4725 -0.0078 -0.2425
12420TIP3    H258676   6.516   1.375  12.585 -1.2117 -0.7892 -1.1488
12421TIP3   OH258677   6.766   5.509  10.614  0.0639  0.4229  0.1069
12421TIP3    H158678   6.762   5.605  10.612  2.8393  0.6110 -2.7101
12421TIP3    H258679   6.693   5.481  10.558 -0.3032  0.8824  0.3416
12422TIP3   OH258680   5.888   4.275  15.407 -0.2975 -0.5401  0.0900
12422TIP3    H158681   5.948   4.232  15.468  0.3194 -1.6625 -1.2402
12422TIP3    H258682   5.917   4.366  15.405  1.0776 -0.9616 -0.1549
12423TIP3   OH258683   3.009   5.684  16.331  0.4434  0.2004  0.7794
12423TIP3    H158684   2.915   5.675  16.350  0.5965 -0.3223  1.3152
12423TIP3    H258685   3.020   5.642  16.246  0.2393  0.0149  0.8437
12424TIP3   OH258686   1.708   2.705   0.446 -0.2800  0.1514 -0.6638
12424TIP3    H158687   1.619   2.727   0.472  0.1975 -0.7898  2.0213
12424TIP3    H258688   1.707   2.611   0.433  0.4140  0.0902 -0.2902
12425TIP3   OH258689   5.554   0.628  11.550 -0.0519  0.1705  0.1467
12425TIP3    H158690   5.471   0.638  11.597 -1.3751  0.1161 -2.0239
12425TIP3    H258691   5.583   0.718  11.533 -0.9029  0.2450 -1.0567
12426TIP3   OH258692   4.539   0.085  13.778  0.4678 -0.5206  0.5340
12426TIP3    H158693   4.574   0.126  13.699  2.2780 -0.6606  1.2089
12426TIP3    H258694   4.513  -0.003  13.750 -0.6055  0.0175 -0.2579
12427TIP3   OH258695   5.640   6.178   2.693  0.3650  0.1374 -0.4778
12427TIP3    H158696   5.646   6.162   2.787  2.0190  1.1952 -0.3677
12427TIP3    H258697   5.618   6.093   2.655  1.2953 -0.6644  0.7244
12428TIP3   OH258698   0.309   3.960  13.335  0.2417 -0.0007  0.5338
12428TIP3    H158699   0.284   3.951  13.243 -0.0585  0.4865  0.5638
12428TIP3    H258700   0.231   3.994  13.378 -0.4115 -2.4158  1.4141
12429TIP3   OH258701   3.269   2.501   2.780 -0.2314  0.4479  0.5628
12429TIP3    H158702   3.182   2.486   2.742 -0.8572  0.7870  1.7876
12429TIP3    H258703   3.293   2.418   2.819 -0.6025  0.7027  1.3538
12430TIP3   OH258704   2.910   4.121   1.728  0.0347 -0.0172  0.1306
12430TIP3    H158705   2.936   4.034   1.697 -0.0529  0.1673 -0.4636
12430TIP3    H258706   2.947   4.127   1.816  1.2508 -0.1048 -0.3554
12431TIP3   OH258707   0.429   1.503  15.153 -0.0956 -0.0282  0.3877
12431TIP3    H158708   0.480   1.483  15.231  1.8657 -1.6975 -1.2264
12431TIP3    H258709   0.474   1.578  15.113 -0.2344 -0.0831  0.1234
12432TIP3   OH258710   5.103   4.986   6.268 -0.3623  0.1481  0.2153
12432TIP3    H158711   5.187   4.971   6.225 -0.7710  0.1141 -0.5932
12432TIP3    H258712   5.038   4.950   6.207 -0.9453 -0.0555  0.9451
12433TIP3   OH258713   3.415   3.785  12.081  0.3641  0.3171 -0.2624
12433TIP3    H158714   3.336   3.748  12.040 -0.9129  2.9031 -0.3426
12433TIP3    H258715   3.474   3.802  12.008 -0.5453  1.8018 -0.6843
12434TIP3   OH258716   1.016   2.751   2.835 -0.8347 -0.2931  0.0273
12434TIP3    H158717   0.945   2.813   2.851 -1.1126 -0.3833 -0.8159
12434TIP3    H258718   1.029   2.708   2.920  1.2731  2.8448  1.4951
12435TIP3   OH258719   2.105   4.316  13.497 -0.0649  0.3753  0.7285
12435TIP3    H158720   2.097   4.228  13.534 -0.1432 -0.6975 -1.6768
12435TIP3    H258721   2.021   4.358  13.517 -1.1696 -1.1290 -0.5524
12436TIP3   OH258722   2.606   4.327   6.124 -0.2822  0.4066  0.0816
12436TIP3    H158723   2.587   4.264   6.194 -1.5598 -0.1026 -0.6900
12436TIP3    H258724   2.695   4.359   6.144 -0.0510 -0.7947  1.1160
12437TIP3   OH258725   0.899   1.760   3.319  0.5095 -0.0292  0.0485
12437TIP3    H158726   0.972   1.730   3.374  0.9966  0.9564 -0.0475
12437TIP3    H258727   0.842   1.808   3.379 -1.1103 -2.4099  0.5554
12438TIP3   OH258728   2.967   4.191   4.582 -0.7445  0.0695 -0.0458
12438TIP3    H158729   2.994   4.257   4.645  0.4625 -1.8840  1.6126
12438TIP3    H258730   3.043   4.134   4.573 -1.5654 -0.8412 -1.8026
12439TIP3   OH258731   0.681   1.555  14.911 -0.0349  0.3625  0.5752
12439TIP3    H158732   0.657   1.633  14.860  0.9426  1.1497  1.2540
12439TIP3    H258733   0.625   1.485  14.878 -0.6304  1.2603 -0.3597
12440TIP3   OH258734   3.291   1.065   1.479  0.7760  0.4518 -0.3333
12440TIP3    H158735   3.212   1.115   1.460  0.8892  1.0471  0.6901
12440TIP3    H258736   3.348   1.082   1.404 -0.7428 -1.5365 -2.0681
12441TIP3   OH258737   0.191   3.535  13.654  0.1494 -0.6409  0.0527
12441TIP3    H158738   0.138   3.570  13.725  0.0201  0.3186 -0.4958
12441TIP3    H258739   0.161   3.444  13.644 -0.3231 -0.5643  0.7470
12442TIP3   OH258740   3.237   0.015   2.594 -0.1259  0.1200  0.1537
12442TIP3    H158741   3.147   0.042   2.610  0.0816 -0.3852  2.6518
12442TIP3    H258742   3.237  -0.022   2.506 -3.0201 -2.3030  1.0052
12443TIP3   OH258743   2.737   1.985   1.824 -0.4293  0.5806  0.3427
12443TIP3    H158744   2.671   2.040   1.781  0.4052  0.7833 -0.7434
12443TIP3    H258745   2.798   2.048   1.863 -0.6836  0.4006  1.0298
12444TIP3   OH258746   0.669   0.060  11.940  0.3778  0.0834 -0.1416
12444TIP3    H158747   0.597   0.100  11.988  0.3024  0.1261 -0.2871
12444TIP3    H258748   0.695   0.128  11.877  0.3760 -0.0268 -0.2611
12445TIP3   OH258749   0.985   5.942   4.535  0.0715  0.2621  0.0647
12445TIP3    H158750   0.912   5.983   4.582  0.2938  0.3459  0.3322
12445TIP3    H258751   1.064   5.978   4.575  0.2717 -0.4296  0.3213
12446TIP3   OH258752   6.460   1.044  12.193  0.1634 -0.5815  0.4222
12446TIP3    H158753   6.554   1.044  12.174  0.2135  1.4414  0.4973
12446TIP3    H258754   6.440   0.953  12.215  2.1841 -0.9700  0.8182
12447TIP3   OH258755   4.282   6.493   0.602  0.3402  0.0230 -0.3786
12447TIP3    H158756   4.285   6.566   0.541 -3.7495  0.2564 -0.5963
12447TIP3    H258757   4.343   6.517   0.672 -2.8885  5.3249  1.1396
12448TIP3   OH258758   3.590   2.935   3.340 -0.1309 -0.5131 -0.2322
12448TIP3    H158759   3.685   2.929   3.327 -0.1505 -0.0027 -0.6401
12448TIP3    H258760   3.576   3.022   3.376 -0.4796 -0.4348 -0.5457
12449TIP3   OH258761   5.322   4.034  15.661  0.0068 -0.2243 -0.9561
12449TIP3    H158762   5.379   4.101  15.701  0.3400 -0.3111 -1.2855
12449TIP3    H258763   5.247   4.030  15.720  0.1507  0.1839 -0.7352
12450TIP3   OH258764   0.628   4.260  12.728  0.1740  0.1611  0.6701
12450TIP3    H158765   0.628   4.180  12.781  3.8751 -0.0101  0.6617
12450TIP3    H258766   0.659   4.232  12.642 -0.4546  1.3239  0.0454
12451TIP3   OH258767   2.982   3.687  15.128  0.0814 -0.3131 -0.9861
12451TIP3    H158768   3.050   3.744  15.093 -0.9558  1.0262 -0.9075
12451TIP3    H258769   2.940   3.739  15.196 -0.6148 -1.3486 -0.6029
12452TIP3   OH258770   5.871   1.743   0.893  0.1093 -0.3960 -0.3945
12452TIP3    H158771   5.803   1.676   0.887 -0.6592  0.3838 -0.6645
12452TIP3    H258772   5.953   1.694   0.898 -0.5068 -1.3755  0.5190
12453TIP3   OH258773   2.724   5.984  12.087  0.0186 -0.8060 -0.1019
12453TIP3    H158774   2.742   6.001  11.994  0.0030 -2.5080 -0.4584
12453TIP3    H258775   2.629   5.995  12.096 -0.0366 -1.0215 -0.3936
12454TIP3   OH258776   6.093   3.169   5.796  0.1392  0.2711  0.1913
12454TIP3    H158777   6.165   3.198   5.853 -1.0275  0.4166  1.6470
12454TIP3    H258778   6.015   3.176   5.850 -0.9964  0.0933 -1.3455
12455TIP3   OH258779   3.739   1.722  11.673 -0.1365  0.7703 -0.1396
12455TIP3    H158780   3.813   1.694  11.727 -1.4207  0.2646  1.4283
12455TIP3    H258781   3.719   1.645  11.619 -1.1858 -0.0862  1.3805
12456TIP3   OH258782   4.363   6.675   1.982 -0.1226 -0.4318  0.4552
12456TIP3    H158783   4.344   6.591   2.023 -0.0928 -1.0298 -0.7237
12456TIP3    H258784   4.318   6.739   2.038 -1.0200 -1.3157  0.7793
12457TIP3   OH258785   2.338   3.646   1.861 -0.1702 -0.6361 -0.1286
12457TIP3    H158786   2.257   3.629   1.910 -1.2679  3.6731 -0.0477
12457TIP3    H258787   2.331   3.592   1.783 -1.1294 -3.3600  1.7004
12458TIP3   OH258788   1.171   2.334  11.011  0.1124  0.2737  0.7390
12458TIP3    H158789   1.221   2.416  11.007  1.0762 -0.3168  0.3468
12458TIP3    H258790   1.189   2.291  10.928 -1.1661  0.0915  0.5412
12459TIP3   OH258791   5.709   6.412   2.575 -0.0833  0.1741 -0.3060
12459TIP3    H158792   5.694   6.338   2.634  0.8758 -1.4557 -1.9944
12459TIP3    H258793   5.648   6.479   2.605 -0.1229 -0.8318  2.0603
12460TIP3   OH258794   3.959   2.532  12.893 -0.2217  0.4659 -0.9153
12460TIP3    H158795   3.970   2.626  12.878 -1.7387  0.6621 -0.8957
12460TIP3    H258796   3.882   2.508  12.841 -1.1572 -0.3314  0.7665
12461TIP3   OH258797   2.918   4.361   5.580 -0.0787 -0.1200 -0.3865
12461TIP3    H158798   2.855   4.302   5.540 -1.2706  0.1045  1.0826
12461TIP3    H258799   2.885   4.448   5.560  1.1550  0.0841 -1.7218
12462TIP3   OH258800   5.756   3.618   6.665  0.4491  0.4804  0.0923
12462TIP3    H158801   5.794   3.596   6.750 -1.1217 -0.1975  0.6476
12462TIP3    H258802   5.782   3.546   6.608 -0.3736 -0.2256  0.5919
12463TIP3   OH258803   1.814   2.328  16.208 -0.3129  0.0035  0.1594
12463TIP3    H158804   1.809   2.233  16.199 -1.4670  0.1159 -0.7061
12463TIP3    H258805   1.731   2.359  16.170 -0.1003  1.3276  0.7477
12464TIP3   OH258806   1.746   0.853  15.340 -0.2848 -0.3636  0.0933
12464TIP3    H158807   1.825   0.888  15.298 -0.3326 -1.5170 -1.0224
12464TIP3    H258808   1.680   0.921  15.326  0.0780 -0.1166 -0.4563
12465TIP3   OH258809   5.540   1.194   5.908  0.1222  0.0608 -0.0730
12465TIP3    H158810   5.503   1.110   5.882 -0.2184  0.6194 -1.4702
12465TIP3    H258811   5.633   1.187   5.885 -0.0089  0.2402 -0.6838
12466TIP3   OH258812   4.028   0.911  14.387  0.0622  0.5100 -0.0514
12466TIP3    H158813   4.109   0.874  14.352  0.0554 -0.7353  1.1425
12466TIP3    H258814   4.011   0.988  14.333  1.1854 -0.1004 -1.3437
12467TIP3   OH258815   4.173   1.433  11.121  0.0851  0.4485  0.4180
12467TIP3    H158816   4.121   1.511  11.105 -0.6269 -0.2469 -0.7616
12467TIP3    H258817   4.180   1.390  11.036 -0.6564 -1.4625  1.2586
12468TIP3   OH258818   0.724   0.121   3.059  0.1268 -0.5186  0.0257
12468TIP3    H158819   0.788   0.084   3.121  0.5214 -0.5194 -0.3763
12468TIP3    H258820   0.678   0.188   3.109  0.3033 -0.6594  0.3800
12469TIP3   OH258821   4.776   1.595   0.212 -0.0016  0.3263 -0.0812
12469TIP3    H158822   4.823   1.542   0.148  0.6719 -1.0085  1.4444
12469TIP3    H258823   4.821   1.680   0.210  0.9928 -0.1841 -0.2919
12470TIP3   OH258824   6.335   5.336  14.834  0.2083  0.0719  0.5437
12470TIP3    H158825   6.394   5.267  14.805 -1.5637 -0.7456 -1.4404
12470TIP3    H258826   6.269   5.342  14.765 -1.6735  1.3543  2.3025
12471TIP3   OH258827   5.162   4.820   4.920  0.4304 -0.4352 -0.2646
12471TIP3    H158828   5.098   4.830   4.850  0.9345 -0.5230 -0.7448
12471TIP3    H258829   5.111   4.788   4.995 -0.3562  1.0153 -0.1468
12472TIP3   OH258830   0.920   1.357   5.779  0.2704 -0.0128  0.2288
12472TIP3    H158831   0.849   1.419   5.763  1.6752  1.7270  0.4029
12472TIP3    H258832   0.964   1.349   5.694  0.5440 -0.2128  0.3894
12473TIP3   OH258833   1.687   5.350   1.369  0.0649 -0.3273  0.0557
12473TIP3    H158834   1.663   5.313   1.285 -0.6158  0.4097 -0.0832
12473TIP3    H258835   1.767   5.303   1.394  1.3610  0.7084 -1.8586
12474TIP3   OH258836   5.755   0.403   4.278 -0.3804 -0.9084  0.1122
12474TIP3    H158837   5.695   0.476   4.293 -1.2577 -1.8610  1.5341
12474TIP3    H258838   5.786   0.415   4.189 -1.7549  0.2998 -0.2409
12475TIP3   OH258839   0.958   0.660   6.135  0.0481 -0.0843 -0.0198
12475TIP3    H158840   0.882   0.616   6.097 -0.2905 -0.5871  1.1789
12475TIP3    H258841   1.033   0.620   6.091 -0.3628  0.6069 -1.4053
12476TIP3   OH258842   2.298   3.077   5.251 -0.4509  0.2590 -0.5281
12476TIP3    H158843   2.347   3.055   5.331  1.9593  2.6536 -1.2092
12476TIP3    H258844   2.208   3.089   5.281 -0.6598 -3.5491  0.9270
12477TIP3   OH258845   1.565   2.010  12.839  0.0625  0.5157 -0.2189
12477TIP3    H158846   1.521   1.986  12.921 -0.2433  1.0296 -0.2288
12477TIP3    H258847   1.494   2.012  12.774  0.2798  0.2673 -0.4678
12478TIP3   OH258848   5.671   2.707  16.361  0.1333 -0.0105 -0.0681
12478TIP3    H158849   5.587   2.714  16.405  0.5321 -1.0602  0.9017
12478TIP3    H258850   5.660   2.757  16.280 -0.9817  0.9943  0.6641
12479TIP3   OH258851   6.401   1.287  12.281  0.0311  0.3961  0.1340
12479TIP3    H158852   6.482   1.332  12.256 -0.1143  0.7924  0.3748
12479TIP3    H258853   6.414   1.197  12.250 -0.1794  0.8830 -1.4335
12480TIP3   OH258854   2.346   2.470  16.162 -0.0131  0.0281 -0.2692
12480TIP3    H158855   2.369   2.523  16.086  2.6934  1.2986  1.3004
12480TIP3    H258856   2.381   2.383  16.143 -0.9507 -0.1807 -1.1639
12481TIP3   OH258857   5.380   0.536  12.511 -0.2832 -0.2610  0.8708
12481TIP3    H158858   5.348   0.570  12.427  1.9331 -0.3490 -0.0537
12481TIP3    H258859   5.370   0.610  12.571 -0.7797  0.1880  0.2499
12482TIP3   OH258860   0.877   0.336   2.189  0.1699 -0.3821  0.3142
12482TIP3    H158861   0.874   0.403   2.257  0.0268 -0.6027  0.5294
12482TIP3    H258862   0.856   0.254   2.236 -1.2697 -0.3468 -0.2453
12483TIP3   OH258863   1.111   4.226   0.205  0.2002 -0.2970 -0.1224
12483TIP3    H158864   1.187   4.221   0.263  0.7340  1.3579 -0.6487
12483TIP3    H258865   1.038   4.249   0.263 -0.1648 -2.7217  0.5341
12484TIP3   OH258866   1.653   0.949  12.867 -0.4095 -0.5533 -0.3509
12484TIP3    H158867   1.731   0.894  12.853  0.0853  0.0790 -0.1047
12484TIP3    H258868   1.638   0.947  12.961 -0.5918 -0.5328 -0.3786
12485TIP3   OH258869   2.719   4.581   2.947 -0.0279  0.0471 -0.3084
12485TIP3    H158870   2.760   4.541   2.870  1.0748 -0.0045  0.2878
12485TIP3    H258871   2.738   4.520   3.018 -1.4590 -0.1525 -0.0691
12486TIP3   OH258872   6.559   5.055   0.613  0.5970 -0.4289  0.0555
12486TIP3    H158873   6.651   5.037   0.629  0.8891  0.1843 -0.8605
12486TIP3    H258874   6.559   5.132   0.555 -0.4846 -0.3524  0.1368
12487TIP3   OH258875   6.278   4.122   2.366  0.0041 -0.1112 -0.0659
12487TIP3    H158876   6.279   4.063   2.291  0.2051 -1.3643  0.8905
12487TIP3    H258877   6.370   4.145   2.380 -0.0476  0.2325 -0.2836
12488TIP3   OH258878   1.584   3.349  16.634  0.4319  0.0859  0.2207
12488TIP3    H158879   1.570   3.326  16.726  0.6862 -0.0423  0.2300
12488TIP3    H258880   1.646   3.283  16.603 -0.6592 -0.6720 -0.4072
12489TIP3   OH258881   6.056   4.512  14.236  0.5392  0.0195  0.0525
12489TIP3    H158882   6.031   4.460  14.160  0.7536 -0.8631  0.5591
12489TIP3    H258883   6.102   4.450  14.293 -0.2934  0.4623  1.2544
12490TIP3   OH258884   5.734   4.497   1.940  0.0862 -0.0740 -0.4329
12490TIP3    H158885   5.789   4.493   2.019 -0.9549 -1.1453  0.2772
12490TIP3    H258886   5.795   4.487   1.867  0.8857 -0.8574  0.3205
12491TIP3   OH258887   4.259   5.070   2.070 -0.2200 -0.0305 -1.3246
12491TIP3    H158888   4.256   4.988   2.119 -0.0932 -0.3532 -1.8435
12491TIP3    H258889   4.348   5.102   2.083 -1.3703  2.2594  2.4038
12492TIP3   OH258890   0.859   5.998   2.465  0.5691 -0.3082 -0.5611
12492TIP3    H158891   0.811   6.054   2.404 -1.2517  1.0571  1.9340
12492TIP3    H258892   0.943   6.041   2.477 -0.6320  1.8190  0.9665
12493TIP3   OH258893   0.943   3.437   2.759  0.0964 -0.1622  0.6616
12493TIP3    H158894   0.961   3.344   2.757 -1.3869 -0.5721  2.7909
12493TIP3    H258895   0.885   3.452   2.684  1.4749 -0.6001 -0.5533
12494TIP3   OH258896   5.740   4.915   2.016 -0.2574  0.7752  0.0946
12494TIP3    H158897   5.661   4.870   1.988  0.1584 -0.3190  0.6284
12494TIP3    H258898   5.742   4.995   1.963 -0.7148 -0.0941 -1.2870
12495TIP3   OH258899   4.738   0.692  12.130 -0.9065 -0.1096  0.0982
12495TIP3    H158900   4.647   0.701  12.159 -1.0131 -0.1369 -0.2161
12495TIP3    H258901   4.773   0.620  12.183 -0.4161  1.2868  1.7318
12496TIP3   OH258902   3.998   1.261   2.878 -0.2452 -1.1467  0.4067
12496TIP3    H158903   4.028   1.221   2.796 -4.5678 -3.1647 -0.4824
12496TIP3    H258904   3.959   1.188   2.927 -1.0444  0.6626  2.6156
12497TIP3   OH258905   5.076   4.193   0.717  0.0864  0.1565 -0.2178
12497TIP3    H158906   5.067   4.141   0.796 -1.4661  2.0004  0.9184
12497TIP3    H258907   5.151   4.250   0.734 -0.1717  0.4676 -0.1080
12498TIP3   OH258908   1.666   2.583   5.811 -0.2009 -0.3420 -0.1727
12498TIP3    H158909   1.685   2.606   5.902 -0.5863  2.1985 -0.6569
12498TIP3    H258910   1.752   2.575   5.769 -0.0202  1.9000 -0.3106
12499TIP3   OH258911   4.871   6.055  13.247 -0.0440  0.0323 -0.1944
12499TIP3    H158912   4.872   6.024  13.337  0.2088  0.8103  0.0789
12499TIP3    H258913   4.941   6.006  13.204 -2.1512 -2.6600 -0.8002
12500TIP3   OH258914   5.928   1.597   4.205 -0.4953 -0.0127 -0.0810
12500TIP3    H158915   5.919   1.515   4.157 -0.9689 -0.6842  1.1041
12500TIP3    H258916   5.975   1.573   4.285 -2.2893  0.4783  1.1766
12501TIP3   OH258917   6.214   1.232   1.926 -0.2708  0.0972 -0.7043
12501TIP3    H158918   6.237   1.323   1.910 -1.2926  0.4276 -0.3174
12501TIP3    H258919   6.272   1.182   1.868 -1.5383  1.0965 -2.9117
12502TIP3   OH258920   4.672   0.936   2.998 -0.5333  0.0245  0.0930
12502TIP3    H158921   4.763   0.965   3.010 -0.6633  1.7896 -2.2860
12502TIP3    H258922   4.628   0.958   3.080  1.1346 -0.7528  1.2459
12503TIP3   OH258923   0.147   4.021   0.460 -0.2026  0.6888 -0.1458
12503TIP3    H158924   0.157   3.982   0.373 -2.5070  1.7564 -0.9670
12503TIP3    H258925   0.115   3.948   0.515  0.8089  0.1248 -0.2880
12504TIP3   OH258926   6.759   5.269   5.083 -0.3762 -0.0780  0.2619
12504TIP3    H158927   6.709   5.342   5.121  1.8567  1.4453  0.4626
12504TIP3    H258928   6.815   5.239   5.154  0.2012 -0.6109 -0.4108
12505TIP3   OH258929   1.791   5.906   6.217  0.0126  0.4578  0.2774
12505TIP3    H158930   1.804   5.846   6.144  0.6139  0.6951  0.1877
12505TIP3    H258931   1.714   5.957   6.192  0.0991  0.4072 -0.1034
12506TIP3   OH258932   6.646   1.549  13.206  0.6898  0.7563 -0.9276
12506TIP3    H158933   6.662   1.537  13.300  0.1305  2.3495 -0.6049
12506TIP3    H258934   6.711   1.494  13.164  0.7844 -0.2060  0.3913
12507TIP3   OH258935   1.997   0.173  13.880 -0.8343  0.2108 -0.4800
12507TIP3    H158936   2.002   0.268  13.895 -0.0085 -0.0901  1.4153
12507TIP3    H258937   2.042   0.160  13.797  1.2641  1.2562  0.4166
12508TIP3   OH258938   1.256   0.006   2.443  0.0952 -0.0473  0.5502
12508TIP3    H158939   1.205   0.087   2.453  0.2161  0.1691 -0.4734
12508TIP3    H258940   1.276  -0.020   2.533 -0.0464  0.9935  0.9060
12509TIP3   OH258941   1.284   1.352   4.184 -0.4806  0.5207  0.6364
12509TIP3    H158942   1.275   1.388   4.096  0.7351 -0.2636  0.1769
12509TIP3    H258943   1.368   1.386   4.215  0.2464 -1.1331  0.5476
12510TIP3   OH258944   0.359   5.022   5.709 -0.1601 -0.8275  0.3185
12510TIP3    H158945   0.335   4.978   5.627  2.6361  1.0571 -1.6916
12510TIP3    H258946   0.399   4.952   5.762 -1.1244 -1.8874 -0.2963
12511TIP3   OH258947   2.075   3.347   5.934 -0.4185 -0.4603  0.7161
12511TIP3    H158948   2.138   3.286   5.896 -0.1784 -0.1895  0.6767
12511TIP3    H258949   2.128   3.418   5.970 -0.7445  1.3483 -2.0205
12512TIP3   OH258950   4.477   5.838   3.249 -0.3175 -0.1809 -0.2872
12512TIP3    H158951   4.522   5.898   3.309 -0.1988  0.1088 -0.6633
12512TIP3    H258952   4.387   5.871   3.246 -0.3476 -0.2550 -0.1899
12513TIP3   OH258953   2.805   4.874   5.897  0.5059  0.0387  0.5773
12513TIP3    H158954   2.775   4.947   5.951  1.5211  0.8439  0.0813
12513TIP3    H258955   2.886   4.845   5.939  0.1921 -0.7124  0.6806
12514TIP3   OH258956   6.008   2.940  14.242  0.3051 -0.6306 -0.0585
12514TIP3    H158957   5.940   2.908  14.302  1.5061 -0.3067  1.5664
12514TIP3    H258958   6.029   3.027  14.275 -0.2392  0.3277 -2.0963
12515TIP3   OH258959   5.715   0.116   2.505 -0.2879 -0.1360  0.1144
12515TIP3    H158960   5.629   0.152   2.525 -0.3519 -0.1239 -0.1762
12515TIP3    H258961   5.728   0.136   2.412  0.5422  0.9591  0.4374
12516TIP3   OH258962   5.051   1.632  14.819  0.2275  0.1925  0.0105
12516TIP3    H158963   5.038   1.666  14.907 -0.4961  1.0335 -0.4101
12516TIP3    H258964   5.127   1.574  14.827 -1.9678 -2.6666  1.9768
12517TIP3   OH258965   2.991   0.219  12.019  0.5725 -0.1006  0.1782
12517TIP3    H158966   3.008   0.288  11.955  1.1979 -0.5863 -0.1870
12517TIP3    H258967   2.956   0.265  12.095  0.1109  0.5119 -0.3994
12518TIP3   OH258968   3.412   0.698   3.007  0.5260  0.3326 -0.2212
12518TIP3    H158969   3.441   0.611   3.033  2.3618  1.0796  0.4073
12518TIP3    H258970   3.435   0.704   2.914 -0.4433 -0.1413 -0.5130
12519TIP3   OH258971   2.216   3.950   5.587 -0.1977  0.3526 -0.5120
12519TIP3    H158972   2.286   3.896   5.549 -1.1483 -0.5491 -1.0137
12519TIP3    H258973   2.225   3.937   5.681 -0.8217 -1.2439 -0.6373
12520TIP3   OH258974   4.300   0.074   5.451 -0.4009 -0.5729 -0.2525
12520TIP3    H158975   4.385   0.100   5.415 -0.6878  0.1270 -0.4427
12520TIP3    H258976   4.276   0.147   5.509 -1.3026 -0.3225 -0.9248
12521TIP3   OH258977   0.391   1.120   1.313 -0.0112 -0.4942  0.1537
12521TIP3    H158978   0.428   1.136   1.226  0.9669 -1.0837  0.4447
12521TIP3    H258979   0.458   1.068   1.358 -0.7984 -0.7749  1.0285
12522TIP3   OH258980   3.625   0.318  11.951  0.3224  0.0378 -0.2490
12522TIP3    H158981   3.671   0.376  11.891  2.4876 -1.9777 -0.7058
12522TIP3    H258982   3.631   0.232  11.910 -0.6559 -0.9227  1.5081
12523TIP3   OH258983   6.008   0.824   4.201  0.4811  0.1072 -0.6267
12523TIP3    H158984   6.089   0.858   4.165  0.5100  1.3890  0.5636
12523TIP3    H258985   6.016   0.729   4.193  1.6124  0.2599 -1.5136
12524TIP3   OH258986   3.022   4.002  14.772  0.0424  0.2584  0.2310
12524TIP3    H158987   3.067   3.975  14.852 -2.5435 -0.2314  1.5919
12524TIP3    H258988   3.053   3.940  14.706  0.7213 -0.5668  1.2888
12525TIP3   OH258989   0.072   5.660  16.838  0.2642  0.1198 -0.1984
12525TIP3    H158990   0.044   5.732  16.894  1.2034  1.5293 -1.4711
12525TIP3    H258991   0.155   5.688  16.801  1.4878 -2.3212  0.4778
12526TIP3   OH258992   3.900   2.619   1.621  0.0056  0.3557  0.3621
12526TIP3    H158993   3.930   2.678   1.690  2.1397 -1.9647  1.5912
12526TIP3    H258994   3.937   2.657   1.541  1.8687  0.4495  1.1951
12527TIP3   OH258995   4.642   4.716  15.592 -0.2067  0.5488 -0.1351
12527TIP3    H158996   4.586   4.774  15.541 -2.4172 -0.7403  0.6612
12527TIP3    H258997   4.634   4.749  15.682  0.1866  0.2564  0.0072
12528TIP3   OH258998   1.863   5.081   1.465 -0.9522 -0.7075  0.1416
12528TIP3    H158999   1.890   4.991   1.484 -0.1839 -0.2509  1.3995
12528TIP3    H259000   1.913   5.134   1.528 -0.9070  0.6522 -0.9911
12529TIP3   OH259001   1.681   4.496  14.584 -0.2119  0.2200  0.1781
12529TIP3    H159002   1.750   4.550  14.623  0.0133  0.8817 -1.0887
12529TIP3    H259003   1.642   4.552  14.517 -2.5516  0.1841  1.3805
12530TIP3   OH259004   4.454   3.413   1.504  0.1575 -0.1109 -0.3442
12530TIP3    H159005   4.509   3.384   1.430 -1.1535  0.7078 -1.6945
12530TIP3    H259006   4.451   3.337   1.562  3.2780  0.0166  0.1826
12531TIP3   OH259007   5.894   3.534  15.500 -0.2485 -0.4071 -0.0559
12531TIP3    H159008   5.884   3.622  15.537  0.1240  1.1682 -3.3081
12531TIP3    H259009   5.804   3.501  15.492 -0.5766  0.6036 -0.7528
12532TIP3   OH259010   5.575   5.993   3.937 -0.0649 -0.0359  0.9560
12532TIP3    H159011   5.531   5.991   4.022 -0.9196  2.9060  0.7020
12532TIP3    H259012   5.649   6.053   3.949  0.9276 -1.0491  0.0869
12533TIP3   OH259013   4.188   5.474   3.593 -0.4980 -0.4139 -0.0555
12533TIP3    H159014   4.098   5.489   3.623  0.0799  0.7409  1.2226
12533TIP3    H259015   4.215   5.393   3.636 -1.2530 -1.3471 -1.2828
12534TIP3   OH259016   6.570   5.469  11.555 -0.0338  0.0699  0.0931
12534TIP3    H159017   6.661   5.478  11.527  0.3448  1.2568  1.5310
12534TIP3    H259018   6.541   5.559  11.570 -1.2150 -0.3337  0.3426
12535TIP3   OH259019   0.958   1.210   4.994 -0.4834  0.1660 -0.4316
12535TIP3    H159020   1.020   1.252   4.934 -0.0058  0.2792  0.1219
12535TIP3    H259021   0.961   1.265   5.073  0.7767 -1.3074  0.6262
12536TIP3   OH259022   6.188   0.596  14.722 -0.0362 -0.4385 -0.3004
12536TIP3    H159023   6.097   0.611  14.697  0.1297 -1.2723 -1.4573
12536TIP3    H259024   6.234   0.585  14.639  1.0282 -0.5696  0.2947
12537TIP3   OH259025   1.940   3.092   6.039  0.5575 -0.0076 -0.2837
12537TIP3    H159026   1.960   3.185   6.026 -0.0307  0.3009  0.8529
12537TIP3    H259027   1.862   3.077   5.986 -1.0842  0.9181  1.7207
12538TIP3   OH259028   1.396   4.056   5.571 -0.7817  0.1786  0.2860
12538TIP3    H159029   1.338   3.980   5.575 -0.2264 -0.3473 -1.1834
12538TIP3    H259030   1.482   4.022   5.595 -0.4956  0.2816 -0.5474
12539TIP3   OH259031   5.773   3.945  11.228 -0.2746 -0.3315 -0.1313
12539TIP3    H159032   5.753   4.033  11.198 -2.9374 -0.3238  1.3316
12539TIP3    H259033   5.722   3.935  11.309 -0.4272 -3.3590 -0.4830
12540TIP3   OH259034   0.950   2.357   2.450 -0.1496 -0.6273  0.0945
12540TIP3    H159035   0.962   2.451   2.441  1.6820 -0.7859  0.5029
12540TIP3    H259036   0.939   2.343   2.545 -1.5608 -0.7404 -0.0581
12541TIP3   OH259037   6.682   0.768   0.416 -0.5802  0.2907  0.4739
12541TIP3    H159038   6.717   0.689   0.458 -0.1861 -0.8976 -1.9137
12541TIP3    H259039   6.748   0.791   0.351 -0.5068  2.8866  1.3611
12542TIP3   OH259040   2.012   0.613  16.648  0.3271 -0.4418  0.8335
12542TIP3    H159041   2.052   0.567  16.722 -1.9971 -0.1069  2.4141
12542TIP3    H259042   2.013   0.548  16.577  2.8821 -0.6690  0.9926
12543TIP3   OH259043   2.755   3.848   0.378 -0.2181  0.3628  0.0394
12543TIP3    H159044   2.820   3.884   0.438 -0.7248  0.1669  0.7171
12543TIP3    H259045   2.676   3.898   0.395 -0.3122  0.4520 -0.6240
12544TIP3   OH259046   1.261   2.008  15.840  0.1235 -0.0340 -0.1933
12544TIP3    H159047   1.257   2.008  15.744  1.0736  1.5777 -0.2707
12544TIP3    H259048   1.250   2.100  15.864  1.0476 -0.2515  1.1768
12545TIP3   OH259049   2.471   5.363  16.613  0.2222 -0.5280  0.0181
12545TIP3    H159050   2.458   5.269  16.623  0.1126 -0.6582 -1.2377
12545TIP3    H259051   2.404   5.391  16.551  0.9326  0.1700 -0.4668
12546TIP3   OH259052   4.687   5.916   0.948 -0.0387 -0.5590  0.1520
12546TIP3    H159053   4.727   5.830   0.939  0.1240 -0.5328  0.5798
12546TIP3    H259054   4.719   5.948   1.033 -0.7625 -0.4318  0.3829
12547TIP3   OH259055   2.801   5.207   3.067  0.2595  0.0413 -0.4509
12547TIP3    H159056   2.759   5.206   2.981  0.4329 -0.2715 -0.5309
12547TIP3    H259057   2.731   5.182   3.128  0.0641  0.5417 -0.4666
12548TIP3   OH259058   1.951   3.992   1.574  0.8192  0.5618  0.2364
12548TIP3    H159059   1.900   3.971   1.652  0.8777 -0.4769  0.0205
12548TIP3    H259060   1.943   4.087   1.564 -2.6387  0.3181 -0.8085
12549TIP3   OH259061   1.878   2.368   5.576 -0.7019  0.0770  0.2204
12549TIP3    H159062   1.957   2.314   5.583 -1.4367 -1.0343  0.1044
12549TIP3    H259063   1.855   2.364   5.484  0.7679  2.8845 -0.3965
12550TIP3   OH259064   3.655   4.400  14.650  0.5223  0.1579 -0.2582
12550TIP3    H159065   3.640   4.494  14.651 -1.1291 -0.0612  0.7177
12550TIP3    H259066   3.685   4.379  14.739  1.6575 -0.1455 -0.7001
12551TIP3   OH259067   3.662   3.141  12.804 -0.2019  0.6501  0.4427
12551TIP3    H159068   3.598   3.088  12.756  0.4627 -0.3189  0.6007
12551TIP3    H259069   3.617   3.164  12.886 -0.2839 -0.2022  0.6453
12552TIP3   OH259070   5.075   5.996   2.406  0.0302 -0.0227 -0.5655
12552TIP3    H159071   5.095   5.911   2.447 -0.1115  0.4053  0.4081
12552TIP3    H259072   5.065   6.056   2.479 -1.0051  0.6036 -1.1988
12553TIP3   OH259073   6.374   2.285   5.247  0.1135  0.1620  0.3490
12553TIP3    H159074   6.402   2.333   5.169 -2.8752 -2.0471 -2.3529
12553TIP3    H259075   6.456   2.259   5.289  1.8647  2.7547 -1.1130
12554TIP3   OH259076   2.228   0.629   3.618 -0.5260  0.1257 -0.0333
12554TIP3    H159077   2.301   0.679   3.580  0.3769  0.2110  1.7364
12554TIP3    H259078   2.175   0.695   3.662 -0.8924 -0.1231 -0.1021
12555TIP3   OH259079   3.144   6.779   3.661  0.0331 -0.2880 -0.1764
12555TIP3    H159080   3.189   6.709   3.615  1.7722  1.7169 -1.6791
12555TIP3    H259081   3.089   6.821   3.594  1.1780  1.5103 -0.0412
12556TIP3   OH259082   2.593   4.630  15.950 -0.1574  0.0904  0.3281
12556TIP3    H159083   2.503   4.653  15.972 -1.1063 -2.1921 -0.8086
12556TIP3    H259084   2.608   4.668  15.863 -0.0196  0.4225  0.4939
12557TIP3   OH259085   5.050   5.350  12.869 -0.2894  0.0392 -0.0103
12557TIP3    H159086   5.138   5.320  12.848 -0.7153 -1.5441  0.3212
12557TIP3    H259087   4.993   5.276  12.848 -1.5599  1.0322 -0.2379
12558TIP3   OH259088   6.193   4.750  11.814 -0.3882 -0.7207  0.1019
12558TIP3    H159089   6.216   4.809  11.743  0.2907  1.6705  2.1740
12558TIP3    H259090   6.099   4.763  11.827  0.3469  3.6233  3.3939
12559TIP3   OH259091   5.947   1.133   4.424 -0.0600  0.2587 -0.3949
12559TIP3    H159092   5.995   1.139   4.506 -1.0433 -0.6342  0.2759
12559TIP3    H259093   6.013   1.110   4.359  0.2877 -2.4715  0.7681
12560TIP3   OH259094   2.267   1.019   1.275 -0.3143 -0.0733 -0.6586
12560TIP3    H159095   2.261   1.096   1.331  0.5181  0.3907 -1.1801
12560TIP3    H259096   2.179   1.009   1.238 -0.2260  1.1528 -1.2541
12561TIP3   OH259097   5.557   1.918  17.060 -0.0719 -0.1403 -0.2816
12561TIP3    H159098   5.465   1.935  17.076  0.2540  1.6427 -0.0403
12561TIP3    H259099   5.572   1.947  16.970  0.4467  0.6354  0.0349
12562TIP3   OH259100   3.523   3.085  12.365  0.4045 -0.0274 -0.3405
12562TIP3    H159101   3.613   3.114  12.377  0.1291  0.1428  1.5910
12562TIP3    H259102   3.523   2.993  12.392 -0.4288  0.6115  2.0558
12563TIP3   OH259103   5.644   0.871  17.062 -0.3342 -0.4470 -0.1918
12563TIP3    H159104   5.637   0.816  17.140 -0.7664  0.0847  0.1478
12563TIP3    H259105   5.642   0.961  17.095  2.9767 -0.1254 -0.4773
12564TIP3   OH259106   0.875   2.944   0.483  0.1305  0.3613  0.3326
12564TIP3    H159107   0.955   2.933   0.431  1.0477 -1.1592  1.9405
12564TIP3    H259108   0.817   2.996   0.428  1.4889 -0.1587 -1.6946
12565TIP3   OH259109   2.654   1.117  16.702  0.0104  0.4995 -0.2993
12565TIP3    H159110   2.696   1.119  16.788  0.5521  0.6456 -0.5607
12565TIP3    H259111   2.638   1.209  16.681  1.4686  0.6076 -1.1006
12566TIP3   OH259112   1.025   6.519   1.855  0.0114  0.4673 -0.0837
12566TIP3    H159113   1.017   6.615   1.859 -0.1439  0.4317  0.6773
12566TIP3    H259114   0.935   6.488   1.844 -0.4580  0.2890  3.1902
12567TIP3   OH259115   1.198   1.116  12.385  0.5766 -0.0716  0.3583
12567TIP3    H159116   1.173   1.080  12.300  1.7650 -1.0706  0.4111
12567TIP3    H259117   1.115   1.134  12.429 -0.0606  0.8573 -1.1603
12568TIP3   OH259118   6.511   5.415  10.541 -0.3805  0.0348 -0.3883
12568TIP3    H159119   6.428   5.375  10.514  0.0352 -0.5028 -0.8796
12568TIP3    H259120   6.491   5.453  10.627 -1.4738  0.9993 -1.0336
12569TIP3   OH259121   5.626   3.190   0.767 -0.1823  0.3569  0.1319
12569TIP3    H159122   5.652   3.118   0.826  0.4868  0.5113  0.0360
12569TIP3    H259123   5.569   3.148   0.702 -2.0012  0.4249  1.6125
12570TIP3   OH259124   5.526   3.996  16.279  0.0180 -0.5157 -0.1052
12570TIP3    H159125   5.563   3.963  16.197 -0.5547 -0.1482 -0.5159
12570TIP3    H259126   5.445   3.946  16.290  1.2330 -2.2581  1.4590
12571TIP3   OH259127   4.231   3.374   5.525  0.5176 -0.5482 -0.0708
12571TIP3    H159128   4.237   3.448   5.585 -1.9048 -0.0564 -0.3454
12571TIP3    H259129   4.302   3.316   5.552  1.0355  0.7923  1.6480
12572TIP3   OH259130   1.583   5.510   4.060 -0.8639  0.2426 -0.3855
12572TIP3    H159131   1.599   5.463   3.978 -0.5726  1.6499 -1.1614
12572TIP3    H259132   1.587   5.602   4.036 -2.4822  0.6798  0.9061
12573TIP3   OH259133   3.146   2.441   4.554 -0.1022  0.6905 -1.2830
12573TIP3    H159134   3.084   2.393   4.500 -0.7475  2.1635 -1.8909
12573TIP3    H259135   3.227   2.390   4.548 -1.6002 -2.2568  0.9367
12574TIP3   OH259136   0.657   0.955  15.550  0.4784  0.1834 -0.0627
12574TIP3    H159137   0.717   0.985  15.618  1.7589 -1.9015 -0.1933
12574TIP3    H259138   0.704   0.970  15.468  0.7590 -1.2309 -0.1822
12575TIP3   OH259139   0.961   0.880  14.758 -0.2609 -0.2297 -0.0039
12575TIP3    H159140   1.048   0.859  14.791 -0.0987  1.6425  0.9249
12575TIP3    H259141   0.975   0.954  14.698 -1.2950  0.7494  0.9225
12576TIP3   OH259142   4.773   2.832   1.659  0.3696  0.3861  0.3540
12576TIP3    H159143   4.865   2.814   1.636  0.6645  0.8698  1.1303
12576TIP3    H259144   4.778   2.900   1.725 -0.6097  1.2765 -0.4618
12577TIP3   OH259145   0.317   4.171  12.815 -0.7891  0.0448  0.0214
12577TIP3    H159146   0.319   4.238  12.746  2.7622 -0.0763 -0.1849
12577TIP3    H259147   0.293   4.091  12.769 -0.7451  0.3742 -0.5869
12578TIP3   OH259148   0.215   0.857  14.478 -0.5589 -0.0118  0.0429
12578TIP3    H159149   0.252   0.899  14.555  0.2167 -2.0616  0.8548
12578TIP3    H259150   0.184   0.772  14.509 -0.0161 -0.9918 -1.9293
12579TIP3   OH259151   5.366   6.605   2.622 -0.2250 -0.1113 -0.0364
12579TIP3    H159152   5.461   6.611   2.616 -0.2200  0.1563  0.3085
12579TIP3    H259153   5.333   6.679   2.571 -0.2618 -0.5251 -0.6270
12580TIP3   OH259154   5.202   1.613  12.060 -0.3418 -0.0455  0.4593
12580TIP3    H159155   5.195   1.645  11.970 -2.2530  1.1899  0.9818
12580TIP3    H259156   5.283   1.652  12.093  1.2580 -1.8291 -1.1624
12581TIP3   OH259157   3.921   6.120  13.137  0.4208  0.5215  0.2177
12581TIP3    H159158   3.922   6.179  13.212 -0.1783 -1.1732  1.6208
12581TIP3    H259159   3.938   6.033  13.174 -1.1235 -0.5507 -1.4063
12582TIP3   OH259160   2.811   5.069   4.449 -0.0228 -0.2359  0.0039
12582TIP3    H159161   2.896   5.084   4.490 -0.6543 -3.1171  2.7256
12582TIP3    H259162   2.830   5.008   4.377  0.1356 -2.3846  1.7522
12583TIP3   OH259163   2.475   3.748  14.502 -0.2468 -0.0539  0.3367
12583TIP3    H159164   2.556   3.797  14.484 -0.2814 -0.1950 -0.2111
12583TIP3    H259165   2.500   3.683  14.567 -0.1394  0.5229  0.8803
12584TIP3   OH259166   3.670   3.044   0.426  0.5244 -0.3518 -0.4754
12584TIP3    H159167   3.718   3.023   0.506  0.0266 -0.2918 -0.1564
12584TIP3    H259168   3.696   3.134   0.405 -0.8773  0.3780  0.7599
12585TIP3   OH259169   6.785   3.132  11.209  0.4177  0.1929 -0.3757
12585TIP3    H159170   6.768   3.135  11.115 -0.6588  1.7075 -0.1880
12585TIP3    H259171   6.708   3.174  11.248  1.8833  1.7797  0.9977
12586TIP3   OH259172   3.182   4.829   3.251  0.5844  0.1227 -0.3708
12586TIP3    H159173   3.126   4.894   3.209 -1.7512 -1.3403  0.2993
12586TIP3    H259174   3.123   4.780   3.309  2.8419 -0.6254  1.4593
12587TIP3   OH259175   4.209   5.506   4.126 -0.2001 -0.0416 -0.5734
12587TIP3    H159176   4.235   5.425   4.083  0.4937  0.0309 -0.3093
12587TIP3    H259177   4.231   5.493   4.219  0.1291  0.5226 -0.5628
12588TIP3   OH259178   4.647   5.172  16.509 -0.1637  0.1735 -0.1317
12588TIP3    H159179   4.660   5.101  16.571 -0.8195  0.5416  0.4312
12588TIP3    H259180   4.554   5.171  16.490  0.0303  0.0480 -1.1424
12589TIP3   OH259181   0.664   3.146   0.601  0.1925 -0.3730  0.6548
12589TIP3    H159182   0.717   3.137   0.680  0.9256  0.6542  0.2985
12589TIP3    H259183   0.701   3.222   0.556  0.6969 -1.7530 -1.3763
12590TIP3   OH259184   0.469   4.731   1.682 -0.0703 -0.8339 -0.0912
12590TIP3    H159185   0.531   4.775   1.623 -0.6271  0.6506  0.3683
12590TIP3    H259186   0.524   4.678   1.740  0.9546  1.3336  1.0527
12591TIP3   OH259187   3.187   4.580  15.967  0.0482 -0.3614  0.3312
12591TIP3    H159188   3.134   4.549  16.041 -2.4280  1.0202 -0.7271
12591TIP3    H259189   3.192   4.675  15.980  0.3118 -0.2101 -0.8171
12592TIP3   OH259190   3.331   5.418  12.944 -0.2911  0.2764  0.1848
12592TIP3    H159191   3.242   5.449  12.925 -0.9957 -0.4135  2.0929
12592TIP3    H259192   3.320   5.325  12.964  0.9269  0.0903  0.0599
12593TIP3   OH259193   4.665   1.301   3.392 -0.3201 -0.0427  0.1881
12593TIP3    H159194   4.653   1.394   3.409  0.2325  0.0560  0.0588
12593TIP3    H259195   4.711   1.298   3.309 -1.0103 -0.4577 -0.1894
12594TIP3   OH259196   5.381   3.062   3.624  0.1833  0.1302  0.4421
12594TIP3    H159197   5.373   3.085   3.717 -1.1543 -0.3994  0.4809
12594TIP3    H259198   5.360   3.142   3.577 -1.4922 -0.1774  0.6026
12595TIP3   OH259199   3.435   4.001   2.311  0.2282  0.3284  0.0772
12595TIP3    H159200   3.497   4.073   2.303  0.2149  0.3857  0.4932
12595TIP3    H259201   3.483   3.932   2.356  0.6580 -0.4227 -1.4419
12596TIP3   OH259202   1.773   5.370  15.047  0.7044  0.2508 -0.0121
12596TIP3    H159203   1.714   5.437  15.081 -2.2086 -1.9129 -0.4428
12596TIP3    H259204   1.761   5.295  15.105  0.4433 -1.3719 -2.0123
12597TIP3   OH259205   0.306   5.235   6.679 -0.3686  0.2665  0.2016
12597TIP3    H159206   0.392   5.230   6.721 -0.5358  0.0552  0.5276
12597TIP3    H259207   0.261   5.154   6.706 -0.5781  0.2551 -0.1698
12598TIP3   OH259208   4.099   0.105   0.300  0.4463 -0.8995 -0.5437
12598TIP3    H159209   4.027   0.054   0.337  0.0686  1.2761  2.0139
12598TIP3    H259210   4.057   0.181   0.260  1.2042 -0.6346 -0.8545
12599TIP3   OH259211   0.544   1.682   0.394  1.0492 -0.0434  0.2869
12599TIP3    H159212   0.603   1.704   0.466  0.9351 -1.4526  0.8545
12599TIP3    H259213   0.546   1.586   0.391 -2.0606 -0.2371  1.0905
12600TIP3   OH259214   6.314   1.526  15.626  0.1947  0.7022 -0.2773
12600TIP3    H159215   6.241   1.557  15.680 -0.0411 -0.2831 -0.0052
12600TIP3    H259216   6.294   1.433  15.611  0.0252  1.0356 -2.4230
12601TIP3   OH259217   0.298   3.196   6.158  0.0007  0.5983 -0.5079
12601TIP3    H159218   0.355   3.239   6.223  0.6619  1.7062 -1.7729
12601TIP3    H259219   0.220   3.252   6.155  1.3580  2.5412 -3.0297
12602TIP3   OH259220   4.173   1.076  11.666 -0.8295 -0.1295  0.3458
12602TIP3    H159221   4.183   1.022  11.745  0.5555 -0.1662  0.1678
12602TIP3    H259222   4.133   1.017  11.602 -0.9994 -0.4019  0.6966
12603TIP3   OH259223   5.455   4.096   4.640  0.2011 -0.3961  0.5295
12603TIP3    H159224   5.462   4.037   4.715  1.3017  1.9417  2.3972
12603TIP3    H259225   5.365   4.088   4.611  0.3194 -3.0039  0.6198
12604TIP3   OH259226   3.857   3.435   5.973 -0.0248  0.4910 -0.3813
12604TIP3    H159227   3.863   3.447   5.878  0.8715  0.8747 -0.2800
12604TIP3    H259228   3.947   3.428   6.002 -0.3068  0.1677  0.4235
12605TIP3   OH259229   1.236   4.832  16.291  0.4482 -0.2209 -0.0692
12605TIP3    H159230   1.265   4.895  16.358 -0.0230 -0.3367  0.2443
12605TIP3    H259231   1.257   4.747  16.328  1.7729 -0.2497 -0.8058
12606TIP3   OH259232   2.712   3.720   6.025 -0.0647  0.3983  0.1157
12606TIP3    H159233   2.740   3.791   6.083  0.9102 -0.0021  0.1632
12606TIP3    H259234   2.626   3.747   5.993  0.4862  1.8180 -0.2398
12607TIP3   OH259235   0.785   1.260  16.877 -0.1586  0.1490  0.2583
12607TIP3    H159236   0.762   1.181  16.925  1.5389 -0.8359 -0.4625
12607TIP3    H259237   0.759   1.241  16.787  1.3049 -0.1114 -0.1449
12608TIP3   OH259238   3.655   1.856  16.821 -0.1609 -0.0657  0.9151
12608TIP3    H159239   3.746   1.870  16.848  0.4227 -0.2106 -0.8813
12608TIP3    H259240   3.603   1.904  16.886  1.1875  0.1548  1.8746
12609TIP3   OH259241   2.981   3.383   3.006  0.4662 -0.1290 -0.0183
12609TIP3    H159242   3.059   3.342   3.043  1.1796  1.0081 -0.2053
12609TIP3    H259243   2.922   3.310   2.987  1.4740 -1.0120  0.1434
12610TIP3   OH259244   3.172   2.721   6.002 -0.2094  0.0440 -1.1442
12610TIP3    H159245   3.221   2.705   5.921 -0.3575 -2.5977 -0.7846
12610TIP3    H259246   3.240   2.729   6.069 -0.1565 -0.2094 -1.1663
12611TIP3   OH259247   5.787   5.568  17.210  0.1948 -0.6792 -0.0707
12611TIP3    H159248   5.756   5.645  17.160  1.6433  0.6190  0.9625
12611TIP3    H259249   5.876   5.553  17.178  0.2415 -1.3864  0.3788
12612TIP3   OH259250   5.947   1.312  16.545 -0.1581  0.2832  0.0786
12612TIP3    H159251   5.965   1.255  16.619  0.0939  1.4818  0.9558
12612TIP3    H259252   5.933   1.252  16.472  1.0346 -0.8718  0.7652
12613TIP3   OH259253   4.958   0.099  15.455 -0.0459  0.2430  0.0103
12613TIP3    H159254   5.053   0.098  15.451 -0.0477 -0.4089 -0.0670
12613TIP3    H259255   4.930   0.123  15.367  0.0459  2.8510  0.6081
12614TIP3   OH259256   2.801   6.071  14.021  0.1904 -0.3384  0.5977
12614TIP3    H159257   2.809   5.976  14.013  1.9408 -0.1721 -0.0365
12614TIP3    H259258   2.784   6.101  13.932  2.0057  0.0935  0.3536
12615TIP3   OH259259   3.777   0.515  10.929  0.2315 -0.3526  0.9118
12615TIP3    H159260   3.774   0.458  10.852 -1.1014  0.2206  0.5071
12615TIP3    H259261   3.834   0.587  10.904  1.7508 -1.3540  1.3469
12616TIP3   OH259262   6.094   6.048  13.910 -0.1616  1.1405  0.2159
12616TIP3    H159263   6.059   5.985  13.847  0.6058 -1.3910  2.1426
12616TIP3    H259264   6.189   6.037  13.904 -0.0695  0.7848  1.7688
12617TIP3   OH259265   5.307   1.600   1.277 -0.1203 -0.1948 -0.7158
12617TIP3    H159266   5.265   1.684   1.257 -1.0735 -1.0627 -2.5720
12617TIP3    H259267   5.236   1.537   1.277  0.5559 -1.0124  0.9035
12618TIP3   OH259268   2.809   5.195   5.259 -0.2090 -0.2021 -0.6654
12618TIP3    H159269   2.899   5.228   5.257 -0.1314 -0.4151 -0.7069
12618TIP3    H259270   2.776   5.211   5.171 -0.1165 -0.3845 -0.7341
12619TIP3   OH259271   5.348   4.419  11.870 -0.0312  0.3030 -0.2245
12619TIP3    H159272   5.346   4.506  11.911 -0.4144 -0.0162  0.4550
12619TIP3    H259273   5.270   4.375  11.903  0.8635 -0.7780  0.5450
12620TIP3   OH259274   1.000   0.659  15.114  0.6616  0.3754  0.1021
12620TIP3    H159275   0.959   0.649  15.200 -1.1730 -1.2102 -0.8871
12620TIP3    H259276   0.930   0.691  15.058  0.7564 -2.0851 -1.5687
12621TIP3   OH259277   6.011   0.028  12.359  0.6765 -0.0590  0.1490
12621TIP3    H159278   5.918   0.006  12.353  0.9185 -2.1616  2.3654
12621TIP3    H259279   6.046   0.011  12.271 -0.7142 -1.0637 -0.2392
12622TIP3   OH259280   1.505   2.501  10.746 -0.3351 -0.1035  0.1732
12622TIP3    H159281   1.412   2.510  10.765 -0.2715 -0.0777  0.4702
12622TIP3    H259282   1.520   2.562  10.673 -1.2344 -2.5647 -2.1983
12623TIP3   OH259283   6.012   5.769   0.782  0.2102  0.0192 -0.3066
12623TIP3    H159284   5.918   5.770   0.801  0.5183  0.5498  1.4408
12623TIP3    H259285   6.048   5.703   0.842  1.0620  0.5395 -0.2214
12624TIP3   OH259286   0.766   2.673  16.762  0.2681  0.5983 -0.2514
12624TIP3    H159287   0.805   2.724  16.690  0.6030  0.2556 -0.3191
12624TIP3    H259288   0.732   2.739  16.822  2.6339  1.0195  0.7761
12625TIP3   OH259289   1.400   5.602  11.909  0.2957  0.2529 -0.3083
12625TIP3    H159290   1.391   5.537  11.840 -2.3495  0.7207 -0.5291
12625TIP3    H259291   1.392   5.553  11.991  0.3791  0.0460 -0.4253
12626TIP3   OH259292   0.814   6.341  11.963 -0.2529 -0.0610  0.2178
12626TIP3    H159293   0.768   6.424  11.976  0.0389 -0.0951  1.7667
12626TIP3    H259294   0.907   6.366  11.964 -0.1724 -0.1222 -1.8288
12627TIP3   OH259295   5.646   3.040  10.499  0.0774 -0.6108 -0.0173
12627TIP3    H159296   5.723   3.097  10.493 -0.3589  0.4546  2.7301
12627TIP3    H259297   5.666   2.981  10.572 -1.5061 -0.5936  0.4752
12628TIP3   OH259298   4.399   5.958  16.884 -0.3017  0.5145 -0.7072
12628TIP3    H159299   4.432   5.926  16.968  2.7762  0.9546 -1.6071
12628TIP3    H259300   4.305   5.971  16.898 -0.0818 -0.3781  2.3214
12629TIP3   OH259301   3.959   2.636   2.827 -0.2154 -0.0211  0.8236
12629TIP3    H159302   3.995   2.722   2.804  0.4670  0.1266  2.3605
12629TIP3    H259303   4.018   2.573   2.785  0.3560  0.2477  1.2116
12630TIP3   OH259304   0.068   2.031   1.285 -0.9215 -0.2754  0.4313
12630TIP3    H159305   0.102   2.028   1.195 -1.6697 -1.3177  0.1664
12630TIP3    H259306  -0.015   2.078   1.277 -1.4359 -1.1605  0.4049
12631TIP3   OH259307   0.065   3.838   1.912 -0.2174 -0.3567  0.3062
12631TIP3    H159308   0.088   3.758   1.864 -0.1882 -0.2690  0.1740
12631TIP3    H259309   0.003   3.809   1.979 -1.2596 -0.2710 -0.5910
12632TIP3   OH259310   5.827   6.420   5.678 -0.6281 -0.0317 -0.1012
12632TIP3    H159311   5.827   6.493   5.740  0.4210 -0.7707  0.8122
12632TIP3    H259312   5.763   6.358   5.713  0.8286 -0.9958  0.9687
12633TIP3   OH259313   5.725   3.888   3.418  0.2139 -0.2604  0.3329
12633TIP3    H159314   5.662   3.841   3.473  0.0374 -0.1703  0.2054
12633TIP3    H259315   5.736   3.833   3.341 -0.0511 -0.0544  0.1485
12634TIP3   OH259316   4.088   3.069  12.852  0.0387 -0.3142  0.4041
12634TIP3    H159317   4.162   3.096  12.907 -0.4018 -0.1058  0.9103
12634TIP3    H259318   4.037   3.150  12.840  0.1158 -0.3628 -0.2976
12635TIP3   OH259319   2.570   4.068   4.510 -0.1838 -0.0255 -0.4542
12635TIP3    H159320   2.571   3.973   4.503  1.3330 -0.1525  0.8610
12635TIP3    H259321   2.480   4.090   4.534 -0.1829 -1.2784  0.7880
12636TIP3   OH259322   6.717   2.288  17.178 -0.8123 -0.8161 -0.2534
12636TIP3    H159323   6.722   2.258  17.087 -0.2931 -0.7273 -0.2565
12636TIP3    H259324   6.714   2.383  17.172  3.0176 -0.5519 -0.0913
12637TIP3   OH259325   0.810   2.216  15.320  0.0275 -0.3177  0.0208
12637TIP3    H159326   0.848   2.231  15.407  0.5994 -1.9106  0.0767
12637TIP3    H259327   0.721   2.186  15.338  0.1259 -0.5906  0.0455
12638TIP3   OH259328   3.372   4.740   0.252  0.0255 -0.1068 -0.0723
12638TIP3    H159329   3.371   4.735   0.157 -1.4071 -1.0328 -0.0453
12638TIP3    H259330   3.391   4.651   0.281 -0.0398  0.0624  0.5076
12639TIP3   OH259331   3.936   4.543   4.827  0.1297  0.1500 -0.3395
12639TIP3    H159332   4.009   4.597   4.795 -0.6472  2.0028  0.8294
12639TIP3    H259333   3.964   4.513   4.913 -0.1039  0.1038 -0.2793
12640TIP3   OH259334   0.361   0.205   6.152  0.2396  0.1960 -0.2142
12640TIP3    H159335   0.334   0.290   6.118 -0.1076  0.1197 -0.1342
12640TIP3    H259336   0.457   0.207   6.150  0.4498  2.0481  3.1851
12641TIP3   OH259337   3.035   1.969   5.584 -0.5401  0.2523  0.1687
12641TIP3    H159338   3.036   2.021   5.664  0.8286  0.2053  0.2024
12641TIP3    H259339   3.123   1.933   5.578 -1.0621 -0.9424 -0.5897
12642TIP3   OH259340   4.939   2.543   3.007 -0.2167 -0.3513  0.2553
12642TIP3    H159341   5.025   2.502   3.015 -0.6857 -1.3171  0.4770
12642TIP3    H259342   4.930   2.595   3.087 -0.3063 -1.1710  0.7962
12643TIP3   OH259343   4.222   3.072  11.390 -0.1828  0.0893 -0.1548
12643TIP3    H159344   4.185   2.989  11.419 -0.0407  0.1479  0.2075
12643TIP3    H259345   4.147   3.125  11.364 -0.3180  0.0330  0.1136
12644TIP3   OH259346   0.343   5.718  12.990  0.1218 -0.1252 -0.1580
12644TIP3    H159347   0.306   5.666  12.918 -0.4602  0.3594 -0.2222
12644TIP3    H259348   0.330   5.809  12.962  2.9514  0.1077 -0.9774
12645TIP3   OH259349   2.587   3.838  12.134 -0.2604 -0.2171 -0.4543
12645TIP3    H159350   2.538   3.770  12.180 -0.1561 -0.4639 -0.7063
12645TIP3    H259351   2.675   3.804  12.126  0.0407  0.3675  0.2886
12646TIP3   OH259352   2.511   1.131  12.376  0.2749  0.6845 -0.0992
12646TIP3    H159353   2.571   1.202  12.398  1.6180 -0.2257 -0.7278
12646TIP3    H259354   2.479   1.152  12.288  0.8732  0.3867 -0.3905
12647TIP3   OH259355   3.389   5.467  13.270  0.7274  0.2336 -0.6867
12647TIP3    H159356   3.363   5.434  13.183  0.0663 -0.4120 -0.2606
12647TIP3    H259357   3.421   5.555  13.253 -0.1259  0.4129 -1.4919
12648TIP3   OH259358   2.016   5.573  13.955 -0.3462  0.0408  1.1198
12648TIP3    H159359   1.965   5.571  14.036 -0.4151  1.7217  1.1532
12648TIP3    H259360   2.079   5.643  13.968  3.4367 -3.1279  1.8776
12649TIP3   OH259361   4.859   2.931   3.302 -0.1211 -0.1525  0.6105
12649TIP3    H159362   4.767   2.956   3.316  0.6371  2.4070  1.5791
12649TIP3    H259363   4.900   3.010   3.267  1.7126 -1.2718  0.1512
12650TIP3   OH259364   5.943   4.251  13.005 -0.7139  0.1091 -0.5829
12650TIP3    H159365   6.017   4.283  13.057 -2.1552  1.6115  0.6750
12650TIP3    H259366   5.950   4.298  12.922  0.1169 -0.3100 -0.7672
12651TIP3   OH259367   4.254   1.420   3.266  0.1961  0.0546 -0.4063
12651TIP3    H159368   4.339   1.464   3.269 -0.4815  1.3781  1.1137
12651TIP3    H259369   4.197   1.479   3.217  0.2767 -1.1548 -2.0424
12652TIP3   OH259370   3.312   2.810  15.572 -0.1616  0.6203  0.6628
12652TIP3    H159371   3.217   2.795  15.575 -0.2584  1.1917  0.4527
12652TIP3    H259372   3.323   2.883  15.511  0.3255  1.3755  1.6413
12653TIP3   OH259373   5.794   0.377   5.952  0.3322 -0.1428 -0.8856
12653TIP3    H159374   5.750   0.446   6.002  1.7991  0.0669  0.2007
12653TIP3    H259375   5.885   0.406   5.948  1.0311 -2.0785 -0.2443
12654TIP3   OH259376   3.013   2.239  10.604  0.2587 -0.2436  0.5384
12654TIP3    H159377   3.094   2.192  10.583  0.9504  1.1102  0.0109
12654TIP3    H259378   3.022   2.322  10.557 -1.4462 -0.0658  0.4790
12655TIP3   OH259379   0.139   4.501   5.107  0.4197 -0.4665 -0.1359
12655TIP3    H159380   0.133   4.567   5.176  1.3431 -0.5769  0.0683
12655TIP3    H259381   0.057   4.452   5.113 -0.3299  0.7394 -0.3756
12656TIP3   OH259382   3.347   4.773   1.456  0.1271  0.4453  0.2281
12656TIP3    H159383   3.400   4.852   1.451  1.0292  0.1072  2.9395
12656TIP3    H259384   3.403   4.705   1.419 -1.2362  1.1842 -3.6063
12657TIP3   OH259385   5.409   3.162  16.747 -0.6866 -0.1938  0.0426
12657TIP3    H159386   5.429   3.227  16.679  1.9579 -0.6652  0.2472
12657TIP3    H259387   5.377   3.086  16.699  1.7697 -0.7709 -0.8762
12658TIP3   OH259388   0.930   0.278  10.664 -0.2541  0.1877 -0.5585
12658TIP3    H159389   0.838   0.252  10.656  0.0596 -0.9072 -0.8217
12658TIP3    H259390   0.939   0.354  10.606 -1.0392  0.4260 -0.3705
12659TIP3   OH259391   5.881   4.827   0.200  0.6618  0.3176  0.3542
12659TIP3    H159392   5.815   4.759   0.211  0.1188  0.3043 -2.3157
12659TIP3    H259393   5.859   4.893   0.266 -0.8140 -0.5953  0.8156
12660TIP3   OH259394   2.584   3.593   1.919  0.3293  0.3743 -0.0638
12660TIP3    H159395   2.488   3.596   1.927  0.1557 -0.1329 -1.7371
12660TIP3    H259396   2.613   3.674   1.961 -0.8553  0.7292  0.1210
12661TIP3   OH259397   4.715   2.890  10.827 -0.6282 -0.4204  0.1014
12661TIP3    H159398   4.719   2.810  10.775 -0.1470  0.0487 -0.6003
12661TIP3    H259399   4.687   2.958  10.765  0.0919  0.1782  0.4180
12662TIP3   OH259400   3.419   1.168   4.347 -0.8413  0.2095  0.3210
12662TIP3    H159401   3.369   1.227   4.404 -0.5684  1.5374 -0.7675
12662TIP3    H259402   3.497   1.146   4.397 -1.0025  0.6869  0.7904
12663TIP3   OH259403   0.973   3.061  15.336  0.3029  0.5046 -0.1878
12663TIP3    H159404   0.923   3.143  15.330 -3.5173 -1.3639  2.2102
12663TIP3    H259405   1.035   3.076  15.407 -0.7171  1.2187  0.5792
12664TIP3   OH259406   4.611   6.682  11.458 -0.2648  0.0796 -0.1672
12664TIP3    H159407   4.532   6.695  11.510  0.6869  1.4660  1.0192
12664TIP3    H259408   4.596   6.599  11.412 -1.3221 -1.0406  2.0175
12665TIP3   OH259409   5.172   2.342   5.513 -0.4315 -0.1417 -0.7321
12665TIP3    H159410   5.164   2.405   5.442  0.3770  0.5800 -0.2082
12665TIP3    H259411   5.252   2.367   5.559 -0.0591 -1.5874 -0.5322
12666TIP3   OH259412   2.659   6.118  10.529  0.0017 -0.2424  0.0418
12666TIP3    H159413   2.577   6.089  10.488 -0.9634  1.4004  0.6908
12666TIP3    H259414   2.722   6.123  10.457  0.0766 -3.1216 -0.2255
12667TIP3   OH259415   0.610   2.088  16.427 -0.0631  0.0828 -0.7565
12667TIP3    H159416   0.583   2.029  16.357  1.5115  0.4929 -1.7659
12667TIP3    H259417   0.690   2.048  16.462 -1.3874 -0.6954  1.5938
12668TIP3   OH259418   6.600   5.607   3.251 -0.4758  0.0339  0.0437
12668TIP3    H159419   6.635   5.694   3.270 -0.2714 -0.1760  0.6125
12668TIP3    H259420   6.673   5.559   3.212 -0.8977  0.4712 -1.3610
12669TIP3   OH259421   2.388   5.963  14.939  0.4700  0.6182  0.5092
12669TIP3    H159422   2.331   6.025  14.893  0.1143  0.1874  0.3658
12669TIP3    H259423   2.375   5.880  14.894  2.0576  0.7391 -0.2494
12670TIP3   OH259424   6.766   0.696  15.703  0.0082 -0.3218 -0.8132
12670TIP3    H159425   6.688   0.751  15.697 -0.8656 -1.6222 -2.4664
12670TIP3    H259426   6.827   0.734  15.639  0.4092  0.1998 -0.1278
12671TIP3   OH259427   1.442   6.141   1.364  0.1657 -0.4167  0.4444
12671TIP3    H159428   1.354   6.115   1.389  0.0784  0.5537  1.1889
12671TIP3    H259429   1.498   6.102   1.432  0.0666  0.9809  1.3627
12672TIP3   OH259430   2.027   6.566  14.000  0.2977 -0.0625  0.3945
12672TIP3    H159431   2.061   6.640  13.951 -0.1554 -0.3769 -0.4130
12672TIP3    H259432   2.052   6.583  14.091 -0.3292  1.3689  0.3155
12673TIP3   OH259433   2.714   6.571  16.978  0.5454 -0.1533 -1.0125
12673TIP3    H159434   2.746   6.619  17.055 -0.0565  0.6983 -1.2815
12673TIP3    H259435   2.677   6.639  16.921  1.2803 -0.7222 -2.2173
12674TIP3   OH259436   2.972   5.162  12.951  0.2192  0.2266 -0.5880
12674TIP3    H159437   2.951   5.255  12.957  2.3878  0.7680 -0.8106
12674TIP3    H259438   2.934   5.125  13.031 -2.1967  0.9108 -1.3075
12675TIP3   OH259439   2.320   3.679  12.588  0.2919  0.4307 -0.2049
12675TIP3    H159440   2.284   3.602  12.544 -1.1567  1.3830 -0.7422
12675TIP3    H259441   2.341   3.739  12.517  2.2383  0.2499  0.1457
12676TIP3   OH259442   3.764   3.624   0.044 -0.1575 -0.1416  0.4473
12676TIP3    H159443   3.739   3.532   0.057  0.5313 -0.4886 -0.5324
12676TIP3    H259444   3.830   3.640   0.112 -0.4329 -0.3033  0.7561
12677TIP3   OH259445   5.027   4.273   4.578 -1.2311 -0.2633  0.0918
12677TIP3    H159446   4.957   4.329   4.544  0.4195  0.9183 -1.5515
12677TIP3    H259447   5.053   4.315   4.660 -0.7901  0.7525 -0.5514
12678TIP3   OH259448   1.160   6.042   1.463 -0.1638  0.3626 -0.2113
12678TIP3    H159449   1.196   6.025   1.551 -0.7966 -0.9479 -0.1796
12678TIP3    H259450   1.103   6.117   1.475  0.5828  0.8687  0.2729
12679TIP3   OH259451   2.731   4.995  10.802 -0.0297 -0.1439  0.0419
12679TIP3    H159452   2.799   5.019  10.740  0.3872 -0.0789  0.5172
12679TIP3    H259453   2.749   5.048  10.879 -0.5123 -0.2586  0.2352
12680TIP3   OH259454   5.188   6.098  15.440 -0.4420 -0.1064 -0.1441
12680TIP3    H159455   5.160   6.079  15.351  0.6249 -2.1256 -0.0839
12680TIP3    H259456   5.154   6.025  15.492  1.1382 -0.3102  0.6515
12681TIP3   OH259457   3.997   3.922  14.201  0.8753 -0.9340  0.1501
12681TIP3    H159458   4.032   3.862  14.135  1.2191 -1.5954  0.9210
12681TIP3    H259459   4.074   3.963  14.240  0.7439 -1.3584  0.8833
12682TIP3   OH259460   3.980   6.500  15.485  0.5906  0.2754 -0.4081
12682TIP3    H159461   4.065   6.491  15.527  0.9127  2.2932 -0.5196
12682TIP3    H259462   3.941   6.413  15.490  0.8291  0.2275  3.5453
12683TIP3   OH259463   6.067   5.296   4.167  0.3119  0.2188  0.2643
12683TIP3    H159464   6.068   5.200   4.168  2.0316  0.2010  0.1772
12683TIP3    H259465   6.021   5.321   4.247  1.5144 -0.7004  1.2813
12684TIP3   OH259466   5.934   5.549  16.212 -0.2473 -0.5543  0.2687
12684TIP3    H159467   5.971   5.519  16.296 -0.5496 -0.5137  0.4168
12684TIP3    H259468   5.914   5.468  16.165 -0.7002 -0.5817  0.5092
12685TIP3   OH259469   6.325   0.958   1.631 -0.1842  0.2833  0.6567
12685TIP3    H159470   6.369   0.999   1.705  1.4620 -0.9025  0.3808
12685TIP3    H259471   6.396   0.921   1.578 -1.4883 -1.7652  0.2180
12686TIP3   OH259472   4.046   2.779   3.450 -0.0700  0.2452  0.7242
12686TIP3    H159473   4.141   2.768   3.450  0.0932  1.4219  1.3811
12686TIP3    H259474   4.030   2.848   3.386 -0.6313 -0.8326 -0.3352
12687TIP3   OH259475   1.409   1.657   5.086  0.7586  0.5516 -0.0499
12687TIP3    H159476   1.339   1.672   5.151  0.0897 -0.8952 -0.4151
12687TIP3    H259477   1.433   1.566   5.098  1.9495  0.7857 -0.5880
12688TIP3   OH259478   6.653   4.016   1.033  0.6044  0.0694  0.2165
12688TIP3    H159479   6.609   4.063   1.104 -0.8606  0.3497 -0.8272
12688TIP3    H259480   6.592   3.947   1.009  2.2653 -1.7491  1.0089
12689TIP3   OH259481   4.606   4.261   5.360 -0.1703 -0.2478  0.3144
12689TIP3    H159482   4.566   4.348   5.363  2.5597  1.1810 -1.4818
12689TIP3    H259483   4.643   4.249   5.447 -2.0502 -0.4816  1.1500
12690TIP3   OH259484   3.609   1.202   1.649  0.4305  0.1450 -0.2404
12690TIP3    H159485   3.703   1.205   1.635  0.1018 -0.0351 -3.0043
12690TIP3    H259486   3.586   1.110   1.637 -0.1382  0.2031  0.3346
12691TIP3   OH259487   5.399   5.986   0.441  0.2130 -0.7222  0.3731
12691TIP3    H159488   5.454   6.063   0.459  0.3159  0.1450 -2.9427
12691TIP3    H259489   5.344   6.013   0.367  0.1231 -3.8034 -0.8214
12692TIP3   OH259490   6.297   3.470  13.142  0.2547  0.1128  0.6847
12692TIP3    H159491   6.271   3.539  13.080  0.4477 -1.3608 -1.1196
12692TIP3    H259492   6.269   3.388  13.100  0.4924 -0.9727  2.5258
12693TIP3   OH259493   5.323   2.101   5.177  0.4492  0.5783  0.2579
12693TIP3    H159494   5.398   2.140   5.131  1.6852 -1.8569  0.0545
12693TIP3    H259495   5.361   2.060   5.254 -0.9919  0.8836  1.1678
12694TIP3   OH259496   4.126   3.741  16.598  0.0689 -0.3563  0.1653
12694TIP3    H159497   4.124   3.702  16.686 -1.7739  0.8964  0.7481
12694TIP3    H259498   4.179   3.820  16.609 -0.5494  0.0491  0.2859
12695TIP3   OH259499   3.688   5.400  16.223  0.5299 -0.2445  0.4470
12695TIP3    H159500   3.626   5.452  16.275 -0.6988 -0.8639 -0.3251
12695TIP3    H259501   3.765   5.455  16.215  0.0891  0.5602  1.4646
12696TIP3   OH259502   5.460   5.688   4.110  0.7060 -0.3207 -0.0356
12696TIP3    H159503   5.452   5.598   4.141  0.3821 -0.2270  0.1525
12696TIP3    H259504   5.436   5.742   4.185  3.5756  0.0191  0.7577
12697TIP3   OH259505   2.917   2.672   6.076  0.0872  0.5821 -0.2250
12697TIP3    H159506   2.873   2.697   6.158  0.3067  0.8872 -0.2006
12697TIP3    H259507   2.993   2.730   6.070  1.2097 -0.7571  0.3624
12698TIP3   OH259508   1.902   0.412   5.182  0.4278 -0.3616 -0.2769
12698TIP3    H159509   1.836   0.344   5.193  2.1147 -1.7753  1.9260
12698TIP3    H259510   1.973   0.369   5.134  0.6351  0.4964 -0.7624
12699TIP3   OH259511   0.992   2.015  16.086  0.1407 -0.5628 -0.4181
12699TIP3    H159512   0.971   1.924  16.066 -0.2011 -0.0301 -2.7539
12699TIP3    H259513   1.082   2.026  16.055 -0.1700  0.1290 -1.1044
12700TIP3   OH259514   4.622   5.805   5.389  0.7164  0.4379  0.0805
12700TIP3    H159515   4.640   5.767   5.304  0.2010  0.0576  0.1377
12700TIP3    H259516   4.688   5.874   5.399  0.7528  0.5116 -0.6388
12701TIP3   OH259517   2.602   3.076   5.746 -0.1756 -0.0164  0.6409
12701TIP3    H159518   2.605   3.015   5.673  2.0447  0.4283  0.2957
12701TIP3    H259519   2.565   3.025   5.818  0.6566 -1.4734  0.0776
12702TIP3   OH259520   4.736   0.325   6.214 -0.1081 -0.6820  0.0396
12702TIP3    H159521   4.792   0.254   6.183  0.4835 -0.7300  1.1911
12702TIP3    H259522   4.649   0.285   6.221 -0.4944 -0.4368 -2.3941
12703TIP3   OH259523   4.747   5.232   5.331  0.5308  0.5342 -0.4709
12703TIP3    H159524   4.759   5.299   5.398  1.7683  0.2633 -0.3828
12703TIP3    H259525   4.801   5.261   5.258 -0.1430  0.4027 -1.0202
12704TIP3   OH259526   4.911   1.342  13.175  0.5001  0.1536  0.2134
12704TIP3    H159527   4.949   1.298  13.099  0.6320 -0.2765  0.5206
12704TIP3    H259528   4.968   1.416  13.192  0.4270  0.2957 -0.1544
12705TIP3   OH259529   1.039   3.945  14.315 -0.0728 -0.0132 -0.2840
12705TIP3    H159530   1.126   3.927  14.351 -0.1279  1.0154  0.3768
12705TIP3    H259531   1.032   4.040  14.316 -0.0681  0.1034 -3.0277
12706TIP3   OH259532   1.977   3.653   6.674  0.5323  0.2998 -0.0639
12706TIP3    H159533   1.977   3.743   6.707  1.1532  0.5701 -0.7663
12706TIP3    H259534   1.894   3.644   6.628  0.6920  0.6908 -0.4370
12707TIP3   OH259535   5.295   0.346  13.815 -0.6954 -0.0349 -0.2861
12707TIP3    H159536   5.224   0.369  13.755 -1.4158 -0.1896  0.4970
12707TIP3    H259537   5.355   0.294  13.761  0.6162  2.9404 -1.9123
12708TIP3   OH259538   6.359   1.279  16.179 -0.1028  0.0607 -0.1981
12708TIP3    H159539   6.297   1.269  16.107  0.7762 -1.7164 -0.7643
12708TIP3    H259540   6.445   1.287  16.137  0.1813  1.7425  0.5927
12709TIP3   OH259541   3.072   2.876  16.860  0.0403 -0.0714 -0.7848
12709TIP3    H159542   3.116   2.808  16.809  2.0426 -0.0088  0.7731
12709TIP3    H259543   3.115   2.957  16.834 -0.0653  0.1708 -0.2077
12710TIP3   OH259544   4.301   5.327  11.243 -0.1192  0.1259  0.1229
12710TIP3    H159545   4.248   5.247  11.240  1.3272 -0.9132  0.7384
12710TIP3    H259546   4.275   5.370  11.325  0.0556 -0.4277  0.4722
12711TIP3   OH259547   2.660   5.147  12.653 -0.0783 -0.7444  0.2988
12711TIP3    H159548   2.754   5.133  12.666  0.0117  0.2411  0.8144
12711TIP3    H259549   2.648   5.140  12.559  0.7472  0.3916  0.0882
12712TIP3   OH259550   4.473   5.041  15.881  0.0532 -0.0639 -0.4142
12712TIP3    H159551   4.436   5.125  15.854 -0.4314 -0.3425 -0.6301
12712TIP3    H259552   4.427   5.019  15.961 -2.0659 -1.5733 -1.9292
12713TIP3   OH259553   3.876   0.919  16.150 -0.3578 -0.3951 -0.2046
12713TIP3    H159554   3.884   0.824  16.139 -0.1493 -0.4150  0.0870
12713TIP3    H259555   3.791   0.941  16.112 -0.9478 -0.8750  0.7971
12714TIP3   OH259556   2.240   4.002   5.879 -0.1222 -0.0077  0.0747
12714TIP3    H159557   2.160   4.011   5.931  0.3614  1.5814  0.6157
12714TIP3    H259558   2.297   4.072   5.911  1.0916 -0.4655 -1.0060
12715TIP3   OH259559   2.609   6.544  15.289  0.3484  0.2240 -0.0281
12715TIP3    H159560   2.612   6.620  15.347  0.5678 -0.9879  1.6121
12715TIP3    H259561   2.654   6.572  15.210 -1.6499  2.5760 -0.4529
12716TIP3   OH259562   4.484   3.911   0.309 -0.3824  0.3209  0.0193
12716TIP3    H159563   4.448   3.866   0.385  0.8145 -0.1964  0.2985
12716TIP3    H259564   4.414   3.971   0.281 -0.7455  0.7121  1.6696
12717TIP3   OH259565   6.288   0.908   4.974 -0.5675 -0.0831 -0.0493
12717TIP3    H159566   6.245   0.993   4.983  1.0279  0.7733 -0.1571
12717TIP3    H259567   6.217   0.844   4.980 -2.5498  1.3325 -4.2243
12718TIP3   OH259568   2.801   0.367  14.762 -0.1952 -0.3753  0.2956
12718TIP3    H159569   2.786   0.310  14.686  1.0638  0.1263 -0.3531
12718TIP3    H259570   2.713   0.385  14.795 -0.7562 -0.8746 -0.8455
12719TIP3   OH259571   2.288   2.166  15.980 -0.0936 -0.5149 -0.5626
12719TIP3    H159572   2.345   2.091  15.963 -1.0393 -1.1938 -0.8010
12719TIP3    H259573   2.290   2.215  15.898 -1.8516 -1.9170 -1.5241
12720TIP3   OH259574   5.047   5.608   6.337 -0.0746  0.0637  0.4015
12720TIP3    H159575   5.110   5.648   6.278  0.3089  1.5736  1.7656
12720TIP3    H259576   5.071   5.515   6.338  2.4080  0.6280  1.1305
12721TIP3   OH259577   4.320   6.601   5.626 -0.3571 -0.0559  0.1582
12721TIP3    H159578   4.412   6.575   5.617 -0.7605 -1.2317 -0.7293
12721TIP3    H259579   4.314   6.682   5.575 -0.0784 -0.6268 -0.7955
12722TIP3   OH259580   1.272   5.489  12.395 -0.0727 -0.0391  0.5309
12722TIP3    H159581   1.333   5.545  12.441 -1.2835  0.4640  1.5746
12722TIP3    H259582   1.219   5.449  12.464 -1.4224  0.1435 -0.3684
12723TIP3   OH259583   4.474   1.719   0.896  0.1922 -0.4955 -0.1142
12723TIP3    H159584   4.487   1.627   0.919  0.2770 -0.1145  1.4478
12723TIP3    H259585   4.511   1.768   0.970  1.0251  0.8295 -1.3416
12724TIP3   OH259586   1.478   4.040  14.032  0.1905  0.1987 -0.2544
12724TIP3    H159587   1.534   4.009  14.104 -0.5141  2.7113  1.4908
12724TIP3    H259588   1.536   4.094  13.978  0.3784 -0.5534 -0.8296
12725TIP3   OH259589   2.259   1.285   5.162 -0.1555  0.1332  0.5054
12725TIP3    H159590   2.266   1.195   5.192 -0.1463 -0.0961 -0.1634
12725TIP3    H259591   2.271   1.280   5.067  0.3826  0.8990  0.5237
12726TIP3   OH259592   4.028   5.228  12.813  0.3912  0.5836 -0.3036
12726TIP3    H159593   3.953   5.269  12.770  1.6033  1.6853 -1.4639
12726TIP3    H259594   4.074   5.300  12.856  1.2483  0.0738 -0.3370
12727TIP3   OH259595   1.344   3.070   1.384 -0.4579 -0.1685 -0.5892
12727TIP3    H159596   1.264   3.097   1.429  0.1821  0.3253  0.2849
12727TIP3    H259597   1.327   2.980   1.357 -2.1796  0.6581 -2.4824
12728TIP3   OH259598   4.428   6.520   1.205  0.0787  0.0617  0.6297
12728TIP3    H159599   4.514   6.477   1.212  0.1566  0.1422  0.2326
12728TIP3    H259600   4.385   6.502   1.288 -0.8448 -2.8042 -0.3438
12729TIP3   OH259601   5.198   4.506   6.166 -0.1271  0.4846  0.1287
12729TIP3    H159602   5.106   4.525   6.153  0.1697  1.6715 -0.3999
12729TIP3    H259603   5.207   4.491   6.260 -1.1794 -1.6037 -0.0558
12730TIP3   OH259604   4.754   6.033  16.964  0.3238  0.6878  0.0700
12730TIP3    H159605   4.712   6.065  16.884  0.3424  0.7207  0.0736
12730TIP3    H259606   4.695   5.965  16.996  1.0353 -0.3637 -0.7777
12731TIP3   OH259607   4.685   2.850  13.195  0.1536  0.2045 -0.7449
12731TIP3    H159608   4.740   2.857  13.116 -0.2183 -0.1793 -1.0377
12731TIP3    H259609   4.612   2.795  13.169  1.8804 -3.1966  0.8879
12732TIP3   OH259610   1.480   6.530   4.713 -0.5918 -0.3065 -0.0985
12732TIP3    H159611   1.472   6.526   4.809 -0.7251 -2.9170 -0.1529
12732TIP3    H259612   1.571   6.507   4.696 -0.4770  0.4913 -0.6240
12733TIP3   OH259613   0.820   4.322   1.420 -0.4147 -0.1150 -0.6340
12733TIP3    H159614   0.824   4.326   1.325  1.3663 -0.1986 -0.5813
12733TIP3    H259615   0.904   4.356   1.450 -1.1149  0.3560  0.9353
12734TIP3   OH259616   0.678   4.723  13.480 -0.4289 -0.0052  0.0773
12734TIP3    H159617   0.767   4.694  13.459 -0.0168  2.0080 -1.2071
12734TIP3    H259618   0.622   4.668  13.425  0.1863  0.1815 -0.7683
12735TIP3   OH259619   3.847   3.696   3.045 -0.2001  0.3365  0.5080
12735TIP3    H159620   3.929   3.707   2.998 -1.9745  0.7839 -2.7843
12735TIP3    H259621   3.873   3.677   3.135  3.4511  0.6154 -0.3413
12736TIP3   OH259622   2.794   3.335  12.944  0.0593  0.3239  0.8426
12736TIP3    H159623   2.757   3.352  12.857 -0.4571 -3.2808  0.1868
12736TIP3    H259624   2.888   3.331  12.929  0.0110  0.2346  0.5491
12737TIP3   OH259625   5.141   4.255   4.074 -0.7119  0.3975 -0.4197
12737TIP3    H159626   5.114   4.205   4.152  0.2339 -0.3738 -0.5729
12737TIP3    H259627   5.236   4.264   4.083 -0.6486  0.6487 -1.2828
12738TIP3   OH259628   0.328   2.690   3.140 -0.0302 -0.1160  0.2603
12738TIP3    H159629   0.328   2.782   3.165  1.2547 -0.4991  1.8406
12738TIP3    H259630   0.419   2.672   3.116 -0.6143 -0.5650 -1.8344
12739TIP3   OH259631   2.074   3.410  12.967 -0.6505  0.4169  0.0751
12739TIP3    H159632   2.166   3.433  12.956 -0.7828  1.1521  0.4215
12739TIP3    H259633   2.027   3.490  12.941 -1.2243 -0.1899 -0.8296
12740TIP3   OH259634   4.852   4.699   0.730  0.4126  0.0534  0.0861
12740TIP3    H159635   4.880   4.618   0.688  1.3966  0.1165  0.5948
12740TIP3    H259636   4.920   4.763   0.707  0.5469  0.2903  1.0783
12741TIP3   OH259637   1.563   0.629   1.046  0.0054  0.3887  0.0798
12741TIP3    H159638   1.550   0.536   1.066 -0.6571  0.6058  0.7093
12741TIP3    H259639   1.492   0.673   1.093 -2.2343  0.8782 -3.3773
12742TIP3   OH259640   1.663   3.179  11.002 -0.5572  0.2611 -0.2646
12742TIP3    H159641   1.681   3.273  11.003  0.0048  0.1647  1.3596
12742TIP3    H259642   1.571   3.171  11.028 -0.6375  0.3595 -0.5151
12743TIP3   OH259643   3.364   2.928  10.998  0.2715  0.1755  0.1458
12743TIP3    H159644   3.300   2.985  10.956 -1.3899 -1.0974  0.8138
12743TIP3    H259645   3.415   2.892  10.927 -2.0266 -1.4067 -0.8426
12744TIP3   OH259646   3.658   5.044  16.736  0.2953  0.8501 -0.6203
12744TIP3    H159647   3.587   5.063  16.798  0.3725  0.1126 -0.2954
12744TIP3    H259648   3.619   5.060  16.650 -0.1227  0.8992 -0.4243
12745TIP3   OH259649   0.842   0.159   5.729 -0.7367  0.0725 -0.3697
12745TIP3    H159650   0.877   0.090   5.673 -1.1493 -0.2049 -0.2966
12745TIP3    H259651   0.776   0.115   5.783  0.1195  0.1885  0.8172
12746TIP3   OH259652   4.870   2.279  13.826  0.2171 -0.0833  0.1146
12746TIP3    H159653   4.783   2.244  13.811 -0.6492  0.8223  2.4748
12746TIP3    H259654   4.929   2.205  13.815 -1.0548 -1.1541  0.3039
12747TIP3   OH259655   0.768   3.883  13.523  0.5659 -0.0609 -0.4692
12747TIP3    H159656   0.826   3.822  13.569  1.0505  1.6146  1.2382
12747TIP3    H259657   0.762   3.847  13.435 -1.4111 -4.1725  1.0600
12748TIP3   OH259658   2.819   3.219   5.589 -0.2738  0.2649 -0.2493
12748TIP3    H159659   2.872   3.242   5.513  0.0365  1.5833  0.3398
12748TIP3    H259660   2.803   3.125   5.580 -1.7903  0.6782 -2.8891
12749TIP3   OH259661   1.302   2.149   5.737 -0.1804 -1.1464 -0.4803
12749TIP3    H159662   1.331   2.070   5.783  0.5960 -0.6236 -0.0551
12749TIP3    H259663   1.314   2.220   5.800  0.3403 -0.5049 -1.2764
12750TIP3   OH259664   4.751   2.152  17.014  0.5095  0.3390  0.1718
12750TIP3    H159665   4.768   2.060  17.037 -0.2654  0.4883  1.4521
12750TIP3    H259666   4.814   2.171  16.944 -0.7854 -1.8082 -1.7103
12751TIP3   OH259667   0.940   2.946   2.161 -0.1390  0.6742  0.0660
12751TIP3    H159668   0.860   2.998   2.158  1.8012  3.9211  0.1888
12751TIP3    H259669   0.989   2.973   2.084  1.1517 -0.7493  0.3368
12752TIP3   OH259670   2.362   1.944  14.619 -0.3485 -0.2513  0.3480
12752TIP3    H159671   2.335   1.854  14.638  0.2953 -0.4370  0.4207
12752TIP3    H259672   2.454   1.947  14.644 -0.6094  0.7113  1.2680
12753TIP3   OH259673   1.528   2.246   2.459  0.1220  0.1136  0.1104
12753TIP3    H159674   1.607   2.299   2.472 -0.3937  1.2018 -1.0096
12753TIP3    H259675   1.558   2.155   2.470  1.1095  0.5862  1.6333
12754TIP3   OH259676   6.233   5.700  11.352  0.4634 -0.1336 -0.2583
12754TIP3    H159677   6.199   5.714  11.264  1.0066  1.4764 -0.2542
12754TIP3    H259678   6.155   5.694  11.407  0.1223 -0.9887 -0.8140
12755TIP3   OH259679   0.864   2.556   4.833  0.6082  0.1537 -0.1290
12755TIP3    H159680   0.901   2.469   4.843 -1.1558 -0.6548 -0.2779
12755TIP3    H259681   0.769   2.542   4.828  0.3499  1.9668 -1.3461
12756TIP3   OH259682   2.877   0.027  15.446 -0.0291  0.2134 -0.0436
12756TIP3    H159683   2.946   0.070  15.496  1.5058 -0.9179 -1.1212
12756TIP3    H259684   2.902   0.039  15.354 -0.9836 -0.6778 -0.4437
12757TIP3   OH259685   3.528   4.752  15.795 -0.0787 -0.4931  0.2106
12757TIP3    H159686   3.479   4.812  15.852 -0.4678 -0.1574 -0.4730
12757TIP3    H259687   3.463   4.720  15.732  0.5800 -0.0502 -0.7021
12758TIP3   OH259688   6.403   2.883  15.355 -0.0379 -0.1902 -0.7417
12758TIP3    H159689   6.392   2.968  15.398 -0.4088  0.3196 -1.7934
12758TIP3    H259690   6.335   2.828  15.393  0.0823  0.0350 -0.1852
12759TIP3   OH259691   3.037   6.316   3.437  0.2258 -0.0752  0.1718
12759TIP3    H159692   3.005   6.362   3.359 -0.0267  2.1307  1.4995
12759TIP3    H259693   3.132   6.322   3.430  0.2024  0.3548  0.1442
12760TIP3   OH259694   2.848   2.977  14.662  0.1977 -0.3552 -0.3676
12760TIP3    H159695   2.825   3.005  14.751 -0.0418  0.3844 -0.6524
12760TIP3    H259696   2.942   2.963  14.665  0.4347  1.0890 -0.3543
12761TIP3   OH259697   3.908   3.702   5.033 -0.1404  0.6367 -0.6297
12761TIP3    H159698   3.859   3.784   5.023  1.0835  1.3181 -1.4873
12761TIP3    H259699   4.000   3.730   5.027  0.3041 -0.7758 -0.6202
12762TIP3   OH259700   5.007   1.985   2.197 -0.2374 -0.4292 -0.3387
12762TIP3    H159701   5.089   1.939   2.178  0.5872  0.6553  0.4134
12762TIP3    H259702   5.008   2.060   2.137 -1.0032 -0.7423 -0.7593
12763TIP3   OH259703   5.927   1.178  15.011  0.1493 -0.1357 -0.0143
12763TIP3    H159704   5.875   1.112  15.057  0.3727 -0.9595 -0.9259
12763TIP3    H259705   6.014   1.172  15.052  0.6391 -1.5822 -1.1800
12764TIP3   OH259706   0.987   3.835  12.895 -0.6396 -0.3227  0.4576
12764TIP3    H159707   0.924   3.867  12.959  1.5809  0.6368  2.3298
12764TIP3    H259708   0.998   3.743  12.916  1.2384  0.2916  2.7331
12765TIP3   OH259709   1.223   2.543   4.112 -0.2311  0.0616  0.1891
12765TIP3    H159710   1.160   2.615   4.120 -0.7291 -0.3127 -0.3540
12765TIP3    H259711   1.302   2.577   4.155 -0.4837  0.8999  0.0162
12766TIP3   OH259712   3.874   0.228   0.512 -0.0488 -0.0972 -0.3803
12766TIP3    H159713   3.863   0.322   0.497  0.5715  0.0252 -0.1269
12766TIP3    H259714   3.962   0.221   0.550 -0.3850 -0.7037  0.2993
12767TIP3   OH259715   4.321   5.737   1.430 -0.5234  0.1330  0.5741
12767TIP3    H159716   4.399   5.769   1.384  0.3820 -1.2197  1.0902
12767TIP3    H259717   4.275   5.684   1.365 -1.2404  1.2215  0.1608
12768TIP3   OH259718   2.752   1.528  14.749  0.8274  0.2539 -0.0192
12768TIP3    H159719   2.829   1.575  14.719 -0.2295  0.4244 -2.8134
12768TIP3    H259720   2.780   1.437  14.755  0.8777 -0.0307 -2.9870
12769TIP3   OH259721   1.492   4.837  15.723  0.6058 -0.4198  0.1411
12769TIP3    H159722   1.420   4.785  15.758  1.2970 -1.9658 -0.6291
12769TIP3    H259723   1.554   4.844  15.795 -0.6122  1.6561  1.0917
12770TIP3   OH259724   1.713   4.970   3.517  0.3034  0.0463  0.8155
12770TIP3    H159725   1.641   4.949   3.576  0.7724 -0.5150  1.1990
12770TIP3    H259726   1.671   4.982   3.432 -0.2264 -0.4898  0.9891
12771TIP3   OH259727   2.191   5.177  14.436 -0.4555 -0.2997 -0.1445
12771TIP3    H159728   2.131   5.241  14.473 -0.5810 -0.2749 -0.3888
12771TIP3    H259729   2.232   5.222  14.362  0.2135 -0.1531  0.3045
12772TIP3   OH259730   2.798   0.514   0.091 -0.0671  0.4499  0.4266
12772TIP3    H159731   2.730   0.579   0.072 -1.8806 -1.2459  0.7705
12772TIP3    H259732   2.751   0.432   0.100  2.3540 -1.4687 -2.3515
12773TIP3   OH259733   0.287   1.644  11.845 -0.7293  0.3852 -0.2200
12773TIP3    H159734   0.195   1.648  11.820 -0.9129  0.3117  0.4218
12773TIP3    H259735   0.333   1.695  11.778 -1.6206  3.4763  1.3628
12774TIP3   OH259736   5.797   2.250   2.868  0.3223 -0.1442 -0.7035
12774TIP3    H159737   5.759   2.163   2.859 -0.4224 -0.1497  1.6533
12774TIP3    H259738   5.738   2.308   2.820 -0.0285 -0.7496 -1.0118
12775TIP3   OH259739   4.174   2.749  14.768 -0.3241  0.0128  0.2959
12775TIP3    H159740   4.160   2.781  14.857  0.7304  0.6900  0.2367
12775TIP3    H259741   4.239   2.679  14.778  0.2714  0.5157  0.0017
12776TIP3   OH259742   2.493   0.582   1.773 -0.0240 -0.2343  0.6502
12776TIP3    H159743   2.491   0.489   1.752 -0.9123 -0.0897  0.0128
12776TIP3    H259744   2.585   0.603   1.784  0.2639 -0.9661 -0.2693
12777TIP3   OH259745   0.217   4.014   3.483 -0.8176 -0.3870  0.8755
12777TIP3    H159746   0.251   3.942   3.429  0.0957 -0.7346  1.8821
12777TIP3    H259747   0.264   4.091   3.452 -1.0282 -0.4005  0.5090
12778TIP3   OH259748   3.620   6.246   3.942  0.3351 -0.1593 -0.4027
12778TIP3    H159749   3.581   6.182   3.883 -0.8152  0.9602 -0.8935
12778TIP3    H259750   3.568   6.239   4.022  0.7414 -0.3892 -0.1475
12779TIP3   OH259751   6.479   5.655   2.213 -0.7276  0.0642  0.9282
12779TIP3    H159752   6.497   5.724   2.150 -2.1862  0.8853  1.3579
12779TIP3    H259753   6.465   5.577   2.160  2.0197 -0.2398  0.4835
12780TIP3   OH259754   4.173   6.713  12.894  0.2636  0.2272  0.0227
12780TIP3    H159755   4.225   6.675  12.965 -2.6625 -0.0820  2.1900
12780TIP3    H259756   4.115   6.642  12.867  0.1724  0.8646 -1.5241
12781TIP3   OH259757   0.764   6.705   1.657 -0.4744 -0.3539  0.4125
12781TIP3    H159758   0.693   6.744   1.607  0.1648 -0.5523 -0.6880
12781TIP3    H259759   0.764   6.752   1.740 -0.2255  1.4766 -0.5762
12782TIP3   OH259760   5.897   0.513  16.519  0.7587 -0.4053  0.2531
12782TIP3    H159761   5.897   0.558  16.434  1.7111  0.6973  0.8155
12782TIP3    H259762   5.989   0.499  16.539  0.5180 -1.1868  0.8425
12783TIP3   OH259763   6.240   1.243  16.676  0.1909 -0.2377 -0.0219
12783TIP3    H159764   6.189   1.163  16.687  2.7153 -1.7873  1.4579
12783TIP3    H259765   6.230   1.265  16.583 -1.4270 -1.6395 -0.2286
12784TIP3   OH259766   3.291   1.052  13.437  0.1151 -0.5735 -0.1478
12784TIP3    H159767   3.196   1.057  13.430  0.0465  2.0033  1.3669
12784TIP3    H259768   3.309   0.961  13.461 -2.0079 -0.9798  0.0254
12785TIP3   OH259769   2.771   4.280  12.456 -0.1322  0.3179  0.4314
12785TIP3    H159770   2.856   4.321  12.473 -0.4970  1.2082  0.1556
12785TIP3    H259771   2.757   4.222  12.531  0.7053  0.1852  0.4907
12786TIP3   OH259772   2.495   5.645   2.883  0.1164 -0.9301  0.0264
12786TIP3    H159773   2.522   5.700   2.957  0.2315 -0.4017 -0.4017
12786TIP3    H259774   2.402   5.665   2.871  0.2603 -0.4954 -0.4034
12787TIP3   OH259775   0.401   1.391  13.422 -0.0342 -0.2706  0.2110
12787TIP3    H159776   0.464   1.321  13.442  1.3114 -0.5569 -3.9318
12787TIP3    H259777   0.335   1.348  13.368 -0.0708  1.2759 -1.0594
12788TIP3   OH259778   6.560   1.574  11.691  0.1959  0.0210  0.2300
12788TIP3    H159779   6.509   1.607  11.618  2.3664  0.4044 -1.1948
12788TIP3    H259780   6.564   1.479  11.677 -0.7400 -0.1165  0.7965
12789TIP3   OH259781   3.657   1.252   0.870  0.1491 -0.6524 -0.8739
12789TIP3    H159782   3.600   1.318   0.910 -1.5890 -1.9622 -1.0679
12789TIP3    H259783   3.645   1.174   0.923  0.9425 -1.2826 -1.5884
12790TIP3   OH259784   0.208   4.379   3.610  0.2747  0.3213  0.4581
12790TIP3    H159785   0.149   4.450   3.582 -0.2479 -0.7041 -1.1306
12790TIP3    H259786   0.149   4.308   3.635  0.7892 -0.7699 -1.2925
12791TIP3   OH259787   3.763   2.137   1.828  0.2556 -0.2925  0.0404
12791TIP3    H159788   3.855   2.112   1.828  0.2773 -0.2151 -0.4379
12791TIP3    H259789   3.715   2.054   1.827  0.3200 -0.3321  0.2574
12792TIP3   OH259790   2.697   2.348  17.086  0.6980  0.2953 -0.2080
12792TIP3    H159791   2.677   2.370  16.995  1.5178  0.1634 -0.4323
12792TIP3    H259792   2.785   2.383  17.100  0.3350  0.8873  0.7362
12793TIP3   OH259793   0.550   0.185  16.886 -0.1782 -0.0932 -0.1404
12793TIP3    H159794   0.645   0.200  16.881 -0.3199  1.1355  0.4457
12793TIP3    H259795   0.537   0.148  16.974 -0.1941 -0.6922 -0.3931
12794TIP3   OH259796   3.612   0.130   2.440  0.5474 -0.3878 -0.4979
12794TIP3    H159797   3.662   0.205   2.472 -1.4858  0.7847  0.0926
12794TIP3    H259798   3.554   0.165   2.373  1.6471 -2.0405 -2.4545
12795TIP3   OH259799   2.902   4.230   5.276 -0.1344  0.5912  0.2100
12795TIP3    H159800   2.970   4.290   5.307 -0.6257  0.0632  2.5346
12795TIP3    H259801   2.834   4.236   5.343 -0.9256 -1.3323 -0.3697
12796TIP3   OH259802   3.053   1.151   4.372  0.3065 -0.0036 -0.4344
12796TIP3    H159803   2.985   1.094   4.336  1.6029 -2.6646  0.9456
12796TIP3    H259804   3.121   1.153   4.305  0.9234 -1.4647  0.1089
12797TIP3   OH259805   4.959   0.740  13.304  0.3016  0.1244  0.3002
12797TIP3    H159806   4.929   0.675  13.241  1.8199 -1.5124  1.1567
12797TIP3    H259807   4.916   0.822  13.278 -0.7851 -0.9640 -1.5018
12798TIP3   OH259808   1.374   2.109   5.059 -0.5359 -0.2591  0.5264
12798TIP3    H159809   1.427   2.031   5.079 -1.1592 -1.2268 -1.3760
12798TIP3    H259810   1.438   2.179   5.047  0.2440 -1.0729 -0.2208
12799TIP3   OH259811   0.847   3.583   5.581 -0.2764 -0.6095 -0.6067
12799TIP3    H159812   0.875   3.607   5.670 -0.1367 -0.5371 -0.6683
12799TIP3    H259813   0.855   3.665   5.532 -1.8378 -0.2763 -0.3355
12800TIP3   OH259814   0.395   4.057   6.084  0.3400  0.5447  0.4709
12800TIP3    H159815   0.439   4.131   6.126  0.8615 -0.3369  1.5328
12800TIP3    H259816   0.316   4.043   6.137 -0.5250  1.2317 -0.5896
12801TIP3   OH259817   5.638   6.046  12.433  0.1039 -0.2756 -0.0691
12801TIP3    H159818   5.608   5.956  12.423  0.1882 -0.1900 -1.1983
12801TIP3    H259819   5.675   6.069  12.348 -0.8685  1.1626 -0.1489
12802TIP3   OH259820   4.587   2.381   1.230  0.7191 -0.5291  0.2409
12802TIP3    H159821   4.669   2.427   1.248  0.4400 -0.7365  2.2527
12802TIP3    H259822   4.596   2.298   1.277 -0.9048 -0.2750  1.0584
12803TIP3   OH259823   5.919   4.925   6.757  0.2568  0.1916  0.8015
12803TIP3    H159824   5.966   4.882   6.828  0.7800 -1.0206 -0.2495
12803TIP3    H259825   5.965   5.008   6.745  1.3960 -0.4572  0.5779
12804TIP3   OH259826   6.089   2.267  11.194 -0.0744  0.3996  0.7481
12804TIP3    H159827   6.058   2.216  11.119 -0.8465  0.7865  0.7985
12804TIP3    H259828   6.178   2.235  11.210 -0.2296 -0.3005  0.2227
12805TIP3   OH259829   4.822   3.148  11.365  0.2544  0.1596  0.2964
12805TIP3    H159830   4.879   3.123  11.292  0.3340 -1.5930  0.9091
12805TIP3    H259831   4.737   3.110  11.344  0.0074  0.4942  0.6653
12806TIP3   OH259832   4.388   6.684  11.660  0.3162  0.3595  0.7351
12806TIP3    H159833   4.381   6.775  11.690 -2.5487 -0.3252  2.4409
12806TIP3    H259834   4.318   6.674  11.596  1.0181 -0.5260  0.0654
12807TIP3   OH259835   0.211   1.114  13.704  0.0416  0.5241  0.1052
12807TIP3    H159836   0.304   1.106  13.680 -0.1390  2.1839 -1.3770
12807TIP3    H259837   0.164   1.080  13.627 -0.5882 -0.0488  0.7323
12808TIP3   OH259838   1.633   1.311  14.169 -0.1351 -0.2949 -0.4626
12808TIP3    H159839   1.711   1.361  14.195 -0.2015 -0.0501 -0.7310
12808TIP3    H259840   1.624   1.328  14.076  0.1237 -1.2002 -0.6663
12809TIP3   OH259841   1.401   6.743   1.628 -0.3469  0.1158  0.2008
12809TIP3    H159842   1.487   6.766   1.665 -0.2407  0.9938 -0.5727
12809TIP3    H259843   1.338   6.783   1.688 -0.1989  0.3144  0.2249
12810TIP3   OH259844   4.437   0.203   2.197 -0.2043  0.3883 -0.8287
12810TIP3    H159845   4.464   0.251   2.275 -2.4406 -0.9487  0.9149
12810TIP3    H259846   4.387   0.266   2.145  1.2516  1.2733 -1.1944
12811TIP3   OH259847   6.212   5.663   1.606  0.3935 -0.0435 -0.2586
12811TIP3    H159848   6.284   5.638   1.665  1.1176  0.9555 -0.7003
12811TIP3    H259849   6.162   5.728   1.656  2.6472  3.0124 -1.6905
12812TIP3   OH259850   4.538   0.998  14.402  0.0105 -0.8832 -0.1245
12812TIP3    H159851   4.562   1.065  14.339 -1.6870 -0.1337 -0.0425
12812TIP3    H259852   4.581   0.918  14.371  1.0692 -0.0338 -0.9039
12813TIP3   OH259853   2.067   3.743  10.967 -0.2838  0.2828  0.1343
12813TIP3    H159854   2.003   3.783  10.907 -0.5061  1.2543  1.0002
12813TIP3    H259855   2.014   3.709  11.039  0.0476 -0.2463  0.1309
12814TIP3   OH259856   0.358   6.194   5.199 -0.6764 -0.0572  0.3445
12814TIP3    H159857   0.293   6.222   5.135  0.6028  1.1682 -0.4856
12814TIP3    H259858   0.337   6.245   5.278 -1.7703 -0.9830  0.6744
12815TIP3   OH259859   0.981   0.253   0.993 -0.2095  0.3366  0.3479
12815TIP3    H159860   0.898   0.266   1.039  0.2470  1.5167  0.8771
12815TIP3    H259861   0.981   0.319   0.924  0.0249 -0.0676 -0.0455
12816TIP3   OH259862   0.007   1.842  13.748 -1.0043 -0.3670 -0.3647
12816TIP3    H159863   0.082   1.791  13.781 -1.1379 -0.0036  0.5243
12816TIP3    H259864   0.033   1.867  13.660 -1.1419 -2.4213 -1.0572
12817TIP3   OH259865   2.002   5.815   2.903  0.4669  0.0963  0.4949
12817TIP3    H159866   1.984   5.731   2.860 -0.2302  1.3560 -1.8653
12817TIP3    H259867   1.967   5.805   2.991 -3.9102 -0.6679 -1.0923
12818TIP3   OH259868   3.178   2.008  16.891 -0.2161 -0.4185 -0.1463
12818TIP3    H159869   3.250   2.066  16.864 -0.6904  0.3763  0.2596
12818TIP3    H259870   3.120   2.064  16.942 -1.2663 -0.9903 -0.6907
12819TIP3   OH259871   2.140   5.513   1.195 -0.2763  0.3907  0.3416
12819TIP3    H159872   2.206   5.567   1.152  0.3324 -0.6435 -0.0786
12819TIP3    H259873   2.107   5.566   1.267  0.9132  0.9876  0.4653
12820TIP3   OH259874   5.014   5.621   6.615  0.6890  0.0162  0.5643
12820TIP3    H159875   5.007   5.633   6.520 -0.4230  1.5641  0.7941
12820TIP3    H259876   5.023   5.710   6.649 -1.6350 -0.2656  2.0926
12821TIP3   OH259877   0.715   1.458   1.796 -0.5072  0.0670  0.0845
12821TIP3    H159878   0.623   1.438   1.813 -0.4890 -0.0863 -0.0003
12821TIP3    H259879   0.749   1.486   1.881 -0.9867  1.5040 -0.1667
12822TIP3   OH259880   0.298   0.572   0.230  0.0088 -0.0134  0.6562
12822TIP3    H159881   0.393   0.579   0.219 -0.1278  1.3276  0.0936
12822TIP3    H259882   0.287   0.538   0.318  1.0166 -1.6699  0.2018
12823TIP3   OH259883   5.044   6.371  12.605  0.1975  0.0393 -0.2284
12823TIP3    H159884   4.993   6.452  12.602  0.0773  0.0333  1.0055
12823TIP3    H259885   5.089   6.375  12.690 -0.1255 -1.3564  0.0284
12824TIP3   OH259886   4.932   2.713   6.153  0.1725 -0.3600  1.0253
12824TIP3    H159887   4.987   2.750   6.084  0.3624  1.1830  1.9503
12824TIP3    H259888   4.931   2.619   6.135  4.2337 -0.7104  1.7239
12825TIP3   OH259889   5.760   4.145   2.782 -0.2003  0.1959  0.4435
12825TIP3    H159890   5.766   4.232   2.744 -0.0954  1.5531  3.3111
12825TIP3    H259891   5.682   4.107   2.742  0.4181  1.0861 -1.7387
12826TIP3   OH259892   0.780   4.189  16.549  0.2563 -0.2265  0.4742
12826TIP3    H159893   0.759   4.184  16.456 -0.8629  0.2551  0.6856
12826TIP3    H259894   0.749   4.106  16.585 -2.0189  0.7195  0.8944
12827TIP3   OH259895   2.620   3.446   3.303  0.7592  0.1914 -0.0827
12827TIP3    H159896   2.627   3.417   3.394 -0.7724  1.0303  0.3314
12827TIP3    H259897   2.605   3.541   3.309 -1.5333 -0.0371 -1.0631
12828TIP3   OH259898   1.944   5.106  15.538 -0.4527 -0.2050  0.3154
12828TIP3    H159899   2.011   5.081  15.474 -1.5453  0.9077 -1.3432
12828TIP3    H259900   1.871   5.047  15.521  0.1354 -1.6781  2.3774
12829TIP3   OH259901   1.087   4.068   4.163 -0.3323  1.0784 -0.0967
12829TIP3    H159902   0.999   4.075   4.201 -0.2194  1.7223  0.0590
12829TIP3    H259903   1.145   4.073   4.239 -0.2087 -2.4969  0.1851
12830TIP3   OH259904   4.921   0.322  12.940 -0.2729  0.1027 -0.0374
12830TIP3    H159905   5.004   0.274  12.931  0.8009  1.7707  0.3703
12830TIP3    H259906   4.883   0.321  12.853 -0.3513 -1.5629 -0.0106
12831TIP3   OH259907   6.453   0.355   2.780  0.1620  0.2400  0.4945
12831TIP3    H159908   6.482   0.266   2.761 -0.3613  0.1515  0.0898
12831TIP3    H259909   6.534   0.402   2.803  0.5372 -0.1472 -0.0155
12832TIP3   OH259910   4.617   6.159  13.254  0.1486  0.4200 -0.0077
12832TIP3    H159911   4.703   6.116  13.252  0.3277  0.6518  1.4253
12832TIP3    H259912   4.608   6.190  13.344 -1.9170 -0.5166  0.1616
12833TIP3   OH259913   5.358   2.284  13.532 -0.0563 -0.1231  0.4979
12833TIP3    H159914   5.275   2.266  13.489 -1.5230 -0.8299  3.3587
12833TIP3    H259915   5.394   2.197  13.551  1.4266  0.1723 -0.7878
12834TIP3   OH259916   4.366   4.645   3.717  0.3010  0.5321 -0.2146
12834TIP3    H159917   4.396   4.693   3.793 -0.3780  0.8939 -0.1676
12834TIP3    H259918   4.344   4.558   3.751  1.9799  0.0147 -0.3872
12835TIP3   OH259919   0.313   4.744  15.381 -0.3879  0.0341 -0.2827
12835TIP3    H159920   0.284   4.830  15.350  0.4940  0.4819  0.0775
12835TIP3    H259921   0.236   4.707  15.423 -0.8949  0.4791 -0.7962
12836TIP3   OH259922   5.626   1.964  16.791  0.2128 -0.5276  0.7161
12836TIP3    H159923   5.674   1.888  16.756 -0.1951 -0.2070 -0.6026
12836TIP3    H259924   5.611   2.020  16.714 -0.5088  0.3370  1.4654
12837TIP3   OH259925   1.271   6.421   4.955  0.1042  0.5228 -0.2662
12837TIP3    H159926   1.336   6.489   4.969  0.3140  0.1292  0.7199
12837TIP3    H259927   1.287   6.357   5.024 -1.7471  0.7468  0.4591
12838TIP3   OH259928   2.238   6.248  11.258 -0.0793  0.0507  0.5118
12838TIP3    H159929   2.273   6.331  11.225  0.9602 -0.1584  1.0566
12838TIP3    H259930   2.262   6.184  11.191  1.8080 -0.3285  1.4860
12839TIP3   OH259931   6.004   4.157   1.053 -0.4162 -0.0877 -0.4152
12839TIP3    H159932   6.071   4.163   0.985  0.6054 -0.7379  0.5027
12839TIP3    H259933   5.927   4.199   1.014 -0.2513 -1.5101 -2.4342
12840TIP3   OH259934   4.958   2.890  10.400  0.4208 -0.2859  0.6048
12840TIP3    H159935   4.942   2.799  10.427 -1.0719  0.0155  0.8233
12840TIP3    H259936   5.051   2.892  10.377  0.7480 -1.5879  1.6919
12841TIP3   OH259937   0.661   2.532   0.730 -0.3462 -0.1928  0.1772
12841TIP3    H159938   0.643   2.605   0.789 -1.0050  1.3463 -1.8178
12841TIP3    H259939   0.575   2.500   0.705 -0.1325  0.1403 -1.0488
12842TIP3   OH259940   3.911   6.422   1.936 -0.6082 -0.2263 -0.1588
12842TIP3    H159941   3.877   6.391   2.020 -0.6929  0.5098  0.0837
12842TIP3    H259942   3.868   6.366   1.871 -2.6541  0.9596  0.0975
12843TIP3   OH259943   0.637   1.094   3.159  0.3222 -0.0605 -0.0867
12843TIP3    H159944   0.622   1.050   3.243 -0.2008 -1.8263 -1.0610
12843TIP3    H259945   0.674   1.179   3.183  0.5160 -0.6607  1.9147
12844TIP3   OH259946   4.777   4.055  15.775  0.8473 -0.4550  0.0731
12844TIP3    H159947   4.704   4.001  15.746  0.5998 -0.2625  0.3345
12844TIP3    H259948   4.855   4.004  15.751  0.6645 -0.1873 -1.1588
12845TIP3   OH259949   3.198   6.116   2.524 -0.0516  0.0378  0.4724
12845TIP3    H159950   3.165   6.041   2.474 -3.0334  0.6650  1.3203
12845TIP3    H259951   3.224   6.079   2.608  0.7942 -0.3656  0.0464
12846TIP3   OH259952   5.056   6.254  14.492 -0.6724  0.7403 -0.4613
12846TIP3    H159953   5.141   6.216  14.469 -1.4752 -0.9028 -0.9109
12846TIP3    H259954   4.997   6.179  14.496 -2.1306  1.8515 -0.2525
12847TIP3   OH259955   4.248   4.864   5.011 -0.0045 -0.0771  0.6108
12847TIP3    H159956   4.212   4.895   5.094  0.5212 -1.3152  1.3365
12847TIP3    H259957   4.181   4.887   4.947 -1.1549 -0.4695  1.6156
12848TIP3   OH259958   1.980   5.582   0.541  1.0092  0.3181  0.4503
12848TIP3    H159959   1.983   5.567   0.447 -0.8971 -0.4438  0.4612
12848TIP3    H259960   2.069   5.563   0.572  0.8822 -2.9074 -0.7466
12849TIP3   OH259961   0.557   6.021  12.805  0.1793 -0.3092 -0.1933
12849TIP3    H159962   0.604   6.099  12.834  0.4446  0.0679 -1.5748
12849TIP3    H259963   0.622   5.970  12.757 -0.7628  0.1855 -2.0783
12850TIP3   OH259964   4.449   0.562  13.648  0.2195  0.2563  0.3085
12850TIP3    H159965   4.365   0.562  13.694  0.6955  0.1739  1.2010
12850TIP3    H259966   4.429   0.598  13.562 -0.6788  0.4899  0.6016
12851TIP3   OH259967   1.392   1.423  15.403 -0.5193 -0.0158 -0.7207
12851TIP3    H159968   1.468   1.395  15.454 -1.2320  0.9048  0.9233
12851TIP3    H259969   1.426   1.435  15.314  1.6311  1.6520  0.2189
12852TIP3   OH259970   4.693   3.788  12.454  0.1330  0.2093 -0.0252
12852TIP3    H159971   4.651   3.747  12.530  0.9471 -1.9193 -0.6574
12852TIP3    H259972   4.761   3.844  12.491  0.6641 -0.9641  0.8279
12853TIP3   OH259973   3.060   2.022  14.666 -0.0719 -0.2357 -0.1639
12853TIP3    H159974   3.128   1.960  14.694  1.1182  2.0639  2.4377
12853TIP3    H259975   3.108   2.095  14.628 -1.4534 -0.7140 -3.0982
12854TIP3   OH259976   5.019   3.489  12.620 -0.4335  0.0324  0.3511
12854TIP3    H159977   5.068   3.505  12.701 -0.8370  1.3930  0.3538
12854TIP3    H259978   4.936   3.451  12.650 -0.9170  1.2960  0.6623
12855TIP3   OH259979   4.894   4.250   0.483 -0.1619 -0.2019 -0.2745
12855TIP3    H159980   4.906   4.345   0.489  4.3330 -0.3968 -2.0094
12855TIP3    H259981   4.953   4.214   0.549 -1.1451 -1.8672 -0.2379
12856TIP3   OH259982   4.334   2.119   1.230 -0.3161  0.1017  0.3660
12856TIP3    H159983   4.311   2.099   1.321  0.7480  2.3975  1.2140
12856TIP3    H259984   4.300   2.044   1.180  0.1512 -1.8552  2.7584
12857TIP3   OH259985   1.071   0.470   4.569  0.3512 -0.3820  0.0609
12857TIP3    H159986   1.090   0.452   4.477  2.5657  0.4900  0.2832
12857TIP3    H259987   1.126   0.410   4.618  0.9876  0.7565  0.7922
12858TIP3   OH259988   6.639   2.347  12.759 -0.5548  0.0766  0.0962
12858TIP3    H159989   6.695   2.286  12.806 -0.4075 -0.3403 -0.6043
12858TIP3    H259990   6.609   2.298  12.683  1.4927  1.6054 -1.8199
12859TIP3   OH259991   3.659   6.339   1.097 -0.0144  0.2935 -0.7997
12859TIP3    H159992   3.661   6.270   1.164 -0.0585 -0.3130 -1.4090
12859TIP3    H259993   3.696   6.416   1.141 -1.8127  0.4687  0.5230
12860TIP3   OH259994   3.068   1.404  15.819 -0.5284  0.3738 -0.2870
12860TIP3    H159995   3.093   1.468  15.752  1.0151  0.0568 -0.0491
12860TIP3    H259996   3.150   1.359  15.840 -0.6723  1.3855  2.8212
12861TIP3   OH259997   0.276   0.508   0.530 -0.2800  0.4194 -0.1437
12861TIP3    H159998   0.221   0.449   0.582  0.9970  0.8893  1.8309
12861TIP3    H259999   0.352   0.455   0.507 -0.3665  0.5253 -0.7000
12862TIP3   OH260000   3.326   4.510   3.849  0.1839 -0.2668 -0.6285
12862TIP3    H160001   3.406   4.555   3.875  0.7891 -2.4598  1.7660
12862TIP3    H260002   3.344   4.475   3.762  1.3156  0.3773 -0.6618
12863TIP3   OH260003   6.639   0.602  12.012  0.0680  0.1018  0.1371
12863TIP3    H160004   6.578   0.531  12.032 -1.6836  0.4763 -3.1883
12863TIP3    H260005   6.600   0.646  11.936  4.0310  0.9670 -1.6149
12864TIP3   OH260006   5.361   2.445  16.715  0.3814  0.1436 -0.5212
12864TIP3    H160007   5.350   2.467  16.623  2.9673 -1.7334 -1.4137
12864TIP3    H260008   5.425   2.508  16.748  1.3327 -0.6871 -0.7335
12865TIP3   OH260009   5.502   2.497  14.701 -0.0039 -0.6173 -0.3452
12865TIP3    H160010   5.523   2.475  14.792 -0.4943 -0.5922 -0.2222
12865TIP3    H260011   5.408   2.516  14.702  0.1835  0.4046 -0.6547
12866TIP3   OH260012   3.412   5.538   4.060  0.3154  0.0363  0.2438
12866TIP3    H160013   3.432   5.459   4.110  0.6999 -0.5820 -0.8433
12866TIP3    H260014   3.480   5.600   4.086 -1.2464  0.8241  2.7553
12867TIP3   OH260015   6.469   2.442  15.210 -0.1030 -0.8038 -0.2804
12867TIP3    H160016   6.476   2.409  15.299 -0.7967  1.1296  0.5392
12867TIP3    H260017   6.382   2.481  15.205 -0.6616 -2.1200 -2.2843
12868TIP3   OH260018   4.966   6.136  12.938 -0.2527  0.2035 -0.3293
12868TIP3    H160019   4.930   6.059  12.894 -0.2508  0.0403 -0.0517
12868TIP3    H260020   4.892   6.196  12.946 -0.4519 -0.1035  0.1805
12869TIP3   OH260021   2.537   1.251  14.159  0.5414  0.0846 -0.1109
12869TIP3    H160022   2.540   1.181  14.224 -1.7306  0.6460  0.6847
12869TIP3    H260023   2.625   1.287  14.157  0.8760 -0.5394  2.0060
12870TIP3   OH260024   4.482   2.012  17.022  0.4417  0.2798 -0.4565
12870TIP3    H160025   4.554   2.073  17.006 -0.1151  1.0543 -0.0777
12870TIP3    H260026   4.403   2.065  17.015 -0.0112 -0.1550  0.9369
12871TIP3   OH260027   2.290   3.588   1.586 -0.2018 -0.3232  0.2851
12871TIP3    H160028   2.198   3.611   1.578  0.4807  2.0393 -2.0751
12871TIP3    H260029   2.299   3.507   1.535 -0.7882  0.0759 -0.4773
12872TIP3   OH260030   3.677   0.615  13.323 -0.2808 -0.3867 -0.8278
12872TIP3    H160031   3.755   0.578  13.363 -1.4996 -0.9101  1.2126
12872TIP3    H260032   3.672   0.573  13.237  0.7821 -1.5764 -0.3378
12873TIP3   OH260033   5.750   5.442   3.999 -0.3297 -0.5469  0.0313
12873TIP3    H160034   5.698   5.404   4.069 -0.8244 -1.7790 -0.9872
12873TIP3    H260035   5.686   5.476   3.936  0.0976 -0.8262 -0.5646
12874TIP3   OH260036   6.208   1.489   0.977 -0.2065 -0.0855  0.1825
12874TIP3    H160037   6.219   1.584   0.976 -1.3385  0.0583 -0.1744
12874TIP3    H260038   6.214   1.463   0.886 -0.4736 -0.2737  0.2168
12875TIP3   OH260039   2.034   0.124   0.209  0.3974  0.1278 -0.0581
12875TIP3    H160040   2.015   0.160   0.296  0.0512  0.7971 -0.3987
12875TIP3    H260041   1.959   0.150   0.156  0.8194  0.1164 -0.6702
12876TIP3   OH260042   3.738   3.937   5.053  0.0610  0.3965 -0.7552
12876TIP3    H160043   3.643   3.950   5.060 -0.2290 -1.2770 -1.3178
12876TIP3    H260044   3.775   4.003   5.112 -1.5678 -0.7735  1.7414
12877TIP3   OH260045   5.944   4.119   1.638 -0.0205  0.0160  0.4987
12877TIP3    H160046   6.015   4.122   1.702 -0.5095  0.6616  1.0237
12877TIP3    H260047   5.864   4.124   1.690 -0.4238  0.8435 -0.1736
12878TIP3   OH260048   4.711   4.109  14.013  0.2794 -0.0835 -0.5209
12878TIP3    H160049   4.729   4.191  14.059  1.9747  0.1027 -1.4364
12878TIP3    H260050   4.670   4.136  13.931 -2.1391 -0.3784  0.5214
12879TIP3   OH260051   5.039   0.149   4.534 -0.2091  0.1398  0.2441
12879TIP3    H160052   5.068   0.070   4.581 -0.4009 -0.2755 -0.3217
12879TIP3    H260053   4.947   0.133   4.515 -0.3584  0.6932  0.5012
12880TIP3   OH260054   3.004   3.460  13.351  0.1347 -0.0284 -0.5807
12880TIP3    H160055   2.961   3.534  13.308  1.0544  0.5412 -0.5479
12880TIP3    H260056   2.977   3.383  13.300 -0.0146  0.4582 -1.2417
12881TIP3   OH260057   2.691   5.551  15.314  0.1547  0.6631 -0.5186
12881TIP3    H160058   2.643   5.483  15.265  0.1718  0.1736  0.1384
12881TIP3    H260059   2.685   5.629  15.258  0.7570 -0.0563 -1.6422
12882TIP3   OH260060   6.442   2.169  15.527  0.1780  0.0550 -0.2968
12882TIP3    H160061   6.502   2.234  15.492  0.2640 -0.2786 -0.7855
12882TIP3    H260062   6.370   2.220  15.564 -0.0633  0.4186 -1.2382
12883TIP3   OH260063   6.268   2.808   0.815 -0.0915 -0.1411  0.1747
12883TIP3    H160064   6.271   2.789   0.721  1.9816 -2.3352  0.5804
12883TIP3    H260065   6.356   2.837   0.836 -0.4328 -0.0116  1.4927
12884TIP3   OH260066   2.095   4.108  12.823  0.1569 -0.8126 -0.0411
12884TIP3    H160067   2.037   4.043  12.782 -1.5793  0.3121  0.4954
12884TIP3    H260068   2.160   4.128  12.756 -0.7976 -1.2577 -1.1351
12885TIP3   OH260069   4.092   0.686   3.315  0.3637 -0.6078 -0.2419
12885TIP3    H160070   4.027   0.616   3.318  0.2530 -0.5169 -0.4736
12885TIP3    H260071   4.076   0.738   3.394  0.4240 -0.8246 -0.0886
12886TIP3   OH260072   0.507   4.922   4.981  0.2721  0.4132 -0.4065
12886TIP3    H160073   0.592   4.939   5.021 -0.3048 -1.5216  1.9311
12886TIP3    H260074   0.448   4.985   5.022 -0.1844 -1.1300  1.5082
12887TIP3   OH260075   1.940   5.431  12.905 -0.4393 -0.1079 -0.6181
12887TIP3    H160076   2.027   5.468  12.922 -0.6437  1.5902 -2.7814
12887TIP3    H260077   1.890   5.450  12.984  1.1993 -1.4505  0.8216
12888TIP3   OH260078   0.026   1.212   3.274 -0.1472 -0.6853 -0.6707
12888TIP3    H160079   0.082   1.264   3.332 -0.3684  0.3427 -1.3520
12888TIP3    H260080   0.072   1.214   3.190 -0.9156 -0.2956 -1.0915
12889TIP3   OH260081   0.500   6.344   3.307  0.0701 -0.1692 -0.0460
12889TIP3    H160082   0.419   6.301   3.335 -1.0689 -0.3423 -3.1476
12889TIP3    H260083   0.487   6.436   3.332 -1.0197 -0.2320 -0.2959
12890TIP3   OH260084   6.789   4.633   1.724 -0.2028  0.3103 -0.5354
12890TIP3    H160085   6.840   4.714   1.727  1.5085 -0.6860 -1.1559
12890TIP3    H260086   6.797   4.596   1.812 -0.0495  0.2725 -0.5653
12891TIP3   OH260087   4.376   6.618   5.088  0.2660  0.1611 -0.3203
12891TIP3    H160088   4.331   6.579   5.013  0.2077  1.3662 -0.9494
12891TIP3    H260089   4.469   6.609   5.067  0.2472  0.7691 -0.7095
12892TIP3   OH260090   3.143   1.069  12.051 -0.6913  0.3797  0.3451
12892TIP3    H160091   3.061   1.033  12.085 -0.1917  0.0888  1.3021
12892TIP3    H260092   3.134   1.164  12.062 -1.2224  0.4160 -0.3345
12893TIP3   OH260093   3.274   0.192  11.626 -0.2292 -0.2882  0.1989
12893TIP3    H160094   3.191   0.239  11.630  0.2389  0.5236  0.5760
12893TIP3    H260095   3.249   0.102  11.606 -1.2161 -0.1091  0.5525
12894TIP3   OH260096   4.946   4.621   3.686  0.0313  0.3533  0.6410
12894TIP3    H160097   5.027   4.611   3.738  0.4228 -0.5738 -0.1324
12894TIP3    H260098   4.876   4.618   3.751  0.6292  2.2403  1.4632
12895TIP3   OH260099   3.026   1.271  15.409 -0.3706  0.1193 -0.2962
12895TIP3    H160100   2.948   1.326  15.400 -1.4092 -1.1801  0.3851
12895TIP3    H260101   2.993   1.188  15.443  1.3757 -0.3340  0.3970
12896TIP3   OH260102   6.500   4.180  13.088  0.5381  0.4838 -0.4615
12896TIP3    H160103   6.534   4.191  13.177  1.2840  1.8825 -0.8804
12896TIP3    H260104   6.443   4.104  13.093 -0.6286  1.4180  1.5674
12897TIP3   OH260105   5.581   4.981   1.062  0.4326 -0.2127  0.1991
12897TIP3    H160106   5.667   5.004   1.026  0.3726 -0.5802 -0.1855
12897TIP3    H260107   5.519   5.031   1.009  0.4393  0.6463  0.9631
12898TIP3   OH260108   0.237   3.509   3.939 -0.0844  0.0374  0.3349
12898TIP3    H160109   0.327   3.479   3.936  0.5760  1.8194  1.1125
12898TIP3    H260110   0.188   3.438   3.980  1.0862 -0.6492  0.5585
12899TIP3   OH260111   3.893   4.364  16.207 -0.0019 -0.1319 -0.5330
12899TIP3    H160112   3.820   4.307  16.183 -1.8141  1.7438  0.2546
12899TIP3    H260113   3.939   4.380  16.124 -1.9932  0.6557 -1.5330
12900TIP3   OH260114   3.171   0.262  11.210 -0.2828 -0.2302 -0.3691
12900TIP3    H160115   3.149   0.199  11.278 -0.9115 -1.1521 -1.3773
12900TIP3    H260116   3.233   0.216  11.154  1.4892  1.0899  0.4493
12901TIP3   OH260117   1.812   4.770   5.548 -0.1547  0.1561 -0.4189
12901TIP3    H160118   1.793   4.772   5.642  2.9475  0.1118  0.3208
12901TIP3    H260119   1.908   4.774   5.543 -0.2652  1.6355 -3.6460
12902TIP3   OH260120   1.291   2.592  13.580  0.6126  0.2878  0.2322
12902TIP3    H160121   1.328   2.680  13.580 -0.5161  0.8219  2.1756
12902TIP3    H260122   1.241   2.587  13.662  0.0543 -1.9116 -0.1819
12903TIP3   OH260123   2.327   1.787   3.069 -0.4739 -0.3614  0.4233
12903TIP3    H160124   2.324   1.882   3.078 -1.9096 -0.3724  0.3811
12903TIP3    H260125   2.332   1.772   2.974  0.3594 -0.3356  0.4568
12904TIP3   OH260126   2.625   3.171  16.059 -0.2118  0.1027  0.6886
12904TIP3    H160127   2.700   3.141  16.007 -0.3883  3.7965 -2.1005
12904TIP3    H260128   2.663   3.192  16.145  1.1289 -1.6500  0.5821
12905TIP3   OH260129   0.242   3.185   6.895  0.0679 -0.3938 -0.7635
12905TIP3    H160130   0.331   3.187   6.860  0.6020  1.0606  0.5923
12905TIP3    H260131   0.189   3.227   6.827  0.5557 -0.4576 -1.1933
12906TIP3   OH260132   6.598   5.461  16.274 -0.5644 -0.0406 -0.4238
12906TIP3    H160133   6.517   5.487  16.232  0.2981 -0.5754 -2.5607
12906TIP3    H260134   6.665   5.473  16.207  1.0663 -0.0519  1.1210
12907TIP3   OH260135   0.421   3.326   4.574  0.4074 -0.5159  0.1696
12907TIP3    H160136   0.504   3.278   4.583  0.5744 -0.0090  1.6453
12907TIP3    H260137   0.361   3.282   4.635  0.5428  1.0441  1.4958
12908TIP3   OH260138   6.181   1.608  16.389  0.5728  0.6037 -0.2797
12908TIP3    H160139   6.089   1.593  16.414  0.2001  2.6831 -0.1885
12908TIP3    H260140   6.222   1.523  16.397 -1.0612 -0.1279  0.9710
12909TIP3   OH260141   0.964   6.767  12.152 -0.2003  0.3371  0.1152
12909TIP3    H160142   0.914   6.762  12.234 -0.9600 -0.1040 -0.3649
12909TIP3    H260143   1.020   6.844  12.163 -0.3083  0.2907  1.0411
12910TIP3   OH260144   2.519   5.649   2.418 -0.0021  0.2032  0.1360
12910TIP3    H160145   2.497   5.740   2.438 -0.9893  0.2637 -1.1025
12910TIP3    H260146   2.519   5.645   2.322  0.0317 -1.1041  0.1762
12911TIP3   OH260147   1.944   0.947  13.666 -0.3918  1.0415  0.3820
12911TIP3    H160148   1.977   1.025  13.709  1.5591  0.8512 -0.6272
12911TIP3    H260149   2.001   0.936  13.590 -2.4496  0.2755 -1.1633
12912TIP3   OH260150   3.505   1.636   2.736  0.0145 -0.0444 -0.2302
12912TIP3    H160151   3.579   1.599   2.689  0.1877  0.3902 -0.3064
12912TIP3    H260152   3.538   1.651   2.825 -0.4304 -1.2379  0.1497
12913TIP3   OH260153   6.368   5.409   1.522 -0.0956 -0.5116  0.4516
12913TIP3    H160154   6.419   5.476   1.567  0.7065 -0.9676  0.2475
12913TIP3    H260155   6.290   5.455   1.491  0.7046  0.4782 -0.1931
12914TIP3   OH260156   1.801   6.382   6.235 -0.3360 -0.0229  0.0120
12914TIP3    H160157   1.855   6.457   6.210  0.4534 -0.3597  0.6408
12914TIP3    H260158   1.756   6.411   6.315  1.0088 -0.6590  1.0329
12915TIP3   OH260159   0.576   0.466  14.685  0.2566 -0.2983  0.1631
12915TIP3    H160160   0.519   0.536  14.654 -1.5464 -1.9769 -0.5556
12915TIP3    H260161   0.537   0.386  14.649  1.7729 -1.7544  1.5713
12916TIP3   OH260162   0.247   5.724   5.462 -0.5902 -0.4049  0.2865
12916TIP3    H160163   0.278   5.722   5.553  2.2504  0.6828 -0.5333
12916TIP3    H260164   0.160   5.765   5.467  0.1591  1.1224  2.4107
12917TIP3   OH260165   3.703   3.783  16.146  0.2472 -0.1272  0.7855
12917TIP3    H160166   3.734   3.783  16.237  0.4696  2.3410  0.7739
12917TIP3    H260167   3.621   3.832  16.149 -0.6077 -1.4319 -0.1340
12918TIP3   OH260168   6.567   2.101   2.807  0.2739  0.3382 -0.4091
12918TIP3    H160169   6.481   2.096   2.849  0.1265  1.3747 -0.5612
12918TIP3    H260170   6.602   2.186   2.834  0.9813  0.1958 -0.8538
12919TIP3   OH260171   5.065   3.404  11.102 -0.2586  0.1040  0.3393
12919TIP3    H160172   5.127   3.451  11.047 -0.0455  0.0210  0.5058
12919TIP3    H260173   5.102   3.409  11.190 -0.2794 -0.2974  0.3738
12920TIP3   OH260174   2.089   5.824   1.777 -0.5611  0.1117  0.2205
12920TIP3    H160175   2.158   5.776   1.732 -1.1383 -0.5998  0.0933
12920TIP3    H260176   2.059   5.765   1.846  1.1284  1.6025  2.3813
12921TIP3   OH260177   6.553   2.180  11.726  0.7213  0.1378  0.0886
12921TIP3    H160178   6.515   2.268  11.737  1.9878  0.6184  0.7685
12921TIP3    H260179   6.477   2.122  11.726 -0.0908  1.1535  0.5366
12922TIP3   OH260180   2.741   5.133   2.775 -0.8047  0.6524  0.4686
12922TIP3    H160181   2.777   5.051   2.741 -0.4190  0.5690  1.0676
12922TIP3    H260182   2.796   5.202   2.735 -1.0054  0.6117  0.1196
12923TIP3   OH260183   4.255   1.502   1.119 -0.4251 -0.8317  0.7646
12923TIP3    H160184   4.198   1.504   1.196 -0.0193  2.2338  1.1309
12923TIP3    H260185   4.337   1.542   1.149  0.2554 -0.8872 -0.8932
12924TIP3   OH260186   4.391   0.568  12.736  0.2455 -0.5869 -0.1639
12924TIP3    H160187   4.372   0.562  12.829 -0.1673 -0.3635 -0.2315
12924TIP3    H260188   4.331   0.634  12.703 -1.2587 -2.2725 -1.0227
12925TIP3   OH260189   2.099   4.416   4.790 -0.5688  0.0887 -0.2735
12925TIP3    H160190   2.092   4.337   4.843 -1.9623  0.2082 -0.2359
12925TIP3    H260191   2.048   4.481   4.838 -0.0230  0.8197 -0.6610
12926TIP3   OH260192   6.042   0.245  11.771  0.2533 -0.0893 -0.1197
12926TIP3    H160193   6.019   0.208  11.857  0.1880  0.8204  0.2588
12926TIP3    H260194   5.993   0.190  11.709 -2.6155  1.4079  0.6142
12927TIP3   OH260195   0.023   2.044   3.546  0.8599  0.3850 -0.0000
12927TIP3    H160196  -0.040   2.073   3.611 -2.2013 -1.8626 -1.6998
12927TIP3    H260197   0.020   2.110   3.478 -1.1551 -0.5440 -0.8894
12928TIP3   OH260198   5.515   4.752   6.758  0.2703 -0.0938 -0.2189
12928TIP3    H160199   5.578   4.803   6.707  1.7139 -2.7392 -1.3012
12928TIP3    H260200   5.467   4.701   6.693  0.0228 -1.3158  0.8800
12929TIP3   OH260201   2.643   3.490  13.866 -0.0960  0.0706  0.4518
12929TIP3    H160202   2.612   3.453  13.949  2.3733 -0.0060  1.4383
12929TIP3    H260203   2.664   3.414  13.812 -1.2131  0.1155 -0.0507
12930TIP3   OH260204   6.245   4.381   5.215  0.0457  0.4974  0.3953
12930TIP3    H160205   6.158   4.408   5.185  0.9297  0.9580 -1.9733
12930TIP3    H260206   6.244   4.398   5.310 -0.3466  6.8817 -0.2895
12931TIP3   OH260207   3.044   3.957  16.256 -0.5587  0.3859  0.5544
12931TIP3    H160208   3.001   3.899  16.194 -0.2526  0.2923  0.4265
12931TIP3    H260209   3.088   4.022  16.201 -0.1442  0.2021  0.6632
12932TIP3   OH260210   0.232   3.732  14.073 -0.8897 -0.0750 -0.4622
12932TIP3    H160211   0.289   3.687  14.011 -0.9756  0.0072 -0.6014
12932TIP3    H260212   0.291   3.788  14.124 -0.6952 -0.8181  0.1408
12933TIP3   OH260213   1.676   1.721   5.341 -0.1285 -0.0921  0.2800
12933TIP3    H160214   1.693   1.814   5.327 -1.4280 -0.0127 -1.0679
12933TIP3    H260215   1.685   1.681   5.254 -2.1413 -0.7355  0.2972
12934TIP3   OH260216   4.468   4.597  11.689  0.2954 -0.4872 -0.6075
12934TIP3    H160217   4.411   4.521  11.675 -0.2558  0.3086 -3.2106
12934TIP3    H260218   4.544   4.580  11.633  0.5661  0.4686 -0.5400
12935TIP3   OH260219   2.446   2.672  15.644 -0.3939 -0.4082  0.5911
12935TIP3    H160220   2.509   2.600  15.651  0.7080  0.5248  0.7301
12935TIP3    H260221   2.386   2.659  15.717 -0.8857 -1.7953 -0.0402
12936TIP3   OH260222   4.684   1.369  16.211  0.0444  0.6016  0.4382
12936TIP3    H160223   4.595   1.391  16.236 -0.2706 -0.1869  0.0361
12936TIP3    H260224   4.708   1.434  16.145  0.1878  1.5041  1.3484
12937TIP3   OH260225   3.065   3.626   1.036  0.1353  0.1896 -0.1501
12937TIP3    H160226   3.026   3.714   1.029 -0.2393 -0.0055 -0.6025
12937TIP3    H260227   3.160   3.642   1.031  0.1019  0.3507 -4.0926
12938TIP3   OH260228   2.354   2.085  17.119 -0.8609 -0.1783 -0.4926
12938TIP3    H160229   2.432   2.031  17.132 -1.2894 -0.3233  1.9675
12938TIP3    H260230   2.371   2.132  17.037  1.6411 -0.4598 -0.2214
12939TIP3   OH260231   0.213   3.443   5.725  0.1610 -0.3984  0.0385
12939TIP3    H160232   0.162   3.469   5.649  1.0697 -0.4186 -0.5915
12939TIP3    H260233   0.231   3.524   5.772  1.6760 -0.0445 -1.0937
12940TIP3   OH260234   6.371   2.507  15.965 -0.5378 -0.3363  0.4267
12940TIP3    H160235   6.452   2.509  16.016 -0.1686  1.4849 -0.1786
12940TIP3    H260236   6.303   2.489  16.029  0.0073  1.1235  1.4475
12941TIP3   OH260237   2.479   2.929   5.976  0.6595 -0.0867 -0.1847
12941TIP3    H160238   2.506   2.950   6.065 -1.1020 -0.4611  0.4717
12941TIP3    H260239   2.431   2.847   5.984 -1.3489  0.9223 -1.1123
12942TIP3   OH260240   3.076   1.792  16.195  0.1957 -0.0004  0.2518
12942TIP3    H160241   2.981   1.793  16.193  0.1718 -0.2821  0.9789
12942TIP3    H260242   3.100   1.701  16.174  0.3480  0.3174 -1.0424
12943TIP3   OH260243   5.738   1.886  12.055 -0.0588  0.5149  0.2049
12943TIP3    H160244   5.677   1.957  12.035  1.3136  1.4900 -0.7668
12943TIP3    H260245   5.822   1.930  12.068  0.7702 -0.9115 -0.0961
12944TIP3   OH260246   0.947   1.685  11.928  0.5444  0.2632 -0.5231
12944TIP3    H160247   0.854   1.703  11.931  0.4079 -0.5525  0.7033
12944TIP3    H260248   0.983   1.732  12.003  0.5183 -2.4727  1.3194
12945TIP3   OH260249   3.127   3.916  11.619  0.2779  0.1815  0.8155
12945TIP3    H160250   3.216   3.935  11.649  1.4120  0.8125 -2.4774
12945TIP3    H260251   3.082   4.000  11.620 -0.0471  0.0061  1.7130
12946TIP3   OH260252   0.719   3.519   0.511  0.3389 -0.2424  0.5087
12946TIP3    H160253   0.786   3.467   0.467  2.2133  1.7768  0.7969
12946TIP3    H260254   0.733   3.501   0.605  2.8582  2.6243  0.8440
12947TIP3   OH260255   5.537   4.556   1.359  0.0680 -0.4978  0.8237
12947TIP3    H160256   5.616   4.508   1.331  0.3802 -0.4350  1.5625
12947TIP3    H260257   5.541   4.638   1.311  0.5447 -0.4275  0.9731
12948TIP3   OH260258   3.563   4.189   2.554 -0.5362 -0.3317  0.3139
12948TIP3    H160259   3.657   4.176   2.555 -0.7924 -2.6058  1.3806
12948TIP3    H260260   3.549   4.270   2.603  0.7918 -0.6879  1.3432
12949TIP3   OH260261   0.975   3.727  10.814 -0.8984 -0.3463 -1.1012
12949TIP3    H160262   0.918   3.684  10.878  0.5795 -1.5360 -0.5071
12949TIP3    H260263   0.945   3.818  10.812 -1.8038 -0.5771  0.3495
12950TIP3   OH260264   1.908   3.276   4.090  0.1950 -0.1540  0.5207
12950TIP3    H160265   1.971   3.211   4.058  0.7170 -0.5275  2.2179
12950TIP3    H260266   1.886   3.328   4.012  1.8950 -0.5845 -0.2958
12951TIP3   OH260267   3.109   3.864   2.574 -0.2320 -0.4891  0.3908
12951TIP3    H160268   3.096   3.944   2.625 -1.7403 -1.7710  2.1607
12951TIP3    H260269   3.035   3.808   2.598  1.0317 -2.6204 -0.3761
12952TIP3   OH260270   4.363   1.635   0.639  0.2874 -0.4383 -0.3567
12952TIP3    H160271   4.384   1.665   0.728 -1.2323 -0.1934 -0.0487
12952TIP3    H260272   4.413   1.554   0.628 -0.0891 -0.8771  1.0123
12953TIP3   OH260273   3.027   1.129   1.457 -0.6265  0.3488 -0.2838
12953TIP3    H160274   2.975   1.181   1.519  1.3280  3.7381 -1.1957
12953TIP3    H260275   2.986   1.043   1.458 -3.5818  1.5680  2.1384
12954TIP3   OH260276   3.074   0.152   0.957 -0.4103 -0.0317 -0.1068
12954TIP3    H160277   3.159   0.111   0.969 -1.1601 -1.7495 -0.4304
12954TIP3    H260278   3.011   0.080   0.958 -1.6850  0.9610 -1.8843
12955TIP3   OH260279   6.066   4.331  10.552  0.4092  0.0011  0.4517
12955TIP3    H160280   6.021   4.356  10.632 -0.6812 -2.2617  0.6418
12955TIP3    H260281   6.030   4.388  10.484 -0.9693 -0.1254  1.0523
12956TIP3   OH260282   0.538   4.445   1.979 -0.3799  0.7566  0.4412
12956TIP3    H160283   0.538   4.384   1.905 -1.9877  0.2236  0.8339
12956TIP3    H260284   0.605   4.510   1.957  0.3573 -0.3332 -0.6657
12957TIP3   OH260285   2.237   0.102   4.625 -0.6517 -0.3808  0.1713
12957TIP3    H160286   2.196   0.155   4.694 -0.3307 -0.2510  0.2618
12957TIP3    H260287   2.331   0.116   4.636 -0.5036 -1.6824  0.7658
12958TIP3   OH260288   4.120   1.546   0.840 -0.3348  0.4004  0.1529
12958TIP3    H160289   4.168   1.499   0.908  0.1198  0.2635 -0.2566
12958TIP3    H260290   4.188   1.592   0.790 -0.7339  1.2082  0.3238
12959TIP3   OH260291   4.813   2.937   4.950 -0.3902  0.4000  0.7228
12959TIP3    H160292   4.895   2.983   4.932  1.1308 -1.7939  1.6055
12959TIP3    H260293   4.779   2.979   5.030  0.8280  0.1985  1.3736
12960TIP3   OH260294   3.299   0.441  15.616  0.2742  0.1604  0.2155
12960TIP3    H160295   3.255   0.401  15.691 -1.5250  0.2466 -0.7232
12960TIP3    H260296   3.280   0.382  15.543  1.5567  0.3425 -0.2980
12961TIP3   OH260297   1.599   2.458  11.681  0.0140 -0.1613 -0.3804
12961TIP3    H160298   1.533   2.446  11.613 -0.0772 -3.2102  0.0928
12961TIP3    H260299   1.553   2.441  11.763  0.5877  1.4483  0.3155
12962TIP3   OH260300   0.417   0.003  13.888 -0.4764 -0.4584 -0.5163
12962TIP3    H160301   0.464   0.077  13.926 -0.5813 -0.8417  0.3722
12962TIP3    H260302   0.453  -0.074  13.930 -1.8048 -0.7722  0.1158
12963TIP3   OH260303   1.559   5.971   0.116 -0.2822  0.1894 -0.0235
12963TIP3    H160304   1.542   6.044   0.056 -0.2129 -1.3874 -2.0774
12963TIP3    H260305   1.638   5.929   0.081  0.7583  0.1849  2.1961
12964TIP3   OH260306   1.940   2.818   0.384  0.1379 -0.2263  0.0087
12964TIP3    H160307   1.884   2.835   0.308 -0.3884  1.5227  0.7382
12964TIP3    H260308   1.879   2.796   0.454  0.3358  1.5017  0.7632
12965TIP3   OH260309   1.350   3.079  12.100 -0.2928 -0.0016  0.2062
12965TIP3    H160310   1.254   3.087  12.105 -0.3985 -1.4760  1.0315
12965TIP3    H260311   1.379   3.086  12.191  0.2362 -1.0565  0.1232
12966TIP3   OH260312   5.695   3.892  14.154 -0.7773 -0.3508  0.0635
12966TIP3    H160313   5.619   3.872  14.100  0.7667 -2.6223 -1.4309
12966TIP3    H260314   5.764   3.834  14.121  1.8011  2.0030  0.9661
12967TIP3   OH260315   5.766   4.227   2.208 -0.1873 -0.9792 -0.9834
12967TIP3    H160316   5.809   4.237   2.123 -1.6499  1.0156 -1.5755
12967TIP3    H260317   5.704   4.301   2.212  1.0938  0.1050  2.5736
12968TIP3   OH260318   5.959   4.545  13.833  0.5334  0.1819  0.0525
12968TIP3    H160319   5.978   4.635  13.861  0.2011  0.6213 -1.0804
12968TIP3    H260320   5.949   4.551  13.738 -0.3668 -0.9009  0.0595
12969TIP3   OH260321   0.693   4.886   0.857 -0.1675  0.0766 -0.3117
12969TIP3    H160322   0.694   4.833   0.936  0.9512 -1.3904 -1.2558
12969TIP3    H260323   0.777   4.932   0.857 -0.5854  0.8747 -0.1696
12970TIP3   OH260324   0.814   1.736   1.137 -0.7143 -0.3837 -0.1840
12970TIP3    H160325   0.838   1.692   1.055 -0.7772 -1.6191  0.4281
12970TIP3    H260326   0.883   1.711   1.198 -0.5006  0.7853  0.0696
12971TIP3   OH260327   5.446   3.294  16.302 -0.0687 -0.3633  1.1290
12971TIP3    H160328   5.391   3.369  16.321  1.7070  1.5020 -0.5629
12971TIP3    H260329   5.396   3.218  16.333 -1.5409  1.5393  3.7289
12972TIP3   OH260330   2.956   4.966   3.157  0.3071  0.0455 -0.2365
12972TIP3    H160331   2.939   5.052   3.117 -0.7131  0.0330  0.1499
12972TIP3    H260332   2.888   4.957   3.224  1.6819 -0.1446  1.1975
12973TIP3   OH260333   5.574   6.191  13.641  0.1002  0.5397 -0.5509
12973TIP3    H160334   5.520   6.168  13.565 -0.6424  1.1981 -0.2403
12973TIP3    H260335   5.636   6.256  13.606 -1.7836  2.7013 -0.1529
12974TIP3   OH260336   0.588   5.363   3.465 -0.2988  0.4875  0.3105
12974TIP3    H160337   0.664   5.338   3.517  0.5349  0.5283 -0.8474
12974TIP3    H260338   0.583   5.458   3.473 -1.3331  0.3439  1.8301
12975TIP3   OH260339   0.706   0.889   4.258  0.5608  0.1919  0.1407
12975TIP3    H160340   0.691   0.979   4.286  0.9722 -0.0218  1.0827
12975TIP3    H260341   0.772   0.895   4.189  1.7051  0.5003  1.2379
12976TIP3   OH260342   1.772   5.100  16.812  0.2329 -0.1803  0.3210
12976TIP3    H160343   1.749   5.192  16.800  1.0974 -0.1916 -2.0689
12976TIP3    H260344   1.696   5.051  16.780  0.5069 -0.2652 -0.2141
12977TIP3   OH260345   1.923   6.727  10.764  0.8326  0.2502 -0.7832
12977TIP3    H160346   2.015   6.713  10.746  0.7003 -1.0880 -0.5204
12977TIP3    H260347   1.881   6.730  10.678  0.6294 -2.9911 -0.9245
12978TIP3   OH260348   5.340   5.276   4.961 -0.0209  0.4981  0.0224
12978TIP3    H160349   5.270   5.225   5.002 -0.8185 -0.3220 -2.2005
12978TIP3    H260350   5.403   5.290   5.031 -0.4766 -2.2624  1.1268
12979TIP3   OH260351   5.049   3.543  16.949 -0.1438 -0.2186  0.3115
12979TIP3    H160352   5.094   3.563  17.031 -3.0270  0.6861  1.7783
12979TIP3    H260353   5.058   3.448  16.940  1.4892 -0.1484  0.8249
12980TIP3   OH260354   5.857   5.061  16.953  0.0836 -0.2337 -0.0736
12980TIP3    H160355   5.813   5.049  17.037  2.1442  1.5737  1.3685
12980TIP3    H260356   5.901   4.978  16.937 -0.0789 -0.4968  0.7926
12981TIP3   OH260357   5.992   4.498  16.911  0.1112  1.2252 -0.2299
12981TIP3    H160358   5.980   4.516  16.818  1.2287  0.2393 -0.5868
12981TIP3    H260359   6.082   4.467  16.918 -0.1651  0.6591  1.0817
12982TIP3   OH260360   2.265   0.965  14.608 -0.3770 -0.0818  0.6604
12982TIP3    H160361   2.336   0.929  14.660  1.4502  1.6211 -0.5276
12982TIP3    H260362   2.249   0.899  14.541  1.4667  0.3214 -0.2336
12983TIP3   OH260363   0.538   6.085  17.078  0.3674 -0.5018  0.0133
12983TIP3    H160364   0.575   6.162  17.036 -1.7320 -0.4170 -1.8515
12983TIP3    H260365   0.599   6.014  17.059  2.3429  0.6060  1.7773
12984TIP3   OH260366   1.426   3.758   2.296 -1.0324  0.3514 -0.4450
12984TIP3    H160367   1.437   3.760   2.201 -1.1561 -2.0166 -0.5516
12984TIP3    H260368   1.515   3.751   2.331 -1.0184  0.7590 -0.3907
12985TIP3   OH260369   4.730   4.657   4.826  0.1251 -0.2602  0.4809
12985TIP3    H160370   4.651   4.613   4.794 -0.9031  0.9506  1.2462
12985TIP3    H260371   4.776   4.590   4.876 -1.7457 -0.3736  2.1956
12986TIP3   OH260372   4.101   1.259  12.736 -0.0251  0.5578 -0.4680
12986TIP3    H160373   4.161   1.334  12.739 -2.0023  2.1965  1.1621
12986TIP3    H260374   4.142   1.193  12.791 -0.4156  2.2847  2.0369
12987TIP3   OH260375   1.961   0.923   1.056 -0.2910 -0.0468 -0.1316
12987TIP3    H160376   1.973   0.972   1.137 -0.0197 -1.9152  1.0180
12987TIP3    H260377   2.022   0.963   0.995 -0.5098  1.4130  0.5665
12988TIP3   OH260378   6.261   1.007  15.726  0.1270 -0.0247  0.4735
12988TIP3    H160379   6.256   0.934  15.787 -0.2310  0.9581  1.6788
12988TIP3    H260380   6.196   0.987  15.659 -0.6486 -0.3589  1.3083
12989TIP3   OH260381   0.768   5.205   1.458 -0.1636  0.3272 -0.2660
12989TIP3    H160382   0.793   5.200   1.365  1.1500 -0.0075  0.0818
12989TIP3    H260383   0.750   5.114   1.483  0.2797  0.3163  0.0126
12990TIP3   OH260384   1.180   2.060  13.350  0.4346  0.7396 -0.0194
12990TIP3    H160385   1.161   1.972  13.318 -3.7887  0.9106  1.4297
12990TIP3    H260386   1.202   2.047  13.442  2.8623  1.0719 -0.4819
12991TIP3   OH260387   0.389   4.651   3.019 -0.0888 -0.0486  0.2361
12991TIP3    H160388   0.402   4.713   2.947 -0.1314 -1.3162 -0.9007
12991TIP3    H260389   0.476   4.643   3.059  0.0190  0.3781  0.0956
12992TIP3   OH260390   3.147   0.677  10.679  0.1158  0.3859 -0.2570
12992TIP3    H160391   3.204   0.608  10.713 -0.5620  0.7810  1.8033
12992TIP3    H260392   3.189   0.706  10.599  0.9912 -1.6713 -0.6019
12993TIP3   OH260393   4.383   3.431   2.903  0.2504  0.2729 -0.2628
12993TIP3    H160394   4.358   3.478   2.823 -2.1290 -1.0362 -0.3907
12993TIP3    H260395   4.400   3.500   2.967 -1.9021  1.3928 -0.7814
12994TIP3   OH260396   5.729   4.130  16.606 -0.0248  0.0280  0.1554
12994TIP3    H160397   5.812   4.115  16.651 -0.4076 -2.2552  0.1782
12994TIP3    H260398   5.664   4.136  16.676 -0.1285  0.0117  0.0605
12995TIP3   OH260399   2.414   4.615  12.769  0.4048  0.3068 -0.0250
12995TIP3    H160400   2.402   4.628  12.863 -1.0102  2.3657 -0.4364
12995TIP3    H260401   2.505   4.638  12.753  0.7927 -0.5042  0.8792
12996TIP3   OH260402   0.122   0.335   2.679 -0.3361  0.3719  0.3636
12996TIP3    H160403   0.060   0.325   2.606 -0.0297  1.6877 -0.0947
12996TIP3    H260404   0.094   0.269   2.743 -1.5532  0.2305 -0.2846
12997TIP3   OH260405   3.160   5.418   4.048 -0.0553  0.4150 -0.4462
12997TIP3    H160406   3.138   5.387   3.961  1.8028 -0.7011 -0.5647
12997TIP3    H260407   3.252   5.445   4.042 -0.4897  2.3244  0.6534
12998TIP3   OH260408   5.086   5.411   4.972 -0.4699 -0.1452  0.3005
12998TIP3    H160409   5.169   5.364   4.962 -0.6726 -0.5040  0.2883
12998TIP3    H260410   5.098   5.463   5.051  1.0970  2.6200 -1.5904
12999TIP3   OH260411   6.187   0.438   0.380  0.7383  0.4281 -0.7207
12999TIP3    H160412   6.280   0.433   0.404  0.9036 -0.4776 -1.4476
12999TIP3    H260413   6.177   0.370   0.313 -0.5726  0.1674 -0.2786
13000TIP3   OH260414   2.219   2.565   1.612  0.0150 -0.2954 -0.1722
13000TIP3    H160415   2.268   2.483   1.608 -0.7373 -0.7345 -0.8176
13000TIP3    H260416   2.285   2.632   1.627  0.7330 -0.9348 -0.4212
13001TIP3   OH260417   0.750   3.012  12.692 -0.0081  0.3064  0.1179
13001TIP3    H160418   0.710   3.093  12.660 -0.0994 -0.1453 -0.9638
13001TIP3    H260419   0.830   3.041  12.736 -1.0237  1.1382  1.4793
13002TIP3   OH260420   5.678   0.158  13.205 -0.0560 -0.1324 -0.2303
13002TIP3    H160421   5.615   0.092  13.234 -1.0131  1.5840  1.9495
13002TIP3    H260422   5.628   0.216  13.147  0.0061  0.2000  0.0420
13003TIP3   OH260423   1.959   2.512   1.833 -0.4516 -0.6525  0.1419
13003TIP3    H160424   2.012   2.438   1.804 -0.4951 -1.5193  2.1101
13003TIP3    H260425   2.004   2.544   1.912 -0.9293  0.8494 -0.1630
13004TIP3   OH260426   6.533   5.503   0.686 -0.0698 -0.0104  0.4913
13004TIP3    H160427   6.486   5.584   0.699  1.0482  0.4852  1.6895
13004TIP3    H260428   6.625   5.525   0.702  0.5330 -1.0627 -1.1596
13005TIP3   OH260429   6.328   3.553  12.043  0.0449  0.2362  0.2616
13005TIP3    H160430   6.325   3.586  11.953  0.8969  0.6706  0.3726
13005TIP3    H260431   6.282   3.620  12.094  0.9462  0.8126  0.3535
13006TIP3   OH260432   6.435   2.855  15.000 -0.2144 -0.3642  0.1758
13006TIP3    H160433   6.350   2.823  14.968  0.8615 -2.5276 -0.7371
13006TIP3    H260434   6.499   2.813  14.943  1.4550  3.9247 -1.4698
13007TIP3   OH260435   3.399   6.294  14.877  0.1951  0.4924  0.0880
13007TIP3    H160436   3.427   6.226  14.815  0.4332  0.9770 -0.3456
13007TIP3    H260437   3.450   6.276  14.956  0.6052  0.4467 -0.1801
13008TIP3   OH260438   4.396   2.227  16.459  0.6808  0.5161 -0.1076
13008TIP3    H160439   4.368   2.245  16.369 -1.7882 -0.0754  0.4742
13008TIP3    H260440   4.392   2.132  16.467 -0.3482  0.6285  0.9578
13009TIP3   OH260441   0.652   0.143  11.627  0.3622 -0.4923 -0.0865
13009TIP3    H160442   0.618   0.060  11.660 -1.8978  0.3517 -0.1230
13009TIP3    H260443   0.677   0.124  11.536 -2.0098 -0.7415 -0.7470
13010TIP3   OH260444   4.799   5.649  14.343 -0.3798 -0.0535 -0.6316
13010TIP3    H160445   4.852   5.722  14.374 -0.9839 -0.0511  0.4489
13010TIP3    H260446   4.724   5.691  14.300 -0.7001 -0.0251 -0.0573
13011TIP3   OH260447   3.738   1.921  13.090 -0.3713  0.3017  0.2242
13011TIP3    H160448   3.814   1.935  13.033  0.5700  0.0336  1.3698
13011TIP3    H260449   3.745   1.990  13.156 -0.8732 -0.0045  0.5989
13012TIP3   OH260450   4.987   5.216   2.159 -0.0244 -0.5884  0.0324
13012TIP3    H160451   4.939   5.193   2.080  0.0159 -0.2288 -0.0972
13012TIP3    H260452   4.920   5.233   2.224 -0.0802  0.1417 -0.2116
13013TIP3   OH260453   4.768   3.406   6.625  0.3209  0.4172  0.0762
13013TIP3    H160454   4.839   3.468   6.613 -0.5017  1.0228 -2.1998
13013TIP3    H260455   4.688   3.457   6.615 -0.4210 -0.5321  0.9036
13014TIP3   OH260456   6.038   3.715  11.370  0.3954 -0.4295 -0.5476
13014TIP3    H160457   6.036   3.641  11.309 -0.9624  0.1172 -1.2226
13014TIP3    H260458   5.981   3.780  11.329  2.5168  1.5050 -0.5892
13015TIP3   OH260459   3.769   1.174   5.176 -0.1669  0.1649 -0.1393
13015TIP3    H160460   3.768   1.080   5.189 -2.0272  0.3386  1.7315
13015TIP3    H260461   3.855   1.194   5.140  0.5594 -2.1434  0.1990
13016TIP3   OH260462   1.337   1.914   1.889 -0.1447  0.6889  0.1836
13016TIP3    H160463   1.362   1.888   1.978 -0.5001  1.0211  0.3865
13016TIP3    H260464   1.315   1.832   1.845  0.6717  0.4595  0.1978
13017TIP3   OH260465   3.117   0.378   4.124  0.1638  0.3029 -0.2858
13017TIP3    H160466   3.199   0.412   4.160  0.5453  0.3035 -1.1455
13017TIP3    H260467   3.089   0.445   4.062 -1.9094  1.6221  1.8980
13018TIP3   OH260468   5.252   1.363   3.667  0.1150 -0.0615 -0.5094
13018TIP3    H160469   5.193   1.320   3.729 -0.0503  1.4835  0.4534
13018TIP3    H260470   5.332   1.310   3.670 -0.1276 -0.3980  0.5372
13019TIP3   OH260471   4.179   1.297  16.807  0.2471 -0.2843 -0.1626
13019TIP3    H160472   4.163   1.358  16.878  1.3444 -0.6286  0.4103
13019TIP3    H260473   4.215   1.351  16.736  0.0375 -0.0829 -0.1136
13020TIP3   OH260474   1.969   5.028   6.547  0.4932 -0.5449 -0.5003
13020TIP3    H160475   1.961   4.973   6.469 -0.1603 -0.0112 -0.8157
13020TIP3    H260476   1.879   5.039   6.578  0.6520  0.1074 -0.2724
13021TIP3   OH260477   1.564   3.689   5.514 -0.0070  0.1495  0.1072
13021TIP3    H160478   1.584   3.599   5.542 -2.1552 -0.5645 -0.4841
13021TIP3    H260479   1.618   3.744   5.571  0.4455 -1.4732  1.3185
13022TIP3   OH260480   3.512   5.943  11.522  0.0188  0.1061  0.3602
13022TIP3    H160481   3.564   6.011  11.565  2.1993 -1.2387 -0.0069
13022TIP3    H260482   3.566   5.864  11.529 -1.4709 -1.0966 -1.1033
13023TIP3   OH260483   4.753   1.254  12.826 -0.2026 -0.6410 -0.4425
13023TIP3    H160484   4.847   1.254  12.844 -0.1431 -3.3545 -0.3786
13023TIP3    H260485   4.715   1.304  12.899  1.2965  2.8843 -1.8933
13024TIP3   OH260486   0.345   3.702  13.480  0.2955  0.3383  0.1587
13024TIP3    H160487   0.298   3.774  13.439  0.5187 -0.9783 -2.6255
13024TIP3    H260488   0.277   3.653  13.527 -0.6001  0.2608 -1.1444
13025TIP3   OH260489   0.918   5.653  10.936 -0.0920 -0.3237  0.2004
13025TIP3    H160490   0.862   5.724  10.904 -2.7930 -2.7642 -0.8632
13025TIP3    H260491   0.905   5.654  11.030 -1.7270 -0.6089  0.0121
13026TIP3   OH260492   3.279   3.795  12.901 -0.0159 -0.3018 -0.0484
13026TIP3    H160493   3.275   3.700  12.913  0.9101 -0.6184 -1.8078
13026TIP3    H260494   3.216   3.813  12.831 -2.7196  0.9328  2.4865
13027TIP3   OH260495   3.374   2.078  13.002 -0.5569 -0.2405  0.2983
13027TIP3    H160496   3.387   2.039  13.088 -1.7619 -1.7301 -0.1519
13027TIP3    H260497   3.311   2.149  13.017  1.2985  1.3240  1.0458
13028TIP3   OH260498   3.733   2.879  12.201  0.1306 -0.1334  0.0853
13028TIP3    H160499   3.769   2.932  12.272 -0.4256  1.8183 -1.0362
13028TIP3    H260500   3.639   2.897  12.202  0.1843  0.3206 -1.4490
13029TIP3   OH260501   5.245   4.103  14.454  0.1905 -0.4121 -0.0613
13029TIP3    H160502   5.191   4.083  14.530  0.6209 -1.4651 -0.0109
13029TIP3    H260503   5.222   4.035  14.390 -0.4667  0.6994 -1.0451
13030TIP3   OH260504   1.166   1.807  13.224 -0.2502  0.0339  0.3120
13030TIP3    H160505   1.099   1.819  13.156 -0.9582  2.6025  1.3481
13030TIP3    H260506   1.247   1.792  13.175 -1.4025 -2.6852 -0.9791
13031TIP3   OH260507   0.079   6.213  13.505  1.3845  0.6351  0.2868
13031TIP3    H160508   0.108   6.122  13.510  1.4797  0.6853  0.6462
13031TIP3    H260509   0.022   6.224  13.581  1.4655  0.9107  0.3080
13032TIP3   OH260510   5.590   5.582  16.675  0.0235 -0.1559  0.2873
13032TIP3    H160511   5.586   5.624  16.589 -1.8983  1.7752  1.2293
13032TIP3    H260512   5.645   5.641  16.727  0.1138 -0.6282  0.7268
13033TIP3   OH260513   2.264   3.159   5.850 -0.2915  0.4114  0.1940
13033TIP3    H160514   2.346   3.205   5.832  0.3943 -1.5732 -2.4840
13033TIP3    H260515   2.286   3.097   5.919  1.0241 -1.2030 -1.5686
13034TIP3   OH260516   3.651   1.040   0.507  0.0274 -0.6236 -0.3077
13034TIP3    H160517   3.640   0.983   0.583  0.0163 -0.2632 -0.0336
13034TIP3    H260518   3.628   0.986   0.432 -0.5706 -0.7983 -0.0016
13035TIP3   OH260519   4.592   1.274   4.255 -0.5334  0.0240  0.0525
13035TIP3    H160520   4.589   1.370   4.254 -0.4947  0.0250  0.0153
13035TIP3    H260521   4.662   1.253   4.316 -0.6979  0.0160  0.2399
13036TIP3   OH260522   3.783   4.201   1.088  0.3457 -0.1230  0.2473
13036TIP3    H160523   3.839   4.278   1.074  0.3052  0.1756  1.5733
13036TIP3    H260524   3.835   4.145   1.145 -0.0163 -0.6486  0.0636
13037TIP3   OH260525   1.678   0.700   0.644 -0.1407 -0.2549  0.5006
13037TIP3    H160526   1.698   0.733   0.731  1.4989  0.8654 -0.2553
13037TIP3    H260527   1.730   0.755   0.585 -1.7897 -0.4708 -1.2502
13038TIP3   OH260528   4.376   5.058   3.206 -0.2873 -0.2302 -0.4971
13038TIP3    H160529   4.330   4.987   3.161  1.3471 -0.9888 -1.0737
13038TIP3    H260530   4.439   5.013   3.262  1.8002  0.7043 -1.9622
13039TIP3   OH260531   3.180   6.283  11.159  0.3040  0.1520  0.0655
13039TIP3    H160532   3.153   6.205  11.206  1.0175  0.0363  0.3023
13039TIP3    H260533   3.222   6.250  11.079 -2.0322  0.3672 -1.3430
13040TIP3   OH260534   4.523   0.291   5.874  0.2304 -0.4642 -0.0021
13040TIP3    H160535   4.566   0.377   5.876 -0.7291  0.1408 -2.0382
13040TIP3    H260536   4.452   0.298   5.938 -0.4243  0.6317 -0.8118
13041TIP3   OH260537   2.123   3.102   3.976  0.4561 -0.4492  1.0425
13041TIP3    H160538   2.196   3.044   3.957 -0.2778 -1.0602  0.0128
13041TIP3    H260539   2.154   3.155   4.051  2.1938 -0.2344  0.2392
13042TIP3   OH260540   1.168   1.363   3.834  0.1413 -0.1302  0.0251
13042TIP3    H160541   1.169   1.267   3.834  1.1717 -0.1707 -2.1786
13042TIP3    H260542   1.260   1.388   3.835 -0.1051  0.8255 -0.3593
13043TIP3   OH260543   6.108   6.765  14.450 -0.0188  0.7777  0.0897
13043TIP3    H160544   6.069   6.788  14.366 -3.6192  0.7928  1.5734
13043TIP3    H260545   6.077   6.676  14.467  0.3427  0.9025  1.5207
13044TIP3   OH260546   5.447   5.763  10.990  0.1583 -0.2280  0.2379
13044TIP3    H160547   5.536   5.766  11.023  0.1066  2.5350  0.3237
13044TIP3    H260548   5.391   5.782  11.066 -0.3137  0.5537 -0.2835
13045TIP3   OH260549   0.519   2.540  16.936 -0.1908  0.0834  0.4324
13045TIP3    H160550   0.568   2.616  16.905 -0.2809  0.3191  0.8516
13045TIP3    H260551   0.586   2.481  16.971 -0.1785  0.2833  0.7517
13046TIP3   OH260552   4.505   2.188  11.902  0.0817  0.2688 -0.4547
13046TIP3    H160553   4.585   2.187  11.849 -1.0732  0.6926 -2.2943
13046TIP3    H260554   4.473   2.278  11.896  0.5047  0.6455  1.9879
13047TIP3   OH260555   5.222   1.885   3.261 -0.0903 -0.1460  0.1040
13047TIP3    H160556   5.183   1.804   3.296  1.3714 -0.9917 -0.1405
13047TIP3    H260557   5.304   1.894   3.310  1.3109 -0.5725 -2.0376
13048TIP3   OH260558   1.516   3.133  14.616  0.2277  0.0110 -0.1138
13048TIP3    H160559   1.562   3.207  14.577 -1.0931  0.5529 -0.6840
13048TIP3    H260560   1.506   3.070  14.545  0.0920 -0.1101  0.0123
13049TIP3   OH260561   5.418   2.970   1.612  0.3154  0.4338  0.0757
13049TIP3    H160562   5.355   2.947   1.544 -0.5936 -0.5384  1.1974
13049TIP3    H260563   5.463   2.888   1.632 -0.3499  0.3927  1.5292
13050TIP3   OH260564   1.179   0.090   1.060 -0.3931  0.3142  0.1868
13050TIP3    H160565   1.183   0.135   1.144 -1.7873  0.1617  0.3652
13050TIP3    H260566   1.116   0.140   1.008 -1.8257 -1.2447  0.3156
13051TIP3   OH260567   4.948   6.445  12.910 -0.1742 -0.4347 -0.0614
13051TIP3    H160568   5.036   6.407  12.901  0.2087  0.7725 -2.0974
13051TIP3    H260569   4.962   6.539  12.907 -1.6256 -0.2041 -2.4074
13052TIP3   OH260570   4.277   1.271   2.090  0.3140 -0.0982  0.0905
13052TIP3    H160571   4.187   1.238   2.086  0.2553 -0.0876  1.2341
13052TIP3    H260572   4.323   1.220   2.023 -0.2036 -1.1765  0.5361
13053TIP3   OH260573   4.874   6.121   4.918 -0.4406 -0.1264 -0.1462
13053TIP3    H160574   4.833   6.151   4.837 -0.1601 -1.6365 -0.8856
13053TIP3    H260575   4.818   6.050   4.948  0.5544 -0.9063 -0.1080
13054TIP3   OH260576   0.639   1.834  17.062 -0.4937 -0.0479  0.1520
13054TIP3    H160577   0.699   1.806  16.993 -2.4529  1.1838 -2.1980
13054TIP3    H260578   0.640   1.761  17.125  0.0933 -2.0542 -2.0141
13055TIP3   OH260579   3.282   6.688  14.056  0.6373 -0.3951 -0.5359
13055TIP3    H160580   3.250   6.708  13.968 -0.4856 -0.3676 -0.1442
13055TIP3    H260581   3.203   6.670  14.106  1.2932 -0.8455  0.3667
13056TIP3   OH260582   2.303   5.196   0.786  0.0780 -0.5841  0.4083
13056TIP3    H160583   2.220   5.227   0.750 -0.3453 -1.1595  0.8638
13056TIP3    H260584   2.278   5.139   0.859  0.9144  0.7608  1.8121
13057TIP3   OH260585   3.795   4.787   5.614 -0.4111  0.0582 -0.4129
13057TIP3    H160586   3.801   4.873   5.654 -1.8393 -0.5035  1.1426
13057TIP3    H260587   3.779   4.727   5.687  0.3606 -1.5230 -1.4593
13058TIP3   OH260588   2.907   5.245   2.515  0.0847  0.1328 -0.2119
13058TIP3    H160589   2.821   5.286   2.513 -0.0617 -0.1104  0.6678
13058TIP3    H260590   2.896   5.162   2.470 -0.2175 -0.0307  0.1612
13059TIP3   OH260591   3.028   3.711   6.369 -0.3055  0.4807  0.7120
13059TIP3    H160592   2.984   3.792   6.344 -1.0572 -0.6673 -2.1002
13059TIP3    H260593   2.983   3.643   6.319  0.6539 -1.6432  2.5406
13060TIP3   OH260594   5.291   3.899  16.336 -0.5453  0.4941 -0.7609
13060TIP3    H160595   5.284   3.803  16.342 -0.6838  0.4887 -0.9863
13060TIP3    H260596   5.211   3.931  16.377 -0.5779  0.5077 -0.8336
13061TIP3   OH260597   1.631   3.318  13.953  0.1063  0.2862 -0.4751
13061TIP3    H160598   1.724   3.300  13.939  0.2530 -0.3303  1.0615
13061TIP3    H260599   1.606   3.373  13.879  2.0000  1.5175 -0.2774
13062TIP3   OH260600   4.465   2.839   4.110 -0.2165 -0.6021  0.7088
13062TIP3    H160601   4.389   2.796   4.148 -0.8391  1.5414  2.0778
13062TIP3    H260602   4.450   2.933   4.126  2.6648 -0.0902  0.9675
13063TIP3   OH260603   5.454   2.959   2.302  0.1128 -0.2389  0.2559
13063TIP3    H160604   5.535   2.993   2.340 -0.4463  1.3549  0.0929
13063TIP3    H260605   5.483   2.887   2.245  1.3900  0.1743  0.3561
13064TIP3   OH260606   5.446   0.225  12.543 -0.1774 -0.6280  0.2243
13064TIP3    H160607   5.419   0.291  12.479 -1.6228 -0.1074  1.3010
13064TIP3    H260608   5.372   0.219  12.603  1.0611 -1.2093  1.7614
13065TIP3   OH260609   5.095   3.462  13.876  0.5247 -0.2942  0.0322
13065TIP3    H160610   5.118   3.510  13.956 -1.9158 -0.6352  1.0354
13065TIP3    H260611   5.002   3.482  13.863 -0.0589 -3.0869 -0.6855
13066TIP3   OH260612   0.644   4.164   4.592  0.3637  0.0555 -0.4010
13066TIP3    H160613   0.576   4.178   4.659 -1.5041  0.1252 -2.2181
13066TIP3    H260614   0.712   4.227   4.614  0.6297 -1.0181  2.3782
13067TIP3   OH260615   5.408   3.217   2.246 -0.0703 -0.3097  0.4090
13067TIP3    H160616   5.393   3.126   2.272 -0.4136 -0.6156 -0.7982
13067TIP3    H260617   5.333   3.238   2.189  0.6025  0.3382 -0.2573
13068TIP3   OH260618   4.446   1.949   2.732 -0.0342 -0.3979  0.2912
13068TIP3    H160619   4.360   1.915   2.759 -0.9640  1.4012 -0.2157
13068TIP3    H260620   4.425   2.028   2.681  1.9665  0.6295  0.9703
13069TIP3   OH260621   5.091   5.224   3.880  0.4419  0.1423 -0.1655
13069TIP3    H160622   5.015   5.277   3.904  0.9854 -0.0573  2.2324
13069TIP3    H260623   5.143   5.280   3.822  1.0238  2.3180  2.3100
13070TIP3   OH260624   0.941   2.207   3.263  0.0445 -0.2833 -0.3279
13070TIP3    H160625   1.026   2.165   3.275  0.2705  0.3394  0.3182
13070TIP3    H260626   0.932   2.215   3.168  0.6848 -0.4107 -0.4072
13071TIP3   OH260627   4.178   6.410  11.503 -0.3503  0.1197 -0.2352
13071TIP3    H160628   4.263   6.417  11.461 -0.0668 -2.5180 -0.2675
13071TIP3    H260629   4.167   6.492  11.551  2.0129  0.6745 -0.5660
13072TIP3   OH260630   5.420   1.668   2.253  0.2296  0.6389  0.4202
13072TIP3    H160631   5.448   1.581   2.226 -0.8715  0.2773  0.4142
13072TIP3    H260632   5.487   1.696   2.316  0.6679 -0.1384  0.3148
13073TIP3   OH260633   5.194   5.361  17.140 -0.4366 -0.2170  0.1724
13073TIP3    H160634   5.232   5.340  17.225 -1.1019  1.2344  0.8431
13073TIP3    H260635   5.181   5.455  17.141 -1.5607 -0.3270 -1.0911
13074TIP3   OH260636   1.444   0.009  12.144 -0.5750 -0.0250  0.1895
13074TIP3    H160637   1.428  -0.084  12.158  0.3530  0.0466  2.1532
13074TIP3    H260638   1.422   0.050  12.228 -0.3435  1.4407 -0.4325
13075TIP3   OH260639   5.685   4.172  11.430 -0.4234  0.1386 -0.5547
13075TIP3    H160640   5.651   4.241  11.487 -0.4489  0.0189 -0.4246
13075TIP3    H260641   5.609   4.118  11.410 -0.4415  0.2577 -0.8134
13076TIP3   OH260642   1.381   5.413  11.699  0.2315 -0.1019  0.0444
13076TIP3    H160643   1.342   5.368  11.624  0.2021 -1.1480  0.6586
13076TIP3    H260644   1.426   5.343  11.747  1.0782  0.7288  0.4679
13077TIP3   OH260645   6.035   2.451  11.483 -0.3552  0.1433  0.7249
13077TIP3    H160646   5.971   2.388  11.450 -0.6943  1.3415 -1.0428
13077TIP3    H260647   6.117   2.428  11.439 -0.5796  1.1630 -0.2654
13078TIP3   OH260648   0.717   5.960  15.067  0.1734  0.6050  0.2194
13078TIP3    H160649   0.757   5.927  15.147 -0.5773  0.5364  0.5800
13078TIP3    H260650   0.625   5.935  15.074  0.1101  0.5159 -0.7098
13079TIP3   OH260651   2.108   3.417   4.472 -0.1794  0.2089 -0.3720
13079TIP3    H160652   2.142   3.506   4.467  1.9322 -0.3960  1.5047
13079TIP3    H260653   2.067   3.413   4.559 -1.1492 -0.3931 -0.8403
13080TIP3   OH260654   1.816   0.208   2.828  0.2848 -0.0458  0.1388
13080TIP3    H160655   1.734   0.256   2.830 -1.8381 -3.3679  1.0052
13080TIP3    H260656   1.811   0.148   2.902  1.7964 -2.8356 -1.8013
13081TIP3   OH260657   0.394   4.582   5.327  0.0478 -0.1610  0.1092
13081TIP3    H160658   0.388   4.621   5.240  1.0086 -0.4032 -0.0822
13081TIP3    H260659   0.450   4.641   5.376 -1.0481  0.3371  0.7922
13082TIP3   OH260660   0.317   5.653   6.540  0.2207 -0.2361 -0.3283
13082TIP3    H160661   0.250   5.586   6.553 -0.6459  0.8993  1.5706
13082TIP3    H260662   0.268   5.734   6.526  1.1936  0.4018 -0.1722
13083TIP3   OH260663   3.482   4.579   1.792  0.2926 -0.1973  0.1918
13083TIP3    H160664   3.538   4.637   1.843  2.4971 -2.7779  0.9514
13083TIP3    H260665   3.535   4.500   1.780 -1.5874 -1.1485 -2.8796
13084TIP3   OH260666   3.316   4.962  15.018 -0.8294 -0.3456 -0.0268
13084TIP3    H160667   3.408   4.942  15.001  0.2477  2.1395  2.0833
13084TIP3    H260668   3.290   4.901  15.087 -0.0469  0.3613  0.9077
13085TIP3   OH260669   2.124   0.556   4.416 -0.1422  0.8162 -0.2978
13085TIP3    H160670   2.135   0.514   4.331  2.2287 -0.0442  0.3629
13085TIP3    H260671   2.085   0.489   4.472  2.4979 -0.2108  0.4288
13086TIP3   OH260672   4.868   2.969  12.746 -0.7426 -0.4109 -0.5111
13086TIP3    H160673   4.839   2.895  12.692  0.8564 -1.3315 -0.1916
13086TIP3    H260674   4.945   2.935  12.792 -0.4923  1.2045  0.3139
13087TIP3   OH260675   4.677   5.400   3.874  0.1724 -0.0284 -0.3426
13087TIP3    H160676   4.754   5.416   3.927  0.0840 -0.2644 -0.1438
13087TIP3    H260677   4.710   5.392   3.784  0.3367  0.2094 -0.3046
13088TIP3   OH260678   4.522   1.449   0.956 -0.2100  0.5955 -0.1540
13088TIP3    H160679   4.455   1.383   0.937  1.0680 -0.7505 -0.1980
13088TIP3    H260680   4.522   1.457   1.051  1.4365 -1.5165  0.0830
13089TIP3   OH260681   5.984   6.640  14.030  0.1352  0.4983 -0.0126
13089TIP3    H160682   5.937   6.575  14.083  0.3313  0.1408 -0.2649
13089TIP3    H260683   6.072   6.603  14.021 -0.5430 -0.7234 -2.6671
13090TIP3   OH260684   5.796   0.124   3.880  0.1247 -0.1633  0.0290
13090TIP3    H160685   5.735   0.150   3.811  0.1334  0.4725  0.2539
13090TIP3    H260686   5.748   0.060   3.933 -0.1161 -0.1451 -0.1680
13091TIP3   OH260687   3.677   0.404   1.153  0.2811 -0.0214 -0.0763
13091TIP3    H160688   3.765   0.440   1.151 -0.5366  2.0508 -1.1878
13091TIP3    H260689   3.631   0.447   1.081 -1.4694 -1.5360  0.0543
13092TIP3   OH260690   4.960   1.536   3.063  0.5378  0.3799  0.4735
13092TIP3    H160691   5.021   1.507   2.995 -1.3926  0.7026 -1.4994
13092TIP3    H260692   4.942   1.627   3.042 -0.4541  0.3525  1.1292
13093TIP3   OH260693   0.229   3.060   1.206  0.2341 -0.2383 -0.4177
13093TIP3    H160694   0.230   3.140   1.259  2.9215 -0.8120  0.5886
13093TIP3    H260695   0.176   2.998   1.256  0.7931 -0.0441  0.4406
13094TIP3   OH260696   4.548   3.287   1.274 -0.0986  0.2563 -0.9191
13094TIP3    H160697   4.504   3.314   1.193 -0.0464  0.8216 -0.7631
13094TIP3    H260698   4.621   3.233   1.245 -1.4642 -1.5974 -1.1540
13095TIP3   OH260699   0.048   0.597   3.884 -0.4748  0.4431  0.4082
13095TIP3    H160700   0.113   0.530   3.866  0.1682  1.2131 -0.2309
13095TIP3    H260701  -0.001   0.606   3.802 -1.2336  0.0387  0.8102
13096TIP3   OH260702   5.516   1.273   3.841 -0.0244 -0.1744  0.0128
13096TIP3    H160703   5.601   1.227   3.834  1.4084  2.3653 -0.5290
13096TIP3    H260704   5.465   1.219   3.901  1.8304 -1.9960  0.0939
13097TIP3   OH260705   2.579   1.622  14.561 -0.3521 -0.0774 -0.1382
13097TIP3    H160706   2.659   1.604  14.610 -1.4876 -2.4962  0.9927
13097TIP3    H260707   2.602   1.602  14.470  0.4421 -0.3501  0.1123
13098TIP3   OH260708   1.340   2.482   1.319 -0.5395  0.1137 -0.7808
13098TIP3    H160709   1.387   2.401   1.336 -0.0025  0.2154 -1.6620
13098TIP3    H260710   1.311   2.512   1.405 -0.0461 -0.5916 -0.3567
13099TIP3   OH260711   4.965   3.685  12.821 -0.6371  0.2566  0.3633
13099TIP3    H160712   4.933   3.673  12.732  1.3758  0.7737 -0.5040
13099TIP3    H260713   4.997   3.775  12.823 -1.9507  0.7446  2.0902
13100TIP3   OH260714   0.598   1.153   0.584  0.2596 -0.2102  0.6971
13100TIP3    H160715   0.682   1.114   0.609  0.4995  1.0126  1.9050
13100TIP3    H260716   0.536   1.123   0.650  0.0772  0.0858  0.6642
13101TIP3   OH260717   2.022   1.410   2.464 -0.5435  0.2949 -0.5866
13101TIP3    H160718   2.108   1.451   2.459 -0.6149  0.4599 -0.4955
13101TIP3    H260719   2.006   1.374   2.377  0.1689 -0.8667 -0.2563
13102TIP3   OH260720   2.975   1.598  11.464  0.1969  0.1607  0.1433
13102TIP3    H160721   2.950   1.682  11.426 -0.5597 -0.2327 -0.2484
13102TIP3    H260722   2.939   1.600  11.553 -0.6795 -0.1273 -0.1903
13103TIP3   OH260723   6.130   0.366  14.372 -0.5367 -0.0496 -0.3013
13103TIP3    H160724   6.139   0.309  14.449 -0.7433  0.3142 -0.0045
13103TIP3    H260725   6.043   0.404  14.380  0.3440  1.9318  0.6516
13104TIP3   OH260726   3.326   5.922  16.520  0.2121 -0.1679  0.4681
13104TIP3    H160727   3.268   5.921  16.443 -0.4102 -1.8084  0.9214
13104TIP3    H260728   3.297   5.998  16.570  1.0412  1.3060 -1.1896
13105TIP3   OH260729   3.141   1.240   2.352 -0.4901 -0.5483 -0.2091
13105TIP3    H160730   3.068   1.232   2.291  0.5083 -1.2985 -1.3545
13105TIP3    H260731   3.212   1.190   2.311  1.0147  1.0225  0.3264
13106TIP3   OH260732   0.213   6.192  11.438  0.1500 -0.0126 -0.0435
13106TIP3    H160733   0.191   6.232  11.354 -0.0038  0.5366  0.2536
13106TIP3    H260734   0.283   6.247  11.473  0.0398 -0.0883  0.3012
13107TIP3   OH260735   1.493   4.033   3.754 -0.0610 -0.2885 -0.5982
13107TIP3    H160736   1.537   4.113   3.780 -2.2967  0.2521  1.9395
13107TIP3    H260737   1.533   3.964   3.807  0.0103 -0.3671 -0.7541
13108TIP3   OH260738   0.702   4.581   5.125  0.0665  0.2167 -0.0525
13108TIP3    H160739   0.618   4.614   5.095 -0.3899 -1.4857 -0.7953
13108TIP3    H260740   0.754   4.571   5.044 -0.6022 -2.8637 -0.2334
13109TIP3   OH260741   5.923   6.034  13.265 -0.5408 -0.2275  0.3140
13109TIP3    H160742   5.955   6.118  13.298 -0.7862  0.7995 -1.9358
13109TIP3    H260743   5.847   6.056  13.212  1.3209 -1.3756 -3.1375
13110TIP3   OH260744   2.182   1.908   0.164 -0.6588  0.1435 -0.3209
13110TIP3    H160745   2.207   1.988   0.117 -1.6064  0.0392 -1.0552
13110TIP3    H260746   2.146   1.939   0.247 -1.5373  0.5298 -0.8333
13111TIP3   OH260747   2.516   5.795  12.921  0.2178  0.1592 -0.7199
13111TIP3    H160748   2.495   5.722  12.979 -1.6258  1.9502  1.0278
13111TIP3    H260749   2.491   5.764  12.834 -0.3809 -1.3094 -0.0631
13112TIP3   OH260750   2.742   6.303  16.920  0.3659 -0.3696  0.5622
13112TIP3    H160751   2.716   6.317  16.829 -0.4783 -0.9122  0.7086
13112TIP3    H260752   2.752   6.391  16.956  0.5542 -0.1537 -0.0067
13113TIP3   OH260753   4.774   1.368  11.553 -0.1616 -0.0823  0.0158
13113TIP3    H160754   4.810   1.451  11.521  3.0906 -1.4192 -0.1531
13113TIP3    H260755   4.804   1.363  11.644  1.7450 -2.0433 -0.6443
13114TIP3   OH260756   3.462   3.952   5.009  0.1586  0.1041 -0.2348
13114TIP3    H160757   3.442   4.021   5.073 -0.0106 -0.2267  0.0762
13114TIP3    H260758   3.433   3.988   4.925 -1.1494 -0.0951  0.1122
13115TIP3   OH260759   5.844   3.998  11.648  0.1630 -0.4471  0.4330
13115TIP3    H160760   5.809   4.061  11.586 -0.4191 -1.7377 -0.5875
13115TIP3    H260761   5.817   3.913  11.614 -0.9972 -1.1775  2.9350
13116TIP3   OH260762   5.653   2.225   1.627 -0.2780 -0.8285  0.4849
13116TIP3    H160763   5.690   2.180   1.551 -0.7814 -0.3440 -0.0565
13116TIP3    H260764   5.569   2.181   1.641 -1.4438  0.8144 -0.9278
13117TIP3   OH260765   0.165   1.268  15.902  0.5939  0.2831 -0.1897
13117TIP3    H160766   0.178   1.305  15.815 -1.6226  1.9521  0.1095
13117TIP3    H260767   0.176   1.173  15.889 -0.1050  0.4362 -2.3723
13118TIP3   OH260768   2.086   6.404   2.719  0.3106  0.2322 -0.7463
13118TIP3    H160769   2.111   6.375   2.807  2.2958 -1.1610 -1.6732
13118TIP3    H260770   2.131   6.343   2.660 -0.6868  1.3115 -2.7548
13119TIP3   OH260771   2.873   5.179   3.645 -0.0534  0.4871  0.8284
13119TIP3    H160772   2.789   5.188   3.690 -0.4271  2.3687 -0.1554
13119TIP3    H260773   2.864   5.099   3.592 -0.5504 -0.2856  2.0318
13120TIP3   OH260774   0.648   5.763  12.403 -0.5027  0.3687  0.3405
13120TIP3    H160775   0.555   5.785  12.395 -0.6485 -0.6462 -1.2404
13120TIP3    H260776   0.691   5.816  12.336 -0.0964  0.0577  0.3513
13121TIP3   OH260777   4.087   2.304   4.794 -0.2134 -0.7573  0.0391
13121TIP3    H160778   4.105   2.303   4.700  0.7079  3.1696  0.0155
13121TIP3    H260779   3.993   2.286   4.801 -0.6222  0.3963 -1.8122
13122TIP3   OH260780   1.471   2.797  16.519 -0.0766 -0.2548  0.2195
13122TIP3    H160781   1.514   2.881  16.504  0.4605 -0.4829  0.4579
13122TIP3    H260782   1.377   2.817  16.514 -0.0067  0.6803  1.8438
13123TIP3   OH260783   3.250   1.805  16.719  0.1440  0.0560 -0.3315
13123TIP3    H160784   3.211   1.876  16.771  0.7830  1.9274 -2.3114
13123TIP3    H260785   3.192   1.796  16.643  1.7203  0.5989 -1.6430
13124TIP3   OH260786   2.302   4.833   3.107  0.4359 -0.3387  0.3477
13124TIP3    H160787   2.371   4.799   3.050 -0.1598 -0.8906 -0.0633
13124TIP3    H260788   2.227   4.846   3.048  0.2841  0.5589  0.7251
13125TIP3   OH260789   0.291   5.689   2.732 -0.0578  0.8007 -0.1033
13125TIP3    H160790   0.321   5.629   2.664 -1.4118  0.3372 -0.3117
13125TIP3    H260791   0.365   5.694   2.793  0.7489  0.3481 -1.0147
13126TIP3   OH260792   1.862   3.260  16.873 -0.0404  0.7839 -0.3510
13126TIP3    H160793   1.771   3.237  16.853 -0.6034  0.9345  1.7880
13126TIP3    H260794   1.858   3.300  16.960  2.4141 -1.7491  1.0756
13127TIP3   OH260795   4.399   5.988   1.874 -0.1133 -0.0855 -0.0532
13127TIP3    H160796   4.440   5.998   1.960  4.0157 -1.1193 -1.6613
13127TIP3    H260797   4.406   5.894   1.855 -0.1895  0.2258 -1.7993
13128TIP3   OH260798   4.781   2.624  16.847  0.3747  0.0426  0.1614
13128TIP3    H160799   4.846   2.695  16.846  0.7721 -0.3268 -0.2699
13128TIP3    H260800   4.705   2.663  16.890  0.6498  0.6814  0.0834
13129TIP3   OH260801   2.792   6.652  14.332  0.2807 -0.5145 -0.1006
13129TIP3    H160802   2.750   6.611  14.257  1.1172  0.1691 -0.9553
13129TIP3    H260803   2.720   6.696  14.378 -0.0436  0.1866 -1.2486
13130TIP3   OH260804   5.967   2.223  10.390  0.0883  0.2278  0.1414
13130TIP3    H160805   6.059   2.195  10.386 -0.2189 -0.6493 -1.8309
13130TIP3    H260806   5.917   2.148  10.358 -1.1265  1.4385 -0.9417
13131TIP3   OH260807   6.231   6.688  13.065 -0.0133 -0.3630 -0.4965
13131TIP3    H160808   6.137   6.702  13.077  0.3303  0.1378  2.2367
13131TIP3    H260809   6.243   6.593  13.071 -0.3759 -0.4519 -1.1734
13132TIP3   OH260810   4.953   6.241  11.587  0.1309 -0.1661  0.0017
13132TIP3    H160811   4.860   6.247  11.566  0.0447 -0.6114  0.2435
13132TIP3    H260812   4.971   6.319  11.640 -0.6435 -1.2213  1.9096
13133TIP3   OH260813   6.088   6.326   3.993  0.4832 -0.6315 -0.3417
13133TIP3    H160814   6.122   6.249   4.039  1.4682  0.0789  0.1398
13133TIP3    H260815   6.078   6.392   4.061 -0.4624 -0.3440 -0.7353
13134TIP3   OH260816   3.779   4.029   4.296 -0.0649 -0.1804  0.2742
13134TIP3    H160817   3.740   3.967   4.357  0.0585 -0.7987 -0.2612
13134TIP3    H260818   3.704   4.069   4.252 -0.1257 -0.5556  0.0344
13135TIP3   OH260819   4.448   6.586  13.734 -0.0296 -0.5065 -0.9272
13135TIP3    H160820   4.457   6.554  13.824 -0.7023  3.9688  1.0576
13135TIP3    H260821   4.353   6.600  13.724  0.2567  1.6257 -1.1445
13136TIP3   OH260822   6.080   5.762   2.277  0.0051 -0.2926 -0.2468
13136TIP3    H160823   5.996   5.804   2.263  0.0826 -0.0722 -0.0514
13136TIP3    H260824   6.071   5.676   2.235  0.2438  0.3548 -1.7011
13137TIP3   OH260825   4.311   3.120  15.512 -0.0488 -0.4679 -0.5635
13137TIP3    H160826   4.390   3.087  15.556  0.4268  1.3424  0.0440
13137TIP3    H260827   4.286   3.197  15.563 -1.0518  0.1637 -1.9415
13138TIP3   OH260828   3.582   3.366   1.091  1.2418  0.1592  0.2176
13138TIP3    H160829   3.638   3.414   1.029  1.2133 -0.6697 -0.4734
13138TIP3    H260830   3.559   3.285   1.044 -0.9708  0.7000  0.2878
13139TIP3   OH260831   6.162   6.652   1.754  0.3023 -0.5779  0.1773
13139TIP3    H160832   6.162   6.568   1.800  0.0976 -0.4643  0.3892
13139TIP3    H260833   6.093   6.704   1.798  1.4524  0.2532  1.0582
13140TIP3   OH260834   5.921   0.038  14.238 -0.1971  0.0431  0.7062
13140TIP3    H160835   5.902   0.111  14.179 -0.3108  0.6852  1.5094
13140TIP3    H260836   5.965  -0.027  14.183 -1.2130  0.1807 -0.3033
13141TIP3   OH260837   2.767   4.034  14.737  0.3177 -0.7593 -0.3057
13141TIP3    H160838   2.720   3.966  14.785 -0.4921 -0.0371 -0.0386
13141TIP3    H260839   2.859   4.021  14.759  0.2629 -2.2101 -0.8385
13142TIP3   OH260840   6.008   4.166  11.373 -0.4244 -0.2285 -0.1526
13142TIP3    H160841   5.981   4.240  11.428 -1.8883 -0.2243 -0.8348
13142TIP3    H260842   5.927   4.117  11.357  0.5645 -2.2455  0.6198
13143TIP3   OH260843   2.075   4.363   6.044  0.2306  0.0246  0.3677
13143TIP3    H160844   2.158   4.410   6.033 -0.9104  1.9811 -0.5689
13143TIP3    H260845   2.010   4.433   6.050 -1.2110 -1.4154  2.5866
13144TIP3   OH260846   0.071   3.957   1.274 -0.5835  0.0817  0.2177
13144TIP3    H160847   0.031   3.991   1.194 -0.4904  1.9842  0.9283
13144TIP3    H260848   0.036   4.012   1.344  0.0941 -0.9031  1.3776
13145TIP3   OH260849   1.254   4.263  15.037  0.7544  0.7387  0.4258
13145TIP3    H160850   1.304   4.247  14.956  2.5916 -4.1902  2.1065
13145TIP3    H260851   1.163   4.269  15.008  0.8178 -4.6490 -2.1295
13146TIP3   OH260852   6.541   3.926  13.308  0.1117 -0.1047 -0.2405
13146TIP3    H160853   6.614   3.886  13.355 -0.5133 -1.1505 -0.1088
13146TIP3    H260854   6.553   3.897  13.217 -2.2305 -3.6979  0.3939
13147TIP3   OH260855   0.577   1.227  12.161 -0.0922 -0.4656  0.1104
13147TIP3    H160856   0.551   1.207  12.251  1.2855  0.7329  0.8050
13147TIP3    H260857   0.626   1.150  12.133  0.4033 -0.4072  0.7856
13148TIP3   OH260858   3.211   4.246   5.331  0.2619 -0.5548 -0.4561
13148TIP3    H160859   3.289   4.244   5.387  0.8324  1.1817 -1.0977
13148TIP3    H260860   3.210   4.161   5.287  1.0461 -1.0935  0.5325
13149TIP3   OH260861   6.401   1.062   2.637  0.6798  0.3279 -0.3526
13149TIP3    H160862   6.407   1.155   2.613  1.2104  0.6635  0.9720
13149TIP3    H260863   6.380   1.063   2.731  0.1260 -0.8976 -0.4433
13150TIP3   OH260864   6.299   6.361   3.124 -0.5073  0.3186 -0.0679
13150TIP3    H160865   6.238   6.389   3.192  0.4364  0.8476  0.5946
13150TIP3    H260866   6.382   6.404   3.147 -0.3149  1.0118 -1.9064
13151TIP3   OH260867   6.496   3.522  13.339 -0.2863 -0.3490  0.0900
13151TIP3    H160868   6.469   3.613  13.352  0.1139 -0.2455  0.2189
13151TIP3    H260869   6.455   3.496  13.256  2.7490  1.2242 -2.1104
13152TIP3   OH260870   1.352   2.964   5.420  0.1311 -0.0263  0.2839
13152TIP3    H160871   1.291   3.038   5.418  1.1546  0.8549 -1.9858
13152TIP3    H260872   1.313   2.903   5.482 -1.6901  1.6271  0.8840
13153TIP3   OH260873   3.859   0.912  12.669  0.5272  0.1415  0.3458
13153TIP3    H160874   3.789   0.927  12.732 -2.1155 -2.0955 -1.7927
13153TIP3    H260875   3.856   0.989  12.611  0.9542  0.7887  1.1592
13154TIP3   OH260876   4.187   1.725  16.336  0.3389 -0.3720 -0.6481
13154TIP3    H160877   4.249   1.718  16.264  1.0110 -2.4501  0.0630
13154TIP3    H260878   4.115   1.777  16.300  0.3566 -1.8533 -3.0547
13155TIP3   OH260879   3.975   4.467   0.396 -0.1429 -0.5237  0.3086
13155TIP3    H160880   4.024   4.462   0.478 -0.1967  1.1416  0.4773
13155TIP3    H260881   3.945   4.558   0.392 -0.1295 -0.5674 -1.5626
13156TIP3   OH260882   0.254   2.889   4.019 -0.2127  0.0426  0.1406
13156TIP3    H160883   0.349   2.899   4.021 -0.2727  0.4891  0.7679
13156TIP3    H260884   0.229   2.868   4.109 -0.6500 -0.6984 -0.1340
13157TIP3   OH260885   2.024   6.208  11.515 -0.0199  0.6440  0.2442
13157TIP3    H160886   1.993   6.206  11.424 -0.4900 -1.7560  0.3875
13157TIP3    H260887   2.037   6.300  11.534 -1.4888  1.3226 -1.7380
13158TIP3   OH260888   3.030   6.324   5.880  0.0068 -0.3039 -0.5913
13158TIP3    H160889   2.937   6.342   5.866 -0.4288 -0.6648  1.4414
13158TIP3    H260890   3.035   6.229   5.885  0.7185 -0.3535 -1.9007
13159TIP3   OH260891   5.022   4.961  12.997 -0.0034 -0.1740 -0.0985
13159TIP3    H160892   5.114   4.967  12.974  0.4638  0.5540  1.7515
13159TIP3    H260893   4.976   5.000  12.923  1.1052 -1.1540 -1.3392
13160TIP3   OH260894   3.323   6.491   0.126 -0.2025  0.3230 -0.1662
13160TIP3    H160895   3.260   6.461   0.061  1.3976  1.2999 -2.3071
13160TIP3    H260896   3.291   6.577   0.153 -1.3104 -0.4362  1.0046
13161TIP3   OH260897   4.654   2.919   2.855 -0.7667  0.8355 -0.2793
13161TIP3    H160898   4.606   2.931   2.773  1.1719  1.3386 -1.4052
13161TIP3    H260899   4.724   2.857   2.833  1.0589  2.5649  0.3859
13162TIP3   OH260900   2.640   5.486   6.693  0.3751 -0.2616 -0.4116
13162TIP3    H160901   2.713   5.427   6.677  0.5055  0.3136 -2.2055
13162TIP3    H260902   2.563   5.438   6.663 -0.5833 -2.0513  4.0951
13163TIP3   OH260903   3.933   2.034  12.942  0.2550 -0.6253 -0.1850
13163TIP3    H160904   4.026   2.044  12.960 -0.3040  0.9086  2.4724
13163TIP3    H260905   3.902   2.122  12.922 -0.8436 -0.8268  0.5045
13164TIP3   OH260906   0.349   0.499   4.547 -0.1719 -0.3859  0.6392
13164TIP3    H160907   0.386   0.586   4.534 -0.0685 -0.3533  1.1268
13164TIP3    H260908   0.312   0.502   4.636 -0.8778 -0.5839  0.3572
13165TIP3   OH260909   3.892   1.610  16.792 -0.0866 -0.3919 -0.0775
13165TIP3    H160910   3.985   1.630  16.781  0.1701 -0.6710  1.3785
13165TIP3    H260911   3.873   1.546  16.724  0.5218  0.4208 -1.0438
13166TIP3   OH260912   5.662   5.941   2.298  0.1421 -0.3464 -0.0053
13166TIP3    H160913   5.718   5.909   2.369  0.0679  0.9265  0.6653
13166TIP3    H260914   5.705   6.021   2.267 -0.5711 -0.1101 -0.4274
13167TIP3   OH260915   5.187   5.769   1.295 -0.4861  0.7882 -0.3434
13167TIP3    H160916   5.140   5.686   1.288  1.0253 -0.2625  1.1896
13167TIP3    H260917   5.120   5.834   1.314 -1.4333 -0.4882  0.8266
13168TIP3   OH260918   1.709   1.789   4.146 -0.4977 -0.4828 -0.1661
13168TIP3    H160919   1.636   1.851   4.143 -0.6178 -0.6359 -0.4364
13168TIP3    H260920   1.751   1.806   4.231 -0.7423 -0.2766 -0.0833
13169TIP3   OH260921   6.715   2.251  16.458 -0.2561  0.1287  0.6717
13169TIP3    H160922   6.650   2.282  16.394  0.7330  1.0247  0.0684
13169TIP3    H260923   6.761   2.331  16.485  0.6068 -0.4926  1.0663
13170TIP3   OH260924   5.189   1.149  12.353 -0.0973  0.4707  0.2085
13170TIP3    H160925   5.183   1.201  12.273 -1.3144 -0.1304 -0.1082
13170TIP3    H260926   5.279   1.163  12.383 -0.3358  2.6036  0.0544
13171TIP3   OH260927   4.116   0.298  11.892  0.2998  0.6078 -0.0285
13171TIP3    H160928   4.190   0.349  11.926  1.3213 -1.2956  0.7475
13171TIP3    H260929   4.112   0.220  11.947 -0.9954 -0.3456 -1.3595
13172TIP3   OH260930   2.316   3.520  13.276 -0.4844  0.3826 -0.1311
13172TIP3    H160931   2.345   3.429  13.284 -0.0310  0.6376  1.3323
13172TIP3    H260932   2.380   3.562  13.219  0.1917  0.1591  0.4619
13173TIP3   OH260933   0.970   1.159   4.257 -0.6151 -0.1571 -0.2925
13173TIP3    H160934   0.969   1.080   4.204 -2.5585  0.3993 -1.1687
13173TIP3    H260935   0.885   1.160   4.301 -0.2789  0.9839  0.3776
13174TIP3   OH260936   6.394   6.385   4.437  1.0292  0.4869 -0.0158
13174TIP3    H160937   6.454   6.311   4.447 -0.5588 -0.8405  0.1144
13174TIP3    H260938   6.311   6.354   4.474 -0.0574  1.8616 -1.1594
13175TIP3   OH260939   1.088   0.250  13.532 -0.3467 -0.8881 -0.0490
13175TIP3    H160940   1.046   0.334  13.513 -2.3616 -1.8232  0.0371
13175TIP3    H260941   1.182   0.267  13.519 -0.8409  0.8484 -2.0063
13176TIP3   OH260942   4.739   3.220   1.090 -0.0944 -0.7049 -0.7934
13176TIP3    H160943   4.829   3.251   1.082  0.4535 -2.1035 -0.2966
13176TIP3    H260944   4.738   3.136   1.044 -0.8279 -1.3122  0.3003
13177TIP3   OH260945   6.462   3.616  15.373 -0.3519  0.3623  0.0219
13177TIP3    H160946   6.536   3.675  15.389  0.1285 -0.6149  1.7004
13177TIP3    H260947   6.406   3.627  15.450 -1.2452  0.0733 -0.5763
13178TIP3   OH260948   2.015   6.451   3.668  0.6104 -0.1561  0.0994
13178TIP3    H160949   2.002   6.546   3.669 -0.5276 -0.1595 -2.9510
13178TIP3    H260950   1.928   6.415   3.681  0.5734 -0.6796 -1.4265
13179TIP3   OH260951   4.973   5.470  16.613 -0.2152 -0.3946  0.2320
13179TIP3    H160952   4.921   5.521  16.674  1.8664  1.0703  0.8791
13179TIP3    H260953   4.920   5.469  16.532 -1.6199  0.2430  1.1015
13180TIP3   OH260954   1.984   3.494  15.336 -0.0005  0.4019  0.8735
13180TIP3    H160955   2.002   3.512  15.429  1.2154  0.6959  0.5949
13180TIP3    H260956   2.054   3.435  15.309 -0.2599  0.4426  0.0927
13181TIP3   OH260957   0.821   6.197  14.929 -0.2393  0.3992 -0.4679
13181TIP3    H160958   0.800   6.263  14.995 -0.6797  0.2981 -0.5062
13181TIP3    H260959   0.780   6.117  14.962 -0.3473  0.3186 -0.8020
13182TIP3   OH260960   2.748   5.242  11.712 -0.0512  0.1806 -0.5338
13182TIP3    H160961   2.836   5.212  11.691 -0.1806 -0.4159 -0.2199
13182TIP3    H260962   2.727   5.304  11.641  0.5124  0.1283 -0.7529
13183TIP3   OH260963   0.898   3.355   6.181 -0.7316  0.7885  0.6002
13183TIP3    H160964   0.949   3.278   6.207  0.0756  1.6244  1.5747
13183TIP3    H260965   0.898   3.411   6.259 -2.2440  1.2977  0.2668
13184TIP3   OH260966   1.783   3.151  16.614  0.2929 -0.1400  0.3065
13184TIP3    H160967   1.821   3.097  16.545  0.4641  1.8093 -1.2158
13184TIP3    H260968   1.853   3.161  16.678  1.3553  0.8903 -0.9729
13185TIP3   OH260969   2.216   5.063  12.883  0.4805 -0.2738  0.1417
13185TIP3    H160970   2.132   5.053  12.928  0.0193  2.5806  0.0715
13185TIP3    H260971   2.233   4.976  12.846 -1.5924 -1.3755  1.5524
13186TIP3   OH260972   1.540   2.795  15.760  0.2212  0.0564 -0.3930
13186TIP3    H160973   1.491   2.778  15.680  1.7171 -0.6888 -1.1838
13186TIP3    H260974   1.605   2.724  15.765  1.6650  1.3552  0.2509
13187TIP3   OH260975   5.463   4.986   1.458 -0.4972 -0.1350 -0.6699
13187TIP3    H160976   5.370   4.996   1.477  0.2405  2.3236  2.7456
13187TIP3    H260977   5.466   4.940   1.374 -4.7212 -0.6292 -0.7783
13188TIP3   OH260978   3.437   0.392   2.054  0.0006  0.0837 -0.2104
13188TIP3    H160979   3.366   0.417   1.996  0.1165  2.0932  0.4550
13188TIP3    H260980   3.514   0.387   1.997 -0.5321 -1.6684 -0.8491
13189TIP3   OH260981   5.446   2.916   4.616 -0.2926  0.1631  0.2785
13189TIP3    H160982   5.454   2.972   4.539 -2.1427 -0.2359 -0.2482
13189TIP3    H260983   5.512   2.950   4.677 -0.2567  1.8655 -0.6402
13190TIP3   OH260984   6.080   5.833   5.067  0.6218 -0.1746 -0.0026
13190TIP3    H160985   6.027   5.805   5.142  1.5337 -1.3035  0.2597
13190TIP3    H260986   6.097   5.926   5.083  0.0918 -0.1941  0.7381
13191TIP3   OH260987   2.264   2.912  14.712 -0.7097  0.4219 -0.2519
13191TIP3    H160988   2.184   2.919  14.764 -0.2657  0.0589  0.5131
13191TIP3    H260989   2.298   2.825  14.734 -0.2701  0.4531 -0.8052
13192TIP3   OH260990   6.097   0.337   1.571  0.2502 -0.1418  0.0364
13192TIP3    H160991   6.126   0.334   1.662  1.5568  1.7963 -0.2462
13192TIP3    H260992   6.173   0.369   1.522 -0.6054 -0.5587 -1.6599
13193TIP3   OH260993   0.514   2.771   2.864  0.1110  0.1205  0.2613
13193TIP3    H160994   0.423   2.766   2.833 -0.4061 -1.7401  1.9085
13193TIP3    H260995   0.554   2.689   2.834  0.7775  0.1975  0.9363
13194TIP3   OH260996   2.686   0.251  15.796  1.0520 -0.4683  0.5578
13194TIP3    H160997   2.691   0.156  15.783 -0.2024 -1.1236  3.7362
13194TIP3    H260998   2.751   0.269  15.864  2.5547  1.3446 -1.2603
13195TIP3   OH260999   2.868   6.532   3.543  0.4139 -0.0798 -0.0314
13195TIP3    H161000   2.811   6.577   3.606  0.0642 -1.8369  0.9693
13195TIP3    H261001   2.850   6.439   3.557  2.1504 -0.6047 -1.0244
13196TIP3   OH261002   0.678   6.492  11.664 -0.2124  0.0054 -0.7728
13196TIP3    H161003   0.764   6.528  11.643  0.8172 -0.3348  2.3962
13196TIP3    H261004   0.696   6.402  11.691 -1.7399 -0.4072 -1.0585
13197TIP3   OH261005   0.157   6.674   0.969  0.8776  0.1200  0.2668
13197TIP3    H161006   0.165   6.752   1.024  0.5959  0.7759 -0.6151
13197TIP3    H261007   0.072   6.683   0.926 -0.2141 -1.7767  1.8197
13198TIP3   OH261008   2.702   1.126   1.405  0.1237  0.6471  0.0991
13198TIP3    H161009   2.756   1.056   1.441  0.4383  2.0221  2.4859
13198TIP3    H261010   2.668   1.090   1.323 -0.3162 -2.5620  1.5364
13199TIP3   OH261011   3.579   1.520   0.907  0.3013 -0.4953  0.3597
13199TIP3    H161012   3.487   1.505   0.884 -0.8722  1.8119  2.9504
13199TIP3    H261013   3.624   1.519   0.823 -2.0793 -1.6336 -1.0271
13200TIP3   OH261014   4.195   2.545   0.734 -0.1701 -0.1638 -0.2239
13200TIP3    H161015   4.207   2.465   0.785 -2.3701 -1.0406 -0.9865
13200TIP3    H261016   4.178   2.612   0.800 -0.5673 -0.7903  0.3290
13201TIP3   OH261017   3.559   2.564  14.692 -0.9394 -0.4674  0.2289
13201TIP3    H161018   3.507   2.619  14.632 -0.1510 -0.9204 -0.9156
13201TIP3    H261019   3.649   2.573  14.660 -0.4742 -0.5788  1.4834
13202TIP3   OH261020   3.200   3.609  13.557 -0.1055 -0.1584  0.0061
13202TIP3    H161021   3.143   3.608  13.480 -0.2623 -2.5743  0.0944
13202TIP3    H261022   3.185   3.695  13.597 -0.9199  0.6676 -1.9700
13203TIP3   OH261023   1.617   6.542  11.970  0.2267  0.4403  0.5489
13203TIP3    H161024   1.701   6.558  12.011  0.4731 -0.5735  0.4769
13203TIP3    H261025   1.555   6.538  12.042  0.6460 -1.2639  0.8672
13204TIP3   OH261026   5.455   4.744  14.467  0.2073  0.1690  0.2815
13204TIP3    H161027   5.492   4.769  14.552 -0.8894 -0.8856  1.1095
13204TIP3    H261028   5.403   4.666  14.486 -2.4125  1.5249 -0.8256
13205TIP3   OH261029   1.846   3.501   5.545 -0.2843  0.0224  0.6836
13205TIP3    H161030   1.834   3.414   5.506  0.3050  0.3513 -0.2682
13205TIP3    H261031   1.839   3.486   5.639 -0.6178 -0.9885  0.5110
13206TIP3   OH261032   5.376   2.006   3.001  0.0540 -0.1691 -0.5035
13206TIP3    H161033   5.290   1.980   2.969 -0.4107 -0.3519  0.8148
13206TIP3    H261034   5.382   1.966   3.088  1.2523  0.2924 -0.3542
13207TIP3   OH261035   0.178   6.238  15.446  0.0970  0.2465 -0.3407
13207TIP3    H161036   0.166   6.196  15.362  0.2096 -1.2098  0.3387
13207TIP3    H261037   0.107   6.302  15.452 -0.4570 -0.2846 -1.1298
13208TIP3   OH261038   5.983   4.550   4.475  0.8292  0.5983  0.2305
13208TIP3    H161039   5.941   4.550   4.389 -0.0601 -0.3113  0.6346
13208TIP3    H261040   5.983   4.457   4.501 -0.5322  1.0184  1.9413
13209TIP3   OH261041   1.484   5.032  15.105 -0.2807  0.2202  0.3621
13209TIP3    H161042   1.571   5.066  15.128  0.7139 -2.0595  0.1960
13209TIP3    H261043   1.502   4.957  15.048 -2.4547  1.0483 -1.5619
13210TIP3   OH261044   2.477   5.801  15.387  0.3712  0.3446 -0.2055
13210TIP3    H161045   2.445   5.712  15.374  0.0094  0.7331 -2.4917
13210TIP3    H261046   2.428   5.854  15.324  0.8857  2.0976  0.7798
13211TIP3   OH261047   3.765   0.549  13.967  0.5456  0.2514 -0.7037
13211TIP3    H161048   3.772   0.644  13.976 -1.7515  0.7926 -3.2792
13211TIP3    H261049   3.783   0.532  13.875  1.4088 -1.9125 -0.1842
13212TIP3   OH261050   5.678   4.526  12.380 -0.3590  0.0230 -0.0584
13212TIP3    H161051   5.667   4.432  12.370 -1.4545 -0.0251  1.2408
13212TIP3    H261052   5.634   4.564  12.305 -2.0427 -0.4536  0.6501
13213TIP3   OH261053   0.838   4.593   2.172 -0.2099 -0.1482  1.1277
13213TIP3    H161054   0.822   4.503   2.202 -0.2951 -0.7177 -0.5211
13213TIP3    H261055   0.828   4.588   2.077  1.2624  1.2995  0.8600
13214TIP3   OH261056   4.935   3.345  15.391  0.3989 -0.1467  0.0489
13214TIP3    H161057   4.879   3.344  15.313 -2.1089 -0.3956  1.7650
13214TIP3    H261058   4.883   3.390  15.457  2.8447  0.8975  1.3653
13215TIP3   OH261059   0.273   2.426  14.381  0.0729 -0.1471  0.0092
13215TIP3    H161060   0.198   2.471  14.421  0.3839  0.3979 -0.0031
13215TIP3    H261061   0.313   2.492  14.324 -0.8396 -1.1513 -1.8807
13216TIP3   OH261062   3.307   5.096   3.332  0.6086 -0.2294 -0.5615
13216TIP3    H161063   3.259   5.128   3.255 -1.1372 -1.6458 -0.1315
13216TIP3    H261064   3.308   5.001   3.321  1.9079 -0.3389  0.3117
13217TIP3   OH261065   0.921   1.765   4.036 -0.3700 -0.7131  0.0394
13217TIP3    H161066   0.838   1.726   4.009 -0.8866  0.6830 -0.4859
13217TIP3    H261067   0.904   1.859   4.036  1.5081 -0.3394 -1.0525
13218TIP3   OH261068   0.156   3.715   3.354 -0.6317  0.3749  0.0079
13218TIP3    H161069   0.146   3.698   3.448  2.3731 -0.3774  0.3008
13218TIP3    H261070   0.250   3.724   3.341 -1.0296  1.5239 -2.8025
13219TIP3   OH261071   4.421   1.972   3.317 -0.0108  0.1658  0.9809
13219TIP3    H161072   4.378   1.887   3.318  0.4565 -0.0667  1.8602
13219TIP3    H261073   4.461   1.977   3.230  2.0456 -1.5891  1.7446
13220TIP3   OH261074   4.757   6.386  17.145 -0.1099 -0.6604 -0.2129
13220TIP3    H161075   4.711   6.430  17.074  0.5948 -0.4924 -0.5730
13220TIP3    H261076   4.813   6.322  17.102  2.4287  1.2940 -0.0747
13221TIP3   OH261077   0.935   5.014   1.713 -0.2792 -0.0008  0.1141
13221TIP3    H161078   1.023   4.997   1.680  0.2886  0.2608  1.4377
13221TIP3    H261079   0.924   5.109   1.708 -0.3563 -0.0009  0.2654
13222TIP3   OH261080   5.416   3.864  12.132  0.5259 -0.3649 -0.5098
13222TIP3    H161081   5.391   3.902  12.048 -1.7721 -0.2798  0.1491
13222TIP3    H261082   5.462   3.934  12.177  0.7485 -0.0297 -1.2460
13223TIP3   OH261083   2.770   4.904  13.329  0.0157  0.4531  0.0705
13223TIP3    H161084   2.822   4.862  13.259  1.7864 -0.0324  1.5929
13223TIP3    H261085   2.833   4.959  13.375 -1.2273  1.1313  1.0003
13224TIP3   OH261086   6.635   5.334  12.764  0.5055 -0.1060 -0.3942
13224TIP3    H161087   6.575   5.285  12.820  0.1268  2.2272  1.4191
13224TIP3    H261088   6.723   5.310  12.795  0.4584 -1.5899 -1.3335
13225TIP3   OH261089   6.664   4.761  10.863  0.4724 -0.3975  0.2859
13225TIP3    H161090   6.732   4.829  10.862 -0.2699  0.3950 -1.5423
13225TIP3    H261091   6.638   4.755  10.955  0.7765  1.5853  0.5463
13226TIP3   OH261092   2.256   2.184  12.679 -0.1897 -0.3807  0.1117
13226TIP3    H161093   2.250   2.221  12.591  0.2752  0.1746  0.3056
13226TIP3    H261094   2.176   2.212  12.723 -0.2010 -0.2571  0.0129
13227TIP3   OH261095   6.187   3.080  11.278 -0.4523  0.1544 -0.4279
13227TIP3    H161096   6.207   3.079  11.372 -1.1419  1.3759 -0.2458
13227TIP3    H261097   6.098   3.046  11.273 -0.1029 -0.7385 -0.7417
13228TIP3   OH261098   2.457   4.093  12.185  0.2403 -0.1375  0.2109
13228TIP3    H161099   2.384   4.038  12.157 -1.3351  2.2831 -0.8082
13228TIP3    H261100   2.525   4.031  12.211 -1.8912 -2.5232  0.5406
13229TIP3   OH261101   4.408   0.938  12.872 -0.0966  0.0937 -0.3404
13229TIP3    H161102   4.322   0.971  12.897  0.0206  0.8600 -0.9350
13229TIP3    H261103   4.449   0.912  12.955 -0.4137  0.9114  0.0788
13230TIP3   OH261104   4.598   0.325  17.093  0.0824 -0.5239  0.0252
13230TIP3    H161105   4.537   0.258  17.064  0.0275  1.1328 -4.4760
13230TIP3    H261106   4.542   0.396  17.125 -0.0713 -0.7944  0.3655
13231TIP3   OH261107   6.286   5.893   1.438  0.7397 -0.1251  0.1270
13231TIP3    H161108   6.274   5.800   1.459 -0.1472  0.0292  0.3418
13231TIP3    H261109   6.381   5.904   1.434  0.8582 -1.1095 -0.2061
13232TIP3   OH261110   3.181   5.889   1.971 -0.1217  0.2146 -0.4012
13232TIP3    H161111   3.085   5.891   1.972 -0.2414  3.8936  1.9628
13232TIP3    H261112   3.204   5.899   1.879 -2.1556  1.8159 -0.8289
13233TIP3   OH261113   2.818   6.324   1.916 -0.1116  0.2568  0.5350
13233TIP3    H161114   2.853   6.325   1.827  0.3359 -0.0798  0.7086
13233TIP3    H261115   2.728   6.357   1.906 -0.0633  0.2267 -0.0399
13234TIP3   OH261116   5.307   5.297  15.308  0.6418 -0.2688 -0.3033
13234TIP3    H161117   5.304   5.348  15.228  0.8856  0.0340 -0.1203
13234TIP3    H261118   5.267   5.353  15.375 -0.7372 -1.0022 -0.4639
13235TIP3   OH261119   5.014   2.664  15.551 -0.0595  0.4412 -0.1866
13235TIP3    H161120   5.074   2.734  15.524  0.6563 -0.1232 -0.1039
13235TIP3    H261121   4.929   2.690  15.517  0.5072  0.5593 -1.5516
13236TIP3   OH261122   5.210   2.258   0.467  0.0579  0.3883  0.0844
13236TIP3    H161123   5.284   2.317   0.475  1.0060 -0.6472 -0.7336
13236TIP3    H261124   5.134   2.310   0.495  1.0190  1.5906  0.5296
13237TIP3   OH261125   2.531   1.928   3.315 -0.2082 -0.2667  0.0757
13237TIP3    H161126   2.573   1.873   3.248  1.2501 -0.3492  1.0162
13237TIP3    H261127   2.546   2.017   3.284 -2.1471 -0.3288 -1.1981
13238TIP3   OH261128   0.844   0.659   5.024 -0.8346  0.1419  0.2629
13238TIP3    H161129   0.781   0.609   5.076 -1.2452 -0.9413 -1.2153
13238TIP3    H261130   0.793   0.694   4.951  0.1736 -0.4190 -0.7466
13239TIP3   OH261131   1.576   1.741  12.588 -0.0477  0.5171 -0.1646
13239TIP3    H161132   1.648   1.788  12.630  0.3400 -0.8279  0.7421
13239TIP3    H261133   1.558   1.791  12.508  1.5947  1.1363 -0.1865
13240TIP3   OH261134   4.508   0.097  16.982  0.1998 -0.5819 -0.0499
13240TIP3    H161135   4.499   0.030  16.914 -0.8410 -0.6777  0.1627
13240TIP3    H261136   4.576   0.063  17.040  0.8628 -0.6522 -0.8550
13241TIP3   OH261137   2.064   3.996   5.333  0.0938 -0.2102  0.1952
13241TIP3    H161138   2.013   3.915   5.339  0.6430 -0.5328  0.5374
13241TIP3    H261139   2.127   3.990   5.404 -0.2579  0.8107  0.6053
13242TIP3   OH261140   4.366   4.356   5.717  0.6073  0.0058  0.4217
13242TIP3    H161141   4.383   4.392   5.630 -2.4896 -0.0781 -0.3531
13242TIP3    H261142   4.452   4.333   5.752  1.8706 -2.0126 -3.5034
13243TIP3   OH261143   5.365   3.746   2.058  0.0665  0.0548  0.1263
13243TIP3    H161144   5.274   3.769   2.041 -0.1337 -0.4901  0.4147
13243TIP3    H261145   5.410   3.830   2.070 -0.0601  0.4119 -1.6173
13244TIP3   OH261146   2.123   2.537  11.776 -0.1392 -0.2697 -0.2134
13244TIP3    H161147   2.146   2.494  11.859 -1.0152 -1.8955 -0.7696
13244TIP3    H261148   2.029   2.523  11.767 -0.3232  1.2264 -0.7569
13245TIP3   OH261149   0.964   2.537  13.459  0.1498  0.2230  0.3779
13245TIP3    H161150   0.980   2.511  13.550 -0.5570  0.6400  0.6295
13245TIP3    H261151   1.021   2.481  13.407  1.1405  0.5183  1.1303
13246TIP3   OH261152   4.537   5.446  16.783 -0.3668 -0.4464 -0.4858
13246TIP3    H161153   4.495   5.445  16.697 -0.8794 -1.4384 -0.2461
13246TIP3    H261154   4.600   5.374  16.779 -0.7439 -0.8184  0.1272
13247TIP3   OH261155   2.577   5.610  14.670 -0.2665  0.1469  0.0679
13247TIP3    H161156   2.570   5.548  14.597 -0.0103  1.1088 -0.8056
13247TIP3    H261157   2.652   5.579  14.721  0.1027 -0.0469 -0.5783
13248TIP3   OH261158   4.734   1.584  12.415 -0.2010  0.3436 -0.8083
13248TIP3    H161159   4.706   1.527  12.486 -1.8030  0.5962 -1.1857
13248TIP3    H261160   4.819   1.549  12.388  0.0741 -0.2207  0.6956
13249TIP3   OH261161   3.266   1.788  13.625 -0.0389  0.0226  0.0349
13249TIP3    H161162   3.359   1.771  13.637 -0.2345 -0.4644  0.8952
13249TIP3    H261163   3.230   1.705  13.596 -0.8782 -1.0187  3.5939
13250TIP3   OH261164   1.113   2.807   4.210 -0.2356  0.1635 -0.7790
13250TIP3    H161165   1.162   2.825   4.130 -2.0007 -0.8236 -2.1626
13250TIP3    H261166   1.028   2.775   4.179 -0.8088 -0.7023  1.5017
13251TIP3   OH261167   4.470   5.470   4.302 -0.1684  0.1915 -0.1526
13251TIP3    H161168   4.539   5.425   4.351 -0.2780 -0.3916 -0.5215
13251TIP3    H261169   4.394   5.466   4.358 -0.4562 -1.0047 -0.5980
13252TIP3   OH261170   3.386   2.219  13.382 -0.3371 -0.2971  0.1771
13252TIP3    H161171   3.433   2.152  13.431  1.5923 -0.8631 -2.2928
13252TIP3    H261172   3.376   2.291  13.445  1.9158 -1.0088  1.4732
13253TIP3   OH261173   1.103   0.897  16.515 -0.1574  0.2431 -0.0181
13253TIP3    H161174   1.187   0.871  16.476 -1.4936 -2.0886 -1.6015
13253TIP3    H261175   1.038   0.876  16.447 -2.1244  1.1553  1.4858
13254TIP3   OH261176   5.084   2.960  15.766  0.4634  0.0834 -0.4096
13254TIP3    H161177   5.022   2.935  15.835  0.6007 -2.0204 -0.9561
13254TIP3    H261178   5.040   3.030  15.718 -0.3070  0.4854  0.8443
13255TIP3   OH261179   2.430   1.815   6.544 -0.3947 -0.3020  0.3452
13255TIP3    H161180   2.425   1.862   6.461 -0.4327 -1.3083 -0.2352
13255TIP3    H261181   2.517   1.775   6.543  0.2700  1.0418  1.5547
13256TIP3   OH261182   6.017   3.724   2.789 -0.2011 -0.3604  0.4491
13256TIP3    H161183   5.979   3.811   2.775 -0.7293 -0.5976  0.4040
13256TIP3    H261184   6.054   3.701   2.704 -1.8983 -1.0638 -0.1361
13257TIP3   OH261185   2.945   0.412   3.846  0.1092 -0.0987 -0.3297
13257TIP3    H161186   3.029   0.372   3.866  0.4963  0.7779 -0.1365
13257TIP3    H261187   2.931   0.393   3.753 -0.1320 -1.3833 -0.0513
13258TIP3   OH261188   1.175   1.997   1.006 -0.3177  0.1375  0.4853
13258TIP3    H161189   1.270   2.004   1.011 -0.2490 -1.0344  1.3114
13258TIP3    H261190   1.155   2.005   0.913  0.6172  0.0861  0.2729
13259TIP3   OH261191   2.040   0.310  17.020  0.0425 -0.6647 -0.1915
13259TIP3    H161192   2.033   0.300  17.115 -1.2112 -0.1391 -0.2134
13259TIP3    H261193   2.050   0.220  16.987  1.7700 -0.7565  0.5033
13260TIP3   OH261194   6.783   3.203   2.449  0.0325  0.2089 -0.3957
13260TIP3    H161195   6.734   3.205   2.367  0.2995  0.7342 -0.5435
13260TIP3    H261196   6.734   3.261   2.507  0.5103  0.7962 -0.5667
13261TIP3   OH261197   4.685   2.769  15.522  0.0798 -0.3819 -0.0304
13261TIP3    H161198   4.695   2.831  15.450  1.4920 -0.3933  0.1300
13261TIP3    H261199   4.720   2.814  15.599  0.7965 -1.2221  0.1628
13262TIP3   OH261200   6.705   2.912   2.408 -0.8390  0.1571  0.4226
13262TIP3    H161201   6.723   2.997   2.448 -2.0454 -0.4640  2.4205
13262TIP3    H261202   6.726   2.848   2.476  0.2973 -1.2117 -1.1249
13263TIP3   OH261203   0.561   0.068   3.958  0.2083 -0.0507  0.2982
13263TIP3    H161204   0.612   0.022   3.892 -0.6442  1.2058 -1.2916
13263TIP3    H261205   0.494   0.005   3.985  0.9474 -0.7868  0.4435
13264TIP3   OH261206   5.408   5.344  14.230 -0.1008  0.4796 -0.2168
13264TIP3    H161207   5.442   5.322  14.143 -0.0244  1.0281 -0.3347
13264TIP3    H261208   5.445   5.431  14.248 -2.1864  1.5202 -0.7439
13265TIP3   OH261209   2.862   0.594  15.598 -0.1910 -0.2596  0.2800
13265TIP3    H161210   2.913   0.665  15.558  0.5126 -0.0605  1.4915
13265TIP3    H261211   2.867   0.523  15.534 -0.4252  0.5712 -0.6982
13266TIP3   OH261212   0.478   4.352   1.716  0.4527  0.0692 -0.1390
13266TIP3    H161213   0.395   4.398   1.699 -0.0719 -0.5117  0.7439
13266TIP3    H261214   0.491   4.298   1.639  0.4267  0.7502 -0.6364
13267TIP3   OH261215   6.496   3.718   1.868  0.3141 -0.3605  0.1420
13267TIP3    H161216   6.494   3.631   1.907 -0.6847  0.5314  2.1986
13267TIP3    H261217   6.575   3.718   1.814  0.8431 -2.2246  0.8396
13268TIP3   OH261218   1.617   1.601  11.461  0.3231  0.2084  0.6283
13268TIP3    H161219   1.580   1.543  11.394 -1.2880 -0.1541  1.7831
13268TIP3    H261220   1.542   1.650  11.495  1.4964  2.2900  0.3926
13269TIP3   OH261221   0.684   6.679  14.212  0.6979  0.1679 -0.7716
13269TIP3    H161222   0.755   6.693  14.275 -0.3567  0.7785  0.3355
13269TIP3    H261223   0.725   6.687  14.126  1.9837  0.4111 -0.1482
13270TIP3   OH261224   0.013   0.773  12.577 -0.7219 -0.3300  0.3063
13270TIP3    H161225   0.023   0.687  12.535 -1.5810 -0.3453  0.1098
13270TIP3    H261226   0.085   0.777  12.640  0.3042 -0.5198 -0.8026
13271TIP3   OH261227   3.528   1.419  14.926  0.3033 -0.4189 -0.3308
13271TIP3    H161228   3.480   1.338  14.943  0.4665 -0.5787 -0.6284
13271TIP3    H261229   3.536   1.423  14.831  1.9011 -0.9962 -0.2518
13272TIP3   OH261230   2.429   5.747  13.562  0.0067  0.3139  0.5203
13272TIP3    H161231   2.430   5.748  13.466 -1.8180  4.5821  0.3388
13272TIP3    H261232   2.514   5.783  13.587  0.4099 -0.6309  0.5779
13273TIP3   OH261233   0.050   4.181   4.327  0.8075 -0.1544 -0.8057
13273TIP3    H161234  -0.031   4.144   4.293  0.2465  1.1553 -0.9540
13273TIP3    H261235   0.115   4.162   4.260  0.5118 -0.7477 -0.9306
13274TIP3   OH261236   2.894   5.394   1.673 -0.0023 -0.1224  0.2346
13274TIP3    H161237   2.839   5.439   1.608  1.2136 -1.5898 -1.9403
13274TIP3    H261238   2.959   5.460   1.698  2.2966 -0.6055 -3.5502
13275TIP3   OH261239   3.414   1.623   4.814 -0.5882 -0.0807  0.1340
13275TIP3    H161240   3.384   1.619   4.905 -0.5112  0.8094  0.2150
13275TIP3    H261241   3.336   1.607   4.762 -0.6831 -0.3512  0.3582
13276TIP3   OH261242   1.903   3.201   2.177  0.2253 -0.1512 -0.3998
13276TIP3    H161243   1.901   3.233   2.087  0.9151  1.9068  0.2573
13276TIP3    H261244   1.841   3.128   2.178  1.1901 -1.0996 -2.8119
13277TIP3   OH261245   3.462   5.697   5.751  0.3757 -0.6562 -0.1207
13277TIP3    H161246   3.466   5.792   5.756 -0.0299 -0.7014  1.4457
13277TIP3    H261247   3.375   5.679   5.714  0.3818 -0.4238 -0.2505
13278TIP3   OH261248   3.957   1.594  12.152 -0.6017  0.1295  0.2901
13278TIP3    H161249   3.940   1.587  12.245 -2.3245 -1.2347 -0.0647
13278TIP3    H261250   3.927   1.682  12.128  1.2457  1.0668  1.2275
13279TIP3   OH261251   3.258   3.999   4.376 -0.6411 -0.0155 -1.3101
13279TIP3    H161252   3.282   3.909   4.358  0.4877  0.0707 -0.3603
13279TIP3    H261253   3.300   4.050   4.306  2.6270  0.1913  0.6126
13280TIP3   OH261254   1.362   5.344  13.497 -0.5966  0.0991 -0.6641
13280TIP3    H161255   1.267   5.350  13.487 -1.0683 -1.9689  1.5929
13280TIP3    H261256   1.386   5.265  13.449  0.0249  0.6213 -1.2383
13281TIP3   OH261257   2.699   3.023   1.236  0.3522  0.3017  0.2156
13281TIP3    H161258   2.611   2.986   1.231  0.5399 -0.2414  0.9124
13281TIP3    H261259   2.715   3.057   1.148 -0.8276  1.0486  0.2739
13282TIP3   OH261260   1.957   6.001  13.451 -0.3338 -0.0840  0.3744
13282TIP3    H161261   1.977   5.997  13.545 -1.1119 -1.1071  0.5229
13282TIP3    H261262   1.948   5.909  13.425 -0.2048  0.1930 -0.6852
13283TIP3   OH261263   0.675   5.653   3.850  0.7823  0.2681 -0.0659
13283TIP3    H161264   0.709   5.731   3.806  0.8469  0.7483  0.7999
13283TIP3    H261265   0.685   5.673   3.943 -2.4630  0.7321  0.2954
13284TIP3   OH261266   6.366   2.103  12.265  0.0552 -0.1593  0.2586
13284TIP3    H161267   6.436   2.094  12.201 -0.7571 -0.6378 -0.5949
13284TIP3    H261268   6.286   2.089  12.214 -0.7332  1.4645  0.9718
13285TIP3   OH261269   6.431   4.617  13.878 -0.2263  0.4344  0.1527
13285TIP3    H161270   6.350   4.633  13.926  0.0526 -0.3456  0.9187
13285TIP3    H261271   6.433   4.685  13.810 -1.5992  0.3516  0.0034
13286TIP3   OH261272   4.758   4.213  10.951 -0.2554  0.6572  0.3785
13286TIP3    H161273   4.833   4.198  10.892  0.8594  1.2477  1.5932
13286TIP3    H261274   4.682   4.188  10.899  0.8896 -1.8163 -0.2992
13287TIP3   OH261275   5.362   4.590  15.112  0.3117  0.4120  0.1191
13287TIP3    H161276   5.312   4.508  15.105 -0.1075  0.7011 -0.2712
13287TIP3    H261277   5.436   4.567  15.168  0.4124 -0.3477 -0.3042
13288TIP3   OH261278   3.638   4.441  15.570  0.2206 -0.1493  0.0891
13288TIP3    H161279   3.663   4.370  15.511 -0.3067  1.2848 -1.9854
13288TIP3    H261280   3.543   4.442  15.568  0.1688 -0.4566  1.5036
13289TIP3   OH261281   0.200   5.389  10.479  0.6409  0.0343  0.0956
13289TIP3    H161282   0.131   5.403  10.543  1.9647  0.6297  1.4397
13289TIP3    H261283   0.235   5.303  10.499  0.4095 -0.2039 -0.4887
13290TIP3   OH261284   3.982   2.106   2.100 -0.1457 -0.2832 -0.0219
13290TIP3    H161285   3.934   2.189   2.096 -3.2523 -2.0182 -1.4689
13290TIP3    H261286   3.992   2.079   2.009  0.3411 -1.7828  0.4465
13291TIP3   OH261287   2.642   4.701  15.363  0.0527 -0.6299 -0.1325
13291TIP3    H161288   2.690   4.783  15.370 -0.5819 -0.1931 -0.6896
13291TIP3    H261289   2.703   4.634  15.392  0.3353  0.1162  1.0569
13292TIP3   OH261290   2.718   0.624  11.652 -0.2805  0.6498 -0.0044
13292TIP3    H161291   2.732   0.554  11.717  0.2848  1.2451  0.5279
13292TIP3    H261292   2.797   0.677  11.656 -0.0966  0.5279 -1.4233
13293TIP3   OH261293   3.413   3.022   6.048  0.0353  0.0050 -0.2834
13293TIP3    H161294   3.320   3.017   6.070 -0.0100 -0.5597 -0.5698
13293TIP3    H261295   3.421   2.969   5.968  0.3873  1.0453 -0.9567
13294TIP3   OH261296   1.812   5.390   3.390  0.5919 -0.2521 -0.6295
13294TIP3    H161297   1.885   5.447   3.368  0.5900 -0.0297 -0.0791
13294TIP3    H261298   1.841   5.343   3.468  0.7265 -1.2604 -1.2651
13295TIP3   OH261299   0.059   3.830   0.686 -0.3720 -0.4521  0.2119
13295TIP3    H161300   0.079   3.737   0.677  0.4153 -0.3335  0.7216
13295TIP3    H261301   0.102   3.857   0.766  0.4765  0.6470 -0.5848
13296TIP3   OH261302   0.531   2.974   5.640 -0.0700 -0.0021 -0.1444
13296TIP3    H161303   0.455   3.007   5.593 -0.5242  0.2377  0.7435
13296TIP3    H261304   0.514   2.880   5.650  0.1230 -0.0910 -0.6258
13297TIP3   OH261305   5.500   3.276  16.966 -0.3438 -0.1104 -0.2399
13297TIP3    H161306   5.473   3.210  17.030 -1.7807 -0.0618 -0.7596
13297TIP3    H261307   5.469   3.242  16.882  0.1677  0.5517 -0.7057
13298TIP3   OH261308   4.797   6.224  12.659  0.0177 -0.1816  0.1269
13298TIP3    H161309   4.886   6.259  12.669  0.6357 -1.6023 -0.0992
13298TIP3    H261310   4.754   6.245  12.742  1.4240 -1.7636  1.3168
13299TIP3   OH261311   2.189   4.349   5.202 -0.1044  0.4175 -0.9601
13299TIP3    H161312   2.243   4.409   5.151  2.4446 -1.2976 -0.4727
13299TIP3    H261313   2.217   4.363   5.292 -0.6242 -0.3824 -0.6649
13300TIP3   OH261314   2.187   0.164   3.798  0.3999  0.3603 -0.1643
13300TIP3    H161315   2.237   0.163   3.879  2.0343  0.8220 -1.1215
13300TIP3    H261316   2.253   0.162   3.729 -0.8923  1.2086 -1.4909
13301TIP3   OH261317   0.942   2.060  13.176 -0.3533 -0.0182 -0.4532
13301TIP3    H161318   1.012   2.065  13.241  0.1773  0.3988 -1.0499
13301TIP3    H261319   0.939   1.968  13.150  0.5087  0.1050 -1.0047
13302TIP3   OH261320   5.302   0.853  14.065 -0.8175  0.0365 -0.0137
13302TIP3    H161321   5.254   0.837  14.146 -0.9230 -1.5286 -0.3573
13302TIP3    H261322   5.293   0.772  14.015  0.3191  0.5108 -1.0452
13303TIP3   OH261323   2.606   2.565   5.187  0.6481  0.2883  0.0564
13303TIP3    H161324   2.641   2.609   5.110  0.4495  1.2002  0.4617
13303TIP3    H261325   2.644   2.613   5.261  0.6342 -0.4050  0.5223
13304TIP3   OH261326   1.101   5.521   4.552  0.4444 -0.0112 -0.3429
13304TIP3    H161327   1.030   5.469   4.517 -1.8191  2.3448  0.3906
13304TIP3    H261328   1.106   5.597   4.494  2.8052 -0.3573 -0.7011
13305TIP3   OH261329   5.606   0.022  16.494 -0.1577  0.1057  0.0095
13305TIP3    H161330   5.642   0.005  16.408 -1.5828  1.1002 -0.8250
13305TIP3    H261331   5.563  -0.060  16.519  0.6229 -0.3202 -0.0099
13306TIP3   OH261332   5.840   6.099  14.705 -0.3248  0.2616  0.5328
13306TIP3    H161333   5.811   6.067  14.791  1.1542  2.3635  1.8998
13306TIP3    H261334   5.936   6.095  14.709 -0.2286  0.5818 -0.9665
13307TIP3   OH261335   4.999   0.859   5.403 -0.0049 -0.0187 -1.2482
13307TIP3    H161336   4.928   0.896   5.350  0.5660  1.5904 -0.9518
13307TIP3    H261337   5.053   0.935   5.426  1.0062 -1.0107 -0.2550
13308TIP3   OH261338   1.445   4.105   0.058 -0.2965  0.7830 -0.0807
13308TIP3    H161339   1.365   4.091   0.108 -0.8746  0.0036 -1.1487
13308TIP3    H261340   1.476   4.016   0.038  1.4054  1.0521  1.1472
13309TIP3   OH261341   1.886   0.638   5.641  0.0471  0.0645 -0.3410
13309TIP3    H161342   1.863   0.685   5.561  0.1580  0.8842  0.0960
13309TIP3    H261343   1.982   0.646   5.647  0.0084  0.2574  0.0273
13310TIP3   OH261344   0.831   0.054   4.790 -0.2841  0.1220  0.0046
13310TIP3    H161345   0.785   0.127   4.748 -0.9801  0.6249  1.5642
13310TIP3    H261346   0.765  -0.014   4.800  0.0474 -0.2502 -0.3029
13311TIP3   OH261347   2.856   4.809  14.359  0.4409  0.4507  0.0182
13311TIP3    H161348   2.782   4.864  14.335 -0.2286 -0.0372  0.8851
13311TIP3    H261349   2.857   4.810  14.455  0.5745 -0.7961  0.0564
13312TIP3   OH261350   4.089   4.587  13.771  0.3022 -0.6104 -0.3659
13312TIP3    H161351   4.003   4.563  13.738 -0.4256 -1.1735  1.7540
13312TIP3    H261352   4.150   4.536  13.719 -0.6500 -0.5662 -1.5803
13313TIP3   OH261353   5.160   0.462   1.798 -0.0729  0.3033  0.8074
13313TIP3    H161354   5.195   0.388   1.747 -0.7479 -0.4984  1.4676
13313TIP3    H261355   5.176   0.539   1.744  0.6231 -0.3348  0.0830
13314TIP3   OH261356   1.164   5.145   5.016 -0.1860  0.0752  0.2300
13314TIP3    H161357   1.173   5.231   5.057  2.2759 -0.1891  0.3816
13314TIP3    H261358   1.175   5.161   4.922  0.7062 -0.0970  0.2956
13315TIP3   OH261359   5.840   1.501   3.741 -0.4640 -0.6695 -0.1601
13315TIP3    H161360   5.837   1.418   3.693 -2.7541  0.3200 -1.9074
13315TIP3    H261361   5.757   1.504   3.788  0.4129 -0.1807  1.4045
13316TIP3   OH261362   5.324   3.112   5.713  0.3886  0.1223 -0.1577
13316TIP3    H161363   5.324   3.085   5.805 -1.7436 -0.7787 -0.3571
13316TIP3    H261364   5.263   3.186   5.710  0.0662 -0.1621 -0.8858
13317TIP3   OH261365   2.573   4.024   1.138 -0.1204 -0.3148 -0.2486
13317TIP3    H161366   2.582   4.075   1.057  0.4297 -0.8642 -0.5457
13317TIP3    H261367   2.632   4.067   1.200 -1.4237  0.8316  0.2579
13318TIP3   OH261368   4.806   5.390   5.551  0.5003  0.2260 -0.3988
13318TIP3    H161369   4.758   5.321   5.598 -0.9473  1.8561  0.6625
13318TIP3    H261370   4.851   5.439   5.619 -0.0308  1.4422 -0.8815
13319TIP3   OH261371   1.596   6.512  15.923  0.0467  0.1779 -0.1849
13319TIP3    H161372   1.552   6.437  15.963 -0.1887 -0.1079 -0.9616
13319TIP3    H261373   1.528   6.555  15.872 -0.2850  1.9656  1.6202
13320TIP3   OH261374   5.170   2.269   3.023 -0.7461 -0.4217 -0.5612
13320TIP3    H161375   5.109   2.203   3.058  0.7041 -1.3101  0.3859
13320TIP3    H261376   5.255   2.244   3.059 -0.4706  3.4694  2.1116
13321TIP3   OH261377   2.473   1.742   2.199 -0.2607  0.0694 -0.2527
13321TIP3    H161378   2.493   1.648   2.203 -0.4445  0.0692  1.5457
13321TIP3    H261379   2.465   1.761   2.106  1.4830 -1.3414 -0.7500
13322TIP3   OH261380   1.748   5.355  13.984 -0.2626 -0.5064  0.5361
13322TIP3    H161381   1.747   5.447  14.011  2.5490 -0.8110  2.0142
13322TIP3    H261382   1.684   5.350  13.913 -0.4349  2.6086  0.3491
13323TIP3   OH261383   0.579   2.144   3.408  0.0348 -0.2546  0.3302
13323TIP3    H161384   0.554   2.157   3.316 -0.7580  1.3678  0.7558
13323TIP3    H261385   0.603   2.231   3.439 -0.9650 -0.5452  2.0304
13324TIP3   OH261386   4.029   5.426   2.215  0.3521 -0.2664 -0.2397
13324TIP3    H161387   3.991   5.367   2.279 -2.1415  1.1964 -0.2344
13324TIP3    H261388   4.112   5.453   2.253 -0.3932 -0.5440  1.6917
13325TIP3   OH261389   4.688   6.559   0.557  0.4458 -0.5561 -0.6493
13325TIP3    H161390   4.622   6.581   0.492  2.1483  1.3732 -1.8441
13325TIP3    H261391   4.753   6.508   0.509  0.2420 -1.7977  0.3312
13326TIP3   OH261392   2.181   3.367  16.932  0.4095  0.6538  0.2591
13326TIP3    H161393   2.227   3.362  17.015 -1.8320 -1.9865  1.5086
13326TIP3    H261394   2.100   3.414  16.952 -1.4745 -2.3900  0.4400
13327TIP3   OH261395   6.607   4.978   2.070 -0.0963 -0.3725 -0.1095
13327TIP3    H161396   6.566   5.058   2.039 -0.2052 -0.4197 -0.0872
13327TIP3    H261397   6.626   4.928   1.990 -0.8016 -0.7022 -0.0769
13328TIP3   OH261398   2.702   5.572  10.909 -0.3260  0.7311  0.0193
13328TIP3    H161399   2.688   5.499  10.849 -0.6000  1.0426 -0.2973
13328TIP3    H261400   2.756   5.536  10.979 -1.5704 -0.1358  0.5605
13329TIP3   OH261401   5.152   0.571  14.217  0.0686  0.2520 -0.1889
13329TIP3    H161402   5.117   0.511  14.282 -1.1001  0.9177 -0.1675
13329TIP3    H261403   5.243   0.583  14.241  0.3000 -1.4116 -0.1293
13330TIP3   OH261404   5.005   5.171  11.696  0.0570  0.4066  0.5358
13330TIP3    H161405   4.984   5.101  11.758  1.6635  1.2801  2.1757
13330TIP3    H261406   4.994   5.252  11.747  0.7123  1.1977 -0.5253
13331TIP3   OH261407   3.739   3.129  16.959  0.6610 -0.3323 -0.3445
13331TIP3    H161408   3.654   3.095  16.985  0.9497 -1.9448 -1.3663
13331TIP3    H261409   3.799   3.101  17.029  0.3906  0.7390  0.3371
13332TIP3   OH261410   4.466   2.848   0.861 -0.2803  0.2597  0.0117
13332TIP3    H161411   4.479   2.753   0.868 -0.1076  0.3080  0.3640
13332TIP3    H261412   4.536   2.877   0.803 -2.1354 -0.2372 -2.6490
13333TIP3   OH261413   3.836   0.079   4.765 -0.7790 -0.1528  0.0683
13333TIP3    H161414   3.782   0.001   4.751 -0.0458 -0.4775 -1.0617
13333TIP3    H261415   3.796   0.146   4.710  0.0148 -0.4300 -0.8734
13334TIP3   OH261416   6.375   2.006   5.950  0.5895 -0.0477  1.1370
13334TIP3    H161417   6.360   2.098   5.925 -1.9476 -0.4366  0.9361
13334TIP3    H261418   6.452   1.980   5.899 -0.0224  1.3221 -0.6149
13335TIP3   OH261419   5.585   0.445  12.787 -0.4043 -0.2231 -0.5828
13335TIP3    H161420   5.671   0.403  12.785 -0.3385 -0.0741 -2.1194
13335TIP3    H261421   5.579   0.492  12.704 -2.4295 -1.1901 -1.0513
13336TIP3   OH261422   0.375   3.317  16.152 -0.6743  0.0681 -0.5700
13336TIP3    H161423   0.436   3.391  16.161 -1.7797  0.7719  2.8770
13336TIP3    H261424   0.430   3.240  16.165  0.1832  0.3404 -2.2741
13337TIP3   OH261425   4.160   4.984   1.823 -0.3935  0.3964 -0.4936
13337TIP3    H161426   4.166   4.888   1.818  0.1595  0.4625 -1.2533
13337TIP3    H261427   4.201   5.006   1.907 -0.3475 -0.0122 -0.4047
13338TIP3   OH261428   1.861   2.459  15.125 -0.0500  0.0140 -0.1099
13338TIP3    H161429   1.812   2.385  15.089  0.4657 -0.7321  0.6882
13338TIP3    H261430   1.936   2.468  15.066  0.2830 -0.5928  0.2076
13339TIP3   OH261431   3.227   3.257   5.869  0.5059  0.4062 -0.3424
13339TIP3    H161432   3.258   3.171   5.897 -0.9056 -0.2070 -0.5706
13339TIP3    H261433   3.244   3.314   5.944 -2.1453 -0.9570  1.4546
13340TIP3   OH261434   1.261   1.314   0.198 -0.2213 -0.0988 -0.3255
13340TIP3    H161435   1.245   1.311   0.104  0.3776  0.3620 -0.4420
13340TIP3    H261436   1.333   1.254   0.212 -2.1774 -2.4780  0.2583
13341TIP3   OH261437   5.210   3.277   4.002  0.3367  1.0556  0.0742
13341TIP3    H161438   5.282   3.215   4.017  0.1920  1.2284  1.6711
13341TIP3    H261439   5.145   3.255   4.068  0.1743  2.7363  0.5330
13342TIP3   OH261440   4.101   4.926  16.237  0.3589  0.2576  0.6090
13342TIP3    H161441   4.036   4.862  16.265 -0.5185  1.2259  0.8643
13342TIP3    H261442   4.145   4.953  16.318 -1.5313  2.3577  1.0457
13343TIP3   OH261443   1.204   6.347   3.463 -0.4237 -0.0008 -0.8429
13343TIP3    H161444   1.202   6.378   3.554  2.5356 -0.1295 -0.6489
13343TIP3    H261445   1.241   6.420   3.414 -1.0024 -0.3289 -1.7785
13344TIP3   OH261446   3.230   3.298  14.759  0.1869 -0.7182 -0.2844
13344TIP3    H161447   3.208   3.259  14.675 -1.7854 -0.9682  0.3109
13344TIP3    H261448   3.189   3.241  14.824  0.8393  0.0175  0.8105
13345TIP3   OH261449   5.984   5.670   5.921 -0.6236  0.2709  0.0653
13345TIP3    H161450   5.960   5.759   5.949  2.0483  0.8881  0.7026
13345TIP3    H261451   6.046   5.640   5.988 -1.2509 -1.9828 -0.3052
13346TIP3   OH261452   2.744   2.635  16.269  0.3357  0.0162 -0.6675
13346TIP3    H161453   2.806   2.633  16.342  1.9547 -0.0141 -2.0021
13346TIP3    H261454   2.692   2.715  16.285  0.3814 -0.1955  0.6998
13347TIP3   OH261455   5.636   4.847  13.230  0.2267 -0.3853  0.2407
13347TIP3    H161456   5.596   4.807  13.153  0.5344 -1.4996  0.6283
13347TIP3    H261457   5.583   4.924  13.248 -0.4595 -0.6688 -0.4945
13348TIP3   OH261458   5.162   4.251   3.265  0.0263 -0.0518 -0.0837
13348TIP3    H161459   5.099   4.322   3.279  0.8697  0.3811  1.9274
13348TIP3    H261460   5.217   4.253   3.343  0.7386 -2.2479 -0.4630
13349TIP3   OH261461   1.744   2.542  15.726  0.0566  0.1454 -0.1535
13349TIP3    H161462   1.796   2.570  15.801  0.8030  1.1182 -1.0063
13349TIP3    H261463   1.802   2.554  15.650 -1.2400  0.8257 -1.0802
13350TIP3   OH261464   2.185   5.145   3.436 -0.2643  0.8940  0.0201
13350TIP3    H161465   2.220   5.190   3.513  1.3149 -0.7524  0.3396
13350TIP3    H261466   2.185   5.212   3.367  2.5923  1.2986  0.2994
13351TIP3   OH261467   1.779   6.001   1.038 -0.1079 -0.2731  0.1129
13351TIP3    H161468   1.785   6.016   1.133 -2.0975 -2.9474  0.7808
13351TIP3    H261469   1.689   6.024   1.016 -0.4572 -2.1508 -0.5529
13352TIP3   OH261470   5.485   4.728  13.010 -0.4727 -0.1243 -0.1921
13352TIP3    H161471   5.450   4.670  12.942 -3.4826 -0.2397  1.2694
13352TIP3    H261472   5.437   4.811  12.996 -0.8210 -0.0177  1.4664
13353TIP3   OH261473   0.685   4.163   7.418 -0.1261 -0.0546 -0.1464
13353TIP3    H161474   0.652   4.095   7.360  2.5613  0.2291 -2.1734
13353TIP3    H261475   0.779   4.165   7.403  0.2544  2.3587  1.7865
13354TIP3   OH261476   3.117   1.684  14.214  0.2248  0.1531 -0.0412
13354TIP3    H161477   3.067   1.632  14.153 -1.1479  2.5305 -1.0806
13354TIP3    H261478   3.053   1.716  14.278  0.9228  0.9122  0.3096
13355TIP3   OH261479   4.395   4.989   5.311  0.4161  0.0062  0.0692
13355TIP3    H161480   4.480   4.948   5.331  0.9759  1.3886  0.6666
13355TIP3    H261481   4.359   5.013   5.396 -1.0307 -1.3652 -0.1152
13356TIP3   OH261482   3.453   5.033  16.564  0.2422 -0.6014  0.2318
13356TIP3    H161483   3.449   4.989  16.478  1.7929  0.0656 -0.2130
13356TIP3    H261484   3.405   4.974  16.623  0.9528 -2.1397 -0.6562
13357TIP3   OH261485   0.076   5.593  13.543  0.3391 -0.8398  0.1803
13357TIP3    H161486   0.129   5.524  13.504  0.7671 -1.0655  1.1379
13357TIP3    H261487   0.092   5.586  13.637  0.1347  0.3597  0.3228
13358TIP3   OH261488   3.571   5.481   5.890 -0.3360  0.4562  0.3359
13358TIP3    H161489   3.483   5.445   5.899 -0.3537  0.7525  1.4439
13358TIP3    H261490   3.559   5.561   5.840 -0.9667  1.4623  2.0396
13359TIP3   OH261491   1.288   3.568  15.823 -0.1829  0.4647  0.1900
13359TIP3    H161492   1.249   3.607  15.902 -0.2926 -0.0434  0.3903
13359TIP3    H261493   1.361   3.516  15.856  0.2091  0.8097 -0.1157
13360TIP3   OH261494   5.628   1.566   0.428  0.5444  0.1588  0.5144
13360TIP3    H161495   5.654   1.652   0.462 -1.3075  0.3988  1.4506
13360TIP3    H261496   5.548   1.583   0.379 -0.0514 -1.0935  1.0203
13361TIP3   OH261497   3.003   5.357  13.831 -0.6128 -0.2731 -0.3788
13361TIP3    H161498   3.035   5.349  13.741 -1.6142 -0.6191 -0.7118
13361TIP3    H261499   3.005   5.451  13.848 -0.6799 -0.1797 -0.8586
13362TIP3   OH261500   6.506   2.931  16.686  0.3699  0.4720 -0.6502
13362TIP3    H161501   6.486   2.887  16.768  1.0190 -0.4238 -0.9502
13362TIP3    H261502   6.421   2.947  16.645  0.0928  0.1436 -0.2066
13363TIP3   OH261503   3.508   1.374   3.683 -0.3186 -0.1122 -0.2099
13363TIP3    H161504   3.480   1.296   3.635 -0.8395 -0.1202  0.0966
13363TIP3    H261505   3.445   1.442   3.658 -1.5625 -0.5165  1.6250
13364TIP3   OH261506   4.294   2.089  13.645 -0.1932  0.0028  0.3505
13364TIP3    H161507   4.290   1.997  13.670 -1.4263  0.2626  1.1419
13364TIP3    H261508   4.203   2.117  13.638  0.1562  1.0103 -0.4940
13365TIP3   OH261509   1.489   5.185  14.037 -0.0860 -0.1543 -0.1810
13365TIP3    H161510   1.478   5.276  14.066  2.2706  0.1683 -0.1331
13365TIP3    H261511   1.479   5.189  13.942  0.5866  0.2773 -0.2414
13366TIP3   OH261512   1.080   2.535   5.285  0.5260 -0.1702 -1.0158
13366TIP3    H161513   1.097   2.458   5.231 -1.0578 -1.1686 -0.1624
13366TIP3    H261514   1.012   2.583   5.237  0.1629 -0.2857 -0.6127
13367TIP3   OH261515   5.074   0.218  11.691  0.5267  0.3212  0.6781
13367TIP3    H161516   4.989   0.257  11.671  1.1293  1.8046  0.9225
13367TIP3    H261517   5.097   0.253  11.777  1.3765 -0.0942  0.6310
13368TIP3   OH261518   5.090   1.398   4.899  0.4407 -0.0559 -0.3238
13368TIP3    H161519   5.136   1.377   4.817 -0.8839 -1.4738 -0.7515
13368TIP3    H261520   5.088   1.315   4.947 -0.6281  0.2605  0.1962
13369TIP3   OH261521   5.119   2.525  17.212 -0.4482 -0.1434  0.2336
13369TIP3    H161522   5.121   2.612  17.172 -0.1941  0.0480  0.6546
13369TIP3    H261523   5.128   2.465  17.138  0.3320  0.2143  0.0231
13370TIP3   OH261524   4.082   3.980   1.919  0.2688  0.1589 -0.2340
13370TIP3    H161525   4.064   3.902   1.973 -0.1887  0.8228  0.5965
13370TIP3    H261526   4.055   4.054   1.974 -1.3749  0.8245 -1.8048
13371TIP3   OH261527   1.892   2.328   6.174  0.6505  0.5423  0.4277
13371TIP3    H161528   1.891   2.374   6.258  0.7119  1.3130  0.0184
13371TIP3    H261529   1.899   2.398   6.109 -0.3042  0.0129 -0.2660
13372TIP3   OH261530   5.086   3.242  16.258  0.0654 -0.0341  0.8624
13372TIP3    H161531   5.101   3.177  16.327 -0.2465 -1.7252 -0.5914
13372TIP3    H261532   5.108   3.196  16.177  0.2376  1.8337 -0.1967
13373TIP3   OH261533   4.220   5.449  11.476  0.2626 -0.6396 -0.3111
13373TIP3    H161534   4.151   5.486  11.421 -0.6413 -2.0419 -0.1847
13373TIP3    H261535   4.175   5.425  11.557  1.4126  0.6534  0.7439
13374TIP3   OH261536   0.703   5.333   6.569  0.3141 -0.9324 -0.1101
13374TIP3    H161537   0.777   5.336   6.507 -0.4048 -1.3246 -1.0226
13374TIP3    H261538   0.663   5.247   6.553 -2.6152  0.6541 -2.3997
13375TIP3   OH261539   0.562   2.845  16.866 -0.5541  0.0366 -0.5431
13375TIP3    H161540   0.508   2.843  16.945 -1.2093 -0.0988 -0.9836
13375TIP3    H261541   0.566   2.938  16.843 -0.1364  0.1049 -0.2022
13376TIP3   OH261542   6.633   5.798  16.256 -0.2710  0.5019  0.0154
13376TIP3    H161543   6.588   5.868  16.303  0.5507 -0.7910  2.9868
13376TIP3    H261544   6.695   5.763  16.320  2.7925  0.1844 -2.8970
13377TIP3   OH261545   2.715   4.786  15.003  0.9085  0.1798 -0.1414
13377TIP3    H161546   2.795   4.800  15.054 -0.0014  1.0524  1.1061
13377TIP3    H261547   2.647   4.773  15.069 -0.0581 -0.2147 -1.1773
13378TIP3   OH261548   0.932   1.419   3.990  1.1162 -0.5909 -0.8535
13378TIP3    H161549   0.954   1.397   4.081  0.9623 -1.3777 -1.0012
13378TIP3    H261550   1.016   1.424   3.945  1.1998 -0.0958 -0.6538
13379TIP3   OH261551   5.306   4.983   4.294 -0.2447 -1.1260 -0.1338
13379TIP3    H161552   5.368   4.994   4.366 -0.5735 -1.5307  0.2101
13379TIP3    H261553   5.227   4.947   4.334 -1.2567  0.7576 -0.3061
13380TIP3   OH261554   5.088   3.947   1.608  0.7928 -0.3984  0.2074
13380TIP3    H161555   5.051   4.005   1.541 -1.1962 -0.7872  0.8856
13380TIP3    H261556   5.169   3.915   1.570  0.7619  1.0078 -1.1499
13381TIP3   OH261557   1.677   4.140   6.854 -0.2568 -0.4758 -0.5346
13381TIP3    H161558   1.674   4.235   6.866 -0.8738 -0.4334 -0.9855
13381TIP3    H261559   1.758   4.125   6.806  1.5212 -0.5122  2.2649
13382TIP3   OH261560   0.831   3.689  15.178  0.0065 -0.4025 -0.3567
13382TIP3    H161561   0.769   3.760  15.193  0.5629  0.2568 -1.0924
13382TIP3    H261562   0.898   3.701  15.245 -0.1822 -0.5671 -0.1368
13383TIP3   OH261563   2.902   0.756   5.626  0.5667 -0.4036 -0.8461
13383TIP3    H161564   2.881   0.672   5.586  1.6497  0.4982 -3.6013
13383TIP3    H261565   2.991   0.746   5.658  1.0314 -0.1183 -1.9743
13384TIP3   OH261566   3.249   0.682   1.130  0.6775 -0.3780  0.4852
13384TIP3    H161567   3.158   0.673   1.100  0.0482  2.1019  1.4234
13384TIP3    H261568   3.279   0.764   1.092  3.4436 -2.2702 -1.7829
13385TIP3   OH261569   4.385   0.488   3.451 -0.0870 -0.6913  0.3181
13385TIP3    H161570   4.464   0.444   3.481  0.1643 -0.6799 -0.3225
13385TIP3    H261571   4.412   0.579   3.435 -0.1135 -0.8000 -0.3574
13386TIP3   OH261572   3.941   3.174   6.407 -0.0246  0.0722  0.6062
13386TIP3    H161573   3.954   3.188   6.501 -2.1688 -0.4444  1.0414
13386TIP3    H261574   4.024   3.137   6.376  0.6710  0.0979  2.3249
13387TIP3   OH261575   6.089   6.224   5.963 -0.1752 -0.3035  0.1551
13387TIP3    H161576   6.075   6.180   5.879  0.6992 -0.9091  0.3089
13387TIP3    H261577   6.033   6.177   6.024 -0.5852 -0.0559 -0.0261
13388TIP3   OH261578   3.032   1.190   0.026 -0.0640  0.0974 -0.5187
13388TIP3    H161579   2.943   1.170   0.054 -0.6927  0.6241 -2.0523
13388TIP3    H261580   3.042   1.146  -0.058  1.1878 -0.0852 -0.2944
13389TIP3   OH261581   5.878   1.550  15.204  0.4292 -0.1265  0.0994
13389TIP3    H161582   5.797   1.514  15.169 -0.1075  1.0185  0.0865
13389TIP3    H261583   5.907   1.614  15.138  1.4105 -0.6052  0.0486
13390TIP3   OH261584   4.262   4.792  11.888 -0.7134 -0.0056  0.4337
13390TIP3    H161585   4.351   4.822  11.908  0.6207 -3.1149 -0.2028
13390TIP3    H261586   4.260   4.787  11.793 -1.3529 -0.4627  0.4655
13391TIP3   OH261587   0.959   3.088  12.827 -0.2075 -0.2064 -0.2863
13391TIP3    H161588   1.016   3.164  12.820  2.0736 -1.8426 -0.5235
13391TIP3    H261589   0.954   3.070  12.921 -0.4599  0.0308 -0.2540
13392TIP3   OH261590   5.955   4.022  10.796 -0.5421  0.6220  0.4650
13392TIP3    H161591   5.911   4.106  10.798  1.2508  1.5952  1.0241
13392TIP3    H261592   6.048   4.043  10.807 -0.0472 -1.4210  0.5939
13393TIP3   OH261593   1.524   5.544  13.339  0.1970 -0.9610 -0.3283
13393TIP3    H161594   1.615   5.558  13.367 -0.5736  1.1719  1.3883
13393TIP3    H261595   1.490   5.477  13.398  0.0908 -0.2863  0.3870
13394TIP3   OH261596   1.257   0.418  14.670  0.1342 -0.0711 -0.1118
13394TIP3    H161597   1.181   0.388  14.720 -0.0490  0.8955  0.1957
13394TIP3    H261598   1.279   0.343  14.614 -1.0360 -0.3647 -0.2016
13395TIP3   OH261599   6.640   6.777  10.432 -0.2869 -0.3392  0.5155
13395TIP3    H161600   6.600   6.863  10.419  0.3870 -0.3303 -2.0809
13395TIP3    H261601   6.723   6.796  10.477 -0.3880  0.3311  0.4330
13396TIP3   OH261602   5.765   5.295  17.208 -0.0890 -0.4698 -0.2676
13396TIP3    H161603   5.751   5.389  17.197  1.1659 -0.3201 -0.7169
13396TIP3    H261604   5.716   5.255  17.137  0.7981 -0.0362 -1.1442
13397TIP3   OH261605   0.082   3.746   6.185  0.2316 -0.0263 -0.1863
13397TIP3    H161606   0.170   3.766   6.215 -0.0866  0.2529  0.5868
13397TIP3    H261607   0.045   3.690   6.255  0.5415 -1.9914 -1.5056
13398TIP3   OH261608   1.394   1.656   3.250 -0.1767 -0.1259 -0.3831
13398TIP3    H161609   1.453   1.720   3.211 -1.0395  0.5288 -0.6469
13398TIP3    H261610   1.384   1.684   3.341  1.0967 -1.1152  0.0900
13399TIP3   OH261611   2.506   5.676   5.832  0.0503 -0.3896  0.5706
13399TIP3    H161612   2.449   5.677   5.910 -0.3954  0.1565  0.2389
13399TIP3    H261613   2.526   5.768   5.816 -1.6118 -0.2718 -1.2225
13400TIP3   OH261614   5.574   1.126  12.368 -0.4724  0.6521 -0.3614
13400TIP3    H161615   5.668   1.144  12.373  0.0264 -1.8006  0.4817
13400TIP3    H261616   5.532   1.203  12.406  1.3153  0.9075  1.2060
13401TIP3   OH261617   1.335   0.839  10.655  0.2125 -0.5467  0.1558
13401TIP3    H161618   1.334   0.928  10.692  1.3042 -0.7169  0.6211
13401TIP3    H261619   1.425   0.826  10.627 -0.2001 -1.1049 -0.9415
13402TIP3   OH261620   5.054   3.986   5.769 -0.3735  0.0724  0.1011
13402TIP3    H161621   4.964   3.969   5.743 -0.3593  0.2597 -0.0827
13402TIP3    H261622   5.048   4.020   5.858 -0.4512 -0.2805  0.2303
13403TIP3   OH261623   2.266   2.369  11.559  0.0256  0.2194  0.6782
13403TIP3    H161624   2.263   2.296  11.621  1.3074  0.7053  1.3665
13403TIP3    H261625   2.292   2.329  11.476 -2.5586 -0.5651  0.1894
13404TIP3   OH261626   0.206   2.325  15.484 -0.2706 -0.1680 -0.2339
13404TIP3    H161627   0.162   2.404  15.516  0.9379  0.2771  0.3732
13404TIP3    H261628   0.150   2.294  15.413 -0.8058  1.1852 -0.4303
13405TIP3   OH261629   6.043   5.106  13.565  0.2523 -0.0009 -0.0636
13405TIP3    H161630   5.998   5.121  13.648  1.7772  2.1271  0.4583
13405TIP3    H261631   6.017   5.017  13.539  0.0355 -0.8739  2.8472
13406TIP3   OH261632   6.696   4.484   5.493  0.1902 -0.3728  0.6931
13406TIP3    H161633   6.724   4.443   5.575  1.0224  0.1402  0.6849
13406TIP3    H261634   6.778   4.503   5.447 -0.1930  0.8050  0.4643
13407TIP3   OH261635   4.809   4.614   3.411 -0.1239  0.8638 -0.6836
13407TIP3    H161636   4.817   4.695   3.462  2.6986  0.3921 -0.2056
13407TIP3    H261637   4.784   4.548   3.475 -2.2537  1.2679 -1.0416
13408TIP3   OH261638   1.061   3.913   0.334  0.6984  0.2064  0.0184
13408TIP3    H161639   1.082   3.831   0.380  0.5868  0.5972  0.7793
13408TIP3    H261640   1.144   3.959   0.329  0.3541  1.1142  1.7595
13409TIP3   OH261641   2.457   1.467  13.847  0.0583 -0.4346 -0.0972
13409TIP3    H161642   2.482   1.497  13.760 -1.5380 -2.2229 -1.2574
13409TIP3    H261643   2.365   1.494  13.856  0.5574  0.8765  1.6246
13410TIP3   OH261644   1.363   1.921  12.040 -0.5640  0.0024 -0.1092
13410TIP3    H161645   1.290   1.874  12.081 -1.5977  0.6779 -1.1143
13410TIP3    H261646   1.385   1.870  11.962  0.5018 -0.5538  0.5323
13411TIP3   OH261647   4.196   1.030  15.694  0.9846  0.0133  0.5750
13411TIP3    H161648   4.243   1.019  15.611  0.2073 -0.3493  0.1709
13411TIP3    H261649   4.252   1.088  15.745  0.7045  1.5840 -0.8066
13412TIP3   OH261650   5.247   4.954  14.156  0.0710  0.1165 -0.0675
13412TIP3    H161651   5.321   4.995  14.112 -0.4661  1.4706  0.2625
13412TIP3    H261652   5.199   5.026  14.197 -0.7786 -0.8544  0.7237
13413TIP3   OH261653   5.325   2.902  12.654  0.3286  0.3064 -0.2990
13413TIP3    H161654   5.274   2.946  12.721 -1.7119  0.9166 -2.1396
13413TIP3    H261655   5.387   2.969  12.623  0.1783  0.5210 -0.1355
13414TIP3   OH261656   3.769   2.387  13.214 -0.1973  0.1521 -0.3109
13414TIP3    H161657   3.696   2.332  13.187  0.4671 -0.3825 -1.0384
13414TIP3    H261658   3.730   2.473  13.229 -1.0668 -0.2654 -0.1505
13415TIP3   OH261659   3.515   6.592   5.375  0.3747  0.1045 -0.6427
13415TIP3    H161660   3.531   6.685   5.359 -0.7626  1.2672  3.5549
13415TIP3    H261661   3.598   6.560   5.411  0.8209 -0.6473 -2.2426
13416TIP3   OH261662   2.396   6.258   4.229 -0.8272  0.4006 -0.5744
13416TIP3    H161663   2.489   6.275   4.217 -0.7729  0.2023 -0.4371
13416TIP3    H261664   2.357   6.275   4.143 -0.8176  1.4646 -0.3845
13417TIP3   OH261665   3.358   5.030   6.011 -0.2732 -0.0447  0.6444
13417TIP3    H161666   3.431   4.976   6.044  0.8603  1.0398 -0.0347
13417TIP3    H261667   3.339   5.090   6.083  1.6230  1.7413 -0.2533
13418TIP3   OH261668   4.775   6.027   1.916 -0.0956  0.6094 -0.2197
13418TIP3    H161669   4.821   6.016   1.999 -0.6803  0.6514  0.1086
13418TIP3    H261670   4.725   6.108   1.926  1.4168  1.7577 -1.3460
13419TIP3   OH261671   0.729   4.853  12.441  0.5592 -0.1279  0.3748
13419TIP3    H161672   0.822   4.843  12.418  1.1692  3.6649  0.6143
13419TIP3    H261673   0.682   4.810  12.369  2.4537 -1.0635 -0.3832
13420TIP3   OH261674   3.706   0.688   1.544 -0.1350 -0.2035  0.0662
13420TIP3    H161675   3.667   0.691   1.457 -1.9848 -0.5716  0.8308
13420TIP3    H261676   3.764   0.764   1.546  1.0083 -0.9429 -1.9141
13421TIP3   OH261677   4.862   6.229  11.305  0.1851  0.3724  0.3987
13421TIP3    H161678   4.937   6.263  11.355  1.5085 -3.3619  1.3206
13421TIP3    H261679   4.788   6.238  11.365  1.1431 -1.1995  1.9303
13422TIP3   OH261680   5.690   4.826  10.993 -0.0092 -0.7031  0.1024
13422TIP3    H161681   5.719   4.745  10.951 -2.9955 -0.5728 -2.5782
13422TIP3    H261682   5.630   4.797  11.062 -0.4293 -0.8329 -0.3083
13423TIP3   OH261683   1.381   0.176   4.590  0.1568  0.7202 -0.7218
13423TIP3    H161684   1.464   0.192   4.547  0.4612  0.6629 -0.1641
13423TIP3    H261685   1.387   0.224   4.673 -0.2389  0.4547 -0.5348
13424TIP3   OH261686   0.997   6.205   4.860 -0.4316  0.7496  0.2789
13424TIP3    H161687   0.957   6.252   4.786  1.4691  2.3689  0.1670
13424TIP3    H261688   0.984   6.263   4.935 -0.0064  0.3999  0.6273
13425TIP3   OH261689   0.065   4.224   4.605 -0.0718 -0.3323 -0.7929
13425TIP3    H161690   0.048   4.199   4.514  0.5176  0.8898 -1.2603
13425TIP3    H261691   0.117   4.151   4.640 -1.7851 -1.6594 -0.8645
13426TIP3   OH261692   6.075   6.366   0.503  0.2556 -0.1987 -0.1212
13426TIP3    H161693   6.152   6.413   0.533 -0.0899  0.8304 -0.7878
13426TIP3    H261694   6.022   6.353   0.582  0.5414  0.1829  0.1326
13427TIP3   OH261695   1.151   5.865  10.912  0.1642 -0.1190  0.0890
13427TIP3    H161696   1.065   5.850  10.873  0.0026 -0.3654  0.5416
13427TIP3    H261697   1.191   5.933  10.856  0.4704 -1.4000 -1.3217
13428TIP3   OH261698   1.582   4.244  13.510  0.3016  0.2954 -0.0162
13428TIP3    H161699   1.526   4.166  13.513  1.3845 -0.7674 -3.1211
13428TIP3    H261700   1.552   4.292  13.433  0.3900  2.4385  1.2148
13429TIP3   OH261701   2.922   4.737  17.187  0.7372 -0.2837  0.3203
13429TIP3    H161702   2.897   4.817  17.233 -4.0053 -0.5391 -1.3145
13429TIP3    H261703   2.948   4.766  17.100 -1.0523 -0.4573 -0.2956
13430TIP3   OH261704   3.405   0.062   2.013  0.2511 -0.0761  0.4355
13430TIP3    H161705   3.432   0.025   2.097 -1.4805  0.9539  1.4892
13430TIP3    H261706   3.331   0.118   2.033 -0.7553 -0.4203 -1.9090
13431TIP3   OH261707   1.978   1.540  13.491  0.4579  0.1904 -0.1082
13431TIP3    H161708   2.033   1.618  13.489  0.5789  0.1119  0.0792
13431TIP3    H261709   1.897   1.567  13.448  0.5308  0.3955 -0.1195
13432TIP3   OH261710   0.750   4.529   3.595 -0.0110 -0.1373  0.0104
13432TIP3    H161711   0.739   4.569   3.681  1.1301 -1.6013  0.8795
13432TIP3    H261712   0.770   4.437   3.614  1.8311 -0.1599 -1.7584
13433TIP3   OH261713   5.517   6.568  16.046  0.0607 -0.6869  0.2341
13433TIP3    H161714   5.563   6.536  15.969  1.7088 -0.2554  0.9901
13433TIP3    H261715   5.566   6.532  16.120 -1.9810 -1.8211  1.1386
13434TIP3   OH261716   5.364   4.397  12.558  0.5840 -0.1474  0.1924
13434TIP3    H161717   5.387   4.481  12.519 -0.7788  0.1010 -0.1332
13434TIP3    H261718   5.363   4.414  12.652 -1.6345  0.8063  0.0836
13435TIP3   OH261719   2.041   4.460  12.942  0.2204 -0.2934 -0.2381
13435TIP3    H161720   2.077   4.401  13.009  0.8727  0.1422 -0.2023
13435TIP3    H261721   2.033   4.544  12.987 -1.9103 -0.6197  0.0974
13436TIP3   OH261722   1.973   5.680  16.888  0.0311 -0.0795  0.6065
13436TIP3    H161723   1.886   5.639  16.882 -0.4116  0.8182  0.6212
13436TIP3    H261724   1.971   5.749  16.821  0.7001  0.0220  0.6859
13437TIP3   OH261725   0.444   4.228  13.071 -0.5625 -0.0743 -0.5672
13437TIP3    H161726   0.410   4.210  12.983  0.4331 -0.7881 -0.8235
13437TIP3    H261727   0.536   4.248  13.057 -0.5203  0.3470  0.2685
13438TIP3   OH261728   5.392   5.034   0.450  0.4210  0.2804 -0.0021
13438TIP3    H161729   5.478   5.010   0.486  0.1678  1.6451  1.6288
13438TIP3    H261730   5.406   5.120   0.410  0.0581 -0.0046 -0.7478
13439TIP3   OH261731   3.258   6.136   2.126 -0.5445 -0.5311 -0.3680
13439TIP3    H161732   3.311   6.193   2.071 -1.8498 -0.5238 -1.6775
13439TIP3    H261733   3.253   6.053   2.078 -0.6022 -0.9787  0.3904
13440TIP3   OH261734   5.630   4.072   3.707  0.0645  0.0412 -0.3711
13440TIP3    H161735   5.650   3.985   3.742  1.2360 -0.5139 -2.2705
13440TIP3    H261736   5.547   4.060   3.660 -1.4335  0.7535  1.9158
13441TIP3   OH261737   5.472   5.662   1.046  0.3334  0.3699  0.3990
13441TIP3    H161738   5.523   5.740   1.070  0.1793  0.5127  0.2726
13441TIP3    H261739   5.381   5.689   1.058  0.2510  0.4843 -0.4542
13442TIP3   OH261740   2.867   3.459  14.701 -0.1498  0.0705  0.3935
13442TIP3    H161741   2.886   3.378  14.654  1.0910  1.0327 -0.8284
13442TIP3    H261742   2.907   3.528  14.648  0.3750  1.3249  2.3097
13443TIP3   OH261743   2.363   0.398   1.390 -0.3400 -0.3305  0.1184
13443TIP3    H161744   2.409   0.384   1.307  0.8911  0.6890  0.5987
13443TIP3    H261745   2.430   0.386   1.457 -0.6192  1.6417  0.8260
13444TIP3   OH261746   3.066   1.534  13.831 -0.2451 -0.3092 -0.4016
13444TIP3    H161747   3.096   1.540  13.741  0.3551  3.6981 -0.1436
13444TIP3    H261748   3.135   1.485  13.877  0.3153 -0.8469 -1.7697
13445TIP3   OH261749   2.988   4.974   4.266  0.1222  0.1497  0.1455
13445TIP3    H161750   3.026   4.920   4.336  0.4719 -0.4724 -0.5143
13445TIP3    H261751   3.059   4.985   4.203  0.0381  1.3452  0.2353
13446TIP3   OH261752   0.110   6.306  12.156  0.0480  0.2735  0.2012
13446TIP3    H161753   0.164   6.337  12.083 -0.3827  0.5211 -0.0156
13446TIP3    H261754   0.020   6.322  12.128 -0.1166  0.5389  0.8596
13447TIP3   OH261755   4.747   2.792   4.193 -0.0234 -0.1103  0.0869
13447TIP3    H161756   4.651   2.795   4.183 -0.1209  0.2511  1.0163
13447TIP3    H261757   4.769   2.876   4.233  0.4705 -0.8876  1.5059
13448TIP3   OH261758   1.562   3.151   6.308 -0.0892  0.3386  0.2989
13448TIP3    H161759   1.479   3.155   6.259 -0.3806 -0.5795  0.6970
13448TIP3    H261760   1.604   3.071   6.278  0.3042  0.4046  0.6611
13449TIP3   OH261761   3.448   4.323   5.466  0.2602 -0.0492 -0.8068
13449TIP3    H161762   3.517   4.319   5.399  0.0392  0.7576 -1.0963
13449TIP3    H261763   3.493   4.357   5.544  0.3545 -0.2618 -0.7679
13450TIP3   OH261764   2.790   0.328   0.901 -0.1778 -0.2293  0.4651
13450TIP3    H161765   2.844   0.344   0.978  0.3100  0.0842  0.0648
13450TIP3    H261766   2.847   0.279   0.842 -0.5272 -0.4151  0.2774
13451TIP3   OH261767   1.585   3.567   2.467 -0.2605 -0.1603  0.3865
13451TIP3    H161768   1.625   3.653   2.483  3.3800 -1.7358  0.7444
13451TIP3    H261769   1.556   3.538   2.554 -2.0869  0.8826  0.1710
13452TIP3   OH261770   5.417   2.838   2.587  0.2676 -0.2229 -0.1728
13452TIP3    H161771   5.469   2.915   2.564  1.4727 -0.7687  0.6139
13452TIP3    H261772   5.326   2.867   2.577  0.6801  1.4009  0.3749
13453TIP3   OH261773   5.097   0.932  15.088  0.0369 -0.3717 -0.4780
13453TIP3    H161774   5.062   0.849  15.055 -0.6813 -0.9924  1.7034
13453TIP3    H261775   5.116   0.915  15.180 -1.9234  2.4220  0.5629
13454TIP3   OH261776   2.384   0.640  16.092  0.0482 -0.1353  0.2664
13454TIP3    H161777   2.365   0.728  16.060 -1.1319  0.2888  2.0027
13454TIP3    H261778   2.475   0.625  16.066  0.5059  1.8736  0.5056
13455TIP3   OH261779   1.631   5.792  16.621  0.7882 -0.2462 -0.0011
13455TIP3    H161780   1.538   5.780  16.640  0.6611  1.0838  0.3135
13455TIP3    H261781   1.638   5.883  16.592  1.9458 -0.4318 -0.3578
13456TIP3   OH261782   4.608   2.404   1.532  0.3254 -0.3256  0.2256
13456TIP3    H161783   4.535   2.456   1.499  0.7860 -0.4418 -1.0665
13456TIP3    H261784   4.621   2.336   1.466  0.6062 -1.2517  1.2146
13457TIP3   OH261785   6.219   6.604  15.825  0.0868 -0.4339  0.7012
13457TIP3    H161786   6.279   6.676  15.803  1.0013 -0.2434  3.4798
13457TIP3    H261787   6.135   6.647  15.837 -0.3740 -0.4940 -1.7085
13458TIP3   OH261788   0.789   5.558   2.696 -0.4328 -0.0757 -0.2330
13458TIP3    H161789   0.733   5.524   2.765  0.1684 -0.3558  0.1220
13458TIP3    H261790   0.785   5.653   2.707  0.4680 -0.1462  0.8523
13459TIP3   OH261791   0.738   3.754   3.639 -0.4511 -0.1905 -0.3092
13459TIP3    H161792   0.821   3.710   3.657 -0.3931  0.2566  0.5713
13459TIP3    H261793   0.699   3.704   3.568  0.5622 -0.4193 -0.7208
13460TIP3   OH261794   1.168   3.960  11.327  0.1382  0.6947  0.0485
13460TIP3    H161795   1.151   3.873  11.363 -0.4372  0.7461 -0.0904
13460TIP3    H261796   1.262   3.973  11.340  0.6183 -0.7179 -1.6514
13461TIP3   OH261797   5.152   2.326   4.975 -0.3293 -0.0739  0.0841
13461TIP3    H161798   5.176   2.416   4.998  0.7119 -0.5849  1.1014
13461TIP3    H261799   5.129   2.331   4.882  2.2003  0.8020 -0.5805
13462TIP3   OH261800   4.046   1.297  14.816  0.3191 -0.2037 -0.1378
13462TIP3    H161801   4.090   1.339  14.890 -0.9575 -0.0253  0.5519
13462TIP3    H261802   3.985   1.235  14.856 -0.6453  0.1489 -1.0145
13463TIP3   OH261803   0.350   2.180  10.865 -0.4145 -0.6695  0.5186
13463TIP3    H161804   0.392   2.152  10.784 -3.2226 -0.4914 -1.0974
13463TIP3    H261805   0.414   2.160  10.933  1.0226 -3.2191 -1.4343
13464TIP3   OH261806   3.881   1.000   4.565  0.1478  0.3887 -0.6213
13464TIP3    H161807   3.956   1.059   4.555  3.2162 -2.2794  3.1807
13464TIP3    H261808   3.899   0.927   4.506  2.5613 -1.7094  2.3679
13465TIP3   OH261809   3.604   5.240   5.731  0.1833  0.2673 -0.2655
13465TIP3    H161810   3.639   5.302   5.668 -0.1052  0.4574 -0.2398
13465TIP3    H261811   3.566   5.294   5.800  0.2890  0.0618 -0.0413
13466TIP3   OH261812   3.954   3.594  14.422  0.1307 -0.3796  0.3361
13466TIP3    H161813   3.977   3.652  14.350 -1.8165  2.1333  1.5772
13466TIP3    H261814   3.864   3.566  14.402 -1.0946  1.6750  2.4134
13467TIP3   OH261815   6.634   0.373   5.216 -0.3015 -0.2915  0.1877
13467TIP3    H161816   6.667   0.423   5.141 -0.7450  0.2493  0.3429
13467TIP3    H261817   6.591   0.439   5.271 -0.3194 -0.7475  0.7216
13468TIP3   OH261818   2.960   2.895   4.335  0.0902  0.2565  0.2015
13468TIP3    H161819   2.928   2.813   4.297  2.0549 -0.0082 -1.0101
13468TIP3    H261820   2.890   2.958   4.319 -0.6843 -0.7504 -0.5058
13469TIP3   OH261821   1.181   6.605   1.455  0.2339 -0.1600 -0.4474
13469TIP3    H161822   1.248   6.614   1.523 -0.8782 -1.1776  0.8479
13469TIP3    H261823   1.188   6.513   1.427  0.1241  0.0306 -1.1289
13470TIP3   OH261824   2.816   6.282  16.542 -0.0028 -0.0987 -0.2495
13470TIP3    H161825   2.801   6.296  16.449  1.3825  1.3804 -0.2952
13470TIP3    H261826   2.900   6.236  16.546 -0.2142 -0.4426  0.2502
13471TIP3   OH261827   3.707   3.080   5.404 -0.2234 -0.1124  0.1392
13471TIP3    H161828   3.749   3.144   5.346  1.1424 -1.4291 -0.4122
13471TIP3    H261829   3.617   3.111   5.414  0.2622  1.6177 -0.4798
13472TIP3   OH261830   1.129   6.256  11.757  0.6919  0.2563  0.1891
13472TIP3    H161831   1.108   6.300  11.674 -1.6546  0.6138  0.8817
13472TIP3    H261832   1.192   6.189  11.734 -0.4243 -0.1169 -2.0463
13473TIP3   OH261833   0.009   3.484  13.919  0.6254 -0.1387 -0.4016
13473TIP3    H161834  -0.074   3.504  13.962  0.2810  0.4389 -1.2919
13473TIP3    H261835   0.058   3.432  13.983 -0.4922 -0.6475  0.0587
13474TIP3   OH261836   1.653   0.610  15.124  0.6654 -0.0232 -0.0342
13474TIP3    H161837   1.704   0.627  15.203 -0.0341  1.1563  0.1866
13474TIP3    H261838   1.598   0.535  15.146 -1.0992  1.5899  1.4227
13475TIP3   OH261839   2.093   5.282   0.621 -0.2423  0.3536 -0.0306
13475TIP3    H161840   1.999   5.297   0.612 -0.2225  0.7096  0.3794
13475TIP3    H261841   2.128   5.302   0.534 -0.5702 -0.0050 -0.2533
13476TIP3   OH261842   3.951   1.214  11.037  0.1158 -0.4239  0.1348
13476TIP3    H161843   3.925   1.151  11.104 -1.1636  1.3527  1.4119
13476TIP3    H261844   3.881   1.280  11.038  1.3337  0.9682 -1.2132
13477TIP3   OH261845   3.399   1.043  16.301 -0.0323  0.1622 -0.4232
13477TIP3    H161846   3.319   1.093  16.317 -0.4015  0.2049 -2.1698
13477TIP3    H261847   3.467   1.110  16.288  0.2459  0.1300  0.7776
13478TIP3   OH261848   3.512   2.336   5.189 -0.0461  0.4796 -0.1857
13478TIP3    H161849   3.480   2.414   5.142  0.9112  0.9677 -0.0525
13478TIP3    H261850   3.440   2.273   5.183 -1.7650  2.1356  1.6032
13479TIP3   OH261851   0.385   6.104  12.592  0.4669 -0.0790  0.7107
13479TIP3    H161852   0.449   6.173  12.575  1.3491 -0.8503  0.7980
13479TIP3    H261853   0.409   6.070  12.679  0.2577 -0.7070  0.5322
13480TIP3   OH261854   0.344   4.741  13.309  0.3917  0.1114 -0.2135
13480TIP3    H161855   0.275   4.743  13.375  0.3393 -0.9354 -0.2171
13480TIP3    H261856   0.317   4.671  13.249 -0.6833  2.3481 -2.5862
13481TIP3   OH261857   0.098   2.054  13.552  0.2342  0.1551  0.0132
13481TIP3    H161858   0.184   2.086  13.577 -0.0126 -0.3241  1.6093
13481TIP3    H261859   0.051   2.131  13.521  0.4718  0.8854  1.4053
13482TIP3   OH261860   1.204   3.864   1.369 -0.2022 -0.4129 -0.2203
13482TIP3    H161861   1.184   3.938   1.427  0.6756 -0.2835 -0.0734
13482TIP3    H261862   1.120   3.844   1.327 -0.4454  0.7125 -0.3180
13483TIP3   OH261863   0.992   3.364   2.304  0.3061  0.0244  0.1216
13483TIP3    H161864   0.925   3.410   2.254  1.4901  1.1807 -0.4595
13483TIP3    H261865   1.022   3.427   2.369  1.2856 -0.2243 -0.0582
13484TIP3   OH261866   5.924   0.147  13.296  0.2073 -0.2361  0.5967
13484TIP3    H161867   5.847   0.174  13.245  1.0429  0.1482 -0.5112
13484TIP3    H261868   5.909   0.055  13.316  0.8500 -1.0933 -2.3621
13485TIP3   OH261869   5.555   3.386  13.284 -0.5738  0.6153  0.1673
13485TIP3    H161870   5.647   3.399  13.262 -0.0503  0.3889  2.0410
13485TIP3    H261871   5.507   3.429  13.213  0.9716  1.5590 -0.3581
13486TIP3   OH261872   6.135   2.094   3.336 -0.3338 -0.6085 -0.1484
13486TIP3    H161873   6.207   2.138   3.381 -0.3059 -0.5176 -0.2845
13486TIP3    H261874   6.067   2.160   3.328  0.4511  0.0054 -2.1458
13487TIP3   OH261875   6.606   5.025   5.064 -0.1113  0.4727 -0.4297
13487TIP3    H161876   6.685   4.975   5.042 -1.1974 -1.7149  0.3784
13487TIP3    H261877   6.639   5.112   5.086  2.2798 -0.7208  1.2235
13488TIP3   OH261878   0.326   2.106  16.386 -0.4792  0.2640  0.1710
13488TIP3    H161879   0.276   2.039  16.432 -0.0749 -1.7386 -2.0681
13488TIP3    H261880   0.412   2.104  16.427 -0.8124  0.2823  0.8908
13489TIP3   OH261881   0.091   4.923  10.893 -0.5706  0.1036  0.0330
13489TIP3    H161882   0.095   5.018  10.881 -1.8258  0.1459 -0.1520
13489TIP3    H261883   0.182   4.894  10.884 -0.2045  1.2526 -0.1432
13490TIP3   OH261884   0.994   0.579  12.332 -0.7972 -0.3670  0.5908
13490TIP3    H161885   1.009   0.486  12.349 -1.2779 -0.6394 -0.4326
13490TIP3    H261886   1.020   0.592  12.241 -0.7421  0.5091  0.7197
13491TIP3   OH261887   4.903   0.856   4.261 -0.4968  0.2688  0.6699
13491TIP3    H161888   4.958   0.883   4.336  0.1291  0.1576  0.2615
13491TIP3    H261889   4.966   0.836   4.192 -0.9991 -1.0420  0.5674
13492TIP3   OH261890   0.090   5.592   2.897  0.0416  0.4115 -0.1193
13492TIP3    H161891   0.162   5.628   2.846  0.3073 -0.8930 -0.6731
13492TIP3    H261892   0.012   5.606   2.842 -0.0532  1.1964  0.1883
13493TIP3   OH261893   2.613   0.635  11.342  0.5922  0.6256 -0.0798
13493TIP3    H161894   2.658   0.608  11.262 -0.7210  0.9803 -0.9813
13493TIP3    H261895   2.655   0.717  11.367  1.8755 -0.1460  0.3505
13494TIP3   OH261896   5.398   1.073  16.491 -0.7430 -0.1080  0.0167
13494TIP3    H161897   5.359   1.158  16.513  0.4641  0.8962 -1.5481
13494TIP3    H261898   5.364   1.053  16.404 -0.1798 -0.7171 -0.0678
13495TIP3   OH261899   4.383   4.068  16.808  0.6828  0.2887  0.0782
13495TIP3    H161900   4.402   4.008  16.880  0.0114  0.6679  0.5763
13495TIP3    H261901   4.318   4.129  16.843 -1.5353 -0.9836 -1.5939
13496TIP3   OH261902   1.370   4.356  15.992 -0.1264 -0.3405  0.0527
13496TIP3    H161903   1.342   4.370  16.083  2.4304  0.1161  0.8309
13496TIP3    H261904   1.408   4.268  15.992  1.9014  0.5059 -0.0034
13497TIP3   OH261905   3.483   0.640   4.507 -0.2071  0.6559  0.4485
13497TIP3    H161906   3.557   0.605   4.557 -0.3513  0.8018  0.7658
13497TIP3    H261907   3.521   0.703   4.447  0.1567 -0.5269 -0.6209
13498TIP3   OH261908   3.866   0.778  14.119 -0.0059 -0.1216 -0.1061
13498TIP3    H161909   3.934   0.764  14.185 -1.2108 -0.3969  1.1111
13498TIP3    H261910   3.785   0.756  14.163 -1.1422  2.3181 -0.8168
13499TIP3   OH261911   3.348   2.944   5.800  0.0432 -0.2579  0.4251
13499TIP3    H161912   3.377   2.857   5.772 -0.0820 -1.0198  2.4999
13499TIP3    H261913   3.253   2.940   5.799 -0.0224  0.5771 -1.4418
13500TIP3   OH261914   4.892   0.016   2.010 -0.2152  0.0126 -0.4415
13500TIP3    H161915   4.797   0.007   2.010 -0.4904  2.2187 -1.1766
13500TIP3    H261916   4.907   0.111   2.006  2.0058 -0.3342 -2.6704
13501TIP3   OH261917   3.438   4.040  17.183  0.4351  0.2568 -0.3897
13501TIP3    H161918   3.348   4.033  17.151  0.2639 -0.0802  0.1469
13501TIP3    H261919   3.455   4.135  17.187  0.8332  0.3191 -2.4358
13502TIP3   OH261920   5.284   2.288   4.619 -0.1387 -0.0028  0.3189
13502TIP3    H161921   5.352   2.336   4.666  0.5115 -1.2554  0.7164
13502TIP3    H261922   5.209   2.288   4.677 -1.0418  2.6038 -0.6934
13503TIP3   OH261923   3.800   4.596   5.378  0.2239 -0.4277 -0.3820
13503TIP3    H161924   3.842   4.670   5.422  0.6411 -0.8994  0.0221
13503TIP3    H261925   3.872   4.541   5.348 -0.0870 -0.7251 -0.5938
13504TIP3   OH261926   5.718   6.495   4.715 -0.3325 -0.8425 -0.4382
13504TIP3    H161927   5.751   6.568   4.662  0.0762 -0.3488  0.4665
13504TIP3    H261928   5.623   6.495   4.701 -0.4438  0.4046  0.1987
13505TIP3   OH261929   6.508   6.745  12.385  0.4721  0.1338  0.1965
13505TIP3    H161930   6.574   6.813  12.376  3.2995 -2.2359  1.4281
13505TIP3    H261931   6.458   6.769  12.463  1.3681  0.8520  0.5642
13506TIP3   OH261932   5.520   4.115  13.123  0.1021 -0.3490 -0.1488
13506TIP3    H161933   5.472   4.136  13.204  0.8810 -0.1169  0.2580
13506TIP3    H261934   5.538   4.200  13.084 -1.0171 -0.4870 -1.0245
13507TIP3   OH261935   1.833   6.270   0.889  0.1032 -0.0142  0.3601
13507TIP3    H161936   1.766   6.240   0.828  0.1116 -0.1133  0.3998
13507TIP3    H261937   1.862   6.191   0.934 -2.3426  0.4138  3.0006
13508TIP3   OH261938   6.322   5.203  16.721  0.2672  0.1811  0.1064
13508TIP3    H161939   6.303   5.270  16.787  0.0126 -0.6487  0.8872
13508TIP3    H261940   6.370   5.135  16.768 -0.0517 -0.4959 -0.5252
13509TIP3   OH261941   1.232   2.480   0.027 -0.2708  0.3661 -0.4620
13509TIP3    H161942   1.221   2.475  -0.068  0.2320  0.8289 -0.5550
13509TIP3    H261943   1.208   2.570   0.049  0.5803  0.5670 -0.3033
13510TIP3   OH261944   4.408   6.056  14.596  0.1372 -0.6371  0.3943
13510TIP3    H161945   4.481   6.117  14.606  0.9726 -1.1495 -1.8475
13510TIP3    H261946   4.330   6.111  14.596  0.8220  0.3932 -0.9129
13511TIP3   OH261947   1.537   4.720  12.066 -0.0989 -0.1384  0.3939
13511TIP3    H161948   1.475   4.792  12.070 -2.1855 -1.7391 -0.8618
13511TIP3    H261949   1.561   4.715  11.974  0.0160 -1.0373  0.4673
13512TIP3   OH261950   2.506   4.207  11.122  0.0926  0.2867 -0.3280
13512TIP3    H161951   2.568   4.280  11.125  1.4550 -0.7598 -1.6228
13512TIP3    H261952   2.420   4.249  11.124  0.8381  1.9019 -0.5250
13513TIP3   OH261953   0.883   2.745  14.655  0.5768 -0.0348  0.5126
13513TIP3    H161954   0.841   2.829  14.671 -0.4999 -0.2928 -0.7585
13513TIP3    H261955   0.950   2.765  14.588  0.3173 -0.1870  0.2076
13514TIP3   OH261956   2.122   4.100   3.530  0.3704 -0.2010  0.1847
13514TIP3    H161957   2.108   4.188   3.566  0.3379 -0.0223 -0.2525
13514TIP3    H261958   2.109   4.041   3.604 -1.1835  0.0516  0.1339
13515TIP3   OH261959   6.136   2.249   0.509  0.5338 -0.0917 -0.0819
13515TIP3    H161960   6.114   2.341   0.495  0.3679 -0.1467 -0.1909
13515TIP3    H261961   6.097   2.204   0.434  0.9382 -0.2036 -0.2284
13516TIP3   OH261962   4.759   3.056  15.011  0.3266  0.2999 -0.2171
13516TIP3    H161963   4.828   2.992  14.992  0.4033  0.7354 -1.5035
13516TIP3    H261964   4.710   3.063  14.930 -0.8888  0.4400  0.5034
13517TIP3   OH261965   3.316   1.117   3.548  0.3186 -0.6960  0.1716
13517TIP3    H161966   3.225   1.109   3.519  0.8463 -0.2253 -1.7899
13517TIP3    H261967   3.354   1.183   3.489  2.8575 -3.4764 -1.6094
13518TIP3   OH261968   2.386   2.288   2.909  0.4956 -0.2728  0.1104
13518TIP3    H161969   2.445   2.362   2.926 -1.6397  1.5525  0.1137
13518TIP3    H261970   2.394   2.271   2.816 -0.2251  1.1937 -0.2605
13519TIP3   OH261971   1.855   2.099  16.954 -0.3383 -0.7300 -0.4596
13519TIP3    H161972   1.780   2.088  16.895  0.3722 -0.1826 -1.4781
13519TIP3    H261973   1.928   2.122  16.897  0.4969 -0.7278  0.5805
13520TIP3   OH261974   4.217   1.903   0.101 -0.0701  0.0468  0.5106
13520TIP3    H161975   4.283   1.897   0.170  1.9916  1.3350 -1.2221
13520TIP3    H261976   4.203   1.996   0.089 -1.2656 -0.1884 -0.0283
13521TIP3   OH261977   5.378   0.487   4.161 -0.3214 -0.1485  0.0347
13521TIP3    H161978   5.455   0.542   4.172  1.0714 -1.8549 -0.6482
13521TIP3    H261979   5.366   0.445   4.246  0.5120 -1.0803 -0.2883
13522TIP3   OH261980   3.914   4.781  13.237  0.1916 -0.2975 -0.0951
13522TIP3    H161981   3.901   4.690  13.262 -1.0329  0.2953  1.6783
13522TIP3    H261982   3.855   4.830  13.295  2.1739  1.7600  0.3331
13523TIP3   OH261983   2.658   5.467   1.287  0.0159  0.3084  0.5453
13523TIP3    H161984   2.742   5.467   1.331  0.4528  2.1682 -0.2159
13523TIP3    H261985   2.619   5.552   1.307 -1.2350 -0.1141  0.0471
13524TIP3   OH261986   4.574   6.595   5.552  0.1375  0.2036  0.4965
13524TIP3    H161987   4.623   6.621   5.630  0.7606 -0.5057  0.3446
13524TIP3    H261988   4.596   6.503   5.539 -1.5207 -0.2487  0.6373
13525TIP3   OH261989   5.407   3.192   1.222 -0.1615  0.8773  0.0683
13525TIP3    H161990   5.484   3.243   1.244 -0.4762  1.3688  0.0331
13525TIP3    H261991   5.381   3.150   1.304 -0.4798  1.5518  0.3132
13526TIP3   OH261992   0.010   2.965   4.629 -0.0224 -0.1037 -0.6608
13526TIP3    H161993  -0.037   3.030   4.683 -0.4804  0.1114 -1.3096
13526TIP3    H261994  -0.026   2.977   4.541  0.9837 -0.2062 -1.0946
13527TIP3   OH261995   6.144   3.231  16.548  0.2663  0.5440  0.3308
13527TIP3    H161996   6.203   3.215  16.474 -1.1669  1.5471 -1.0972
13527TIP3    H261997   6.071   3.171  16.533  0.8116 -0.6047  2.0177
13528TIP3   OH261998   1.394   0.463   5.936 -0.2028  0.0577  0.1915
13528TIP3    H161999   1.365   0.380   5.899 -0.1154 -0.5412  1.4077
13528TIP3    H262000   1.440   0.439   6.016 -1.9567  1.3971  1.6787
13529TIP3   OH262001   2.017   5.310   1.606 -0.0509  0.0999 -0.3464
13529TIP3    H162002   2.099   5.357   1.620 -0.6631  1.0524  0.1863
13529TIP3    H262003   1.950   5.378   1.611 -1.1173 -1.0075  1.9859
13530TIP3   OH262004   0.275   2.824   2.324 -0.3830 -0.1150 -0.4368
13530TIP3    H162005   0.361   2.861   2.343  0.7850 -2.7240 -0.1406
13530TIP3    H262006   0.229   2.827   2.407  0.0178 -0.1066 -0.2121
13531TIP3   OH262007   0.670   3.419  11.371 -0.0886 -0.2347  0.1275
13531TIP3    H162008   0.670   3.323  11.371 -1.9162 -0.2883  1.8697
13531TIP3    H262009   0.713   3.443  11.454  1.0891  0.5118 -0.6608
13532TIP3   OH262010   2.268   6.218  17.226  0.7649 -0.2937  0.1577
13532TIP3    H162011   2.208   6.287  17.252 -1.1677 -1.7389 -0.3046
13532TIP3    H262012   2.290   6.172  17.307  1.1882  0.1597  0.3066
13533TIP3   OH262013   4.835   5.144   1.468 -0.2446 -0.3810 -0.2669
13533TIP3    H162014   4.817   5.150   1.375  1.5025  0.0953 -0.6090
13533TIP3    H262015   4.871   5.056   1.480 -0.2316 -0.3520 -0.0869
13534TIP3   OH262016   5.735   6.598   3.636 -0.0138  0.6067 -0.9660
13534TIP3    H162017   5.775   6.519   3.600 -0.7380 -0.6783  0.8729
13534TIP3    H262018   5.674   6.627   3.567 -1.2977 -1.6954 -0.9133
13535TIP3   OH262019   5.627   3.243   5.208 -0.1303 -0.3283 -1.0047
13535TIP3    H162020   5.710   3.266   5.165  0.6553 -0.7013  0.2362
13535TIP3    H262021   5.615   3.312   5.274 -1.3268  0.2535 -1.8003
13536TIP3   OH262022   3.971   2.712   2.148  0.0546  0.1238 -0.1745
13536TIP3    H162023   4.031   2.638   2.144  2.4120  1.7830  1.7839
13536TIP3    H262024   3.920   2.696   2.227 -0.7384 -0.2632 -0.7448
13537TIP3   OH262025   6.160   5.114  12.076 -0.3400  0.4864 -0.5020
13537TIP3    H162026   6.219   5.189  12.068 -0.4879  0.5432 -1.0627
13537TIP3    H262027   6.084   5.148  12.123  0.3216  0.2665  0.7643
13538TIP3   OH262028   3.990   6.629   0.791  0.1998 -0.3806 -0.5621
13538TIP3    H162029   4.062   6.610   0.852  0.2738 -0.7027 -0.7443
13538TIP3    H262030   4.023   6.701   0.737 -0.2317  0.5445  0.3855
13539TIP3   OH262031   2.609   0.343  15.007 -0.1893  0.0111  0.4461
13539TIP3    H162032   2.671   0.416  15.012 -0.1019 -0.1156  1.2637
13539TIP3    H262033   2.664   0.266  14.992 -0.2467  0.0504  0.0225
13540TIP3   OH262034   6.553   3.263   3.714 -0.2718 -0.3379 -0.6060
13540TIP3    H162035   6.527   3.202   3.783  0.1562 -1.0976 -1.0957
13540TIP3    H262036   6.649   3.256   3.712 -0.1539  0.9168 -0.1697
13541TIP3   OH262037   3.099   2.601  16.293 -0.1567  0.1434 -0.1223
13541TIP3    H162038   3.030   2.664  16.317 -2.1058 -1.3244 -1.5080
13541TIP3    H262039   3.150   2.646  16.226 -1.2858  0.3995 -0.8280
13542TIP3   OH262040   4.134   2.344  10.735 -0.0822  0.9614  0.1558
13542TIP3    H162041   4.206   2.339  10.671 -0.7204 -0.2497 -0.5033
13542TIP3    H262042   4.118   2.253  10.759 -2.9604  0.9049 -1.5367
13543TIP3   OH262043   1.459   2.370  12.195  0.1631  0.5817 -0.7022
13543TIP3    H162044   1.413   2.395  12.275 -0.3195  1.6369 -1.2926
13543TIP3    H262045   1.551   2.388  12.214  0.3350 -1.1480  0.3343
13544TIP3   OH262046   5.788   3.027   0.370  0.5996 -0.5772 -0.1043
13544TIP3    H162047   5.769   2.964   0.440  0.3277  1.8019  2.1402
13544TIP3    H262048   5.883   3.040   0.377  0.5387 -0.1768 -0.0213
13545TIP3   OH262049   4.606   6.783   2.070 -0.6815  0.0862  0.5736
13545TIP3    H162050   4.533   6.728   2.042 -1.4558  0.5609  1.6203
13545TIP3    H262051   4.565   6.864   2.100  0.4163  1.1200 -0.6146
13546TIP3   OH262052   6.144   5.300   1.305 -0.6004  0.0537 -0.1616
13546TIP3    H162053   6.077   5.291   1.237 -0.8938 -0.4578  0.1918
13546TIP3    H262054   6.216   5.345   1.261 -0.1906 -1.5416 -1.2397
13547TIP3   OH262055   0.772   5.429   0.075  0.2199 -0.2212  0.0498
13547TIP3    H162056   0.852   5.478   0.094 -0.3825  0.9753 -0.4307
13547TIP3    H262057   0.794   5.338   0.097  1.0612  0.3807  1.8746
13548TIP3   OH262058   4.868   0.125  13.276  0.4982 -0.0442 -0.1880
13548TIP3    H162059   4.921   0.144  13.199  1.0163 -0.2287  0.1174
13548TIP3    H262060   4.901   0.184  13.343 -0.4316  0.6270 -0.2970
13549TIP3   OH262061   5.923   1.141   4.126  0.2028  0.1608  0.2238
13549TIP3    H162062   5.950   1.159   4.216 -0.9529 -0.3768  0.6897
13549TIP3    H262063   6.005   1.128   4.079  0.7836 -1.0305  1.5076
13550TIP3   OH262064   2.014   1.200  16.058 -0.2139 -0.8757 -0.3451
13550TIP3    H162065   1.974   1.241  16.134  0.2750 -1.6938  0.3846
13550TIP3    H262066   2.108   1.198  16.078 -0.0748 -1.0982 -0.9680
13551TIP3   OH262067   1.211   3.672  12.449 -0.1795  0.5164 -0.7119
13551TIP3    H162068   1.230   3.652  12.357  1.8454 -0.3747 -0.1472
13551TIP3    H262069   1.232   3.765  12.457  1.1635  0.2573 -0.8433
13552TIP3   OH262070   4.953   3.640  14.984 -0.0790  0.3013  0.2990
13552TIP3    H162071   4.927   3.617  15.074 -0.4157  0.6788  0.2997
13552TIP3    H262072   4.923   3.730  14.973 -0.1470  0.2151 -0.2379
13553TIP3   OH262073   3.874   5.278  14.217 -0.4632  0.2305 -0.4263
13553TIP3    H162074   3.924   5.214  14.166 -1.7375 -0.5992 -0.6696
13553TIP3    H262075   3.878   5.245  14.307  0.9809  1.1882 -0.0925
13554TIP3   OH262076   2.479   4.942  12.831 -0.5459  0.3999  0.2993
13554TIP3    H162077   2.473   5.025  12.879 -0.1274  1.4671 -1.4124
13554TIP3    H262078   2.518   4.965  12.747  1.5954 -1.8910  0.5380
13555TIP3   OH262079   3.069   3.834  15.572 -0.2178 -0.5317  0.3564
13555TIP3    H162080   3.159   3.801  15.570 -0.4817 -1.3813  1.4451
13555TIP3    H262081   3.050   3.846  15.665 -1.0597  0.1279  0.1105
13556TIP3   OH262082   1.264   5.602   2.194  0.0593  0.4829 -0.5218
13556TIP3    H162083   1.230   5.690   2.204  0.9007  0.8989 -1.1747
13556TIP3    H262084   1.354   5.607   2.226 -0.0111 -0.2362 -0.1891
13557TIP3   OH262085   1.303   2.209  16.828  0.3056 -0.4153  0.1690
13557TIP3    H162086   1.347   2.219  16.743  1.8559 -3.3985  0.4960
13557TIP3    H262087   1.241   2.138  16.814  1.9519 -2.3093  1.9492
13558TIP3   OH262088   0.384   5.751  11.312  0.0984  0.2147 -0.0396
13558TIP3    H162089   0.414   5.802  11.237 -1.5119  1.0475 -0.1492
13558TIP3    H262090   0.345   5.816  11.371  1.2387 -0.4320  1.4976
13559TIP3   OH262091   5.597   0.824   5.269 -0.5898 -0.3451  0.1196
13559TIP3    H162092   5.539   0.884   5.224 -0.4544 -0.3854 -0.1138
13559TIP3    H262093   5.566   0.737   5.244 -0.3892 -0.3664 -0.0605
13560TIP3   OH262094   4.288   6.346  11.082  0.3484 -0.2432  0.2503
13560TIP3    H162095   4.328   6.366  11.167 -1.7502  2.2631  0.7706
13560TIP3    H262096   4.206   6.300  11.105 -0.8810  1.5937 -0.2599
13561TIP3   OH262097   2.289   6.417  14.031 -0.5334 -0.4183  0.5895
13561TIP3    H162098   2.296   6.411  14.126 -1.2828  0.9941  0.7600
13561TIP3    H262099   2.195   6.407  14.013 -0.6975  1.3944  0.2167
13562TIP3   OH262100   1.038   5.798  14.861 -0.7623  0.0262  0.0653
13562TIP3    H162101   1.092   5.817  14.938  0.1568 -1.0770 -0.2727
13562TIP3    H262102   1.034   5.880  14.813 -0.6534  0.5119  0.8757
13563TIP3   OH262103   0.320   5.255   0.623  0.3389 -0.2773  0.2058
13563TIP3    H162104   0.317   5.210   0.707  0.1299  0.0342  0.3660
13563TIP3    H262105   0.411   5.285   0.615  0.1667  0.4122  0.7062
13564TIP3   OH262106   4.847   0.472   6.423  0.6035  0.6330  0.1545
13564TIP3    H162107   4.789   0.410   6.377 -2.0582  2.0504  1.3994
13564TIP3    H262108   4.916   0.490   6.360 -0.6621 -0.6478 -1.7203
13565TIP3   OH262109   6.695   5.958   0.591  0.2665 -0.0347  0.1408
13565TIP3    H162110   6.750   6.016   0.644 -0.5057  0.2925  0.6203
13565TIP3    H262111   6.606   5.990   0.607  0.0184  0.1299 -1.4542
13566TIP3   OH262112   2.011   0.936  16.738 -0.1241  0.4436  0.0821
13566TIP3    H162113   2.058   0.855  16.759  0.4812  1.1626  1.6237
13566TIP3    H262114   2.070   0.985  16.681  0.6677  0.9442  1.2876
13567TIP3   OH262115   6.149   1.725  11.559 -0.2384  0.0847  0.3790
13567TIP3    H162116   6.156   1.809  11.515 -0.3411  0.2179  0.6128
13567TIP3    H262117   6.232   1.681  11.542 -0.3458  0.0613 -0.0913
13568TIP3   OH262118   5.733   0.934   4.144  0.2070 -0.4126 -0.5323
13568TIP3    H162119   5.813   0.978   4.172  1.2244 -1.2370 -2.0392
13568TIP3    H262120   5.671   1.005   4.127  1.4022  0.4011 -1.6782
13569TIP3   OH262121   3.721   1.017   2.287  0.2647 -0.1574  0.3419
13569TIP3    H162122   3.788   1.081   2.309  0.0448  0.5278 -0.9395
13569TIP3    H262123   3.742   0.988   2.199 -0.7754 -0.3882  0.1492
13570TIP3   OH262124   4.853   4.881   3.471 -0.2763  0.2251 -0.1195
13570TIP3    H162125   4.818   4.947   3.531  0.3024 -1.0872  1.7323
13570TIP3    H262126   4.948   4.893   3.475 -0.2492  0.4003 -1.1240
13571TIP3   OH262127   4.413   1.454  16.254 -0.0783  0.2020  0.3174
13571TIP3    H162128   4.380   1.467  16.166  0.7826  0.6597  0.0492
13571TIP3    H262129   4.359   1.383  16.290 -1.5781  1.1453  0.0365
13572TIP3   OH262130   2.113   6.661  12.312  0.1450 -1.0802  0.4076
13572TIP3    H162131   2.203   6.676  12.283  0.4612 -0.9572  1.4096
13572TIP3    H262132   2.081   6.749  12.333 -0.6486 -0.9678 -1.1255
13573TIP3   OH262133   6.737   1.781   0.553 -0.1236 -0.1047  0.2474
13573TIP3    H162134   6.818   1.787   0.502  0.1386  1.7521  0.7994
13573TIP3    H262135   6.766   1.786   0.644 -0.8872  1.2144  0.4310
13574TIP3   OH262136   1.626   4.497   0.007  0.9176 -0.3076 -0.1011
13574TIP3    H162137   1.653   4.407  -0.014 -1.7842 -1.4948  1.0252
13574TIP3    H262138   1.592   4.530  -0.076 -0.9861 -1.5503  0.1109
13575TIP3   OH262139   6.289   0.588   1.609  0.4460 -0.1568  0.4598
13575TIP3    H162140   6.239   0.636   1.676 -0.7575 -0.0421 -0.4795
13575TIP3    H262141   6.329   0.657   1.555 -0.5952 -0.1870 -0.3852
13576TIP3   OH262142   4.933   0.409  16.653 -0.2234  0.2960 -0.5613
13576TIP3    H162143   4.898   0.465  16.584  0.6698 -0.4620 -1.6555
13576TIP3    H262144   5.009   0.456  16.687  0.7448 -0.3771 -1.7272
13577TIP3   OH262145   6.465   5.628  12.402  0.1546  0.0774 -0.0793
13577TIP3    H162146   6.456   5.616  12.496 -0.5882  1.3827  0.0516
13577TIP3    H262147   6.517   5.708  12.393  1.7047 -0.9595 -0.8198
13578TIP3   OH262148   6.617   1.556   4.059  0.1593 -0.3829 -0.9250
13578TIP3    H162149   6.658   1.613   3.994 -0.7627 -0.1710 -1.3392
13578TIP3    H262150   6.677   1.556   4.133  0.1630  1.1313 -0.9116
13579TIP3   OH262151   0.063   2.785  14.777  0.0903  0.1552  0.4635
13579TIP3    H162152   0.136   2.728  14.755 -0.1704  0.1424 -0.4148
13579TIP3    H262153   0.096   2.874  14.765  0.6707  0.2512  2.3776
13580TIP3   OH262154   5.458   0.846  15.753 -0.0632  0.1803  0.0328
13580TIP3    H162155   5.528   0.908  15.730 -0.0635 -0.1525 -0.9149
13580TIP3    H262156   5.384   0.902  15.775  0.4331  0.5357  0.8468
13581TIP3   OH262157   3.866   0.501   3.494 -0.0606 -0.2054 -0.1709
13581TIP3    H162158   3.815   0.436   3.446  0.2738 -0.8909  0.3812
13581TIP3    H262159   3.954   0.466   3.496  0.3004  0.6492 -0.5300
13582TIP3   OH262160   2.780   4.912   5.162  0.0007  0.1458  0.1472
13582TIP3    H162161   2.849   4.884   5.223  0.8971  0.6171 -0.6235
13582TIP3    H262162   2.755   4.999   5.194 -0.4581 -0.1443  0.5982
13583TIP3   OH262163   1.072   4.531   1.684  0.2056  0.0262  0.7476
13583TIP3    H162164   1.058   4.449   1.637 -0.0151 -0.5313  1.7684
13583TIP3    H262165   1.098   4.593   1.616 -2.2380 -0.1754 -0.4788
13584TIP3   OH262166   3.047   3.948   0.149 -0.1011 -0.5172  0.8084
13584TIP3    H162167   2.992   3.990   0.215 -0.3292 -0.6046  0.6731
13584TIP3    H262168   2.987   3.896   0.097 -0.0232  0.0773  0.1094
13585TIP3   OH262169   2.867   0.394  15.416  0.5386  0.0685  0.2489
13585TIP3    H162170   2.826   0.315  15.381  1.2720 -1.0655  1.8074
13585TIP3    H262171   2.911   0.433  15.341  0.7754 -1.4109 -0.4277
13586TIP3   OH262172   4.679   4.161  16.971 -0.0669  0.9694  0.0044
13586TIP3    H162173   4.677   4.089  16.908  0.6047  1.0907 -0.1661
13586TIP3    H262174   4.773   4.175  16.989 -0.2480  0.7310  1.2669
13587TIP3   OH262175   3.141   4.464   3.556 -0.0627 -0.1917 -0.3331
13587TIP3    H162176   3.232   4.443   3.580  0.3531  0.5342 -1.2062
13587TIP3    H262177   3.109   4.517   3.628  0.7865  0.9922 -0.7960
13588TIP3   OH262178   5.503   2.948   4.920 -0.0875 -0.1608  0.7677
13588TIP3    H162179   5.493   2.937   5.014  0.3470 -3.4143  0.5571
13588TIP3    H262180   5.424   2.908   4.882  0.6386 -0.6654 -0.2730
13589TIP3   OH262181   1.362   2.186  11.858  0.3008  0.9600  0.8308
13589TIP3    H162182   1.326   2.098  11.870 -0.4878  1.4016  1.9949
13589TIP3    H262183   1.286   2.244  11.868  0.7836  1.7778 -0.0333
13590TIP3   OH262184   1.652   4.493   3.070  0.6262  0.0141 -0.0428
13590TIP3    H162185   1.586   4.446   3.121 -0.9074  1.8331 -0.2491
13590TIP3    H262186   1.618   4.492   2.980  2.1995 -1.2284 -0.6840
13591TIP3   OH262187   1.317   5.019   5.641  0.1655 -0.8212  0.4693
13591TIP3    H162188   1.256   4.945   5.637  0.7112 -1.2639  0.2149
13591TIP3    H262189   1.319   5.043   5.734 -1.3865  0.0533  0.3035
13592TIP3   OH262190   3.748   3.943  16.843  0.3371 -0.3620  0.2083
13592TIP3    H162191   3.785   3.902  16.921 -0.5694 -0.2270  0.7208
13592TIP3    H262192   3.654   3.928  16.850  0.3558 -1.9337 -1.7811
13593TIP3   OH262193   6.171   4.599   3.524  0.4218 -0.0300  0.1251
13593TIP3    H162194   6.099   4.537   3.518  0.0535  0.2703  1.1935
13593TIP3    H262195   6.138   4.678   3.481 -0.1174  0.2890  1.0809
13594TIP3   OH262196   4.155   1.070  13.457  0.0544 -0.5218 -0.1662
13594TIP3    H162197   4.061   1.055  13.465  0.1122 -0.7712  0.0616
13594TIP3    H262198   4.178   1.123  13.532  0.0587 -0.2825 -0.3367
13595TIP3   OH262199   2.760   2.671   1.778 -0.0471  0.6415 -0.1902
13595TIP3    H162200   2.696   2.681   1.849 -0.9050 -0.2405 -0.7983
13595TIP3    H262201   2.707   2.643   1.703  1.1595 -1.1249 -0.4476
13596TIP3   OH262202   6.460   2.479  17.035 -0.2753  0.4594 -0.3983
13596TIP3    H162203   6.466   2.495  17.129  1.2890 -0.0450 -0.3972
13596TIP3    H262204   6.378   2.430  17.024 -0.6587  0.8435  0.6330
13597TIP3   OH262205   2.247   1.933   3.354  0.3339 -0.6078  0.0801
13597TIP3    H162206   2.334   1.974   3.362  0.1440 -0.1866  0.0409
13597TIP3    H262207   2.251   1.856   3.410  0.3984 -0.0184  0.8978
13598TIP3   OH262208   3.314   4.581   0.805 -0.0713 -0.3386  0.4285
13598TIP3    H162209   3.252   4.520   0.765 -0.1547  0.3393 -0.5275
13598TIP3    H262210   3.398   4.536   0.802  0.1848  0.1531 -1.7521
13599TIP3   OH262211   1.834   0.834  14.891  0.5842  0.4869 -0.4996
13599TIP3    H162212   1.898   0.826  14.821  0.0033  0.7027 -1.0635
13599TIP3    H262213   1.885   0.860  14.968  1.4269 -1.1757 -0.4672
13600TIP3   OH262214   5.671   0.098  10.711  0.4945  0.2646  0.3129
13600TIP3    H162215   5.693   0.046  10.633  0.7229  1.0454 -0.1522
13600TIP3    H262216   5.752   0.099  10.762  0.1633 -0.7822  0.8833
13601TIP3   OH262217   4.747   5.080  14.502 -1.1500  0.1385 -0.1670
13601TIP3    H162218   4.786   5.141  14.565  0.3664 -2.5940  1.7639
13601TIP3    H262219   4.722   5.004  14.555  0.9055 -2.6300 -2.8565
13602TIP3   OH262220   6.286   6.408  17.145 -0.6004  0.1036  0.6502
13602TIP3    H162221   6.196   6.380  17.133 -0.9989  0.9669  1.5035
13602TIP3    H262222   6.299   6.478  17.081 -0.8314  0.6017  1.1417
13603TIP3   OH262223   0.811   0.271   0.113  0.2836  0.0520  0.0315
13603TIP3    H162224   0.836   0.201   0.052 -1.7666  0.1816 -1.0637
13603TIP3    H262225   0.811   0.229   0.199  1.1437 -0.7234 -0.3306
13604TIP3   OH262226   3.726   2.982  11.322  0.1062 -0.1216 -0.2919
13604TIP3    H162227   3.782   2.956  11.249 -0.2428 -0.6510 -0.3775
13604TIP3    H262228   3.637   2.968  11.290 -0.3408  4.0466 -1.4965
13605TIP3   OH262229   3.625   3.303   0.742 -0.5168  0.4276  0.1362
13605TIP3    H162230   3.622   3.317   0.648  0.2398  0.1100  0.0601
13605TIP3    H262231   3.613   3.391   0.780  0.2706  0.7138 -0.2721
13606TIP3   OH262232   5.984   1.597   3.529  0.2371 -0.0846  0.5433
13606TIP3    H162233   5.914   1.570   3.588 -2.4805  1.6339 -1.5733
13606TIP3    H262234   5.967   1.548   3.448  1.5078  0.3260  0.0054
13607TIP3   OH262235   4.257   6.116  12.039 -0.1553  0.1597 -0.0099
13607TIP3    H162236   4.215   6.145  11.958  1.5716  0.2996 -0.9261
13607TIP3    H262237   4.337   6.169  12.045  0.1295 -0.3752  1.3902
13608TIP3   OH262238   0.548   0.066   1.767  0.0853 -0.2326 -0.4351
13608TIP3    H162239   0.474   0.006   1.775  1.0281 -1.5780 -1.4223
13608TIP3    H262240   0.511   0.152   1.788 -1.5055 -1.0079  0.1141
13609TIP3   OH262241   3.907   4.422   5.715 -0.2262 -0.1871 -0.1674
13609TIP3    H162242   3.926   4.466   5.798  1.6122 -3.5235  1.3750
13609TIP3    H262243   3.981   4.445   5.659 -1.5732  2.2411 -1.0933
13610TIP3   OH262244   2.638   5.657  12.663 -0.1092 -0.1819  0.2927
13610TIP3    H162245   2.663   5.585  12.605 -1.6483 -0.5063 -0.0153
13610TIP3    H262246   2.637   5.618  12.750  1.4595  0.1126  0.4661
13611TIP3   OH262247   2.789   5.265   6.632  0.0078 -0.6513 -0.1052
13611TIP3    H162248   2.846   5.201   6.675  2.5297  0.4989 -1.4988
13611TIP3    H262249   2.733   5.213   6.574  0.0266 -1.7839  0.8606
13612TIP3   OH262250   2.333   4.380   3.225  0.1503 -0.1530  0.5906
13612TIP3    H162251   2.254   4.435   3.216 -0.8053 -1.4458  0.8013
13612TIP3    H262252   2.362   4.365   3.135 -0.2477 -0.2256  0.4716
13613TIP3   OH262253   0.767   5.331  11.600 -0.6796 -0.0392 -0.1145
13613TIP3    H162254   0.739   5.272  11.671 -1.1941 -0.0950 -0.3593
13613TIP3    H262255   0.856   5.302  11.580 -1.0793 -1.0451 -0.5353
13614TIP3   OH262256   3.007   0.403   0.716  0.2575 -0.1884  0.2973
13614TIP3    H162257   3.087   0.440   0.678  0.2041 -0.7320 -0.3535
13614TIP3    H262258   2.998   0.317   0.675 -1.8497  0.7353 -1.3122
13615TIP3   OH262259   4.297   5.533  17.225 -0.5601 -0.1255 -0.0285
13615TIP3    H162260   4.361   5.475  17.266 -1.3074 -0.6893  0.3390
13615TIP3    H262261   4.214   5.514  17.268 -0.7558  1.5402  0.4363
13616TIP3   OH262262   3.935   4.423   1.568 -0.2358 -0.6543  0.0778
13616TIP3    H162263   3.950   4.357   1.635 -0.0247  0.0654  0.7594
13616TIP3    H262264   3.878   4.381   1.504  1.0415 -1.9649 -0.2437
13617TIP3   OH262265   2.527   2.726   3.912 -0.0235 -0.3370  0.5514
13617TIP3    H162266   2.550   2.678   3.832  0.0182  0.3231  0.1573
13617TIP3    H262267   2.523   2.659   3.980  2.1872 -0.6181  0.4646
13618TIP3   OH262268   6.000   4.500   5.137 -0.2379 -0.0003 -0.2432
13618TIP3    H162269   5.942   4.541   5.202  0.2716 -0.2962  0.4176
13618TIP3    H262270   5.955   4.421   5.111  0.5689 -1.1282  1.5336
13619TIP3   OH262271   0.219   4.281  14.835 -0.0301  0.1121  0.0393
13619TIP3    H162272   0.234   4.332  14.915 -0.9797  0.3672  0.0586
13619TIP3    H262273   0.186   4.196  14.866  2.4148 -0.9193  0.0642
13620TIP3   OH262274   5.878   0.420  14.456  0.1564  0.3078  0.3733
13620TIP3    H162275   5.830   0.337  14.453 -2.4914  1.7637 -0.3674
13620TIP3    H262276   5.871   0.448  14.548  2.0002 -0.7161  0.8855
13621TIP3   OH262277   4.569   4.489   0.680  0.1967 -0.4721 -0.5301
13621TIP3    H162278   4.575   4.461   0.589  0.9267  0.3857 -0.7676
13621TIP3    H262279   4.522   4.419   0.724  1.2185 -1.6567 -1.2502
13622TIP3   OH262280   1.744   5.797  15.602  0.2475  0.0854  0.1419
13622TIP3    H162281   1.812   5.854  15.567  0.5454 -0.3875 -0.0541
13622TIP3    H262282   1.714   5.842  15.681  1.0144  0.1487  0.4090
13623TIP3   OH262283   6.657   4.596  12.730  0.3139 -0.7202 -0.3297
13623TIP3    H162284   6.584   4.603  12.668 -0.3000 -2.2643  0.1636
13623TIP3    H262285   6.627   4.532  12.795  0.8305  1.0180  1.7443
13624TIP3   OH262286   1.945   1.465  11.887 -0.1912 -0.3662 -0.4762
13624TIP3    H162287   1.854   1.495  11.884 -0.5957 -1.5653 -0.5256
13624TIP3    H262288   1.996   1.543  11.863 -1.2743 -0.0027 -1.7165
13625TIP3   OH262289   3.811   5.060  16.452  0.5281 -0.3939  0.7781
13625TIP3    H162290   3.868   5.084  16.379  2.5734  1.2315  2.7710
13625TIP3    H262291   3.798   5.141  16.500 -1.1095 -1.3369  2.0418
13626TIP3   OH262292   1.344   1.251  17.144 -0.3846 -0.3750 -0.0146
13626TIP3    H162293   1.389   1.169  17.121 -0.4820 -0.8454  1.3391
13626TIP3    H262294   1.405   1.320  17.120 -0.2046 -0.8554 -0.9706
13627TIP3   OH262295   5.789   5.358  13.579  0.0551  0.3506  0.1679
13627TIP3    H162296   5.777   5.277  13.529 -1.7152  0.6598  0.0182
13627TIP3    H262297   5.827   5.420  13.517 -0.5759  0.2423 -0.3357
13628TIP3   OH262298   4.655   1.161  14.206 -0.2120 -0.6609  0.3796
13628TIP3    H162299   4.664   1.076  14.163 -0.0380 -0.6602  0.4138
13628TIP3    H262300   4.739   1.204  14.193 -1.1942  0.7217 -2.2016
13629TIP3   OH262301   4.953   6.180   2.702  0.2407  0.4531  0.3080
13629TIP3    H162302   4.917   6.205   2.617 -0.7813  0.3591  0.6883
13629TIP3    H262303   4.915   6.094   2.719  2.3136 -0.6145 -0.1824
13630TIP3   OH262304   6.220   2.139   1.709 -0.0704  0.2559  0.3450
13630TIP3    H162305   6.237   2.216   1.655 -2.8520  0.1774 -0.8200
13630TIP3    H262306   6.294   2.080   1.691  0.2879  1.2052 -1.5357
13631TIP3   OH262307   1.189   5.754   0.224  0.2410  0.4222  0.4119
13631TIP3    H162308   1.185   5.804   0.142 -0.5106 -0.8957 -0.3860
13631TIP3    H262309   1.236   5.811   0.284  1.3935  1.1842 -1.1236
13632TIP3   OH262310   0.233   2.928  15.185  0.0254  0.6634 -0.2478
13632TIP3    H162311   0.171   2.998  15.168 -2.8340 -1.6799 -0.1996
13632TIP3    H262312   0.302   2.940  15.119 -1.1673  2.5628 -1.2350
13633TIP3   OH262313   3.084   1.318   4.889 -0.1427 -0.2383  0.3433
13633TIP3    H162314   3.050   1.267   4.815  0.1854  0.5296 -0.3556
13633TIP3    H262315   3.007   1.357   4.929 -0.1594  1.8756 -1.5101
13634TIP3   OH262316   4.437   3.506  15.987 -0.3252 -0.2070  0.0548
13634TIP3    H162317   4.416   3.509  16.080 -2.2138 -0.2758 -0.3263
13634TIP3    H262318   4.419   3.594  15.955  1.1302  0.0433 -0.0970
13635TIP3   OH262319   6.143   2.759  12.830 -0.1576  0.0263  0.1861
13635TIP3    H162320   6.151   2.732  12.921 -2.2846 -0.4343  0.2918
13635TIP3    H262321   6.104   2.846  12.833 -0.8269 -0.2446 -0.2723
13636TIP3   OH262322   2.648   1.961  14.653 -0.0622  0.0447 -0.0648
13636TIP3    H162323   2.689   1.939  14.736 -1.0376 -1.9686 -0.0679
13636TIP3    H262324   2.695   2.039  14.623  0.5979  0.5609  2.1423
13637TIP3   OH262325   3.909   6.509   4.189 -0.3987 -0.2728 -0.0341
13637TIP3    H162326   3.887   6.567   4.262  0.9336  0.8987 -0.5199
13637TIP3    H262327   3.874   6.553   4.112  1.0849  0.1909 -0.4734
13638TIP3   OH262328   2.982   6.748  11.190  0.2012 -0.5082 -0.4164
13638TIP3    H162329   2.950   6.663  11.159 -1.6649  0.4105 -1.1606
13638TIP3    H262330   3.053   6.770  11.130 -0.5818 -0.6937 -1.4538
13639TIP3   OH262331   4.352   4.564   3.178 -0.3214  0.1840  0.2125
13639TIP3    H162332   4.272   4.514   3.164 -0.1066 -0.1047 -0.0006
13639TIP3    H262333   4.410   4.537   3.107  0.5715 -0.8364  1.2932
13640TIP3   OH262334   3.705   4.291  11.421 -0.1021  0.2002 -0.2717
13640TIP3    H162335   3.686   4.371  11.470  1.0818  0.2449  0.1487
13640TIP3    H262336   3.651   4.224  11.463 -0.9936  0.7333 -0.5347
13641TIP3   OH262337   4.269   5.270  15.924 -0.0184  0.0728  0.2098
13641TIP3    H162338   4.251   5.343  15.865 -0.2419 -0.2916 -0.1828
13641TIP3    H262339   4.292   5.311  16.007  2.5550  0.6911 -0.7031
13642TIP3   OH262340   1.425   1.770   2.164 -0.2851 -0.4628  0.1171
13642TIP3    H162341   1.390   1.818   2.238  0.1956 -0.9412  0.6625
13642TIP3    H262342   1.493   1.715   2.201  2.9546  2.2994 -1.2219
13643TIP3   OH262343   1.878   3.644   4.148 -0.3757  0.0716  0.3422
13643TIP3    H162344   1.800   3.668   4.098 -1.5069  0.1589  2.0421
13643TIP3    H262345   1.928   3.725   4.155 -0.8402  0.3594  0.4006
13644TIP3   OH262346   2.692   0.419  11.811 -0.3241 -0.2120 -0.2856
13644TIP3    H162347   2.609   0.440  11.769 -0.5059  0.2088  0.2709
13644TIP3    H262348   2.674   0.339  11.861 -0.1552 -0.6124 -0.8580
13645TIP3   OH262349   6.303   0.294  15.913  0.3672 -0.0779  0.1510
13645TIP3    H162350   6.379   0.301  15.971  0.2187 -0.3754  0.3787
13645TIP3    H262351   6.239   0.355  15.950  0.3047 -0.2033  0.2463
13646TIP3   OH262352   5.464   0.315   1.860 -0.1831 -0.0872  0.5211
13646TIP3    H162353   5.533   0.266   1.814 -1.6348 -1.7131 -0.0435
13646TIP3    H262354   5.451   0.266   1.941 -1.9489 -0.9539 -0.2407
13647TIP3   OH262355   3.799   1.845  12.491  0.8660  0.4252  0.5395
13647TIP3    H162356   3.827   1.863  12.580  2.5329 -0.4270  0.2133
13647TIP3    H262357   3.729   1.909  12.475 -1.2220 -0.9488  3.2460
13648TIP3   OH262358   3.405   0.374   3.886  0.3917  0.4225  0.4527
13648TIP3    H162359   3.413   0.385   3.792 -0.5183 -1.5750  0.0691
13648TIP3    H262360   3.326   0.321   3.897  0.1152  1.1479  2.3924
13649TIP3   OH262361   4.233   2.566  13.246 -0.0750 -0.6205 -0.0661
13649TIP3    H162362   4.250   2.593  13.156  0.4637  0.7335  0.4126
13649TIP3    H262363   4.139   2.546  13.248 -0.3689  0.6002 -0.6319
13650TIP3   OH262364   3.836   6.373  16.442  0.7416  0.0099 -0.2229
13650TIP3    H162365   3.921   6.330  16.434  1.4487  1.4610 -1.0331
13650TIP3    H262366   3.847   6.457  16.397 -0.8690  0.6083  0.3979
13651TIP3   OH262367   2.922   6.405  10.851 -0.0504 -0.3882  0.1779
13651TIP3    H162368   2.897   6.490  10.815 -0.9063 -1.0583 -0.8839
13651TIP3    H262369   2.996   6.377  10.798  0.7594  0.0288  1.0514
13652TIP3   OH262370   4.022   2.979  12.144  0.0410  0.4266 -0.0370
13652TIP3    H162371   4.073   2.938  12.213  0.0688  1.7161  0.7484
13652TIP3    H262372   3.934   2.945  12.154 -0.0329  0.8679  0.8746
13653TIP3   OH262373   0.134   2.771  11.494 -0.3357 -0.9140  0.4283
13653TIP3    H162374   0.144   2.792  11.401  0.4990 -1.0420  0.4786
13653TIP3    H262375   0.192   2.833  11.539 -2.4180  0.6928  1.0772
13654TIP3   OH262376   4.359   2.168  14.177 -0.5909  0.0174  0.0489
13654TIP3    H162377   4.337   2.257  14.203 -2.4827 -0.3417 -0.1676
13654TIP3    H262378   4.340   2.164  14.083  0.2674 -0.4137 -0.1258
13655TIP3   OH262379   5.888   4.260   5.029  0.4092  0.2660  0.5823
13655TIP3    H162380   5.843   4.250   4.945  3.2257  1.3449 -1.1894
13655TIP3    H262381   5.855   4.188   5.082 -0.8083 -1.0296 -1.7457
13656TIP3   OH262382   0.876   3.342   4.194 -0.3039  0.7071  0.3461
13656TIP3    H162383   0.844   3.386   4.272 -0.2836  1.1868  0.0884
13656TIP3    H262384   0.931   3.271   4.227 -0.9900  0.3657  0.7767
13657TIP3   OH262385   3.653   6.413   1.781 -0.1295 -0.2060 -0.0816
13657TIP3    H162386   3.672   6.482   1.845  0.0421  0.0677 -0.4185
13657TIP3    H262387   3.558   6.403   1.784  0.0397 -1.7535  1.8011
13658TIP3   OH262388   0.421   1.423   1.772 -0.1383 -0.1721  0.2171
13658TIP3    H162389   0.369   1.501   1.791 -1.3454 -0.4758 -1.6018
13658TIP3    H262390   0.384   1.388   1.691  2.1490 -1.0938 -0.5226
13659TIP3   OH262391   1.088   2.840   1.692 -0.3633  0.1790 -0.2672
13659TIP3    H162392   1.094   2.752   1.730 -2.2061 -0.0904 -0.5149
13659TIP3    H262393   1.038   2.828   1.612  0.1797  1.3322 -0.8000
13660TIP3   OH262394   5.562   4.031   0.156  0.0286  0.2513 -0.1750
13660TIP3    H162395   5.585   4.053   0.246  0.6240 -0.3706 -0.1700
13660TIP3    H262396   5.580   3.937   0.149  1.4124  0.5830 -1.3739
13661TIP3   OH262397   2.642   1.137   2.867  0.2728  0.3538  0.0477
13661TIP3    H162398   2.679   1.219   2.835  0.0564 -0.0422 -1.3022
13661TIP3    H262399   2.687   1.069   2.817  0.1088 -0.3182  0.8022
13662TIP3   OH262400   5.621   3.092  12.308 -1.0393  0.0696  0.1882
13662TIP3    H162401   5.625   3.182  12.275 -0.8316  0.2261  0.6332
13662TIP3    H262402   5.699   3.051  12.272 -1.0150  0.1317  0.1685
13663TIP3   OH262403   0.113   5.425   6.525  0.0927 -0.8520 -0.0359
13663TIP3    H162404   0.078   5.359   6.464  0.1956  0.1909 -1.2536
13663TIP3    H262405   0.184   5.380   6.571  0.4377 -1.4761 -1.1466
13664TIP3   OH262406   5.255   5.987   2.730  0.3818 -0.3286  0.0853
13664TIP3    H162407   5.315   5.929   2.777  0.3775 -0.4739 -0.0927
13664TIP3    H262408   5.220   6.044   2.799 -0.0491 -0.9069  0.3563
13665TIP3   OH262409   0.590   6.387   0.121  0.1950 -0.7265  0.2841
13665TIP3    H162410   0.667   6.330   0.127 -0.2413 -1.2411  1.4628
13665TIP3    H262411   0.516   6.328   0.138 -0.3902 -0.0882 -0.0305
13666TIP3   OH262412   2.710   0.349  11.504  0.3917  0.2150 -0.2554
13666TIP3    H162413   2.709   0.435  11.546  0.2539 -0.1530  0.5158
13666TIP3    H262414   2.662   0.292  11.564 -0.2228 -0.2330 -1.1370
13667TIP3   OH262415   6.546   4.196  15.997 -0.2607  0.1567 -0.1506
13667TIP3    H162416   6.552   4.198  15.902 -1.4151  0.6139 -0.2253
13667TIP3    H262417   6.619   4.251  16.027  0.4211 -0.4150 -0.7476
13668TIP3   OH262418   3.603   5.059  17.091  0.0567 -0.8261 -0.3167
13668TIP3    H162419   3.534   5.048  17.026 -0.2543 -2.1591  0.2055
13668TIP3    H262420   3.584   5.144  17.132 -0.7360 -0.7537 -0.8104
13669TIP3   OH262421   2.100   2.929  13.992 -0.2206  0.4966  0.0678
13669TIP3    H162422   2.106   2.994  13.922  1.3476  0.2996  0.0029
13669TIP3    H262423   2.146   2.969  14.066 -0.7231  0.1553  0.5755
13670TIP3   OH262424   3.936   6.016   4.690 -0.2829 -0.0480  0.1126
13670TIP3    H162425   3.899   5.929   4.706 -0.5883  0.1953  0.7654
13670TIP3    H262426   3.957   6.049   4.777  2.3908 -0.5606 -0.2585
13671TIP3   OH262427   3.838   1.553   1.097 -0.5826  0.3725 -1.1395
13671TIP3    H162428   3.759   1.521   1.052 -1.9116  2.0729 -0.1556
13671TIP3    H262429   3.870   1.478   1.146 -1.3097 -0.4920 -1.9472
13672TIP3   OH262430   6.748   4.979  17.036 -0.2471 -0.5321 -0.1179
13672TIP3    H162431   6.800   5.060  17.034 -0.6699 -0.2581 -0.1466
13672TIP3    H262432   6.750   4.953  17.128 -0.7638 -0.0532  0.0368
13673TIP3   OH262433   3.676   2.926  11.590  0.1345 -0.1541 -0.1812
13673TIP3    H162434   3.699   2.925  11.497  1.2996 -0.9892  0.0870
13673TIP3    H262435   3.636   2.840  11.605 -0.3827  0.1183  0.0204
13674TIP3   OH262436   6.224   0.041   2.149 -0.1852 -0.1385 -0.2768
13674TIP3    H162437   6.138   0.002   2.162 -0.0976 -0.1350  0.3497
13674TIP3    H262438   6.274  -0.026   2.103  0.1716 -1.0699  1.3703
13675TIP3   OH262439   2.464   2.592  12.269 -0.0731 -0.0857  0.1598
13675TIP3    H162440   2.544   2.593  12.216 -1.0219  1.3724 -1.3567
13675TIP3    H262441   2.472   2.514  12.324  1.3505 -1.2276 -1.5556
13676TIP3   OH262442   0.485   3.390   3.895 -0.7570  0.8563 -0.6401
13676TIP3    H162443   0.528   3.336   3.962 -1.2749 -0.8583 -1.6121
13676TIP3    H262444   0.550   3.456   3.872  0.2759  0.0818 -0.0489
13677TIP3   OH262445   6.451   4.886   4.316  0.4294  0.1387  0.3398
13677TIP3    H162446   6.423   4.794   4.314 -0.0060  0.2858 -0.8115
13677TIP3    H262447   6.547   4.881   4.322  0.5134 -0.4169 -1.1418
13678TIP3   OH262448   2.442   0.787   3.545  0.1558 -0.8840 -0.1418
13678TIP3    H162449   2.501   0.737   3.489  0.9351  1.1448 -1.2148
13678TIP3    H262450   2.500   0.842   3.598 -0.7001 -0.3541  0.2642
13679TIP3   OH262451   1.933   4.989  12.273  0.3470 -0.3408  0.0755
13679TIP3    H162452   1.866   4.925  12.249  0.6777 -0.4199 -0.6656
13679TIP3    H262453   2.008   4.966  12.218 -0.1321  1.8654 -1.6220
13680TIP3   OH262454   4.714   2.877   1.145  0.9471 -0.5852  0.2343
13680TIP3    H162455   4.773   2.807   1.170  0.3957 -1.3839 -0.6348
13680TIP3    H262456   4.721   2.941   1.216  1.7811 -1.3099  0.8257
13681TIP3   OH262457   1.378   4.050  16.857 -0.2876 -0.2323 -0.1669
13681TIP3    H162458   1.338   3.993  16.792  1.6228  0.3075 -1.9158
13681TIP3    H262459   1.442   3.995  16.901 -0.1627 -0.0775 -0.1554
13682TIP3   OH262460   0.788   6.432   4.237  0.0063 -0.0348 -0.1060
13682TIP3    H162461   0.812   6.498   4.172  0.9590  1.2156  1.4466
13682TIP3    H262462   0.708   6.467   4.278  1.5377  1.2244  2.0241
13683TIP3   OH262463   0.165   3.398  12.047 -0.4026 -0.2898  0.0155
13683TIP3    H162464   0.121   3.456  12.109  0.8064  0.3239  0.3209
13683TIP3    H262465   0.099   3.332  12.025 -0.6308 -1.0046  2.5547
13684TIP3   OH262466   1.350   4.611  13.190 -0.0230  0.4850 -0.0321
13684TIP3    H162467   1.351   4.661  13.109  0.0146 -1.0319 -1.0111
13684TIP3    H262468   1.283   4.544  13.176  0.6385 -0.3766  0.8233
13685TIP3   OH262469   1.881   4.409   2.817  0.2136  0.0828  0.8010
13685TIP3    H162470   1.976   4.415   2.808  0.2918 -0.0967  1.4219
13685TIP3    H262471   1.867   4.385   2.909 -0.4307  0.0792  0.7104
13686TIP3   OH262472   2.446   2.803  11.919  0.2814 -0.0935  0.7626
13686TIP3    H162473   2.525   2.756  11.893 -1.4539 -2.0431 -1.4731
13686TIP3    H262474   2.412   2.840  11.837  0.1297  2.8730  2.0483
13687TIP3   OH262475   3.481   4.792  15.361 -0.3177 -0.1880 -0.4861
13687TIP3    H162476   3.512   4.881  15.373 -0.3633 -0.1793 -0.4340
13687TIP3    H262477   3.560   4.739  15.355 -0.2986 -0.2351  0.1744
13688TIP3   OH262478   3.205   0.420   0.307  0.1743  0.5449  0.2506
13688TIP3    H162479   3.218   0.379   0.221  0.9069  2.1152 -0.4222
13688TIP3    H262480   3.241   0.357   0.370  0.1822 -0.3600 -0.6393
13689TIP3   OH262481   1.655   5.080   5.315  0.2018 -0.0515 -0.2844
13689TIP3    H162482   1.631   4.989   5.294 -2.4114  0.2738  0.9660
13689TIP3    H262483   1.634   5.090   5.408 -0.1417  1.9906 -0.5399
13690TIP3   OH262484   0.861   2.731  17.086 -0.0075 -0.2845 -0.1110
13690TIP3    H162485   0.945   2.753  17.125 -1.5816  0.3634  3.2011
13690TIP3    H262486   0.833   2.811  17.041  0.7066 -0.2010 -0.4085
13691TIP3   OH262487   6.322   6.086  16.398 -0.2405  0.0968  0.4197
13691TIP3    H162488   6.296   6.159  16.453  1.5345  3.0288 -2.2886
13691TIP3    H262489   6.251   6.078  16.333  0.1467  0.2560 -0.0275
13692TIP3   OH262490   0.524   4.933  13.484 -0.0338 -0.8016  0.2297
13692TIP3    H162491   0.460   4.887  13.429  0.0560 -1.2654  0.5098
13692TIP3    H262492   0.589   4.867  13.505  1.0398 -0.1202 -0.8102
13693TIP3   OH262493   5.196   3.009  17.176  0.0786 -0.5449  0.1898
13693TIP3    H162494   5.199   3.037  17.267 -2.3117 -0.2094  0.2264
13693TIP3    H262495   5.104   2.987  17.160  0.2451  0.2714 -2.3791
13694TIP3   OH262496   4.928   0.912  11.363  0.1516  0.1614  0.1979
13694TIP3    H162497   4.882   0.996  11.354  0.9284  0.6840  0.9269
13694TIP3    H262498   4.898   0.877  11.447  0.6316  0.2329  0.4056
13695TIP3   OH262499   1.297   4.477  14.847 -0.0391 -0.3606  0.2360
13695TIP3    H162500   1.265   4.514  14.930 -0.8651 -0.7006  0.0717
13695TIP3    H262501   1.258   4.532  14.780 -0.6957 -1.0952  0.0140
13696TIP3   OH262502   0.524   5.894   4.795 -0.1639 -0.2319  0.1568
13696TIP3    H162503   0.480   5.858   4.872  0.4782  1.3556  1.3432
13696TIP3    H262504   0.565   5.819   4.752 -1.4839 -1.3046  0.7173
13697TIP3   OH262505   1.192   0.773  15.510 -0.0029  0.0324  0.1621
13697TIP3    H162506   1.278   0.769  15.551  0.3063  0.2906 -0.4430
13697TIP3    H262507   1.181   0.688  15.468  0.1862  0.1931 -0.2118
13698TIP3   OH262508   2.064   2.443  16.082 -0.0352  0.8274  0.5149
13698TIP3    H162509   2.153   2.451  16.115 -0.5517  0.6653  2.0225
13698TIP3    H262510   2.020   2.386  16.145 -0.2191 -2.4562 -2.2558
13699TIP3   OH262511   2.206   4.240  13.030  0.3945 -0.0594 -0.2053
13699TIP3    H162512   2.160   4.213  12.950  1.8674  1.6942 -1.7074
13699TIP3    H262513   2.297   4.214  13.016  0.8089  0.8964  0.5876
13700TIP3   OH262514   4.735   4.455  11.622  0.1945 -0.0236 -0.1427
13700TIP3    H162515   4.677   4.451  11.698  0.4239  1.1836  0.1175
13700TIP3    H262516   4.823   4.448  11.660  0.3283  1.0350 -0.2390
13701TIP3   OH262517   5.669   3.590  14.339  0.5112  0.0231  0.0282
13701TIP3    H162518   5.667   3.607  14.434  2.5628  2.0593 -0.1898
13701TIP3    H262519   5.739   3.525  14.328  1.3522  0.9318 -0.1684
13702TIP3   OH262520   5.253   2.380   6.500  0.1605  0.0931  0.4308
13702TIP3    H162521   5.158   2.387   6.492  0.0965  0.0351  1.0768
13702TIP3    H262522   5.286   2.392   6.411 -0.3549  1.6145  0.4094
13703TIP3   OH262523   0.408   2.969   0.518  0.3286  0.3182  0.3747
13703TIP3    H162524   0.500   2.992   0.504  0.3937 -0.1965 -0.0315
13703TIP3    H262525   0.410   2.911   0.594  0.5187 -0.9895 -0.6064
13704TIP3   OH262526   1.925   4.234   0.741  0.3379  0.2076  0.1627
13704TIP3    H162527   1.869   4.269   0.672 -1.2596 -3.7799 -0.8612
13704TIP3    H262528   1.994   4.299   0.752 -2.2422  3.4741 -1.3943
13705TIP3   OH262529   2.208   0.302  13.066  0.3177  0.3230  0.0372
13705TIP3    H162530   2.163   0.288  12.983 -0.5364  1.1626  0.3494
13705TIP3    H262531   2.165   0.242  13.127  0.2868  0.4214  0.1110
13706TIP3   OH262532   6.552   0.151   4.167 -0.1817 -0.2601 -0.1138
13706TIP3    H162533   6.642   0.133   4.195 -0.0201 -1.6588 -1.4148
13706TIP3    H262534   6.513   0.199   4.241  0.8862 -1.7860  1.5162
13707TIP3   OH262535   6.361   5.040   4.105  0.4003  0.2604  0.1824
13707TIP3    H162536   6.389   4.991   4.182 -1.0381 -2.7177 -1.0180
13707TIP3    H262537   6.268   5.056   4.119  0.2575  0.2240 -0.6526
13708TIP3   OH262538   4.293   4.394   2.498 -0.1991  0.4695  0.2230
13708TIP3    H162539   4.313   4.423   2.409 -0.8657  0.0426 -0.0754
13708TIP3    H262540   4.289   4.299   2.492  0.7307  0.3615  0.9292
13709TIP3   OH262541   2.141   1.894  11.513 -0.6050 -0.4906 -0.0019
13709TIP3    H162542   2.128   1.916  11.420  1.7269  1.0535 -0.0488
13709TIP3    H262543   2.066   1.932  11.558 -1.0705 -0.0555 -1.1119
13710TIP3   OH262544   2.209   5.925  13.245  0.4340 -0.2365  0.0890
13710TIP3    H162545   2.151   5.984  13.197  1.0393  0.2030 -0.1096
13710TIP3    H262546   2.242   5.977  13.318  2.4605  0.3330 -1.1350
13711TIP3   OH262547   6.072   5.843   5.699  0.1086 -0.2916 -0.2461
13711TIP3    H162548   6.146   5.855   5.639  0.5142 -3.4905 -0.5801
13711TIP3    H262549   6.113   5.823   5.784 -0.4257  0.3668  0.1777
13712TIP3   OH262550   3.232   3.683   4.832  0.3400 -0.4389 -0.1264
13712TIP3    H162551   3.205   3.764   4.877 -2.7352 -0.9004 -0.8808
13712TIP3    H262552   3.264   3.712   4.747 -0.4651  0.0365 -0.2798
13713TIP3   OH262553   4.265   6.230   5.019  0.0111  0.3228 -0.4174
13713TIP3    H162554   4.211   6.274   5.084  1.1449  1.5069 -0.2435
13713TIP3    H262555   4.255   6.282   4.939 -1.7988 -1.4168 -1.4254
13714TIP3   OH262556   4.911   3.257  15.911  0.1935 -0.0153  0.5550
13714TIP3    H162557   4.887   3.209  15.832  0.4048  0.3661  0.2617
13714TIP3    H262558   4.894   3.349  15.890  1.7846  0.2592  0.3739
13715TIP3   OH262559   3.286   0.353  16.870 -0.2105  0.3351 -0.1745
13715TIP3    H162560   3.331   0.337  16.787  1.1636 -0.3388  0.6834
13715TIP3    H262561   3.313   0.282  16.927 -2.0421  0.1421  0.5285
13716TIP3   OH262562   5.334   4.001  11.913  0.0109 -0.2349 -0.4943
13716TIP3    H162563   5.253   3.990  11.963  0.0084 -0.0774 -0.4629
13716TIP3    H262564   5.308   4.051  11.836  0.3975  1.4495  0.4196
13717TIP3   OH262565   3.866   5.685   6.195  0.2863 -0.0355  0.7122
13717TIP3    H162566   3.881   5.779   6.186  0.7130  0.0330  2.0175
13717TIP3    H262567   3.770   5.675   6.196  0.2426  0.3605  0.4401
13718TIP3   OH262568   4.777   1.838  12.281  0.0071 -1.0169  1.0468
13718TIP3    H162569   4.769   1.775  12.353  2.2300 -1.7821  0.7064
13718TIP3    H262570   4.782   1.784  12.202 -3.5771 -0.1648  0.0402
13719TIP3   OH262571   0.002   5.292  15.037 -0.5609 -0.3312  0.1665
13719TIP3    H162572  -0.038   5.342  14.966 -0.2673  1.4462  1.1930
13719TIP3    H262573  -0.072   5.252  15.083 -0.9165  0.3219  0.1677
13720TIP3   OH262574   3.791   3.532  13.119  0.2746  0.7690 -0.0545
13720TIP3    H162575   3.748   3.495  13.196  0.3076  0.6442 -0.0957
13720TIP3    H262576   3.883   3.538  13.144  0.6886 -1.3450 -0.8502
13721TIP3   OH262577   3.606   4.977   0.467  0.0609  0.2058  0.2498
13721TIP3    H162578   3.685   4.961   0.416  0.1615 -1.2457  0.7989
13721TIP3    H262579   3.569   4.889   0.482 -0.5349  0.6766  1.7467
13722TIP3   OH262580   5.211   6.330   5.525 -0.2138  0.2707 -0.5231
13722TIP3    H162581   5.237   6.238   5.535 -1.8296 -0.0765  0.9318
13722TIP3    H262582   5.193   6.340   5.431  0.2421 -0.8100 -0.7366
13723TIP3   OH262583   2.181   1.862  12.680  0.3640 -0.2199  0.5207
13723TIP3    H162584   2.176   1.835  12.772 -0.4481  0.0643  0.5667
13723TIP3    H262585   2.107   1.920  12.668  1.3419  0.9821  0.0826
13724TIP3   OH262586   2.036   0.282   5.736  0.2424 -0.6269 -0.4437
13724TIP3    H162587   2.094   0.277   5.659  1.4800  0.5335  0.3627
13724TIP3    H262588   2.028   0.191   5.765  2.4741 -0.7670 -0.0454
13725TIP3   OH262589   6.061   4.535  13.339 -0.1158  0.0085  0.5177
13725TIP3    H162590   6.119   4.460  13.328 -0.9964 -0.7963  1.1878
13725TIP3    H262591   6.074   4.562  13.430 -0.4060  0.1530  0.5172
13726TIP3   OH262592   4.054   0.456  11.279 -0.4368  0.5654 -0.0650
13726TIP3    H162593   4.076   0.514  11.353  0.6101 -0.6758  0.6441
13726TIP3    H262594   3.959   0.459  11.274 -0.4172  2.4093 -0.1213
13727TIP3   OH262595   3.096   1.079  13.877  1.0121 -0.8840  0.1732
13727TIP3    H162596   3.118   1.154  13.822 -0.8565  0.9365  1.6770
13727TIP3    H262597   3.138   1.004  13.836  0.4545  0.4747 -3.1866
13728TIP3   OH262598   0.323   0.098   4.282 -0.3180  0.8135 -0.1083
13728TIP3    H162599   0.306   0.189   4.308 -1.1660  0.2908  1.3091
13728TIP3    H262600   0.244   0.051   4.308  0.5772 -0.5225  0.2562
13729TIP3   OH262601   1.964   2.619   1.481 -0.2431 -0.8557 -0.2885
13729TIP3    H162602   1.898   2.563   1.521 -0.4358 -0.1373  0.4251
13729TIP3    H262603   2.035   2.622   1.546 -0.5597  0.3272  0.0179
13730TIP3   OH262604   2.822   3.996  12.322 -0.7633 -1.0139  0.1761
13730TIP3    H162605   2.808   3.954  12.406  0.3114  0.1822  0.9808
13730TIP3    H262606   2.903   4.045  12.332 -0.0654 -1.6320 -1.8845
13731TIP3   OH262607   2.113   4.548  12.701  0.4461 -0.8284  0.4327
13731TIP3    H162608   2.080   4.529  12.788  1.2004  1.0871  1.1886
13731TIP3    H262609   2.195   4.596  12.716  0.4781 -0.2637 -1.3022
13732TIP3   OH262610   4.572   5.132   0.445  0.0825  0.3799  0.5472
13732TIP3    H162611   4.564   5.133   0.349  0.1246 -1.1763  0.5073
13732TIP3    H262612   4.661   5.100   0.460 -0.0072  0.4037  1.1190
13733TIP3   OH262613   4.621   2.113  15.673 -0.1563  0.7051 -0.0039
13733TIP3    H162614   4.655   2.024  15.687  0.6739  0.8223 -1.0719
13733TIP3    H262615   4.530   2.108  15.700 -0.2769 -0.6219 -0.5505
13734TIP3   OH262616   5.233   5.544   0.670  0.2426 -0.0211 -0.1252
13734TIP3    H162617   5.274   5.581   0.592  0.3555 -0.9116 -0.4900
13734TIP3    H262618   5.186   5.618   0.709 -0.5448  0.2450 -1.5070
13735TIP3   OH262619   6.643   3.694  17.186 -0.1156 -0.0382 -0.3282
13735TIP3    H162620   6.699   3.652  17.119 -0.7328  0.2932 -1.0673
13735TIP3    H262621   6.678   3.782  17.194  0.4491 -0.3151  0.3751
13736TIP3   OH262622   4.840   2.483   1.260  0.4732 -0.1125  0.2694
13736TIP3    H162623   4.886   2.567   1.258  0.6173 -0.1643  1.0643
13736TIP3    H262624   4.909   2.418   1.243  0.7902 -0.2152  1.7931
13737TIP3   OH262625   0.207   0.199  14.425 -0.6638 -0.5840  0.1633
13737TIP3    H162626   0.199   0.179  14.332 -1.3067 -0.5625  0.2086
13737TIP3    H262627   0.138   0.148  14.467  0.2135 -1.3295  0.7498
13738TIP3   OH262628   0.609   4.185   3.371  0.1628 -0.2916  0.0788
13738TIP3    H162629   0.523   4.193   3.411  0.5594  0.0893  0.8633
13738TIP3    H262630   0.646   4.273   3.374  0.0880 -0.1799 -1.4085
13739TIP3   OH262631   5.822   2.184  13.462 -0.0960  0.4668  0.2303
13739TIP3    H162632   5.785   2.099  13.483 -0.4254  0.7440  0.7791
13739TIP3    H262633   5.749   2.245  13.467  0.0107  0.7037 -0.7424
13740TIP3   OH262634   1.493   3.608   3.416  0.2592 -0.3906  0.1504
13740TIP3    H162635   1.449   3.537   3.463  1.3023 -0.6126  0.8196
13740TIP3    H262636   1.570   3.629   3.470  0.2631  0.8887 -0.3076
13741TIP3   OH262637   3.064   5.601   1.745 -0.3393 -0.2032  0.1029
13741TIP3    H162638   3.153   5.636   1.747 -0.3959 -0.0763  1.3519
13741TIP3    H262639   3.039   5.595   1.837 -1.1094 -1.5679 -0.1702
13742TIP3   OH262640   5.800   2.944   1.749  0.3378 -0.9465  0.4660
13742TIP3    H162641   5.749   2.877   1.704  1.4935 -1.3136 -0.3210
13742TIP3    H262642   5.742   2.974   1.820 -0.7054 -1.8126  0.0069
13743TIP3   OH262643   3.840   6.732   4.353 -0.5687 -0.0591  0.0158
13743TIP3    H162644   3.887   6.734   4.436 -2.2778  1.6857  0.9918
13743TIP3    H262645   3.758   6.688   4.372 -1.0309  0.4517 -0.7180
13744TIP3   OH262646   6.400   0.212   3.186 -0.2589  0.2802 -0.2164
13744TIP3    H162647   6.358   0.148   3.128 -0.6104  0.5360 -0.2414
13744TIP3    H262648   6.355   0.203   3.270 -0.4938  0.6902 -0.2981
13745TIP3   OH262649   2.870   5.129  14.933 -0.6375  0.4462  0.4696
13745TIP3    H162650   2.902   5.045  14.902 -0.0781  0.7361  0.2404
13745TIP3    H262651   2.930   5.193  14.894 -1.4208  0.9951  0.1327
13746TIP3   OH262652   1.198   1.256   1.396 -0.1111  0.2143  0.5369
13746TIP3    H162653   1.131   1.221   1.455 -2.4714  0.8573 -1.5731
13746TIP3    H262654   1.156   1.333   1.356  1.3694 -0.1394 -1.8893
13747TIP3   OH262655   0.020   4.882   0.919 -0.6278 -0.3524  0.7428
13747TIP3    H162656   0.000   4.913   1.007  0.6521  2.1304  0.2601
13747TIP3    H262657  -0.049   4.819   0.900 -2.1142  0.5337  2.7719
13748TIP3   OH262658   2.170   4.785  13.319  0.2385  0.0602 -0.6186
13748TIP3    H162659   2.158   4.832  13.236  0.3696 -1.1507 -1.3482
13748TIP3    H262660   2.175   4.693  13.294 -1.7789 -0.5489  0.9317
13749TIP3   OH262661   4.323   4.460   4.132 -0.0780 -0.4036 -0.4118
13749TIP3    H162662   4.321   4.556   4.138  0.9595 -0.4215  0.6551
13749TIP3    H262663   4.284   4.430   4.214  0.4720 -0.8764 -0.3152
13750TIP3   OH262664   5.421   5.344  16.304 -0.2925  0.3588 -0.2568
13750TIP3    H162665   5.394   5.276  16.365  1.1463 -0.3444 -0.3526
13750TIP3    H262666   5.385   5.316  16.220 -1.1191  0.6129  0.0014
13751TIP3   OH262667   5.278   4.950   0.935 -0.3067 -1.0023  0.2138
13751TIP3    H162668   5.196   4.999   0.937 -0.4839 -1.3043  0.7557
13751TIP3    H262669   5.304   4.950   0.843 -0.1752  0.3108  0.2292
13752TIP3   OH262670   1.179   1.391  15.787 -0.8161 -0.2572  0.2453
13752TIP3    H162671   1.194   1.320  15.724 -1.0319  0.0134 -0.1164
13752TIP3    H262672   1.252   1.385  15.849 -0.4137 -0.3091 -0.2310
13753TIP3   OH262673   3.608   6.470  11.805  0.1363 -0.0849 -0.1308
13753TIP3    H162674   3.518   6.451  11.781 -0.0012  0.2018  0.1438
13753TIP3    H262675   3.601   6.540  11.870  0.5711  0.2094 -0.3916
13754TIP3   OH262676   0.027   5.747  15.778  0.2017 -0.2632 -0.4450
13754TIP3    H162677  -0.005   5.805  15.709  0.4228 -0.4573 -0.7157
13754TIP3    H262678   0.018   5.659  15.740  0.5901 -0.3512 -0.3329
13755TIP3   OH262679   3.043   1.070  10.617  0.1944 -0.0352  0.3755
13755TIP3    H162680   3.119   1.111  10.575  0.2343 -0.5426 -0.0755
13755TIP3    H262681   3.031   1.118  10.698 -0.9992  2.1911 -1.0340
13756TIP3   OH262682   4.290   5.498   2.270  0.4927 -0.4473  0.3968
13756TIP3    H162683   4.328   5.464   2.352  0.6093 -0.9791  0.1322
13756TIP3    H262684   4.354   5.473   2.203 -0.0765 -0.9063  0.0110
13757TIP3   OH262685   4.382   1.663  15.042  0.1420  0.2974  0.2138
13757TIP3    H162686   4.427   1.581  15.023  1.9148  1.2301  0.1615
13757TIP3    H262687   4.383   1.712  14.960 -0.4138  0.6014  0.3778
13758TIP3   OH262688   4.830   1.951  14.310 -0.1884 -0.4998 -0.5684
13758TIP3    H162689   4.807   1.922  14.398 -0.8201 -1.4949 -1.0395
13758TIP3    H262690   4.857   1.871  14.265  2.6375  0.3461 -0.5647
13759TIP3   OH262691   4.268   0.164  13.816 -0.5686 -0.1095 -0.0576
13759TIP3    H162692   4.280   0.196  13.726 -0.3087 -0.9374 -0.3265
13759TIP3    H262693   4.351   0.180  13.859 -0.3978 -0.5105 -0.2283
13760TIP3   OH262694   0.244   3.793  15.536 -0.2016  0.0402 -0.1376
13760TIP3    H162695   0.287   3.711  15.513  0.8983  0.7238 -0.5801
13760TIP3    H262696   0.155   3.767  15.560  0.1107 -1.2702 -0.3097
13761TIP3   OH262697   4.424   2.675   2.225  0.4039  0.2843 -0.8334
13761TIP3    H162698   4.399   2.750   2.278  2.0354  0.0063  0.4386
13761TIP3    H262699   4.519   2.684   2.213  0.9339 -2.2334  0.5853
13762TIP3   OH262700   1.618   2.282   3.061 -0.3150 -0.2457 -0.2157
13762TIP3    H162701   1.611   2.285   3.157 -0.9242 -1.2913 -0.2091
13762TIP3    H262702   1.704   2.318   3.042 -0.5931  0.9360  0.6549
13763TIP3   OH262703   3.703   2.812  12.805 -0.0570  0.2818  0.2566
13763TIP3    H162704   3.670   2.888  12.757  0.8192  1.0585  0.8465
13763TIP3    H262705   3.692   2.739  12.744 -2.2403  0.5927  0.2073
13764TIP3   OH262706   5.143   5.173   4.467 -0.2592 -0.3010 -0.4229
13764TIP3    H162707   5.163   5.080   4.477  2.0604  0.2433  0.6289
13764TIP3    H262708   5.147   5.188   4.372  1.9139 -0.8258 -0.4701
13765TIP3   OH262709   2.823   3.843   5.736 -0.0982  0.0698 -0.4308
13765TIP3    H162710   2.842   3.879   5.822 -1.4635 -2.2494  0.9562
13765TIP3    H262711   2.886   3.772   5.725 -1.6014 -1.3756 -0.0926
13766TIP3   OH262712   2.666   1.651   1.776  0.2307  0.4159 -0.2256
13766TIP3    H162713   2.598   1.594   1.812  0.9082 -0.9682 -1.0841
13766TIP3    H262714   2.643   1.738   1.809 -0.3113 -0.4517  1.8697
13767TIP3   OH262715   6.303   4.030   3.980  0.4529  0.4983  0.1307
13767TIP3    H162716   6.254   3.985   3.911 -2.4129  3.1024  0.1964
13767TIP3    H262717   6.367   4.084   3.933  2.1966 -1.6213 -0.0666
13768TIP3   OH262718   3.223   6.334  17.097 -0.2523  0.0612 -0.1738
13768TIP3    H162719   3.250   6.298  17.182 -0.2775  2.2546  0.8131
13768TIP3    H262720   3.153   6.275  17.068  0.0036 -0.9368  1.1293
13769TIP3   OH262721   4.571   2.247  15.319  0.0549  0.2887 -0.0478
13769TIP3    H162722   4.525   2.312  15.266 -2.1807 -0.9267  0.2579
13769TIP3    H262723   4.518   2.167  15.310  1.7434 -1.0200  0.9591
13770TIP3   OH262724   3.934   3.784   4.465  0.3648  0.3612 -0.1151
13770TIP3    H162725   3.997   3.837   4.513  0.8568 -1.3159  1.1726
13770TIP3    H262726   3.951   3.804   4.373  0.0399  2.9255  0.3206
13771TIP3   OH262727   5.867   4.306   5.617 -0.0858  0.1005  0.1316
13771TIP3    H162728   5.816   4.297   5.537 -1.3268 -3.2742  1.1160
13771TIP3    H262729   5.817   4.368   5.671 -0.0970  1.1301 -1.0343
13772TIP3   OH262730   6.149   6.073   5.195  0.5577  0.0258  0.2964
13772TIP3    H162731   6.224   6.046   5.249 -0.2929 -2.0859  0.5216
13772TIP3    H262732   6.079   6.088   5.259  0.4939  1.0606  0.0078
13773TIP3   OH262733   3.322   0.315  15.348 -0.0487 -0.4870  0.2612
13773TIP3    H162734   3.412   0.313  15.379  0.4691 -0.8656 -1.1736
13773TIP3    H262735   3.299   0.223  15.333 -0.7541 -0.4131  0.7896
13774TIP3   OH262736   5.472   1.729   3.907 -0.2484 -0.6726  0.7157
13774TIP3    H162737   5.383   1.706   3.884 -0.2899 -0.7922  0.9850
13774TIP3    H262738   5.505   1.653   3.954 -0.5237 -0.0489  1.9824
13775TIP3   OH262739   3.713   4.330   3.815 -0.0388  0.2977 -0.5737
13775TIP3    H162740   3.787   4.305   3.870 -0.6346  0.6269  0.3925
13775TIP3    H262741   3.641   4.275   3.844 -1.0050  2.0910  0.6593
13776TIP3   OH262742   2.404   1.404  15.409  0.3532  1.2017  0.4762
13776TIP3    H162743   2.449   1.360  15.482 -2.3223  0.4365  1.7945
13776TIP3    H262744   2.383   1.491  15.443  0.4922  1.4152  0.0159
13777TIP3   OH262745   0.453   3.642   5.425  0.0405  0.1914 -0.5614
13777TIP3    H162746   0.442   3.693   5.505 -1.3184 -0.9263 -0.0018
13777TIP3    H262747   0.517   3.575   5.448 -1.0120 -0.6829 -0.1047
13778TIP3   OH262748   6.593   2.704   2.748  0.2868  0.1030 -0.1831
13778TIP3    H162749   6.582   2.740   2.836  0.7357 -1.3584  0.4946
13778TIP3    H262750   6.548   2.619   2.750  0.1072  0.1441 -1.4398
13779TIP3   OH262751   6.065   3.171  16.803  0.1299  0.2623 -0.2763
13779TIP3    H162752   6.107   3.179  16.888  1.9916 -1.4703 -0.9374
13779TIP3    H262753   6.123   3.219  16.743  0.4247 -0.9284 -0.9814
13780TIP3   OH262754   6.764   3.116  15.938 -0.0998 -0.3366  0.0687
13780TIP3    H162755   6.834   3.056  15.913 -0.7531 -1.3351  0.5996
13780TIP3    H262756   6.800   3.203  15.919  1.2577 -0.8271  0.2759
13781TIP3   OH262757   5.761   5.276   2.778 -0.5433  0.0091  0.9290
13781TIP3    H162758   5.689   5.213   2.782 -0.7790  0.1744 -0.3045
13781TIP3    H262759   5.834   5.232   2.820 -0.2573 -1.7491 -1.2145
13782TIP3   OH262760   1.520   4.840   2.365  0.4416  0.4764  0.2128
13782TIP3    H162761   1.564   4.850   2.450  0.9734 -2.2169  0.3272
13782TIP3    H262762   1.569   4.771   2.320 -1.6542 -0.2838 -1.0377
13783TIP3   OH262763   0.487   6.025  15.764 -0.2414 -0.4878 -0.3435
13783TIP3    H162764   0.489   6.053  15.672  1.1263  0.0507 -0.1797
13783TIP3    H262765   0.552   5.955  15.769 -1.0633 -1.2398  0.0073
13784TIP3   OH262766   0.368   5.732  16.776 -0.1631 -0.0096  0.2544
13784TIP3    H162767   0.444   5.790  16.767  0.7093 -1.1909 -0.2519
13784TIP3    H262768   0.327   5.731  16.690 -0.3059  0.0268  0.3213
13785TIP3   OH262769   1.478   1.517  17.060  0.3081  0.0567 -0.3993
13785TIP3    H162770   1.527   1.591  17.024  1.1928  0.4977  1.6010
13785TIP3    H262771   1.386   1.542  17.050  0.5996  1.4938  0.3488
13786TIP3   OH262772   3.805   3.934  13.615  0.8680  0.0345  0.5026
13786TIP3    H162773   3.830   3.920  13.706  1.2267 -1.3539  0.2243
13786TIP3    H262774   3.809   3.846  13.576 -2.2642  0.0611 -0.1224
13787TIP3   OH262775   1.977   3.720   5.410 -0.1434  0.0353 -0.0733
13787TIP3    H162776   1.907   3.664   5.444  0.1615  0.3614  1.1474
13787TIP3    H262777   2.033   3.736   5.485  1.0100  0.1489 -0.9380
13788TIP3   OH262778   3.075   4.421   4.737  1.0959  0.2804 -0.0729
13788TIP3    H162779   3.127   4.428   4.656  0.4090 -0.2335 -0.5647
13788TIP3    H262780   3.022   4.501   4.738  0.2718 -0.2349 -0.7365
13789TIP3   OH262781   1.584   0.038   1.397 -0.1761 -0.5584 -0.1496
13789TIP3    H162782   1.598  -0.057   1.402 -0.6507 -0.7728 -2.1527
13789TIP3    H262783   1.490   0.049   1.409  0.0885 -0.1416  1.8489
13790TIP3   OH262784   4.315   4.039   0.908  0.0586  0.6932 -0.6679
13790TIP3    H162785   4.282   4.005   0.990  0.2321 -2.1543 -1.6786
13790TIP3    H262786   4.410   4.025   0.912  0.2074  1.5004 -0.9767
13791TIP3   OH262787   5.570   2.888   3.770  0.4957 -0.4575 -0.2829
13791TIP3    H162788   5.516   2.966   3.760  1.5776  0.4729  0.8406
13791TIP3    H262789   5.508   2.817   3.784 -0.4642  0.5004  0.5040
13792TIP3   OH262790   0.526   4.997   1.242 -0.4622 -0.6569 -0.2351
13792TIP3    H162791   0.436   5.012   1.215 -0.3889  0.0380 -0.1138
13792TIP3    H262792   0.542   4.904   1.224 -1.1215 -0.7247 -0.4763
13793TIP3   OH262793   4.569   1.441   5.184 -0.0351  0.1495 -0.0961
13793TIP3    H162794   4.535   1.367   5.234 -0.1432  0.6034  0.5161
13793TIP3    H262795   4.534   1.518   5.229 -1.7201  0.5546 -1.9624
13794TIP3   OH262796   2.757   3.422   0.162  0.1477 -0.2294 -0.3362
13794TIP3    H162797   2.704   3.347   0.191  0.8607 -0.9946 -0.9483
13794TIP3    H262798   2.730   3.494   0.220 -0.5519 -0.9543  0.2741
13795TIP3   OH262799   1.526   1.115   3.476  0.5604 -0.2241  0.1815
13795TIP3    H162800   1.436   1.139   3.453 -0.3022 -1.8149  1.7022
13795TIP3    H262801   1.579   1.187   3.442 -1.5447  2.1895  1.6593
13796TIP3   OH262802   0.474   3.661   1.451 -0.6641  0.1250 -0.2775
13796TIP3    H162803   0.532   3.693   1.519 -2.1220  2.2234  0.0956
13796TIP3    H262804   0.420   3.594   1.494  0.2254 -0.5283 -0.1531
13797TIP3   OH262805   1.405   5.179   1.969 -0.8227  0.3901  0.3304
13797TIP3    H162806   1.434   5.088   1.979 -0.1846  0.5209 -0.2324
13797TIP3    H262807   1.395   5.190   1.874 -1.1065  0.8466  0.4115
13798TIP3   OH262808   1.057   0.429  12.989 -0.3906  0.2091 -0.0656
13798TIP3    H162809   1.127   0.365  13.004  0.7525  0.9742 -1.8865
13798TIP3    H262810   1.004   0.391  12.920 -1.0577  0.2167  0.4319
13799TIP3   OH262811   1.668   5.396   4.464  0.5762 -0.0254 -0.0628
13799TIP3    H162812   1.701   5.309   4.442 -1.6462 -1.3612  1.3924
13799TIP3    H262813   1.722   5.425   4.537 -0.5881 -1.6504  1.5264
13800TIP3   OH262814   6.112   3.970  14.246  0.7710 -0.8762  0.3065
13800TIP3    H162815   6.092   3.926  14.164  0.7622 -1.0877  0.4211
13800TIP3    H262816   6.028   3.980  14.290  0.6393  0.1326 -0.1497
13801TIP3   OH262817   5.991   6.451   5.264 -0.2832  0.0142  0.8561
13801TIP3    H162818   5.997   6.507   5.187 -0.1818 -0.8492  0.2392
13801TIP3    H262819   5.922   6.492   5.317  0.6215  1.4380  1.0191
13802TIP3   OH262820   5.237   1.118   4.584 -0.1611 -0.4075  0.2588
13802TIP3    H162821   5.287   1.061   4.526 -0.2850  0.0430 -0.3019
13802TIP3    H262822   5.197   1.059   4.648  1.1671 -0.7688  0.7785
13803TIP3   OH262823   4.949   3.139  15.620  0.0382 -0.1837 -0.2464
13803TIP3    H162824   4.957   3.229  15.589 -2.2672  0.5249  0.9466
13803TIP3    H262825   4.862   3.111  15.589 -0.3894 -1.0300  1.5900
13804TIP3   OH262826   6.394   4.175   2.742  0.3688 -0.2477  0.6740
13804TIP3    H162827   6.393   4.270   2.755 -0.4303 -0.1821  0.2305
13804TIP3    H262828   6.455   4.142   2.808 -0.0238  0.4948  1.4288
13805TIP3   OH262829   4.659   4.989   5.478  0.2350  0.6428  0.3322
13805TIP3    H162830   4.702   5.067   5.444 -0.0429  0.9882  0.7621
13805TIP3    H262831   4.600   5.022   5.547 -0.6608  0.1716 -0.1939
13806TIP3   OH262832   2.895   5.521   3.841 -0.3764 -0.7052 -0.0727
13806TIP3    H162833   2.826   5.576   3.877  1.2756  0.9937  0.6867
13806TIP3    H262834   2.910   5.455   3.908 -2.1436 -1.9623 -0.8413
13807TIP3   OH262835   5.698   6.043  14.955 -0.3867 -0.1905 -0.2076
13807TIP3    H162836   5.765   6.086  15.009 -0.3338 -1.0450  0.4354
13807TIP3    H262837   5.628   6.108  14.948  0.5572  0.7668 -1.0025
13808TIP3   OH262838   1.590   5.322  12.188  0.2392 -0.6130 -0.4190
13808TIP3    H162839   1.670   5.289  12.230  1.5464  1.1161 -1.4170
13808TIP3    H262840   1.607   5.312  12.094  0.0896  1.4129 -0.7054
13809TIP3   OH262841   3.394   6.612   3.779  0.1380 -0.0664 -0.1344
13809TIP3    H162842   3.346   6.637   3.700 -1.6920 -0.0922  0.9162
13809TIP3    H262843   3.393   6.690   3.834 -0.2298 -0.5965  0.6276
13810TIP3   OH262844   1.469   3.218   6.009  0.0733  0.7916  0.0872
13810TIP3    H162845   1.539   3.236   6.071  0.4667  2.5182 -0.7907
13810TIP3    H262846   1.389   3.217   6.063  0.4422  1.9147  0.6931
13811TIP3   OH262847   6.468   1.040  10.834 -0.7239 -0.4089 -0.2660
13811TIP3    H162848   6.542   1.017  10.778  0.2377 -1.1102  1.2333
13811TIP3    H262849   6.466   1.136  10.832 -1.8047 -0.4041 -2.8122
13812TIP3   OH262850   2.735   0.212  14.168 -0.2942 -0.0262 -0.0660
13812TIP3    H162851   2.647   0.244  14.187  0.3165  1.7171  0.0306
13812TIP3    H262852   2.764   0.171  14.250 -0.7842 -0.0229  0.1086
13813TIP3   OH262853   6.448   3.673  15.056 -0.2169 -0.0168  0.1369
13813TIP3    H162854   6.469   3.643  15.144 -0.6667 -0.4075  0.1136
13813TIP3    H262855   6.352   3.667  15.051 -0.2102  0.2071 -0.3056
13814TIP3   OH262856   0.237   3.262  16.550 -0.1541 -0.0796 -0.0743
13814TIP3    H162857   0.242   3.228  16.640  0.8927 -0.8491 -0.4143
13814TIP3    H262858   0.220   3.185  16.496 -0.7476  0.3763 -0.5558
13815TIP3   OH262859   6.084   1.618   6.152  0.1595  0.0053 -0.0240
13815TIP3    H162860   6.102   1.640   6.244 -0.5244 -0.9679  0.3668
13815TIP3    H262861   6.032   1.538   6.157  2.1723 -1.4593 -1.3345
13816TIP3   OH262862   1.367   1.123  12.998  0.3879 -0.4996  0.0307
13816TIP3    H162863   1.454   1.116  12.959  1.4816 -2.6900  2.5741
13816TIP3    H262864   1.329   1.036  12.988 -0.0198 -0.6116  2.1175
13817TIP3   OH262865   2.368   2.643  14.759  0.1100 -0.6370  0.3818
13817TIP3    H162866   2.462   2.626  14.764  0.2652 -0.2304 -0.8889
13817TIP3    H262867   2.333   2.573  14.705 -0.1889 -0.3376  0.1841
13818TIP3   OH262868   2.123   6.725   1.326  0.1468 -0.4879  0.1614
13818TIP3    H162869   2.035   6.759   1.347  0.1870 -0.8748  1.0095
13818TIP3    H262870   2.106   6.645   1.275 -0.0089 -0.6779  0.5025
13819TIP3   OH262871   5.018   3.036   0.893 -0.2861 -0.3025 -0.2705
13819TIP3    H162872   4.961   3.003   0.824 -0.8600  0.5542 -0.2134
13819TIP3    H262873   4.998   3.129   0.900  1.4846  0.1392 -0.5807
13820TIP3   OH262874   0.530   2.715   5.384  0.7332 -0.1810 -0.5484
13820TIP3    H162875   0.516   2.749   5.472 -0.5816 -0.0855 -0.7689
13820TIP3    H262876   0.444   2.681   5.358  1.5734 -2.0490 -1.0215
13821TIP3   OH262877   5.348   4.715  13.253 -0.1613 -1.1204 -0.4871
13821TIP3    H162878   5.400   4.690  13.176  1.9739 -0.0422  0.5309
13821TIP3    H262879   5.406   4.702  13.327 -1.3673  0.1001  0.7408
13822TIP3   OH262880   2.758   0.155   4.746  0.5275  0.4087  0.0588
13822TIP3    H162881   2.817   0.181   4.816  1.2478  1.0568 -0.7617
13822TIP3    H262882   2.769   0.060   4.739  3.3780  0.7634 -1.6899
13823TIP3   OH262883   0.787   1.854   5.118  0.4111 -0.8835  0.1643
13823TIP3    H162884   0.780   1.763   5.091  0.6683 -1.3761  1.6542
13823TIP3    H262885   0.718   1.899   5.069  0.4784 -1.8139 -0.8140
13824TIP3   OH262886   6.335   2.821  13.033 -0.2739 -0.1635 -0.4595
13824TIP3    H162887   6.330   2.748  13.095  1.7150  1.2842  1.5427
13824TIP3    H262888   6.404   2.796  12.972 -1.4368 -1.0750 -1.4548
13825TIP3   OH262889   0.750   4.031   4.056  0.8462 -0.1669 -0.7616
13825TIP3    H162890   0.705   4.067   3.980 -2.0886 -0.1706  0.8220
13825TIP3    H262891   0.775   4.108   4.107  0.7663 -0.2069 -0.6611
13826TIP3   OH262892   3.873   0.725  11.740  0.6549  0.2458 -0.4501
13826TIP3    H162893   3.941   0.776  11.695 -0.6457  1.1045 -1.5288
13826TIP3    H262894   3.839   0.784  11.807 -0.6887  0.7491 -1.5393
13827TIP3   OH262895   1.960   6.199  14.067 -0.0873  0.0100  0.1412
13827TIP3    H162896   1.898   6.131  14.039 -1.1374  0.6143  0.9024
13827TIP3    H262897   1.996   6.233  13.985 -1.3475  0.1559 -0.3880
13828TIP3   OH262898   3.913   6.204   1.715 -0.0656  0.2740 -0.2800
13828TIP3    H162899   3.960   6.175   1.793 -1.7313 -0.3856  0.5158
13828TIP3    H262900   3.885   6.123   1.672  2.2063  0.5490 -2.5204
13829TIP3   OH262901   2.581   2.883   3.646  0.2670  0.1308 -0.0718
13829TIP3    H162902   2.496   2.841   3.658  0.1343  0.6109  0.7629
13829TIP3    H262903   2.577   2.960   3.703  0.8082  0.8174 -0.9374
13830TIP3   OH262904   5.971   5.332  16.006  0.0285 -0.4803 -0.2394
13830TIP3    H162905   5.998   5.351  15.916 -0.5667  1.8923  0.0043
13830TIP3    H262906   5.876   5.343  16.005 -0.0112 -0.6745  0.6326
13831TIP3   OH262907   2.209   1.328   0.813 -0.1608 -0.1201  0.5705
13831TIP3    H162908   2.219   1.381   0.733  1.8354  1.7374  1.9398
13831TIP3    H262909   2.177   1.391   0.878  0.2737 -1.0943  1.7485
13832TIP3   OH262910   4.930   1.954  10.661 -0.4120 -0.6719 -0.0574
13832TIP3    H162911   4.890   1.869  10.647  0.2637 -1.1718  0.9475
13832TIP3    H262912   5.017   1.935  10.694 -0.3109  0.4136  0.3507
13833TIP3   OH262913   6.109   6.299   5.053 -0.5887  0.2537  0.3139
13833TIP3    H162914   6.116   6.213   5.093  1.1470  1.4976  2.9186
13833TIP3    H262915   6.062   6.352   5.117 -0.2589  1.6506 -0.5511
13834TIP3   OH262916   5.314   1.598   4.979 -0.4192 -0.3065  0.7694
13834TIP3    H162917   5.274   1.520   4.941 -0.5767  0.4928 -0.7674
13834TIP3    H262918   5.335   1.654   4.904  0.7996  0.6154  1.7489
13835TIP3   OH262919   2.682   2.005  11.197 -0.3667  0.0013  0.4059
13835TIP3    H162920   2.623   2.000  11.272  0.2110  0.1080  0.8723
13835TIP3    H262921   2.669   1.923  11.150  0.2661 -0.6666  1.3777
13836TIP3   OH262922   4.112   1.870  12.628  0.1515 -0.3589 -0.3799
13836TIP3    H162923   4.060   1.873  12.547  0.5406 -2.4507 -0.7799
13836TIP3    H262924   4.071   1.801  12.680 -0.3135  1.2123  1.4281
13837TIP3   OH262925   3.096   3.562   1.329 -0.0831 -0.0252 -0.4178
13837TIP3    H162926   3.081   3.582   1.237  0.8323  0.0576 -0.5541
13837TIP3    H262927   3.116   3.469   1.330  0.1092  0.0173 -0.3262
13838TIP3   OH262928   0.566   6.121   3.720  0.2061 -0.3231 -0.6798
13838TIP3    H162929   0.507   6.186   3.760  1.4200  0.3550  0.0741
13838TIP3    H262930   0.522   6.037   3.735 -0.0734  0.0557  0.8364
13839TIP3   OH262931   2.756   4.701  13.980 -0.2433 -0.0161  0.2130
13839TIP3    H162932   2.754   4.611  14.014  0.7374  0.0137  0.3965
13839TIP3    H262933   2.683   4.706  13.919 -0.3944 -0.8957  0.3103
13840TIP3   OH262934   3.090   4.648   6.756  0.0692 -0.4192  0.1930
13840TIP3    H162935   3.046   4.563   6.749 -1.0808  0.2187 -0.9121
13840TIP3    H262936   3.172   4.637   6.708 -0.6334 -0.5803 -1.0049
13841TIP3   OH262937   1.867   5.166   1.945  0.1586  0.6987 -0.5525
13841TIP3    H162938   1.831   5.203   1.864  0.0926  1.9975  0.0482
13841TIP3    H262939   1.940   5.223   1.967  0.9653 -0.3748 -0.3375
13842TIP3   OH262940   4.746   2.549  14.571  0.1137 -0.1592 -0.3620
13842TIP3    H162941   4.695   2.535  14.491  0.8104 -3.0551 -0.3849
13842TIP3    H262942   4.835   2.524  14.548  0.9800  1.8439  0.5511
13843TIP3   OH262943   6.055   0.270   1.072 -0.3150 -0.1000 -0.1450
13843TIP3    H162944   6.139   0.264   1.118 -0.6772  1.8628  0.9219
13843TIP3    H262945   6.001   0.327   1.129 -2.3185 -1.1827 -0.8653
13844TIP3   OH262946   0.437   3.213  14.557  0.0418  0.0414 -0.3878
13844TIP3    H162947   0.429   3.244  14.467  0.4817  0.6007 -0.2362
13844TIP3    H262948   0.403   3.124  14.555 -1.7100  0.6713 -0.7412
13845TIP3   OH262949   0.134   5.429   2.293  0.6752 -0.0174  0.0738
13845TIP3    H162950   0.061   5.471   2.339  0.8036  1.8189 -1.2942
13845TIP3    H262951   0.208   5.489   2.304  1.4949 -0.9584 -0.1120
13846TIP3   OH262952   0.335   2.417   1.659  1.0119 -0.0935 -0.0444
13846TIP3    H162953   0.314   2.481   1.727 -1.7002  0.7406 -1.5342
13846TIP3    H262954   0.350   2.336   1.707  2.8874  1.2099  1.7675
13847TIP3   OH262955   0.694   3.927  16.611 -0.0695 -0.1677  0.6947
13847TIP3    H162956   0.628   3.889  16.553 -0.0356  0.0203  0.5311
13847TIP3    H262957   0.765   3.862  16.612  0.2526  0.1567 -0.0680
13848TIP3   OH262958   4.938   1.215  15.928 -0.5387  0.3401 -0.0031
13848TIP3    H162959   4.932   1.306  15.959 -0.1021  0.1525  0.6525
13848TIP3    H262960   4.901   1.163  16.000 -0.8176  0.0020 -0.3920
13849TIP3   OH262961   5.430   5.420   1.709 -0.9016  0.3201  0.0356
13849TIP3    H162962   5.385   5.370   1.641 -1.8162 -0.3099  1.0752
13849TIP3    H262963   5.441   5.507   1.672 -0.3200 -0.3222 -1.3704
13850TIP3   OH262964   4.018   2.861  14.336 -0.3097 -0.1040 -0.0328
13850TIP3    H162965   4.065   2.781  14.361  0.7290  1.5174  4.1061
13850TIP3    H262966   4.084   2.915  14.294  0.0431 -0.0320  0.5926
13851TIP3   OH262967   4.156   5.546   4.857  0.4648  0.0431  0.1230
13851TIP3    H162968   4.062   5.561   4.871 -0.2262 -2.2558 -1.4471
13851TIP3    H262969   4.185   5.624   4.809 -0.8658  0.4186 -0.1374
13852TIP3   OH262970   4.727   1.463  16.998 -0.3864  0.4475  0.5183
13852TIP3    H162971   4.679   1.440  16.919 -0.1373 -0.3632  0.5974
13852TIP3    H262972   4.766   1.548  16.979 -0.2073  0.1924 -0.2871
13853TIP3   OH262973   5.020   2.024  12.568 -0.0617 -0.4458  0.0853
13853TIP3    H162974   5.115   2.020  12.585  0.0431 -0.6778 -0.5037
13853TIP3    H262975   5.013   2.008  12.474 -0.7387 -1.1468  0.2482
13854TIP3   OH262976   4.790   0.112  12.086 -0.1530 -0.5544  0.0727
13854TIP3    H162977   4.756   0.057  12.015  0.9476 -0.4572 -0.5541
13854TIP3    H262978   4.772   0.063  12.166 -2.8406  0.0247 -0.0645
13855TIP3   OH262979   4.251   6.610  16.623  0.0926  0.4814 -0.7222
13855TIP3    H162980   4.295   6.545  16.679  1.2346  0.7062 -1.3260
13855TIP3    H262981   4.158   6.598  16.641  0.4142  0.5089  1.1927
13856TIP3   OH262982   3.826   3.482   0.926 -0.4649  0.2202 -0.2192
13856TIP3    H162983   3.869   3.527   0.998 -0.5736  1.1953 -0.7405
13856TIP3    H262984   3.765   3.547   0.890  0.7477  0.3267 -2.2059
13857TIP3   OH262985   2.730   3.097  13.056  0.3277 -0.2729  0.1574
13857TIP3    H162986   2.641   3.120  13.080  1.3828  1.0696  3.3677
13857TIP3    H262987   2.770   3.180  13.029  0.5971 -0.9045 -1.5067
13858TIP3   OH262988   4.107   0.959   0.373 -0.2809 -0.6872  0.5675
13858TIP3    H162989   4.062   1.030   0.328  1.8715  0.7143  0.4715
13858TIP3    H262990   4.054   0.882   0.355 -0.4269  0.0728 -3.0270
13859TIP3   OH262991   4.031   5.763   1.040  0.7602  0.1036  0.2188
13859TIP3    H162992   4.013   5.854   1.017 -0.2864  0.4350  2.0822
13859TIP3    H262993   4.111   5.741   0.993  0.0282  1.3821 -1.7282
13860TIP3   OH262994   4.440   0.749   0.625 -0.0155 -0.3804 -0.5067
13860TIP3    H162995   4.494   0.728   0.701 -0.8623 -0.7641  0.0029
13860TIP3    H262996   4.431   0.844   0.626  1.4710 -0.2126 -1.1779
13861TIP3   OH262997   5.951   4.748  15.925 -0.4506  0.1462 -0.3432
13861TIP3    H162998   6.003   4.704  15.992 -2.5870  0.9106  1.9888
13861TIP3    H262999   5.912   4.678  15.874  1.1941 -0.4518 -0.8532
13862TIP3   OH263000   1.689   3.485   0.780 -0.9293  0.1573  0.1728
13862TIP3    H163001   1.680   3.496   0.874 -0.0479  0.6056  0.2140
13862TIP3    H263002   1.599   3.487   0.747 -1.1477  3.5711  0.6286
13863TIP3   OH263003   2.373   0.402  16.510 -0.7090  0.0259 -0.4072
13863TIP3    H163004   2.343   0.493  16.519 -0.1847  0.3397 -1.6791
13863TIP3    H263005   2.388   0.391  16.416 -1.8621 -1.7383 -0.4285
13864TIP3   OH263006   2.293   2.168   0.145 -0.3949 -0.0796 -0.3622
13864TIP3    H163007   2.322   2.148   0.056 -1.1694  0.3891 -0.7254
13864TIP3    H263008   2.316   2.260   0.157  0.6564 -0.4125  0.3095
13865TIP3   OH263009   4.337   6.527   4.661  0.5325 -0.1115 -0.3879
13865TIP3    H163010   4.419   6.478   4.661 -0.2206 -1.4806 -2.3250
13865TIP3    H263011   4.286   6.490   4.733  0.7061 -0.8978 -0.6643
13866TIP3   OH263012   0.364   0.684   1.310 -0.0362 -0.6304 -0.4538
13866TIP3    H163013   0.385   0.724   1.226  0.2897  0.4389  0.1250
13866TIP3    H263014   0.448   0.677   1.355 -0.3822  0.0711  0.3218
13867TIP3   OH263015   6.726   4.007  12.649  0.2809  0.2784  0.1609
13867TIP3    H163016   6.789   4.074  12.674  0.6242  0.3567 -0.8843
13867TIP3    H263017   6.779   3.936  12.612 -0.3393  1.4898 -3.3864
13868TIP3   OH263018   6.124   0.210   1.810  0.1180  0.0780 -0.0902
13868TIP3    H163019   6.034   0.198   1.842  0.9409 -2.6666  1.4574
13868TIP3    H263020   6.172   0.242   1.886  0.7736  0.0902 -0.5072
13869TIP3   OH263021   6.303   2.452  14.205  0.0086 -0.4241  0.1100
13869TIP3    H163022   6.285   2.400  14.127 -0.9860 -1.1278  0.7884
13869TIP3    H263023   6.369   2.401  14.253 -2.0006 -1.9095  1.4973
13870TIP3   OH263024   3.527   0.292  10.527  0.1415 -0.8881  0.4155
13870TIP3    H163025   3.437   0.322  10.536 -0.1440 -0.8538 -1.9779
13870TIP3    H263026   3.520   0.199  10.506  0.5354 -0.5549 -1.3426
13871TIP3   OH263027   1.511   1.289  15.644 -0.3075  0.5252  0.4220
13871TIP3    H163028   1.537   1.363  15.699  0.3397 -0.3889  1.3914
13871TIP3    H263029   1.451   1.238  15.700  0.3730 -0.4332  0.3071
13872TIP3   OH263030   4.961   4.778  17.155  0.3573  0.0106  0.1782
13872TIP3    H163031   5.052   4.750  17.154  0.7914  1.3618  0.3174
13872TIP3    H263032   4.927   4.752  17.069  0.6565 -1.1319  0.3951
13873TIP3   OH263033   2.587   6.688   0.371 -0.3686 -0.6513  0.4548
13873TIP3    H163034   2.668   6.639   0.354 -0.4560 -0.4174 -0.7491
13873TIP3    H263035   2.607   6.742   0.447  1.1317  0.5073 -0.6932
13874TIP3   OH263036   4.276   6.710   0.145 -0.2133  0.3224 -0.4817
13874TIP3    H163037   4.248   6.802   0.148 -0.8252  0.1409 -0.5117
13874TIP3    H263038   4.216   6.665   0.204  1.8270  0.3781  1.7934
13875TIP3   OH263039   0.553   3.217  17.229 -0.0822  0.3031  0.6188
13875TIP3    H163040   0.543   3.128  17.196  0.2316  0.4028  0.2540
13875TIP3    H263041   0.466   3.239  17.264 -0.0691 -0.2661  1.0217
13876TIP3   OH263042   6.536   4.090   4.853  0.1687  0.1834 -0.0245
13876TIP3    H163043   6.622   4.112   4.889 -0.4517  1.4557  0.7727
13876TIP3    H263044   6.489   4.050   4.926  0.0183 -0.3201 -0.3960
13877TIP3   OH263045   3.107   1.511  16.102 -0.6598  0.2561  0.1988
13877TIP3    H163046   3.123   1.418  16.121 -0.8886 -0.0018 -0.7891
13877TIP3    H263047   3.072   1.511  16.013 -1.1613  1.2567  0.3883
13878TIP3   OH263048   2.466   1.689  14.201  0.0936 -0.1558  0.8487
13878TIP3    H163049   2.483   1.768  14.253  2.3378 -0.4334  0.6448
13878TIP3    H263050   2.519   1.700  14.122 -2.4618 -0.2120 -1.0074
13879TIP3   OH263051   3.304   1.153  13.701  0.7233 -0.3426  0.2779
13879TIP3    H163052   3.311   1.126  13.609 -0.7014 -1.3801  0.4396
13879TIP3    H263053   3.324   1.247  13.700 -1.0650  0.0869 -1.3929
13880TIP3   OH263054   0.729   4.084   2.359  0.0768  0.1298  0.0512
13880TIP3    H163055   0.715   4.177   2.344  0.1518 -0.0421 -1.1741
13880TIP3    H263056   0.818   4.078   2.394 -0.8448  0.7300  2.7200
13881TIP3   OH263057   4.821   1.531   4.952  0.4910  0.2236 -0.1261
13881TIP3    H163058   4.905   1.486   4.941  1.7473  2.2777  0.5889
13881TIP3    H263059   4.782   1.491   5.030  0.8199 -0.6878 -0.4137
13882TIP3   OH263060   0.261   4.384  16.460  0.1426  0.0355  0.1696
13882TIP3    H163061   0.180   4.376  16.510  0.5585  0.4016  0.9221
13882TIP3    H263062   0.324   4.420  16.522  0.6200  0.7178 -0.6829
13883TIP3   OH263063   0.151   6.000  16.278 -0.1518 -0.4212  0.3592
13883TIP3    H163064   0.101   6.019  16.357  0.2252 -1.0215  0.7610
13883TIP3    H263065   0.099   6.035  16.206 -0.2528  0.6078  0.9135
13884TIP3   OH263066   6.467   0.707  16.090 -0.4904  0.5372  0.6024
13884TIP3    H163067   6.458   0.684  16.183  2.4331 -3.5205  0.1181
13884TIP3    H263068   6.561   0.705  16.074 -0.9871 -0.9743 -2.8505
13885TIP3   OH263069   5.406   6.376   2.981  0.1261 -0.5991 -0.0738
13885TIP3    H163070   5.449   6.456   3.011 -0.0230 -1.2672  2.0665
13885TIP3    H263071   5.455   6.306   3.023 -1.3545 -1.4999  0.1818
13886TIP3   OH263072   1.553   3.061  16.442 -0.2850  0.1506  0.8169
13886TIP3    H163073   1.554   3.085  16.349 -1.6280 -0.5773  0.6003
13886TIP3    H263074   1.627   3.110  16.480  1.6637 -1.1889 -1.0181
13887TIP3   OH263075   5.905   4.182   3.182 -0.5363 -0.6794  0.0638
13887TIP3    H163076   5.924   4.099   3.137 -0.9285 -0.4390 -0.5533
13887TIP3    H263077   5.930   4.166   3.273  0.8290 -0.9813 -0.3485
13888TIP3   OH263078   3.620   5.361   2.721 -0.6531  0.2498 -0.1052
13888TIP3    H163079   3.670   5.389   2.645 -1.4382 -1.0851 -1.1542
13888TIP3    H263080   3.565   5.436   2.743 -0.4022  0.6469 -0.8324
13889TIP3   OH263081   2.877   1.816  13.505  0.1204 -0.3167  0.2735
13889TIP3    H163082   2.903   1.789  13.593 -2.1552 -2.6836  0.3609
13889TIP3    H263083   2.911   1.747  13.448 -1.7154 -0.9281 -0.1530
13890TIP3   OH263084   3.656   2.868  15.572  0.4723  0.2152 -0.1233
13890TIP3    H163085   3.676   2.774  15.578  1.0605  0.3570  0.3297
13890TIP3    H263086   3.589   2.882  15.639  0.6419  0.1760  0.0584
13891TIP3   OH263087   2.678   5.427  11.519  0.3528  0.2394  0.0599
13891TIP3    H163088   2.763   5.472  11.524  0.2533  0.5722 -0.9402
13891TIP3    H263089   2.666   5.409  11.425 -0.9002  0.6277  0.1270
13892TIP3   OH263090   1.970   5.659   1.981 -0.4490 -0.2605  0.2160
13892TIP3    H163091   2.012   5.580   2.015 -1.2807 -0.6608  0.3239
13892TIP3    H263092   1.987   5.726   2.048 -0.8835 -0.6924  0.7662
13893TIP3   OH263093   3.821   6.072   4.055 -0.8416 -0.0145  0.4065
13893TIP3    H163094   3.839   6.132   4.127 -0.0361  1.1045 -0.6862
13893TIP3    H263095   3.769   6.123   3.993  0.8516 -0.0199 -1.0875
13894TIP3   OH263096   1.889   1.949  14.223 -0.0843 -0.1485  0.4347
13894TIP3    H163097   1.946   1.986  14.290  1.5485 -2.8685  0.7123
13894TIP3    H263098   1.927   1.978  14.140 -1.4858  2.3368  0.5515
13895TIP3   OH263099   0.961   3.293   1.054 -0.7409  0.0722  0.1984
13895TIP3    H163100   1.018   3.223   1.084 -1.7623 -0.8150  0.1447
13895TIP3    H263101   0.907   3.253   0.986 -0.0961  1.4273 -1.1630
13896TIP3   OH263102   5.955   1.948   2.184  0.6509  0.4210 -0.1142
13896TIP3    H163103   5.889   2.016   2.197 -0.5763 -0.8441  0.5652
13896TIP3    H263104   5.974   1.915   2.272  0.4396 -0.7995 -0.5055
13897TIP3   OH263105   3.009   1.159   3.184 -0.1061 -0.1578  0.1083
13897TIP3    H163106   3.027   1.131   3.273  0.6141 -0.3889 -0.1010
13897TIP3    H263107   3.057   1.097   3.129  0.6220  0.8009 -0.3970
13898TIP3   OH263108   6.159   2.446  12.976 -0.0874  0.1157  0.0453
13898TIP3    H163109   6.099   2.474  12.907 -0.6522 -1.9833 -0.3761
13898TIP3    H263110   6.147   2.511  13.045 -2.1858  0.2680 -0.3921
13899TIP3   OH263111   4.511   5.506  14.043  0.3022  0.1796 -0.5299
13899TIP3    H163112   4.444   5.537  13.982 -0.5097  0.2941  0.3955
13899TIP3    H263113   4.592   5.544  14.011 -0.2683  1.0508 -0.9672
13900TIP3   OH263114   2.358   4.095  14.613 -0.1618 -0.1761  0.0574
13900TIP3    H163115   2.435   4.138  14.577  0.0851  0.2548  1.0937
13900TIP3    H263116   2.291   4.164  14.618 -0.8900 -0.7087 -1.5552
13901TIP3   OH263117   6.080   2.894  16.784  0.7879  0.4435  0.4244
13901TIP3    H163118   5.984   2.899  16.782  0.7778 -0.0245 -0.7714
13901TIP3    H263119   6.108   2.984  16.803  0.1312  0.7461 -0.0120
13902TIP3   OH263120   5.482   0.151  14.806 -0.3027  0.2266 -0.1805
13902TIP3    H163121   5.569   0.157  14.767  0.6458 -1.0131  1.6331
13902TIP3    H263122   5.489   0.198  14.889 -1.3279 -0.0194  0.0599
13903TIP3   OH263123   5.300   6.526  12.396 -0.0853 -0.0983  0.1393
13903TIP3    H163124   5.297   6.446  12.344 -1.3068 -1.0586  1.5723
13903TIP3    H263125   5.219   6.572  12.374  0.0379  0.1457  0.1946
13904TIP3   OH263126   0.233   3.699   5.798  0.0345 -0.0733 -0.1592
13904TIP3    H163127   0.289   3.753   5.742  0.5018 -1.4646 -1.0774
13904TIP3    H263128   0.237   3.741   5.884  1.4656  0.5792 -0.5231
13905TIP3   OH263129   5.258   0.893  16.283 -0.0795  0.4786  0.1517
13905TIP3    H163130   5.258   0.827  16.212  0.3254  0.7548 -0.1074
13905TIP3    H263131   5.166   0.917  16.292 -0.2007  0.0613  0.0733
13906TIP3   OH263132   1.151   6.354   0.173  0.2350  0.3033 -0.0877
13906TIP3    H163133   1.176   6.380   0.262  1.6612  0.4548 -0.5219
13906TIP3    H263134   1.060   6.381   0.165  0.4623  1.4117  0.8959
13907TIP3   OH263135   6.770   1.323   1.114  0.0677 -0.2758 -0.0856
13907TIP3    H163136   6.791   1.246   1.061 -0.8613 -0.5107 -0.1389
13907TIP3    H263137   6.675   1.319   1.126  0.1711  0.1601  1.0181
13908TIP3   OH263138   5.532   4.943  15.614  0.6575  0.1459  0.2815
13908TIP3    H163139   5.597   4.968  15.680  0.0332  3.9468 -0.3251
13908TIP3    H263140   5.572   4.968  15.531  0.2089 -1.8144 -0.5868
13909TIP3   OH263141   3.986   3.923   1.448 -0.1619  0.1007 -0.0082
13909TIP3    H163142   3.900   3.891   1.419  0.1011  1.7496 -2.8759
13909TIP3    H263143   3.986   4.016   1.426  1.7126  0.5651  1.6699
13910TIP3   OH263144   3.190   1.819  17.220  0.2324 -0.2810  0.2012
13910TIP3    H163145   3.280   1.802  17.248 -0.1410 -1.5437  0.7104
13910TIP3    H263146   3.197   1.832  17.125  0.8714 -1.1335  0.1118
13911TIP3   OH263147   4.107   4.116  11.811 -0.1625  0.3480  0.3260
13911TIP3    H163148   4.123   4.210  11.808 -2.5858  0.8132 -1.3757
13911TIP3    H263149   4.013   4.108  11.828 -0.4205 -1.6639 -1.4835
13912TIP3   OH263150   0.584   3.649   2.574  0.3980  0.2100  0.2299
13912TIP3    H163151   0.520   3.670   2.507  1.6091 -0.4315 -1.1771
13912TIP3    H263152   0.621   3.734   2.599 -0.0593  0.4524  0.0858
13913TIP3   OH263153   0.005   3.619  16.958 -0.0259  0.4222  0.0712
13913TIP3    H163154   0.074   3.684  16.940 -1.0151  1.2775 -0.7791
13913TIP3    H263155  -0.018   3.585  16.871  0.6399 -1.2667  0.5286
13914TIP3   OH263156   0.160   2.286  14.013  0.9644  0.0210  0.1118
13914TIP3    H163157   0.227   2.333  13.963  1.1196 -0.5887 -0.2628
13914TIP3    H263158   0.117   2.229  13.949  1.5119 -1.1625  0.7534
13915TIP3   OH263159   3.585   6.247  12.563 -0.3048 -0.0366  1.0949
13915TIP3    H163160   3.563   6.166  12.608  0.5503 -0.4821  0.7224
13915TIP3    H263161   3.551   6.235  12.474 -0.3534  0.0991  1.0945
13916TIP3   OH263162   6.661   1.313  15.370 -0.1012 -0.5652  0.5861
13916TIP3    H163163   6.732   1.338  15.311 -1.3944  0.1272 -0.7351
13916TIP3    H263164   6.639   1.394  15.416  1.3111 -1.2261  2.5710
13917TIP3   OH263165   6.103   6.109   0.007 -0.3502  0.7052  0.0992
13917TIP3    H163166   6.031   6.172  -0.003 -1.1256 -0.1048  0.4836
13917TIP3    H263167   6.104   6.087   0.100 -1.9737 -1.9890 -0.4216
13918TIP3   OH263168   6.684   2.255   6.617  0.3614  0.1989 -0.7412
13918TIP3    H163169   6.767   2.223   6.582  0.5189  1.1237 -1.2508
13918TIP3    H263170   6.635   2.284   6.540 -0.3496 -0.1455 -0.4231
13919TIP3   OH263171   5.848   5.191  13.332 -0.2194 -0.5759  0.8528
13919TIP3    H163172   5.915   5.212  13.396 -0.9016  0.4012  1.2785
13919TIP3    H263173   5.894   5.189  13.248  0.1134  1.7292  0.9153
13920TIP3   OH263174   6.269   2.410   1.625  0.1128  0.2321  0.3139
13920TIP3    H163175   6.277   2.498   1.590 -1.3582 -0.0934 -0.9174
13920TIP3    H263176   6.196   2.415   1.686 -0.5755 -0.3312 -0.4517
13921TIP3   OH263177   6.020   1.435  12.872  0.0771  0.8479 -0.3004
13921TIP3    H163178   5.960   1.416  12.944  1.1765  0.8296  0.6593
13921TIP3    H263179   6.053   1.349  12.845  1.5450  0.9817  0.9016
13922TIP3   OH263180   3.971   2.909  13.474 -0.3832  0.0216 -0.1438
13922TIP3    H163181   3.905   2.950  13.530 -0.3937 -0.4339  0.1799
13922TIP3    H263182   3.933   2.912  13.386 -0.3251  0.8256 -0.1513
13923TIP3   OH263183   3.890   1.028  12.999  0.1961 -0.1642  0.3822
13923TIP3    H163184   3.844   0.948  12.975 -0.7411  0.5869 -0.4325
13923TIP3    H263185   3.898   1.025  13.094  0.7893 -1.5329  0.3031
13924TIP3   OH263186   3.333   5.595   0.741  0.5777 -0.5496 -0.2039
13924TIP3    H163187   3.423   5.626   0.730  0.4105 -0.4718 -1.5243
13924TIP3    H263188   3.279   5.662   0.698 -0.1339 -0.4721  0.7942
13925TIP3   OH263189   4.061   6.468  14.715 -0.4958 -0.3179 -0.1563
13925TIP3    H163190   4.089   6.548  14.760  0.1454 -1.0456  0.7841
13925TIP3    H263191   3.996   6.498  14.652 -2.0931  0.7014  1.8354
13926TIP3   OH263192   2.184   1.970  14.219 -0.2040 -0.2550 -0.8495
13926TIP3    H163193   2.277   1.995  14.219  0.3634 -2.1055  0.8020
13926TIP3    H263194   2.142   2.035  14.276  0.4119 -0.4347 -0.1752
13927TIP3   OH263195   6.704   2.055   4.366  0.1657 -0.1466  0.1468
13927TIP3    H163196   6.756   2.070   4.288 -2.9886 -0.0271 -2.1375
13927TIP3    H263197   6.649   1.979   4.345 -2.5024  1.3382  1.1870
13928TIP3   OH263198   1.727   2.037  11.018  0.0823 -0.0349 -0.2164
13928TIP3    H163199   1.677   2.118  11.021  0.5332  0.2210  0.5696
13928TIP3    H263200   1.660   1.968  11.020 -0.2627  0.3054  0.1202
13929TIP3   OH263201   0.436   6.493  12.310  0.4998  0.2290 -0.1795
13929TIP3    H163202   0.448   6.399  12.296 -0.1035 -0.0350  0.9574
13929TIP3    H263203   0.356   6.515  12.262  1.0616  0.3388 -1.0925
13930TIP3   OH263204   4.676   5.896  12.990 -0.1110 -0.7534 -0.2907
13930TIP3    H163205   4.625   5.938  12.921 -0.7348  0.0694  0.6340
13930TIP3    H263206   4.765   5.931  12.980 -0.7830  1.5335  0.9602
13931TIP3   OH263207   5.484   1.266   1.885  0.8351  0.0142  0.0794
13931TIP3    H163208   5.419   1.226   1.942  0.9107  0.5402  0.5358
13931TIP3    H263209   5.433   1.314   1.820  0.7533 -0.4274 -0.1884
13932TIP3   OH263210   4.166   5.187   0.702 -0.1167 -0.2316  0.4066
13932TIP3    H163211   4.206   5.271   0.681 -0.0911  0.5250  3.0909
13932TIP3    H263212   4.198   5.128   0.634  1.4844  1.4888 -0.4304
13933TIP3   OH263213   0.428   4.541  14.773  0.4047 -0.0653  0.1175
13933TIP3    H163214   0.453   4.545  14.865 -2.7021 -2.5581  1.1989
13933TIP3    H263215   0.452   4.453  14.745 -0.2906  0.0653 -0.9455
13934TIP3   OH263216   3.988   5.159   6.019 -0.3345 -0.3368 -0.3302
13934TIP3    H163217   3.912   5.204   5.981 -0.1501  0.4991  0.2824
13934TIP3    H263218   3.996   5.195   6.107 -0.6290 -2.1046  0.4669
13935TIP3   OH263219   5.901   3.388  17.023 -0.1563  0.0660 -0.3720
13935TIP3    H163220   5.994   3.403  17.041 -0.2144  0.2978 -0.2711
13935TIP3    H263221   5.885   3.298  17.052  0.4128 -0.5337 -1.8201
13936TIP3   OH263222   3.966   0.250   2.377 -0.0170  0.1309 -0.4894
13936TIP3    H163223   4.026   0.293   2.438 -0.3218  1.9117 -1.3733
13936TIP3    H263224   3.889   0.229   2.429  1.2563 -2.1364  0.6552
13937TIP3   OH263225   0.890   6.000   1.702 -0.2930  0.1187 -0.0002
13937TIP3    H163226   0.962   6.013   1.764 -1.9024 -1.6630  2.4624
13937TIP3    H263227   0.921   5.929   1.646  0.2965  0.0779  0.3584
13938TIP3   OH263228   1.046   2.702   2.086 -0.0606 -0.4906  0.2144
13938TIP3    H163229   0.989   2.730   2.157  0.0839 -0.2610  0.2400
13938TIP3    H263230   1.059   2.780   2.033  0.7866 -0.3726  0.5883
13939TIP3   OH263231   5.261   2.730  13.804  0.1527  0.0328 -0.4140
13939TIP3    H163232   5.206   2.664  13.845  1.4831 -0.9559 -0.1547
13939TIP3    H263233   5.265   2.704  13.712  0.5316 -0.1478 -0.3469
13940TIP3   OH263234   3.345   5.551  14.399 -0.2455 -0.0861  0.3578
13940TIP3    H163235   3.281   5.597  14.345 -0.9280 -0.6820  0.6369
13940TIP3    H263236   3.299   5.472  14.428  0.8270 -0.8463  0.0474
13941TIP3   OH263237   1.665   2.927   1.296  0.1485 -0.5787 -0.8669
13941TIP3    H163238   1.576   2.936   1.264 -0.9358 -1.8154  1.5330
13941TIP3    H263239   1.703   2.857   1.243 -0.7953 -1.0104 -0.9854
13942TIP3   OH263240   3.546   2.304  16.079  0.2537  0.2333 -0.4549
13942TIP3    H163241   3.588   2.256  16.151 -0.8231 -1.8689 -1.1237
13942TIP3    H263242   3.617   2.352  16.037  1.3598 -0.5173  0.4819
13943TIP3   OH263243   4.617   3.624   5.386  0.2970  0.4079  0.1756
13943TIP3    H163244   4.660   3.622   5.300  1.7795  0.0117  0.8862
13943TIP3    H263245   4.571   3.541   5.391  1.8030 -0.4474  0.5041
13944TIP3   OH263246   6.609   3.333  16.627 -0.3729 -0.7452 -0.0247
13944TIP3    H163247   6.664   3.394  16.677 -0.7359 -0.9143  0.5814
13944TIP3    H263248   6.651   3.248  16.638  0.1880 -0.6117 -0.9488
13945TIP3   OH263249   3.232   4.373   1.428 -0.4975  0.0520  0.3039
13945TIP3    H163250   3.275   4.423   1.358  1.4518 -2.0064 -0.0678
13945TIP3    H263251   3.245   4.425   1.507 -0.0420  0.9489 -0.3488
13946TIP3   OH263252   1.799   4.824   5.807 -0.5080  0.4486  0.1546
13946TIP3    H163253   1.744   4.888   5.852  2.3579  3.7483 -0.5545
13946TIP3    H263254   1.880   4.822   5.859 -0.3134 -2.3544 -0.1217
13947TIP3   OH263255   4.812   6.620  16.361 -0.6360  0.5061  0.5563
13947TIP3    H163256   4.793   6.558  16.432 -1.2918  1.4278  1.2231
13947TIP3    H263257   4.901   6.649  16.378 -0.4998  0.1075  0.5273
13948TIP3   OH263258   2.112   4.622   1.148 -0.2005  0.0934  0.6957
13948TIP3    H163259   2.204   4.597   1.151  0.1262  1.2974  1.2088
13948TIP3    H263260   2.111   4.714   1.171 -0.9772  1.6131 -4.2614
13949TIP3   OH263261   4.214   1.924  12.158  0.2761  0.1701 -0.1282
13949TIP3    H163262   4.151   1.933  12.229  2.6813  1.5595  1.9778
13949TIP3    H263263   4.268   2.003  12.163  1.2718 -0.2213 -2.8106
13950TIP3   OH263264   6.194   2.681  12.351  0.3596 -0.0958 -0.2269
13950TIP3    H163265   6.266   2.671  12.412 -0.8035 -0.3153  1.1747
13950TIP3    H263266   6.207   2.767  12.311  1.8344 -0.4918 -0.6242
13951TIP3   OH263267   2.767   1.273  15.040 -0.3448  0.3445 -0.7199
13951TIP3    H163268   2.714   1.198  15.014  0.0784 -0.8897  1.6898
13951TIP3    H263269   2.710   1.348  15.026 -1.4722 -0.6086 -1.4294
13952TIP3   OH263270   3.100   6.142  13.537 -0.0613  0.0935  0.3251
13952TIP3    H163271   3.097   6.236  13.555  0.2614  0.1906 -0.1054
13952TIP3    H263272   3.038   6.128  13.466  1.2816  0.3148 -0.9542
13953TIP3   OH263273   4.018   5.867  13.273  0.4519 -0.1820  0.2330
13953TIP3    H163274   4.100   5.887  13.319  0.5956 -1.6544  0.6472
13953TIP3    H263275   4.046   5.831  13.189  0.2436 -1.0302  0.5215
13954TIP3   OH263276   4.345   3.341  12.795  0.3625  0.1249  0.9559
13954TIP3    H163277   4.348   3.376  12.884 -0.6140  1.2310  0.5764
13954TIP3    H263278   4.252   3.344  12.771  0.5597 -0.5360  0.0462
13955TIP3   OH263279   3.799   5.573  12.064  0.3439  0.3423 -0.4106
13955TIP3    H163280   3.739   5.613  12.002  0.4804 -2.1973 -2.3393
13955TIP3    H263281   3.884   5.576  12.021  0.9730  0.8303  0.8085
13956TIP3   OH263282   1.177   4.444   6.696  0.4796  0.0855 -0.5876
13956TIP3    H163283   1.257   4.397   6.717 -0.2120 -0.6052  0.5584
13956TIP3    H263284   1.205   4.535   6.682  1.3485  0.0191  0.6219
13957TIP3   OH263285   0.614   1.246   4.982  0.9951 -0.2039  0.1094
13957TIP3    H163286   0.530   1.208   5.010  1.0987  0.0328  0.7563
13957TIP3    H263287   0.656   1.177   4.931 -0.4855  0.3575 -2.0167
13958TIP3   OH263288   4.053   5.649   0.492 -0.0628 -0.0072  0.4383
13958TIP3    H163289   4.087   5.594   0.562 -0.2151  0.2586  0.7209
13958TIP3    H263290   4.131   5.693   0.456 -0.0267  0.1176  0.6679
13959TIP3   OH263291   2.358   3.930  14.828 -0.3971  0.2345 -0.4807
13959TIP3    H163292   2.387   3.999  14.888  1.9512 -0.7122 -0.4522
13959TIP3    H263293   2.332   3.977  14.749  1.0236  1.2024 -0.4089
13960TIP3   OH263294   4.849   3.428  12.114 -0.0260 -0.1012  0.5531
13960TIP3    H163295   4.931   3.385  12.138  1.9112  2.9301 -0.0803
13960TIP3    H263296   4.825   3.481  12.190 -0.4288  0.3580  0.1211
13961TIP3   OH263297   5.656   5.480  12.625  0.2133 -0.2911  0.2965
13961TIP3    H163298   5.620   5.496  12.537  2.8302 -0.4793 -0.9121
13961TIP3    H263299   5.637   5.388  12.642 -0.8519 -0.0965  0.2148
13962TIP3   OH263300   3.412   5.850  11.815 -0.2267 -0.6550 -0.4382
13962TIP3    H163301   3.341   5.846  11.880 -0.6285 -0.1992 -0.8344
13962TIP3    H263302   3.450   5.937  11.827  1.1862 -1.3802  0.6986
13963TIP3   OH263303   3.698   2.375   3.303  0.1999 -0.0395  0.3874
13963TIP3    H163304   3.767   2.314   3.277 -1.2047 -2.0392  1.0913
13963TIP3    H263305   3.701   2.374   3.399 -0.2120  0.5772  0.4088
13964TIP3   OH263306   5.623   1.093  14.766  0.0686  0.0221  0.0634
13964TIP3    H163307   5.553   1.129  14.821 -2.3529 -1.0129 -2.1358
13964TIP3    H263308   5.683   1.166  14.752 -1.6769  1.5679  0.3360
13965TIP3   OH263309   0.323   6.272   3.744  0.2129  0.5707 -0.3066
13965TIP3    H163310   0.351   6.363   3.736 -0.2537  0.6781 -0.7576
13965TIP3    H263311   0.230   6.277   3.764 -0.2035  0.1835 -2.0100
13966TIP3   OH263312   1.394   0.975  11.755 -0.0627 -0.3811  0.3470
13966TIP3    H163313   1.338   0.908  11.794 -1.3341  0.2770 -0.2927
13966TIP3    H263314   1.387   1.049  11.815  0.0357 -0.2566  0.2037
13967TIP3   OH263315   0.576   3.379  14.956 -0.2014 -0.4371  0.1678
13967TIP3    H163316   0.533   3.386  14.870 -0.9737 -0.8945  0.5037
13967TIP3    H263317   0.618   3.293  14.955 -1.1006 -0.9022  0.6227
13968TIP3   OH263318   1.059   2.093   2.623 -0.0538  0.3897  0.3921
13968TIP3    H163319   1.052   1.998   2.633 -1.4328  0.2108 -1.6567
13968TIP3    H263320   0.969   2.124   2.618  0.0665  0.8803 -5.4884
13969TIP3   OH263321   5.237   3.391   3.107  0.0055 -0.9797  0.0153
13969TIP3    H163322   5.215   3.419   3.018 -0.5692 -1.5344 -0.0229
13969TIP3    H263323   5.217   3.298   3.109  0.2221 -1.0197  0.6623
13970TIP3   OH263324   1.743   2.170   5.729 -0.1138  0.1681  0.0046
13970TIP3    H163325   1.793   2.242   5.691 -0.5150  1.2138  1.3704
13970TIP3    H263326   1.789   2.149   5.810  0.1801 -1.3612 -0.5383
13971TIP3   OH263327   5.001   1.702   1.906 -0.2539  0.1267  0.0248
13971TIP3    H163328   4.931   1.687   1.970 -0.4097 -0.1412 -0.2030
13971TIP3    H263329   5.058   1.626   1.915 -1.6811 -1.2783 -1.9581
13972TIP3   OH263330   4.075   1.455  16.216  0.3184  0.3406 -0.0423
13972TIP3    H163331   4.042   1.500  16.138 -0.6706  1.9005  1.2032
13972TIP3    H263332   4.122   1.524  16.264  0.1845 -0.3761  1.1440
13973TIP3   OH263333   2.590   2.317   4.845  0.6956  0.5632 -0.3533
13973TIP3    H163334   2.655   2.255   4.878 -0.9327 -1.7606 -1.2197
13973TIP3    H263335   2.528   2.327   4.918  1.1475  1.5274 -0.0823
13974TIP3   OH263336   2.539   3.536  14.689 -0.3338  1.0073  0.0699
13974TIP3    H163337   2.484   3.468  14.649 -1.9531  3.3409 -2.0085
13974TIP3    H263338   2.619   3.491  14.713 -1.8114 -1.8815  0.0394
13975TIP3   OH263339   4.954   2.899  17.219 -0.4220 -0.6509  0.2896
13975TIP3    H163340   4.863   2.930  17.226 -0.3115 -0.1699 -0.3017
13975TIP3    H263341   4.959   2.825  17.280 -1.0410 -0.2890  0.7927
13976TIP3   OH263342   0.672   6.575   1.316  0.1491 -0.1913 -1.0392
13976TIP3    H163343   0.636   6.494   1.281  2.7546 -1.7851 -0.2934
13976TIP3    H263344   0.764   6.572   1.292  1.3531  0.2788  2.8880
13977TIP3   OH263345   1.781   2.462   1.130 -0.1444 -0.3398 -0.2973
13977TIP3    H163346   1.690   2.448   1.104 -0.0408 -1.2355 -0.2176
13977TIP3    H263347   1.829   2.389   1.091  0.1661 -1.1708  1.5294
13978TIP3   OH263348   0.623   1.908   1.037  0.8884 -1.1894 -0.3198
13978TIP3    H163349   0.662   1.838   1.089  1.0488  0.0283  1.2666
13978TIP3    H263350   0.684   1.981   1.044 -0.9428  0.3110  1.0733
13979TIP3   OH263351   0.192   1.492   2.886  0.1037  0.2743 -0.1405
13979TIP3    H163352   0.121   1.443   2.926 -0.8219  1.0680 -0.7639
13979TIP3    H263353   0.164   1.583   2.890  2.0571  0.8855  1.5517
13980TIP3   OH263354   3.535   2.765   2.680  0.0409  0.1173 -0.6425
13980TIP3    H163355   3.474   2.830   2.715 -0.4760 -0.4898 -0.3915
13980TIP3    H263356   3.618   2.811   2.673 -0.2312  0.7011 -0.1198
13981TIP3   OH263357   1.662   0.176   6.425  0.7164 -0.4192  0.2559
13981TIP3    H163358   1.699   0.089   6.407 -0.3783 -0.9127  0.3401
13981TIP3    H263359   1.567   0.162   6.425  0.5337  0.1764  3.1265
13982TIP3   OH263360   5.180   3.206   2.573 -0.6275 -0.0194  0.1866
13982TIP3    H163361   5.108   3.214   2.510 -1.0493  0.3848  0.7027
13982TIP3    H263362   5.218   3.293   2.578  1.3638 -0.6780 -1.7179
13983TIP3   OH263363   4.940   4.044   2.272 -0.0842 -0.1099 -0.2583
13983TIP3    H163364   4.919   4.067   2.182 -0.4057  1.5730  0.2212
13983TIP3    H263365   4.944   4.127   2.319  0.1516 -0.9346  1.2808
13984TIP3   OH263366   3.551   0.501  12.758 -0.3557 -0.3753 -0.5532
13984TIP3    H163367   3.618   0.528  12.695  0.4420 -0.7441  0.1216
13984TIP3    H263368   3.531   0.580  12.807  0.2860 -0.4599 -0.1325
13985TIP3   OH263369   0.576   3.193  12.602 -0.0492  0.3056  0.2898
13985TIP3    H163370   0.567   3.248  12.524 -1.6759  0.8881  0.8355
13985TIP3    H263371   0.507   3.127  12.592  1.3123 -1.1388  0.0727
13986TIP3   OH263372   1.345   4.692  12.704 -0.0854  0.2633  0.2631
13986TIP3    H163373   1.383   4.720  12.787  0.3516  1.7668 -0.4130
13986TIP3    H263374   1.256   4.728  12.706 -1.2972 -2.4552  1.4331
13987TIP3   OH263375   5.751   3.726   2.180  0.1025 -0.3794 -0.3717
13987TIP3    H163376   5.694   3.681   2.243  0.1688  0.5979  0.3952
13987TIP3    H263377   5.713   3.813   2.170  2.3336  0.9174  1.4383
13988TIP3   OH263378   1.085   5.284  15.713 -0.2597 -0.2960 -0.0829
13988TIP3    H163379   1.155   5.241  15.762 -0.5373  0.2570  0.8232
13988TIP3    H263380   1.006   5.268  15.764 -0.4447  0.8569  0.0260
13989TIP3   OH263381   1.133   3.700   2.612  0.1563  0.2511  0.2914
13989TIP3    H163382   1.066   3.713   2.545 -0.1208 -0.2399  0.4676
13989TIP3    H263383   1.188   3.630   2.578 -0.2132 -0.2708  0.7372
13990TIP3   OH263384   0.835   5.489   4.263  0.2610  0.5749 -0.2243
13990TIP3    H163385   0.773   5.542   4.315 -1.1976 -0.7748 -0.5278
13990TIP3    H263386   0.782   5.452   4.193  1.4591 -0.5071 -0.5940
13991TIP3   OH263387   3.553   1.504  11.876  0.2800 -0.5017  0.2740
13991TIP3    H163388   3.499   1.475  11.949  1.4230 -2.3454  0.4392
13991TIP3    H263389   3.637   1.460  11.888  1.8285  2.1511 -0.0645
13992TIP3   OH263390   5.259   0.886  13.723 -0.3188  0.2018 -0.2463
13992TIP3    H163391   5.170   0.873  13.756 -0.6777  0.4621 -1.1018
13992TIP3    H263392   5.296   0.798  13.720 -1.2361 -0.1632 -1.7885
13993TIP3   OH263393   5.157   1.134   1.258 -0.1936  0.1999 -0.0110
13993TIP3    H163394   5.187   1.112   1.170  1.8644  2.7288 -0.0726
13993TIP3    H263395   5.233   1.117   1.314 -0.7828  0.6231  0.9406
13994TIP3   OH263396   1.265   5.544  15.212 -0.0274 -0.4122 -0.3955
13994TIP3    H163397   1.339   5.529  15.152  1.0298 -1.1223  1.0390
13994TIP3    H263398   1.260   5.464  15.264 -1.6669 -0.2616 -0.2814
13995TIP3   OH263399   5.322   6.191  15.840  0.3503  0.8368 -0.3363
13995TIP3    H163400   5.289   6.280  15.824 -0.6148  0.5518 -0.0392
13995TIP3    H263401   5.343   6.190  15.934  0.7980  0.8906 -0.4373
13996TIP3   OH263402   4.597   4.080  16.659 -0.7876 -0.0991 -0.4306
13996TIP3    H163403   4.525   4.061  16.719  0.6115 -1.0643  1.0148
13996TIP3    H263404   4.579   4.169  16.628 -0.2278  1.6178  3.5362
13997TIP3   OH263405   3.440   3.242  10.825  0.1085 -0.1953 -0.0406
13997TIP3    H163406   3.427   3.206  10.737 -2.3468 -1.8463  0.8870
13997TIP3    H263407   3.503   3.182  10.866 -1.7342 -1.8825  0.5215
13998TIP3   OH263408   5.317   2.275   3.558 -0.4330 -0.2236  0.1536
13998TIP3    H163409   5.377   2.220   3.609 -1.1220 -1.6721 -0.5152
13998TIP3    H263410   5.232   2.262   3.599 -0.9584 -1.2370 -1.1793
13999TIP3   OH263411   5.697   3.577  12.686 -0.3449  0.2626  0.5801
13999TIP3    H163412   5.752   3.647  12.720 -1.2156  0.1352  2.3463
13999TIP3    H263413   5.695   3.511  12.755  0.5630 -1.6181 -1.0802
14000TIP3   OH263414   0.504   5.968   0.644  0.4296  0.1330 -0.3687
14000TIP3    H163415   0.559   6.040   0.612  1.3024 -0.7400 -0.8766
14000TIP3    H263416   0.559   5.921   0.706 -0.5609  0.5988  0.9164
14001TIP3   OH263417   3.932   2.728  15.118  0.0897  0.0099 -0.1866
14001TIP3    H163418   3.880   2.648  15.114  0.4177 -0.2208  0.1533
14001TIP3    H263419   3.870   2.798  15.095 -0.7398 -0.0917  1.6364
14002TIP3   OH263420   4.506   3.695  12.672 -0.1165  0.7335  0.1011
14002TIP3    H163421   4.412   3.682  12.688 -0.0080  0.6260  0.7104
14002TIP3    H263422   4.547   3.673  12.756  0.5114  0.1111 -0.3597
14003TIP3   OH263423   0.893   5.979   0.529 -0.3800  0.2365  0.3633
14003TIP3    H163424   0.928   6.035   0.598  0.3860 -0.4017  0.5024
14003TIP3    H263425   0.952   5.904   0.526 -1.0108 -0.2513 -0.2720
14004TIP3   OH263426   5.575   5.971  15.507 -0.3597 -0.7411 -0.2359
14004TIP3    H163427   5.662   5.999  15.536 -0.4012 -1.0812  0.2291
14004TIP3    H263428   5.556   5.893  15.560 -1.3589 -0.1241  0.3535
14005TIP3   OH263429   0.770   0.074  12.629  0.1091 -0.1302  0.1450
14005TIP3    H163430   0.757   0.038  12.541 -1.3889  0.5779  0.0354
14005TIP3    H263431   0.694   0.132  12.642  1.1840  1.0994  1.2370
14006TIP3   OH263432   4.720   0.793  11.593  0.2482 -0.2801  0.5488
14006TIP3    H163433   4.737   0.726  11.660 -1.2597 -1.6561 -0.3400
14006TIP3    H263434   4.692   0.870  11.643  0.4850 -0.8265  1.5635
14007TIP3   OH263435   3.448   0.530   0.502  0.0198 -0.4434 -0.0300
14007TIP3    H163436   3.439   0.509   0.409  1.6678 -1.2323 -0.0606
14007TIP3    H263437   3.490   0.452   0.539 -0.1987  0.0489  1.2871
14008TIP3   OH263438   2.881   0.676  14.689  0.1754  0.0927 -0.0430
14008TIP3    H163439   2.955   0.651  14.743 -0.0962 -0.9421 -0.1265
14008TIP3    H263440   2.806   0.633  14.730 -0.1533 -0.0478 -0.7806
14009TIP3   OH263441   1.391   3.301  12.280  0.6464 -0.4376  0.4050
14009TIP3    H163442   1.321   3.249  12.319  0.8122 -0.7251  0.3191
14009TIP3    H263443   1.457   3.308  12.348 -0.5563  2.0580  1.4610
14010TIP3   OH263444   0.044   2.122  12.734  0.1642 -0.1255 -0.6498
14010TIP3    H163445   0.110   2.166  12.787  0.5342 -0.4692 -0.8265
14010TIP3    H263446   0.027   2.040  12.780  0.0618 -0.1612 -0.7498
14011TIP3   OH263447   1.157   4.559  16.765 -0.3815 -0.5018  0.1056
14011TIP3    H163448   1.158   4.642  16.717 -0.2084 -0.4000  0.2841
14011TIP3    H263449   1.064   4.539  16.776 -0.4419 -0.9996 -1.0816
14012TIP3   OH263450   6.762   0.570   1.094  0.2213  0.3212 -0.3983
14012TIP3    H163451   6.677   0.544   1.059  0.0229 -1.9068  1.4116
14012TIP3    H263452   6.821   0.498   1.071  1.5776  1.6797 -1.3547
14013TIP3   OH263453   0.738   6.505   1.938  0.3671  0.0514  0.4112
14013TIP3    H163454   0.782   6.532   2.019 -0.1820 -2.2191  1.5838
14013TIP3    H263455   0.678   6.577   1.918 -0.7063  0.0198  3.0488
14014TIP3   OH263456   6.531   2.204   6.210  0.9203  0.4313 -0.1307
14014TIP3    H163457   6.539   2.255   6.291  0.8702  1.8425 -0.9845
14014TIP3    H263458   6.438   2.186   6.202  0.5404  2.5134 -1.1393
14015TIP3   OH263459   2.165   6.190  15.141  0.1467 -0.5103  0.4653
14015TIP3    H163460   2.103   6.261  15.129  2.2211  1.2468 -0.5936
14015TIP3    H263461   2.206   6.207  15.226  0.3070 -0.7076  0.4304
14016TIP3   OH263462   5.683   0.811   3.349 -1.0204 -0.0695 -0.3667
14016TIP3    H163463   5.589   0.792   3.348 -1.0425  0.0338 -0.1213
14016TIP3    H263464   5.721   0.746   3.289 -1.1499 -0.6445  0.1663
14017TIP3   OH263465   2.220   1.549   3.256 -0.2744 -0.1358 -0.4985
14017TIP3    H163466   2.271   1.472   3.281  0.6979  0.7910  0.4800
14017TIP3    H263467   2.281   1.601   3.202 -0.2415  0.8618  0.4746
14018TIP3   OH263468   0.715   2.419  12.174  0.2610  0.8741 -0.0732
14018TIP3    H163469   0.771   2.466  12.235  1.7848  1.0505 -1.5392
14018TIP3    H263470   0.677   2.488  12.119  1.4015  0.5419 -1.3242
14019TIP3   OH263471   0.192   0.534  16.683  0.1938  0.3899  0.3438
14019TIP3    H163472   0.239   0.455  16.708  3.4928  1.3771 -2.0514
14019TIP3    H263473   0.251   0.606  16.706 -1.3601  1.9534 -0.3201
14020TIP3   OH263474   0.555   1.016   5.420  0.4651 -0.2900  0.3175
14020TIP3    H163475   0.616   1.072   5.371 -1.1721 -0.3988 -2.0222
14020TIP3    H263476   0.610   0.971   5.484  2.6143  0.5819 -0.8080
14021TIP3   OH263477   4.123   4.927   5.248  0.5023 -0.3966 -0.2359
14021TIP3    H163478   4.048   4.919   5.308  2.7111 -3.3346  2.5218
14021TIP3    H263479   4.176   4.997   5.286  0.7458 -0.6144 -0.1726
14022TIP3   OH263480   6.205   4.378   4.381  0.2444 -0.6110 -0.1330
14022TIP3    H163481   6.291   4.356   4.345  1.5151  2.1469  0.9090
14022TIP3    H263482   6.177   4.456   4.333 -0.5346 -0.0644  1.1288
14023TIP3   OH263483   2.100   4.536   3.825  0.0827  0.2911 -0.0695
14023TIP3    H163484   2.137   4.497   3.904  0.4660  1.7872  0.5262
14023TIP3    H263485   2.006   4.538   3.841 -0.1215 -1.7441 -0.7682
14024TIP3   OH263486   5.507   1.294  13.292 -0.7485 -0.0678 -0.2293
14024TIP3    H163487   5.561   1.230  13.247  0.2738  1.1551 -0.8035
14024TIP3    H263488   5.448   1.328  13.225 -0.9199 -0.0206 -0.0572
14025TIP3   OH263489   1.870   5.234  12.186 -0.1776 -0.0880 -0.1214
14025TIP3    H163490   1.902   5.158  12.234 -0.4317  0.2795  0.6513
14025TIP3    H263491   1.918   5.232  12.103 -2.2941 -2.7399 -1.4198
14026TIP3   OH263492   4.305   5.003  14.574  0.7153  0.3685 -0.3043
14026TIP3    H163493   4.360   5.015  14.496  0.7738 -0.4908 -0.4022
14026TIP3    H263494   4.277   4.911  14.570  1.7810 -0.0762  1.3528
14027TIP3   OH263495   3.299   5.512   2.497  0.2423 -0.3524  0.0985
14027TIP3    H163496   3.246   5.444   2.538 -0.8112  0.0910 -0.4888
14027TIP3    H263497   3.310   5.482   2.406 -1.0891  0.7202 -0.4465
14028TIP3   OH263498   5.559   0.875   4.453  0.0005  0.0093 -0.2784
14028TIP3    H163499   5.580   0.967   4.469 -2.0580  0.0458  2.9867
14028TIP3    H263500   5.482   0.878   4.396 -1.8361  0.5472  2.0695
14029TIP3   OH263501   6.138   6.109  12.598 -0.3429  0.9764  0.0414
14029TIP3    H163502   6.043   6.109  12.582 -0.2220  0.6979 -0.6940
14029TIP3    H263503   6.148   6.161  12.678 -0.8150  4.0073 -1.7042
14030TIP3   OH263504   3.280   5.314  17.153  0.1617  0.4358  0.1179
14030TIP3    H163505   3.285   5.333  17.059  2.1703  5.0597  0.8436
14030TIP3    H263506   3.190   5.335  17.176 -1.2985 -3.7062 -1.0208
14031TIP3   OH263507   1.738   3.838   0.888  0.2096 -0.1686  0.2611
14031TIP3    H163508   1.777   3.920   0.916  2.3746 -0.8375 -0.5675
14031TIP3    H263509   1.685   3.809   0.962  0.2411  1.4393  0.9438
14032TIP3   OH263510   2.057   6.492   3.286 -0.2421 -0.3733  0.5165
14032TIP3    H163511   2.053   6.421   3.221  0.7087  0.3813 -0.4034
14032TIP3    H263512   2.013   6.566   3.244 -0.4070 -0.1379  1.0981
14033TIP3   OH263513   1.317   6.494   3.673  0.2218  0.0705  0.3343
14033TIP3    H163514   1.230   6.526   3.696  0.3022  0.4983  0.0713
14033TIP3    H263515   1.377   6.555   3.716  0.3907 -0.1696  0.4413
14034TIP3   OH263516   0.020   4.368  12.496 -0.0935 -0.0514 -0.0024
14034TIP3    H163517  -0.010   4.336  12.580  2.0752  1.3625  1.4142
14034TIP3    H263518  -0.024   4.312  12.431 -2.0453 -0.9843  2.0074
14035TIP3   OH263519   4.858   2.762  13.632 -0.0289  0.0067  0.3156
14035TIP3    H163520   4.877   2.682  13.681 -1.3909 -1.2977 -1.1809
14035TIP3    H263521   4.857   2.831  13.699  0.1811 -1.3689  1.8002
14036TIP3   OH263522   2.014   6.026  15.871  0.2807 -0.0227  0.1051
14036TIP3    H163523   1.956   5.960  15.909 -2.3098  0.6403 -2.3318
14036TIP3    H263524   2.077   5.975  15.819 -0.7975 -0.6848 -0.6052
14037TIP3   OH263525   1.914   5.555   4.561  0.0909 -0.0264  0.0103
14037TIP3    H163526   1.884   5.574   4.650  0.4901  0.6620  0.0071
14037TIP3    H263527   1.985   5.618   4.546  0.0677 -0.1793 -0.7699
14038TIP3   OH263528   2.470   0.508  16.902  0.6222 -0.1223 -0.6018
14038TIP3    H163529   2.519   0.559  16.838  0.0016  0.1555 -0.8725
14038TIP3    H263530   2.473   0.559  16.982  2.9779 -1.3460  0.1665
14039TIP3   OH263531   1.479   3.149  14.882  0.1821  0.2951 -0.0478
14039TIP3    H163532   1.480   3.126  14.789 -3.4378  1.1323 -0.4734
14039TIP3    H263533   1.530   3.230  14.887  1.5740 -0.4868 -1.0147
14040TIP3   OH263534   6.549   1.778   1.549 -0.0306  0.1649  0.0424
14040TIP3    H163535   6.638   1.794   1.516 -0.5424 -0.2790 -1.6940
14040TIP3    H263536   6.528   1.855   1.601  0.4514  1.4998 -1.6224
14041TIP3   OH263537   4.309   3.461  14.190 -0.1318 -0.3276 -0.6374
14041TIP3    H163538   4.372   3.445  14.119  1.5730  3.2678 -0.1368
14041TIP3    H263539   4.302   3.556  14.195 -1.2749 -0.4607  3.1155
14042TIP3   OH263540   0.875   6.569   6.057  0.1939 -0.0557  0.5104
14042TIP3    H163541   0.881   6.664   6.046 -0.6757 -0.1813 -1.5175
14042TIP3    H263542   0.784   6.553   6.082  0.1798 -0.4118  0.2354
14043TIP3   OH263543   3.665   2.570  12.202  0.1221  0.7915 -0.2197
14043TIP3    H163544   3.716   2.648  12.224  0.5513  0.0248  1.6837
14043TIP3    H263545   3.596   2.568  12.269 -0.7246  0.2660 -1.0821
14044TIP3   OH263546   6.055   0.636   3.658  0.3748 -0.0794  0.2985
14044TIP3    H163547   6.132   0.616   3.604  0.4695 -0.0116  0.4099
14044TIP3    H263548   6.090   0.652   3.745  0.3424  0.9192  0.1454
14045TIP3   OH263549   4.167   2.345  12.255 -0.3844  0.3424 -0.3328
14045TIP3    H163550   4.203   2.426  12.217  0.6865 -0.3641 -0.8816
14045TIP3    H263551   4.230   2.278  12.231  0.3364 -0.1912  2.6395
14046TIP3   OH263552   6.691   2.801   6.844 -0.6730 -0.7017  0.2651
14046TIP3    H163553   6.599   2.805   6.872 -0.5512  1.7712  0.5724
14046TIP3    H263554   6.738   2.851   6.910  0.6973 -0.8422 -0.5702
14047TIP3   OH263555   3.430   4.943  15.984 -0.2191  0.1906  0.3167
14047TIP3    H163556   3.452   4.998  16.059  1.1037  0.7188 -0.4300
14047TIP3    H263557   3.428   5.004  15.910 -1.5459 -0.3107 -0.0982
14048TIP3   OH263558   0.377   4.585  13.979 -0.0890 -0.0205 -0.4720
14048TIP3    H163559   0.444   4.620  13.919 -1.2510  1.3566 -1.0191
14048TIP3    H263560   0.421   4.581  14.064  0.8935  0.2060 -0.9500
14049TIP3   OH263561   5.812   6.690   4.227 -0.1747  0.0946  0.0671
14049TIP3    H163562   5.750   6.670   4.157  0.4894 -1.2138 -0.1608
14049TIP3    H263563   5.796   6.783   4.246 -1.6996 -0.0199 -0.4702
14050TIP3   OH263564   2.579   1.625   2.509 -0.1572 -0.1466  0.2299
14050TIP3    H163565   2.588   1.541   2.463 -0.1825 -1.2717  2.1951
14050TIP3    H263566   2.669   1.653   2.525 -0.1245  0.8430 -1.4562
14051TIP3   OH263567   4.425   0.439  11.607 -0.2720 -0.5891  0.8611
14051TIP3    H163568   4.335   0.413  11.588 -0.9734  1.5880  1.0035
14051TIP3    H263569   4.472   0.421  11.526 -0.7408 -1.9765  0.8615
14052TIP3   OH263570   6.551   2.495   2.365 -0.5298 -0.2287  0.3229
14052TIP3    H163571   6.635   2.483   2.321 -0.5655  0.7648 -0.0266
14052TIP3    H263572   6.534   2.589   2.361 -0.5002 -0.0655  2.5149
14053TIP3   OH263573   1.827   4.327  12.778 -0.3519 -0.2252  0.1503
14053TIP3    H163574   1.836   4.245  12.730  1.9890  0.0816 -0.0371
14053TIP3    H263575   1.907   4.335  12.829 -1.0268  1.3961  1.0391
14054TIP3   OH263576   6.568   2.742  11.670  0.3048 -0.2747 -0.0894
14054TIP3    H163577   6.475   2.720  11.666 -0.2961  1.7595  1.1009
14054TIP3    H263578   6.580   2.807  11.601  0.5100  0.5237  0.6922
14055TIP3   OH263579   0.561   4.906  15.841  0.1221 -0.0957  0.2458
14055TIP3    H163580   0.551   4.985  15.894  1.2482  0.0307  0.3013
14055TIP3    H263581   0.643   4.866  15.872  0.2205 -0.6104 -0.6294
14056TIP3   OH263582   3.281   1.623  11.133  0.8753  0.5547  0.0274
14056TIP3    H163583   3.328   1.632  11.050  1.1105  1.5621  0.2622
14056TIP3    H263584   3.191   1.603  11.107  1.1426 -0.0611 -0.4469
14057TIP3   OH263585   3.094   5.736   1.224 -0.1569 -0.1736  0.3376
14057TIP3    H163586   3.127   5.682   1.295 -0.6994 -0.5637  0.2904
14057TIP3    H263587   2.999   5.726   1.227 -0.2276  0.3320 -0.0224
14058TIP3   OH263588   3.376   3.232   3.234  0.0410 -0.2280 -0.1130
14058TIP3    H163589   3.311   3.297   3.261 -0.3040 -0.2580 -0.8420
14058TIP3    H263590   3.332   3.183   3.164  0.7885 -0.3666 -0.4889
14059TIP3   OH263591   4.290   1.314   0.867 -0.0518  0.4029  0.1744
14059TIP3    H163592   4.223   1.272   0.921 -0.1802 -0.7224 -0.8036
14059TIP3    H263593   4.268   1.288   0.778  0.6784  1.4677 -0.3361
14060TIP3   OH263594   3.630   5.459  11.731  0.0512 -0.1986 -0.1496
14060TIP3    H163595   3.684   5.385  11.758 -0.8062 -0.5889  0.5779
14060TIP3    H263596   3.601   5.436  11.643  0.6745 -0.2046 -0.3581
14061TIP3   OH263597   5.269   5.573  16.256  0.1013 -0.1956  0.0656
14061TIP3    H163598   5.281   5.635  16.327  2.5745  0.4564 -0.8048
14061TIP3    H263599   5.320   5.497  16.281  2.3064  0.6270 -1.5574
14062TIP3   OH263600   6.681   1.369  12.165 -0.1338 -0.0516  0.2057
14062TIP3    H163601   6.679   1.317  12.085 -1.4489 -0.1472  0.2748
14062TIP3    H263602   6.727   1.449  12.140  1.0120 -0.7954 -0.1670
14063TIP3   OH263603   5.571   5.880   3.320 -0.5735  0.6264 -0.0207
14063TIP3    H163604   5.645   5.907   3.375 -1.1953 -2.7076  2.7660
14063TIP3    H263605   5.495   5.920   3.362 -1.0855 -2.1773  1.9455
14064TIP3   OH263606   2.143   0.811  17.117  0.0770 -0.1663  0.1209
14064TIP3    H163607   2.085   0.736  17.131 -1.3868  0.9311  0.1891
14064TIP3    H263608   2.173   0.801  17.027 -3.6045  1.3763 -1.4763
14065TIP3   OH263609   4.162   5.520  14.893 -0.0737  0.0795 -0.1083
14065TIP3    H163610   4.130   5.549  14.807 -0.4663 -1.9373 -0.6803
14065TIP3    H263611   4.092   5.465  14.928  1.3343 -1.6888  0.0826
14066TIP3   OH263612   4.575   4.925  11.930 -0.2347 -0.4436 -0.5813
14066TIP3    H163613   4.619   4.933  11.845 -2.5686  0.0888 -1.8203
14066TIP3    H263614   4.599   4.838  11.962  2.7105  0.2945 -0.5193
14067TIP3   OH263615   3.149   5.060  13.917 -0.2097 -0.0453 -0.1408
14067TIP3    H163616   3.183   4.988  13.863 -1.9687  0.0085 -1.4439
14067TIP3    H263617   3.195   5.052  14.000  3.3701  0.4606 -1.9085
14068TIP3   OH263618   2.309   2.811   0.614 -0.4660 -0.1547 -0.2916
14068TIP3    H163619   2.341   2.792   0.702  0.0058 -1.1999 -0.6761
14068TIP3    H263620   2.282   2.726   0.580 -2.3085  0.4769 -0.5281
14069TIP3   OH263621   4.931   0.838   4.937 -0.0893 -0.0948 -0.1488
14069TIP3    H163622   4.870   0.765   4.942 -0.3396  0.0481 -0.9594
14069TIP3    H263623   5.010   0.807   4.982 -0.4153 -0.6357  0.0506
14070TIP3   OH263624   0.787   3.430   5.207  0.1690 -0.1512 -0.7234
14070TIP3    H163625   0.765   3.343   5.174 -0.8273 -0.0109 -0.4373
14070TIP3    H263626   0.724   3.447   5.276  0.2881  0.8464 -0.8458
14071TIP3   OH263627   5.719   5.522   3.362  0.0566  0.3932  0.0325
14071TIP3    H163628   5.735   5.577   3.440  1.3401  1.0844 -0.6846
14071TIP3    H263629   5.802   5.477   3.348 -0.2187  0.1546 -0.8405
14072TIP3   OH263630   2.787   1.906   0.706  0.1869  0.1698  0.2838
14072TIP3    H163631   2.805   1.933   0.616 -1.5544  0.2376 -0.0774
14072TIP3    H263632   2.835   1.824   0.717  0.1081 -0.0337 -0.8306
14073TIP3   OH263633   2.263   3.990   0.195 -0.1762  0.1863 -0.2098
14073TIP3    H163634   2.174   3.979   0.161 -1.1128  2.3556  1.3664
14073TIP3    H263635   2.300   4.061   0.142 -0.0886  0.6163  0.4224
14074TIP3   OH263636   2.368   3.418   2.913  0.4534  0.3592 -0.0892
14074TIP3    H163637   2.295   3.371   2.954  0.8986  0.1276  0.4554
14074TIP3    H263638   2.446   3.372   2.944  0.8339  0.6483 -0.6110
14075TIP3   OH263639   4.276   4.155   3.271 -0.4393  0.2919  0.2367
14075TIP3    H163640   4.248   4.065   3.253 -4.4692  0.7834  2.6078
14075TIP3    H263641   4.343   4.147   3.339 -0.2292 -0.9261 -0.1013
14076TIP3   OH263642   3.178   3.345  15.490  0.6330  0.0458  0.5932
14076TIP3    H163643   3.142   3.367  15.404 -0.0399  0.4525  0.9655
14076TIP3    H263644   3.116   3.384  15.552  0.4407 -1.3017  1.2723
14077TIP3   OH263645   5.953   4.110  12.527  0.5389  0.3391 -0.2802
14077TIP3    H163646   5.888   4.155  12.581 -0.9037 -1.2833 -0.5856
14077TIP3    H263647   5.980   4.176  12.463 -1.2239  0.9300 -0.4746
14078TIP3   OH263648   6.491   5.562   4.435 -0.4275  0.7392 -0.2456
14078TIP3    H163649   6.527   5.548   4.347 -0.7026  0.3974 -0.3052
14078TIP3    H263650   6.407   5.517   4.434 -0.3108  0.5044  0.2793
14079TIP3   OH263651   3.818   3.111  15.592  0.0927  0.4142 -0.2095
14079TIP3    H163652   3.893   3.056  15.571 -0.2007  0.0256 -0.2458
14079TIP3    H263653   3.746   3.050  15.605 -0.8077  0.9007 -2.5115
14080TIP3   OH263654   1.780   2.588   3.192 -0.1433  0.4833 -0.1810
14080TIP3    H163655   1.688   2.581   3.168 -0.6190 -1.6177  1.8937
14080TIP3    H263656   1.823   2.519   3.140  0.5053  2.0584 -1.8510
14081TIP3   OH263657   6.663   5.778  13.383  0.0902  0.5751  0.2420
14081TIP3    H163658   6.711   5.712  13.433 -0.6512  0.2613  0.5512
14081TIP3    H263659   6.574   5.745  13.379  0.1431  0.5879 -1.3429
14082TIP3   OH263660   1.514   2.803  14.164  0.1739  0.4076 -0.5428
14082TIP3    H163661   1.503   2.898  14.156 -0.6697  0.4340  0.5954
14082TIP3    H263662   1.531   2.789  14.257 -1.0111 -0.6534 -0.4478
14083TIP3   OH263663   3.384   6.375   1.125  0.4298  0.3371 -0.3665
14083TIP3    H163664   3.356   6.307   1.065 -0.3830  2.6565 -2.8394
14083TIP3    H263665   3.480   6.375   1.119  0.3996 -0.1659 -0.8487
14084TIP3   OH263666   4.080   3.478  15.206  0.6763 -0.3835 -0.5487
14084TIP3    H163667   3.992   3.451  15.233  1.9960 -2.8614  1.8528
14084TIP3    H263668   4.120   3.397  15.173  2.3909  0.4139 -0.5363
14085TIP3   OH263669   1.305   5.071   4.020  0.4492 -1.1213  0.2478
14085TIP3    H163670   1.300   5.114   4.105  1.0763 -1.2173  0.3341
14085TIP3    H263671   1.262   4.986   4.034  1.7717 -1.7147  0.8444
14086TIP3   OH263672   4.115   1.995  16.488  0.0994  0.1060 -0.0529
14086TIP3    H163673   4.047   2.063  16.481  1.1796  1.0156 -3.1250
14086TIP3    H263674   4.068   1.913  16.472 -0.4670  0.6396 -1.2819
14087TIP3   OH263675   6.142   5.678   1.276  0.0223 -0.8035  0.1792
14087TIP3    H163676   6.190   5.597   1.296 -1.6370 -1.3389  2.3584
14087TIP3    H263677   6.054   5.649   1.252 -0.1626  0.3071 -0.5628
14088TIP3   OH263678   3.196   2.742  12.845  0.7567 -0.2363 -0.5534
14088TIP3    H163679   3.158   2.720  12.930 -0.3034 -1.5034 -1.3137
14088TIP3    H263680   3.146   2.818  12.816 -1.6270 -2.1214 -1.7221
14089TIP3   OH263681   3.795   6.328  11.974 -0.0148  0.0729 -0.0470
14089TIP3    H163682   3.763   6.364  11.891 -0.9206 -1.3426 -0.3526
14089TIP3    H263683   3.718   6.292  12.016  0.7486 -1.0739  0.4349
14090TIP3   OH263684   4.370   1.186  11.810 -0.2818 -0.1618 -0.1902
14090TIP3    H163685   4.406   1.259  11.760 -0.9999  1.3263  1.3905
14090TIP3    H263686   4.307   1.145  11.751  0.4653  0.1894 -1.2524
14091TIP3   OH263687   4.233   0.039  16.350  0.3940 -1.3154 -0.0812
14091TIP3    H163688   4.228   0.079  16.437  0.0263 -0.8240 -0.3241
14091TIP3    H263689   4.320   0.063  16.317 -0.2284  0.2234 -0.6641
14092TIP3   OH263690   1.362   2.181  16.465 -0.4197  0.3167 -0.1244
14092TIP3    H163691   1.296   2.245  16.438  0.0378  0.2163 -1.5467
14092TIP3    H263692   1.349   2.107  16.406 -0.6473 -0.7362  1.2069
14093TIP3   OH263693   0.138   5.289  13.470  0.0688 -0.1347 -0.2200
14093TIP3    H163694   0.045   5.293  13.448 -0.5973 -1.1396  2.1522
14093TIP3    H263695   0.150   5.202  13.507  1.3070  0.9534  2.0980
14094TIP3   OH263696   5.532   0.652  16.724 -0.5564 -0.1244 -0.2219
14094TIP3    H163697   5.491   0.733  16.694 -0.9731 -0.1701  0.2137
14094TIP3    H263698   5.625   0.672  16.727 -0.5794  0.0880 -0.8888
14095TIP3   OH263699   5.505   1.225   4.911 -0.4284  0.1661 -0.2425
14095TIP3    H163700   5.427   1.247   4.860 -0.5034  0.0596 -0.1723
14095TIP3    H263701   5.567   1.191   4.846 -0.5650 -0.0768 -0.2476
14096TIP3   OH263702   2.289   5.253  11.226  0.2309 -0.3420 -0.1917
14096TIP3    H163703   2.250   5.191  11.163  1.3153 -1.4686  0.2019
14096TIP3    H263704   2.252   5.338  11.202  0.5723 -0.7446 -2.3264
14097TIP3   OH263705   0.806   1.598   2.037  0.2275  0.1087  0.7098
14097TIP3    H163706   0.748   1.669   2.008 -0.5283 -0.1146  1.6343
14097TIP3    H263707   0.754   1.548   2.100  0.8457 -1.1158  0.2764
14098TIP3   OH263708   5.134   1.622  15.309 -0.5831  0.4098 -0.0420
14098TIP3    H163709   5.147   1.644  15.216  1.6450  1.1592  0.3726
14098TIP3    H263710   5.039   1.620  15.320 -0.9085  0.6453 -2.2540
14099TIP3   OH263711   0.055   1.375   2.559  0.5981  0.4133  0.0594
14099TIP3    H163712  -0.013   1.443   2.560 -2.5342 -2.4466  1.7206
14099TIP3    H263713   0.112   1.398   2.633 -0.2473  1.3766  0.4403
14100TIP3   OH263714   3.755   5.549  13.643  0.0668 -0.0125 -0.4588
14100TIP3    H163715   3.697   5.614  13.683  1.3548  0.6960  0.2869
14100TIP3    H263716   3.822   5.532  13.708  0.4157 -1.2395 -1.1033
14101TIP3   OH263717   3.456   3.921   2.604 -0.0828  1.1361  0.0948
14101TIP3    H163718   3.368   3.947   2.631  0.3076  0.8855  1.7457
14101TIP3    H263719   3.494   3.999   2.564 -0.6469  1.5859  0.4256
14102TIP3   OH263720   6.425   1.017   1.887  0.2711 -0.2139  0.2978
14102TIP3    H163721   6.490   1.083   1.862 -0.6233  0.6649  0.2156
14102TIP3    H263722   6.417   1.026   1.982  1.1890 -1.2123  0.4886
14103TIP3   OH263723   4.646   2.032   3.100 -0.2416  0.2515  0.7774
14103TIP3    H163724   4.608   2.103   3.048 -0.8327 -0.1517  0.6471
14103TIP3    H263725   4.704   2.076   3.161 -0.9914  0.9005  1.0411
14104TIP3   OH263726   1.458   0.928   3.261  0.3865  0.7491 -0.2432
14104TIP3    H163727   1.517   0.926   3.337  0.4663  2.6983 -0.2024
14104TIP3    H263728   1.515   0.954   3.188  0.1222 -0.1768 -0.7910
14105TIP3   OH263729   1.542   1.608  14.928 -0.2050  0.2275 -0.3522
14105TIP3    H163730   1.525   1.562  14.846  1.4317 -1.2666  0.0809
14105TIP3    H263731   1.547   1.538  14.994  2.9897  0.8698  0.2237
14106TIP3   OH263732   5.961   4.371  11.522 -0.1183  0.0689  0.8119
14106TIP3    H163733   6.047   4.414  11.531 -0.8132  1.9007 -0.5402
14106TIP3    H263734   5.916   4.391  11.604 -0.4773  2.1869  0.1674
14107TIP3   OH263735   6.449   5.213   1.330  0.0873 -0.1505 -0.0957
14107TIP3    H163736   6.393   5.272   1.380  1.5186  1.9723 -0.8224
14107TIP3    H263737   6.513   5.182   1.393 -1.7798 -2.5943  0.7401
14108TIP3   OH263738   4.554   2.983  11.958 -0.3660  0.2561  0.1922
14108TIP3    H163739   4.531   2.890  11.952  0.0541  0.0481  1.5227
14108TIP3    H263740   4.589   3.005  11.871 -1.5740 -0.4962 -0.5238
14109TIP3   OH263741   0.278   6.096   2.836  0.0867  1.0688  0.1149
14109TIP3    H163742   0.275   6.050   2.752 -0.3150 -0.7714  1.0771
14109TIP3    H263743   0.188   6.120   2.854 -0.7846 -2.9304  2.2068
14110TIP3   OH263744   0.580   4.133   3.094  0.4600 -0.0862  0.2126
14110TIP3    H163745   0.553   4.151   3.184  0.9060 -1.1743  0.5769
14110TIP3    H263746   0.502   4.096   3.052  0.3778  0.0207  0.2698
14111TIP3   OH263747   2.772   0.891   2.785 -0.2928 -0.0305  0.1084
14111TIP3    H163748   2.864   0.915   2.775 -1.1009  2.7132 -1.7242
14111TIP3    H263749   2.743   0.869   2.696 -2.2843  2.9996 -0.1208
14112TIP3   OH263750   2.529   5.114   0.981  0.1669  0.1472  0.3991
14112TIP3    H163751   2.611   5.069   0.961  0.1835  0.3905 -0.0872
14112TIP3    H263752   2.483   5.119   0.897 -0.7209 -0.7309  0.8072
14113TIP3   OH263753   3.014   6.293   5.552 -0.6574  0.5274 -0.6073
14113TIP3    H163754   3.014   6.198   5.561  1.6885  0.6566  1.6823
14113TIP3    H263755   2.935   6.321   5.597  0.3298 -0.2155  1.7439
14114TIP3   OH263756   4.488   3.724   0.084 -0.1332 -0.1907 -0.2200
14114TIP3    H163757   4.504   3.786   0.155 -1.2958  1.3575 -1.2707
14114TIP3    H263758   4.420   3.666   0.118 -0.0310 -0.0339  0.2565
14115TIP3   OH263759   4.712   4.531   6.232 -0.0992  0.5192  0.6246
14115TIP3    H163760   4.709   4.587   6.310 -5.8126 -0.4973  1.5666
14115TIP3    H263761   4.720   4.442   6.266 -0.9797  0.1851  0.0121
14116TIP3   OH263762   4.124   4.064  13.340  0.5747 -0.3787  0.0889
14116TIP3    H163763   4.093   4.122  13.410 -2.1380 -0.7561 -0.7125
14116TIP3    H263764   4.106   4.111  13.259 -0.8715 -1.8988 -0.5378
14117TIP3   OH263765   6.215   4.885   2.117  0.5360 -0.1466  0.2647
14117TIP3    H163766   6.140   4.828   2.096  0.0399 -0.7128  3.2237
14117TIP3    H263767   6.227   4.937   2.037 -1.3468 -1.8237 -1.2403
14118TIP3   OH263768   0.318   5.739   5.007  0.0769 -0.9365 -0.2369
14118TIP3    H163769   0.359   5.785   5.081  0.4191 -0.4162 -0.7440
14118TIP3    H263770   0.364   5.655   5.003  1.9213  0.0616 -1.4853
14119TIP3   OH263771   2.130   1.383   3.598  0.2710  0.3996  0.0615
14119TIP3    H163772   2.054   1.431   3.632  0.3707  1.4916 -1.1964
14119TIP3    H263773   2.205   1.439   3.618  0.4059  0.7417 -1.2900
14120TIP3   OH263774   2.277   5.232   5.646 -0.4096 -0.2102  0.0528
14120TIP3    H163775   2.298   5.181   5.568  0.3519  1.2141 -0.7265
14120TIP3    H263776   2.317   5.318   5.630 -1.3544  0.5351  1.4424
14121TIP3   OH263777   2.436   3.577  13.532 -0.1118  0.4474  0.5216
14121TIP3    H163778   2.462   3.669  13.535 -1.4204  0.8147  1.1111
14121TIP3    H263779   2.393   3.567  13.448  0.2983  0.2894  0.3272
14122TIP3   OH263780   6.076   6.578  10.800  0.5013 -0.1791 -0.0777
14122TIP3    H163781   6.140   6.583  10.871  0.7904 -1.1664 -0.2510
14122TIP3    H263782   6.046   6.487  10.802  0.1433 -0.0839 -0.9036
14123TIP3   OH263783   3.789   2.707   2.380 -0.0554 -0.1450  1.0234
14123TIP3    H163784   3.706   2.665   2.359  0.1088 -0.8857  1.8479
14123TIP3    H263785   3.768   2.801   2.383 -0.6954 -0.2646  0.4866
14124TIP3   OH263786   0.740   6.334  11.417  0.5096 -0.4818  0.0336
14124TIP3    H163787   0.811   6.291  11.466  0.5342 -1.1140 -0.5387
14124TIP3    H263788   0.784   6.397  11.360  0.5359 -0.2443  0.3129
14125TIP3   OH263789   3.868   2.705   0.008  0.0725 -0.9311 -0.2473
14125TIP3    H163790   3.928   2.774   0.037 -0.7297 -0.8340  1.3074
14125TIP3    H263791   3.880   2.634   0.072 -0.8595 -1.2331 -0.3907
14126TIP3   OH263792   0.221   4.470   4.598  0.4749 -0.1191  0.0953
14126TIP3    H163793   0.271   4.392   4.574  0.3024  0.5544 -2.8978
14126TIP3    H263794   0.131   4.439   4.607  0.2064 -0.2011 -2.2005
14127TIP3   OH263795   4.217   0.632   0.478  0.3143 -0.1396  0.1000
14127TIP3    H163796   4.149   0.687   0.439  1.3568  0.6048 -0.7180
14127TIP3    H263797   4.276   0.694   0.520  1.1184 -0.6808 -0.2214
14128TIP3   OH263798   5.340   4.377   3.760  0.5279 -0.0331  0.9153
14128TIP3    H163799   5.301   4.464   3.768 -1.3382 -0.0069 -4.3450
14128TIP3    H263800   5.425   4.393   3.719  0.7681 -0.6538  1.1566
14129TIP3   OH263801   5.251   4.078   3.833  0.7345  0.3446 -0.1343
14129TIP3    H163802   5.255   4.130   3.753  1.2265  1.8965  0.8365
14129TIP3    H263803   5.313   4.122   3.892  1.2747 -1.4581  0.7010
14130TIP3   OH263804   5.646   0.654  13.980 -0.4248 -0.4041 -0.1354
14130TIP3    H163805   5.693   0.572  13.993 -0.5210 -0.4522 -0.0844
14130TIP3    H263806   5.560   0.627  13.946  0.0399 -0.2487 -1.4789
14131TIP3   OH263807   2.841   5.846   1.703  0.6567 -0.3754 -0.0668
14131TIP3    H163808   2.881   5.782   1.644 -1.3622 -2.2807  0.4794
14131TIP3    H263809   2.826   5.797   1.784 -2.9597  0.0004 -0.3532
14132TIP3   OH263810   2.821   0.248   2.149 -0.3085  0.3497 -0.1423
14132TIP3    H163811   2.747   0.273   2.205  0.0428  1.6659 -0.2347
14132TIP3    H263812   2.824   0.317   2.082  1.2914  0.5908  0.1414
14133TIP3   OH263813   1.388   2.768   4.501  0.5414 -0.0598 -0.2784
14133TIP3    H163814   1.452   2.823   4.545  0.9958 -0.9112  0.1632
14133TIP3    H263815   1.314   2.825   4.483  1.2927  0.8654 -0.5046
14134TIP3   OH263816   5.983   3.971   2.658 -0.2209 -0.3754  0.0267
14134TIP3    H163817   5.906   4.016   2.691  1.2163  2.3617 -0.0981
14134TIP3    H263818   5.966   3.959   2.564 -0.0044  1.4304 -0.2711
14135TIP3   OH263819   2.105   5.589   2.462 -0.4198  0.0096 -0.0858
14135TIP3    H163820   2.191   5.547   2.467 -0.7461 -0.6263  0.1922
14135TIP3    H263821   2.071   5.585   2.551 -0.8710 -0.0125 -0.2559
14136TIP3   OH263822   0.976   2.267  14.474 -0.4148 -0.2919 -0.6298
14136TIP3    H163823   0.988   2.239  14.565  0.2410 -0.3326 -0.7206
14136TIP3    H263824   1.034   2.343  14.465  0.2343 -0.8440 -1.2572
14137TIP3   OH263825   2.908   5.350   1.025  0.6672  0.5485  0.0738
14137TIP3    H163826   2.822   5.384   1.000  0.6777  0.0218 -0.7318
14137TIP3    H263827   2.947   5.321   0.942  0.7842 -1.1049  0.6630
14138TIP3   OH263828   0.099   3.357   2.856 -0.5416  0.1446 -0.5732
14138TIP3    H163829   0.022   3.302   2.872 -0.8418  0.7777  0.2526
14138TIP3    H263830   0.063   3.438   2.820 -0.2064  0.2084 -0.7666
14139TIP3   OH263831   3.880   6.697   3.541 -0.2483  0.1922  0.2940
14139TIP3    H163832   3.872   6.720   3.449  0.1284 -0.0724  0.1915
14139TIP3    H263833   3.840   6.770   3.588 -1.6546 -0.2917 -0.1212
14140TIP3   OH263834   3.338   4.402   2.044 -0.2780 -0.2507 -0.3448
14140TIP3    H163835   3.261   4.448   2.079 -0.6298 -0.6367 -0.6011
14140TIP3    H263836   3.362   4.452   1.966 -1.4026 -1.1634 -1.3251
14141TIP3   OH263837   1.533   4.639   0.763  0.6589  0.3366 -0.0402
14141TIP3    H163838   1.443   4.663   0.739  0.9606  1.0828 -0.4533
14141TIP3    H263839   1.567   4.717   0.808  1.3253  0.3212 -0.5118
14142TIP3   OH263840   0.757   4.724  16.023  0.0487 -0.6285 -0.4823
14142TIP3    H163841   0.845   4.761  16.023 -0.1900 -0.0387 -1.2775
14142TIP3    H263842   0.747   4.686  16.110  0.0697  1.7816  0.6602
14143TIP3   OH263843   5.381   2.739   5.312 -0.1208  0.0314  0.4511
14143TIP3    H163844   5.412   2.724   5.401 -0.3423 -1.3856  0.3101
14143TIP3    H263845   5.435   2.812   5.280  1.7231 -1.0547  0.8969
14144TIP3   OH263846   5.045   6.658   3.910 -0.4986  0.4238 -0.0064
14144TIP3    H163847   4.957   6.644   3.946 -0.2690  1.2636  0.9586
14144TIP3    H263848   5.057   6.588   3.847 -2.2561  0.8724 -0.9134
14145TIP3   OH263849   5.902   3.681   1.952 -0.2006  0.3784 -0.1927
14145TIP3    H163850   5.991   3.663   1.983 -0.0327  0.2278 -0.7430
14145TIP3    H263851   5.850   3.690   2.031 -0.0513 -1.3090  0.1267
14146TIP3   OH263852   5.112   6.151   0.539  0.2462  0.0470 -0.1362
14146TIP3    H163853   5.141   6.212   0.471 -0.2091  1.7768  1.1596
14146TIP3    H263854   5.153   6.183   0.619  4.6845 -4.5382  0.0052
14147TIP3   OH263855   3.075   4.875  16.563  0.3600  0.3312 -0.0718
14147TIP3    H163856   3.069   4.896  16.470 -4.2113  2.9798  0.4992
14147TIP3    H263857   3.028   4.792  16.572  1.1696 -0.1402 -0.1499
14148TIP3   OH263858   0.968   1.426  13.392  0.0398 -0.0159  0.1568
14148TIP3    H163859   1.043   1.484  13.403  0.4652 -0.4598 -0.4102
14148TIP3    H263860   0.999   1.340  13.422  0.0950 -0.4385 -1.0803
14149TIP3   OH263861   6.007   4.802  13.927 -0.2579 -0.1536  0.2568
14149TIP3    H163862   5.920   4.794  13.888 -0.2802  0.1758  0.2429
14149TIP3    H263863   6.018   4.895  13.946 -0.5047 -0.3876  1.6370
14150TIP3   OH263864   3.194   6.531   2.284 -0.2078  0.4018  0.2116
14150TIP3    H163865   3.241   6.452   2.312  1.8926  0.5382 -2.5124
14150TIP3    H263866   3.131   6.499   2.220  0.6144  0.8537 -0.8607
14151TIP3   OH263867   3.615   4.021   1.720  0.0513 -0.5651 -0.4239
14151TIP3    H163868   3.527   4.007   1.753 -0.3411  0.5300 -0.9728
14151TIP3    H263869   3.671   4.017   1.798 -0.3640 -2.1007 -0.1849
14152TIP3   OH263870   2.378   1.139  13.906 -0.3862  0.2035 -0.4787
14152TIP3    H163871   2.391   1.143  14.001  0.3301  1.6652 -0.6267
14152TIP3    H263872   2.406   1.224  13.873 -0.5138 -0.3185 -2.0331
14153TIP3   OH263873   4.388   0.271   3.894  0.1131 -0.1845  0.2748
14153TIP3    H163874   4.405   0.231   3.808  0.6165 -0.6561  0.5845
14153TIP3    H263875   4.299   0.304   3.888 -0.3072 -1.3211 -0.0118
14154TIP3   OH263876   3.786   4.323  14.958  0.2087  0.7055 -0.1041
14154TIP3    H163877   3.795   4.399  15.015 -0.8207 -0.4696  1.7191
14154TIP3    H263878   3.865   4.271  14.974 -1.5777 -1.3961  3.1970
14155TIP3   OH263879   0.853   3.057   4.588 -0.1635  0.0375  0.1078
14155TIP3    H163880   0.909   3.017   4.654  0.6365  0.1824 -0.4695
14155TIP3    H263881   0.834   2.986   4.526  1.6504  0.5872 -1.1818
14156TIP3   OH263882   4.630   1.247  15.907  0.0087  0.4144 -0.1916
14156TIP3    H163883   4.624   1.186  15.981 -1.3231 -0.6056 -1.0896
14156TIP3    H263884   4.716   1.286  15.916 -0.0612  0.2270  1.8264
14157TIP3   OH263885   4.999   1.798   5.597 -0.0981  0.6029 -0.0266
14157TIP3    H163886   4.984   1.861   5.668  1.0183  0.7899  0.0648
14157TIP3    H263887   5.079   1.828   5.554  2.9988 -2.8979  2.5639
14158TIP3   OH263888   3.009   3.986   5.189  0.3861 -0.1248  0.4545
14158TIP3    H163889   2.969   4.060   5.236 -1.4620 -1.6553  1.4538
14158TIP3    H263890   3.034   4.022   5.104 -0.0533  1.7505  1.0650
14159TIP3   OH263891   2.728   4.218   4.949  0.3174  0.3179 -0.0110
14159TIP3    H163892   2.744   4.302   4.992 -0.9158  1.4787 -1.6927
14159TIP3    H263893   2.638   4.195   4.972  0.6299 -0.5408  0.4028
14160TIP3   OH263894   6.765   3.022  11.645  1.1163 -0.6223 -0.5100
14160TIP3    H163895   6.774   3.111  11.611 -0.7656 -0.4454 -0.6682
14160TIP3    H263896   6.782   2.965  11.570  1.6154 -0.3839 -0.5832
14161TIP3   OH263897   2.816   4.439   2.711 -0.0212  0.1002 -0.0994
14161TIP3    H163898   2.767   4.446   2.629 -0.6993 -1.4920  0.1366
14161TIP3    H263899   2.768   4.374   2.762  0.1031  1.4124  1.7893
14162TIP3   OH263900   6.565   3.849   2.372  0.0989 -0.7437 -0.0029
14162TIP3    H163901   6.504   3.889   2.434  1.4752 -0.3955  1.1694
14162TIP3    H263902   6.618   3.789   2.424  0.7737 -1.0327 -0.9832
14163TIP3   OH263903   4.290   4.636   2.055  0.1875 -0.0560 -0.1130
14163TIP3    H163904   4.361   4.692   2.087 -0.5326  1.0065 -0.3341
14163TIP3    H263905   4.277   4.572   2.125  1.9201 -0.8021 -0.4349
14164TIP3   OH263906   5.899   5.369  14.264 -0.3851  0.1972  0.2164
14164TIP3    H163907   5.846   5.385  14.185 -0.7039 -1.1695  0.1271
14164TIP3    H263908   5.842   5.395  14.336 -0.0455  1.5818  0.0249
14165TIP3   OH263909   3.265   1.059   0.569  0.2630  0.7017 -0.1459
14165TIP3    H163910   3.190   1.112   0.545  0.4366  1.6338  1.2638
14165TIP3    H263911   3.305   1.105   0.642  0.6986 -1.1207  0.8292
14166TIP3   OH263912   2.394   1.096   2.948  0.4558  0.3860  0.3545
14166TIP3    H163913   2.359   1.092   2.859  1.1314  0.0166  0.0966
14166TIP3    H263914   2.474   1.147   2.940  0.9918 -0.3987  0.5893
14167TIP3   OH263915   0.815   5.801   6.137  0.4301  0.3513  0.9929
14167TIP3    H163916   0.724   5.789   6.164  0.0172  0.4330 -0.2771
14167TIP3    H263917   0.857   5.845   6.211  0.0655 -1.8553  2.6284
14168TIP3   OH263918   4.318   6.242  15.924 -0.3236 -0.1347  0.1169
14168TIP3    H163919   4.368   6.195  15.858  0.0493  1.1757 -0.5800
14168TIP3    H263920   4.382   6.263  15.992 -0.4613 -0.5225  0.3679
14169TIP3   OH263921   6.501   0.372   4.887  0.1229 -0.3018 -0.3834
14169TIP3    H163922   6.483   0.373   4.981 -0.2397 -0.4131 -0.4494
14169TIP3    H263923   6.448   0.444   4.852  0.3867 -0.1542 -0.4786
14170TIP3   OH263924   4.504   2.897  16.545 -0.1394 -0.1950 -0.4426
14170TIP3    H163925   4.494   2.858  16.632 -0.0657  0.7028 -0.0193
14170TIP3    H263926   4.598   2.892  16.528 -0.2233 -0.8854 -0.7215
14171TIP3   OH263927   4.699   5.669   5.165 -0.6361 -0.4228 -0.2074
14171TIP3    H163928   4.759   5.683   5.092  0.7270  0.2149  0.9844
14171TIP3    H263929   4.755   5.638   5.236 -1.3185  2.0498  1.5649
14172TIP3   OH263930   3.373   1.370  12.804 -0.0141  0.0351  0.3095
14172TIP3    H163931   3.445   1.433  12.800  0.6582 -0.7515 -0.6063
14172TIP3    H263932   3.331   1.376  12.717  1.3401 -2.1869 -0.5877
14173TIP3   OH263933   3.657   2.813  16.847  0.5047  0.1707 -0.1677
14173TIP3    H163934   3.574   2.782  16.883  0.3165  0.6719 -0.1617
14173TIP3    H263935   3.653   2.909  16.857  1.3116  0.1604  0.3284
14174TIP3   OH263936   1.729   1.867   4.400  0.1099  0.4010 -0.9908
14174TIP3    H163937   1.767   1.877   4.488  0.4339 -0.1668 -1.0572
14174TIP3    H263938   1.702   1.955   4.375 -1.0680  0.3896  0.1672
14175TIP3   OH263939   5.572   3.884  12.534  0.9799  0.1230 -0.4250
14175TIP3    H163940   5.602   3.825  12.465 -0.2713  0.1656 -1.0326
14175TIP3    H263941   5.499   3.839  12.575  0.0546  1.1720 -0.8463
14176TIP3   OH263942   4.615   4.943  16.663  0.3269 -0.7819  0.1474
14176TIP3    H163943   4.593   4.941  16.756 -0.8153 -0.1801 -0.0865
14176TIP3    H263944   4.539   4.902  16.620  0.1759  0.2605 -0.6164
14177TIP3   OH263945   2.939   5.382   3.212 -0.8985  0.0444  0.0852
14177TIP3    H163946   2.898   5.307   3.168  1.0851 -0.9450 -0.1919
14177TIP3    H263947   2.871   5.416   3.270 -2.1642 -1.3752 -0.5072
14178TIP3   OH263948   6.001   2.203   1.389 -0.5079 -0.5348 -0.0502
14178TIP3    H163949   5.910   2.183   1.413 -0.5976  1.5108  1.6341
14178TIP3    H263950   6.054   2.147   1.446 -0.7590  1.2030  2.0119
14179TIP3   OH263951   1.788   1.663   2.844 -0.2212 -0.3183  0.1414
14179TIP3    H163952   1.781   1.585   2.789  0.2220  0.0484 -0.4509
14179TIP3    H263953   1.854   1.640   2.910  1.3689  0.1950 -1.1906
14180TIP3   OH263954   2.353   0.584  13.164 -0.2774 -0.4737 -0.1894
14180TIP3    H163955   2.337   0.589  13.258 -1.3395 -0.5707 -0.3570
14180TIP3    H263956   2.274   0.543  13.128 -1.1087  2.0127 -1.4411
14181TIP3   OH263957   3.570   2.026  13.438 -0.5651  0.0662  0.2583
14181TIP3    H163958   3.566   1.968  13.514  1.2847 -0.4986 -0.0350
14181TIP3    H263959   3.619   2.103  13.469 -0.5474  0.2165 -0.1381
14182TIP3   OH263960   6.223   5.020  12.468  0.2871 -0.8156  0.6359
14182TIP3    H163961   6.276   5.096  12.440 -0.7285 -0.9611 -1.9628
14182TIP3    H263962   6.270   4.945  12.432 -0.9404 -1.0322 -0.6174
14183TIP3   OH263963   4.978   5.889   0.567 -0.0258  0.4645 -0.0768
14183TIP3    H163964   5.019   5.975   0.557 -1.3855  1.1030 -0.3955
14183TIP3    H263965   5.034   5.843   0.630  0.9856  1.3964 -0.2664
14184TIP3   OH263966   6.136   6.077   1.277 -0.2667  0.1470  0.7343
14184TIP3    H163967   6.117   6.020   1.203  2.3192  1.2575 -0.9549
14184TIP3    H263968   6.202   6.030   1.327  0.0834  0.5758  0.6886
14185TIP3   OH263969   5.744   4.465  14.478  0.2238  0.2593 -0.1648
14185TIP3    H163970   5.680   4.529  14.509 -0.3076 -0.2355 -0.2247
14185TIP3    H263971   5.718   4.446  14.387  0.0624 -0.4157  0.0118
14186TIP3   OH263972   0.454   2.249   0.468 -0.1249 -0.3559  0.4087
14186TIP3    H163973   0.508   2.248   0.547  0.3552  1.9296  0.1641
14186TIP3    H263974   0.505   2.298   0.404  1.1303 -5.0248 -2.6555
14187TIP3   OH263975   0.265   4.631   0.849  0.4312 -0.5157 -0.2135
14187TIP3    H163976   0.248   4.665   0.761  0.8397  0.8323  0.2045
14187TIP3    H263977   0.183   4.644   0.896  0.7295  0.3224  0.0771
14188TIP3   OH263978   4.457   5.273  17.119  0.5279  0.2014 -0.6081
14188TIP3    H163979   4.376   5.283  17.069 -0.1170 -2.4384 -0.2111
14188TIP3    H263980   4.475   5.179  17.118  1.4350  0.2196  2.6003
14189TIP3   OH263981   1.271   6.591   3.393  0.1942  0.0445 -0.2373
14189TIP3    H163982   1.251   6.685   3.396  1.2852  0.3800 -2.0380
14189TIP3    H263983   1.305   6.571   3.480  0.3473  1.4200  0.0416
14190TIP3   OH263984   1.393   5.699   1.471  0.3141  0.3448  0.0765
14190TIP3    H163985   1.476   5.653   1.458  1.4466  2.5502 -1.0779
14190TIP3    H263986   1.330   5.629   1.489  2.3764 -1.4211  0.9470
14191TIP3   OH263987   1.927   0.410   4.665  0.3952  0.2593 -0.1071
14191TIP3    H163988   1.910   0.504   4.659  0.2924  0.1687 -1.3415
14191TIP3    H263989   1.841   0.371   4.678  0.4063  0.3122  0.1286
14192TIP3   OH263990   1.292   0.797   5.171 -0.4264 -0.3070 -0.0429
14192TIP3    H163991   1.216   0.742   5.158  0.5357 -1.8866  0.7474
14192TIP3    H263992   1.275   0.875   5.119 -1.6656 -1.5023 -1.4910
14193TIP3   OH263993   2.669   4.828   5.657  0.4230  0.1393 -0.2271
14193TIP3    H163994   2.720   4.874   5.592 -0.1241  1.7602  0.4326
14193TIP3    H263995   2.712   4.847   5.740  0.1925 -0.5594  0.0633
14194TIP3   OH263996   0.934   0.176  14.604 -0.0352 -0.1332  0.2364
14194TIP3    H163997   0.940   0.226  14.686 -0.7318  2.2348 -1.0417
14194TIP3    H263998   1.022   0.140  14.591 -0.5525 -2.9698  3.3124
14195TIP3   OH263999   6.237   5.312  13.570  0.0228 -0.3786 -0.8000
14195TIP3    H164000   6.239   5.377  13.640  1.0235 -1.3462  0.1119
14195TIP3    H264001   6.178   5.244  13.603 -1.4003  0.2412 -1.9496
14196TIP3   OH264002   6.241   5.740   1.948  0.8281 -0.0513 -0.4692
14196TIP3    H164003   6.159   5.749   1.899 -1.3842 -0.2544  2.8737
14196TIP3    H264004   6.221   5.677   2.017  1.9502  3.7776  3.8264
14197TIP3   OH264005   3.422   0.727  14.405  0.4745  0.3896  0.0748
14197TIP3    H164006   3.331   0.750  14.386 -1.0438 -2.4449  2.9636
14197TIP3    H264007   3.436   0.758  14.494  2.6023  1.2920 -0.5226
14198TIP3   OH264008   4.054   1.155   0.922 -0.2753  0.8824 -0.4561
14198TIP3    H164009   3.959   1.169   0.926 -0.4594 -0.3065 -0.2759
14198TIP3    H264010   4.079   1.141   1.014 -0.2717 -0.7898 -0.6787
14199TIP3   OH264011   4.224   1.567  15.806  0.2383 -0.3869  0.1404
14199TIP3    H164012   4.302   1.517  15.781 -0.9370 -1.0173 -2.6651
14199TIP3    H264013   4.213   1.632  15.737 -2.0770 -0.7750  0.0613
14200TIP3   OH264014   6.291   6.355   3.484 -0.0457  0.3564  0.2633
14200TIP3    H164015   6.276   6.326   3.574  0.4693 -0.9247 -0.0294
14200TIP3    H264016   6.250   6.441   3.478 -0.1474  0.4225  1.6973
14201TIP3   OH264017   5.269   5.955  15.712 -0.7417 -0.0692  0.1745
14201TIP3    H164018   5.347   5.924  15.665 -1.1067 -0.0627 -0.4363
14201TIP3    H264019   5.299   6.034  15.757 -0.3255 -0.2109  0.1575
14202TIP3   OH264020   5.706   5.177  12.577 -0.3713  0.4495  0.6138
14202TIP3    H164021   5.658   5.109  12.625 -0.0981 -0.7305 -0.7228
14202TIP3    H264022   5.787   5.135  12.550  0.5274  1.8194  1.1186
14203TIP3   OH264023   6.484   4.917   4.631  0.7215  0.2960  0.0814
14203TIP3    H164024   6.526   4.919   4.545 -0.3233  2.0712 -0.4304
14203TIP3    H264025   6.546   4.871   4.687  1.8151 -0.1163 -1.4154
14204TIP3   OH264026   3.360   3.409   5.502 -0.5894 -0.1987 -0.7345
14204TIP3    H164027   3.293   3.399   5.569 -1.0680  0.8342 -1.0345
14204TIP3    H264028   3.353   3.501   5.474  1.8325  0.3374  0.1714
14205TIP3   OH264029   5.021   4.303  13.532  0.2981  0.1503 -0.4231
14205TIP3    H164030   5.045   4.335  13.619  1.1087 -2.4237  0.3855
14205TIP3    H264031   5.055   4.214  13.529  0.6236  0.2728 -3.5504
14206TIP3   OH264032   4.731   4.705  16.111 -0.1361 -0.2031  0.2387
14206TIP3    H164033   4.781   4.636  16.068  0.0774 -0.5790  1.0751
14206TIP3    H264034   4.755   4.699  16.203 -1.3133 -0.0391  0.5777
14207TIP3   OH264035   4.670   6.057   2.310 -0.0407  0.6216  0.2520
14207TIP3    H164036   4.647   5.987   2.371  0.4683  1.3092  1.2750
14207TIP3    H264037   4.612   6.130   2.334 -0.6829  0.5229 -0.9091
14208TIP3   OH264038   2.026   4.988  11.629  0.1593  0.3743 -0.4328
14208TIP3    H164039   1.978   4.959  11.552  0.2751 -1.8537  0.2665
14208TIP3    H264040   2.074   5.065  11.600 -0.1493 -0.1396 -2.4592
14209TIP3   OH264041   5.998   0.660   5.457 -0.2084  0.3655 -0.1433
14209TIP3    H164042   6.036   0.745   5.437  0.8320 -0.5894 -2.7370
14209TIP3    H264043   5.931   0.646   5.390  0.4243 -1.2983 -0.4890
14210TIP3   OH264044   1.922   3.180   0.066 -0.4387  0.2727 -0.2076
14210TIP3    H164045   1.858   3.151   0.131 -0.1366  1.1228  0.5013
14210TIP3    H264046   1.872   3.236   0.007 -0.9347 -1.3134 -1.3409
14211TIP3   OH264047   6.281   3.941  17.197 -0.2882 -0.4015 -0.1596
14211TIP3    H164048   6.243   3.922  17.283 -1.0416  0.6497 -0.2354
14211TIP3    H264049   6.239   3.878  17.138 -2.4561  1.0942 -0.3473
14212TIP3   OH264050   1.140   4.862  15.893 -0.2399  0.7241 -0.3366
14212TIP3    H164051   1.202   4.803  15.848 -0.0335  0.4825  0.2580
14212TIP3    H264052   1.097   4.806  15.958 -1.4102  0.7814 -1.0308
14213TIP3   OH264053   0.393   3.215  13.196  0.0176 -0.0638 -0.3972
14213TIP3    H164054   0.427   3.187  13.281  0.9327  2.6587  0.2243
14213TIP3    H264055   0.300   3.195  13.200 -0.4294  2.0371  2.2429
14214TIP3   OH264056   6.219   4.026  15.962 -0.0787 -0.1743  0.3477
14214TIP3    H164057   6.151   4.094  15.963 -0.7197 -0.8031  0.9726
14214TIP3    H264058   6.175   3.950  15.924  1.1768  0.2533 -2.1970
14215TIP3   OH264059   1.904   1.226  11.230  0.1282 -0.6095 -0.5898
14215TIP3    H164060   1.862   1.286  11.168 -1.4639 -0.2741  0.7466
14215TIP3    H264061   1.841   1.156  11.243 -0.4652  0.3022  2.0765
14216TIP3   OH264062   4.685   5.297  12.133 -0.3413  0.1987 -0.5548
14216TIP3    H164063   4.756   5.317  12.194 -1.6930  0.8079  0.9075
14216TIP3    H264064   4.728   5.261  12.056  1.5572  0.7896  0.1775
14217TIP3   OH264065   1.687   2.516  14.005 -0.7996 -0.1339 -0.3882
14217TIP3    H164066   1.630   2.587  14.035  1.4076  0.9093  1.6618
14217TIP3    H264067   1.708   2.466  14.084  1.8121  0.0965 -0.8593
14218TIP3   OH264068   5.406   3.867   2.382  0.3963  0.2141  0.1602
14218TIP3    H164069   5.338   3.934   2.387  0.3550  0.2228 -0.3799
14218TIP3    H264070   5.369   3.800   2.324  1.2092  0.6672 -0.9118
14219TIP3   OH264071   3.418   0.040  10.504  0.3018 -0.1650  0.5028
14219TIP3    H164072   3.472  -0.038  10.519 -0.6683 -0.8654  0.4054
14219TIP3    H264073   3.344   0.030  10.564 -0.8628 -0.3401 -0.9135
14220TIP3   OH264074   4.008   6.771  15.642  0.3044 -0.0151  0.5954
14220TIP3    H164075   3.916   6.745  15.647  0.6768 -1.3806  0.8258
14220TIP3    H264076   4.015   6.845  15.702 -0.7415  0.4658  0.1683
14221TIP3   OH264077   6.632   2.417  14.624  0.6231 -0.1316 -0.2876
14221TIP3    H164078   6.650   2.340  14.679  2.2446  1.3209  1.3444
14221TIP3    H264079   6.563   2.463  14.671 -0.3337 -0.5387 -1.2558
14222TIP3   OH264080   2.901   6.535  13.892  0.8093 -0.4753 -0.5573
14222TIP3    H164081   2.858   6.618  13.912 -1.3126 -0.5891 -3.8415
14222TIP3    H264082   2.858   6.471  13.948 -0.4463  0.0841 -0.8429
14223TIP3   OH264083   1.769   0.913   3.007  0.5322 -0.5822 -0.0045
14223TIP3    H164084   1.676   0.913   3.030  0.6781 -2.4607  0.8239
14223TIP3    H264085   1.769   0.918   2.912 -0.3788  0.3546  0.0250
14224TIP3   OH264086   4.555   2.114  12.737 -0.1946 -0.3290  0.4955
14224TIP3    H164087   4.513   2.032  12.762 -1.0859 -0.1002 -0.1939
14224TIP3    H264088   4.586   2.151  12.820  0.0026 -1.2375  0.8394
14225TIP3   OH264089   2.867   2.086   3.467  0.0855  0.0159 -0.6104
14225TIP3    H164090   2.785   2.110   3.510  0.8540  0.4564  0.6575
14225TIP3    H264091   2.855   2.114   3.376 -1.3685 -0.4296 -0.5833
14226TIP3   OH264092   1.586   5.247  12.842  0.0717  0.3997 -0.4086
14226TIP3    H164093   1.569   5.265  12.750  3.0535 -2.4568 -1.7129
14226TIP3    H264094   1.668   5.292  12.861  0.6849 -0.8708  0.1155
14227TIP3   OH264095   1.170   2.028  12.368 -0.3035  0.3315 -0.3933
14227TIP3    H164096   1.218   2.008  12.449 -3.2625 -2.3294  0.8948
14227TIP3    H264097   1.097   2.082  12.396 -1.8322 -1.2971 -1.0294
14228TIP3   OH264098   2.717   2.667   0.969  0.1333  0.2771 -0.2831
14228TIP3    H164099   2.636   2.691   0.925  1.0110 -0.6609 -2.6078
14228TIP3    H264100   2.785   2.711   0.919  1.1329  0.3554  1.0852
14229TIP3   OH264101   5.113   1.115   5.481 -0.0318 -0.6569  0.5345
14229TIP3    H164102   5.096   1.195   5.432 -2.5762 -0.8961  0.8964
14229TIP3    H264103   5.199   1.129   5.521  1.5487  0.1135 -2.7820
14230TIP3   OH264104   6.628   5.447   3.801 -0.2590 -0.0058  0.3359
14230TIP3    H164105   6.709   5.497   3.815  0.7213 -0.6746 -2.3323
14230TIP3    H264106   6.643   5.399   3.720 -3.2447 -0.3893 -0.1152
14231TIP3   OH264107   4.860   5.750  13.665 -0.2252 -0.5651 -0.3399
14231TIP3    H164108   4.888   5.681  13.604  0.2920 -2.2288  1.6599
14231TIP3    H264109   4.915   5.738  13.742 -1.7650  0.5740  1.0096
14232TIP3   OH264110   3.817   6.047  12.484  0.5669  0.1127  0.1764
14232TIP3    H164111   3.842   5.965  12.525  1.2266  0.2985  0.1552
14232TIP3    H264112   3.863   6.047  12.400  0.9703  0.7236  0.3874
14233TIP3   OH264113   1.061   6.390   2.880  0.5084  0.3306 -0.2327
14233TIP3    H164114   1.064   6.377   2.786 -0.4829  0.5979 -0.3099
14233TIP3    H264115   0.997   6.460   2.893 -1.1241 -1.2479  0.7677
14234TIP3   OH264116   2.523   1.779   3.746 -0.3493  0.7155  0.2635
14234TIP3    H164117   2.614   1.807   3.736  0.1168 -0.5487  0.6698
14234TIP3    H264118   2.495   1.759   3.657  0.4351 -0.7431  0.3066
14235TIP3   OH264119   3.701   4.465  15.827 -0.5239  0.0654 -0.0047
14235TIP3    H164120   3.694   4.418  15.744 -0.6922  1.2040 -0.6526
14235TIP3    H264121   3.686   4.556  15.804  0.7709  0.5772  1.0672
14236TIP3   OH264122   1.473   3.474   4.101 -0.5411  0.7564 -0.1837
14236TIP3    H164123   1.381   3.501   4.101 -1.2884 -1.5201 -1.6054
14236TIP3    H264124   1.470   3.380   4.083  2.0098  0.2750  1.4407
14237TIP3   OH264125   1.245   5.290   3.156 -0.0385  0.0882  0.0780
14237TIP3    H164126   1.243   5.380   3.188  1.7342 -0.5373  2.1757
14237TIP3    H264127   1.322   5.252   3.198 -0.1037 -2.1102 -1.6387
14238TIP3   OH264128   5.965   2.897  15.121 -0.4478  0.3228  0.3520
14238TIP3    H164129   5.917   2.973  15.086  0.1622  0.5633  0.0356
14238TIP3    H264130   6.016   2.932  15.194  0.1071  0.2957 -0.0155
14239TIP3   OH264131   6.297   0.107  17.184  0.0521 -0.3522 -0.3400
14239TIP3    H164132   6.273   0.175  17.247 -0.1771  0.1041 -0.9133
14239TIP3    H264133   6.367   0.146  17.132  2.8668 -2.0009  1.9505
14240TIP3   OH264134   1.262   4.021   6.149 -0.0320 -0.2530 -0.1418
14240TIP3    H164135   1.328   4.045   6.214  1.6201 -1.7224 -1.2133
14240TIP3    H264136   1.308   4.019   6.066 -2.1425  1.7969 -1.5027
14241TIP3   OH264137   5.902   4.757   2.365  0.1109 -0.7523  0.0310
14241TIP3    H164138   5.962   4.683   2.358  2.3478  0.8840  0.7999
14241TIP3    H264139   5.866   4.751   2.453  1.4554 -0.1591  0.6580
14242TIP3   OH264140   6.361   1.975   4.635  0.4313 -0.1474 -0.5278
14242TIP3    H164141   6.266   1.988   4.633  0.2510  0.0072  2.6896
14242TIP3    H264142   6.397   2.064   4.633  0.6113 -0.2302 -2.5933
14243TIP3   OH264143   2.749   3.972   5.536 -0.1900  0.2971  0.2659
14243TIP3    H164144   2.752   3.935   5.447 -0.8747 -0.5611  0.5755
14243TIP3    H264145   2.780   3.901   5.592  1.5736  1.3010  0.6112
14244TIP3   OH264146   2.546   4.932   4.406  0.5815  0.0882  0.5989
14244TIP3    H164147   2.515   4.954   4.319  0.0857  1.1348  1.0152
14244TIP3    H264148   2.600   5.007   4.432  0.3391  0.0079  1.3656
14245TIP3   OH264149   1.424   1.921  10.455  0.1436  0.5408  0.4027
14245TIP3    H164150   1.503   1.963  10.422 -0.6412 -0.2638 -2.8038
14245TIP3    H264151   1.368   1.995  10.482  1.4449  1.1557  1.5505
14246TIP3   OH264152   5.956   1.730  12.448 -0.3981 -0.1231 -0.5050
14246TIP3    H164153   5.926   1.699  12.362  0.8137 -2.9813 -0.0337
14246TIP3    H264154   5.875   1.739  12.499 -1.0374  0.4236 -1.5669
14247TIP3   OH264155   2.055   2.558  15.530  0.0786  0.1215  0.5462
14247TIP3    H164156   2.032   2.644  15.564 -0.1928  0.5689 -0.7251
14247TIP3    H264157   2.143   2.569  15.494  0.3270 -0.3249  0.9908
14248TIP3   OH264158   0.434   5.201   6.438  0.5994 -0.1766 -0.0236
14248TIP3    H164159   0.426   5.280   6.384 -0.9131 -0.5965 -0.4685
14248TIP3    H264160   0.386   5.222   6.518 -0.7568 -1.0054 -0.5973
14249TIP3   OH264161   3.084   5.478   1.412 -0.3483  0.0088  0.0183
14249TIP3    H164162   3.150   5.470   1.481  0.3999 -0.2764 -0.7161
14249TIP3    H264163   3.099   5.403   1.356 -0.5237  0.5830 -0.8154
14250TIP3   OH264164   2.900   2.975   1.944  0.8555 -0.0399  0.2561
14250TIP3    H164165   2.811   3.003   1.922  1.6419  1.1513 -1.7437
14250TIP3    H264166   2.899   2.880   1.933 -0.4336 -0.1764  1.3766
14251TIP3   OH264167   6.538   6.610   1.018  0.4273  0.0638  0.0466
14251TIP3    H164168   6.496   6.564   1.091  0.2200 -0.8770 -0.6375
14251TIP3    H264169   6.590   6.542   0.975 -1.2491  0.0005 -2.0206
14252TIP3   OH264170   0.142   5.277  12.996  0.4091 -0.1090  0.0368
14252TIP3    H164171   0.070   5.227  13.033  1.7934 -2.1990  0.0655
14252TIP3    H264172   0.166   5.339  13.065 -1.3720  0.6800 -0.0161
14253TIP3   OH264173   6.341   5.392  11.410 -0.3004  0.5367  0.8463
14253TIP3    H164174   6.418   5.414  11.462  2.4284 -2.2708 -1.6052
14253TIP3    H264175   6.357   5.434  11.325 -2.5400  1.5259  0.8361
14254TIP3   OH264176   6.701   4.625   0.640 -0.3718 -0.0198 -0.0503
14254TIP3    H164177   6.745   4.542   0.622 -1.4088 -0.8268  0.9974
14254TIP3    H264178   6.771   4.691   0.634  0.8135 -1.1572  0.7265
14255TIP3   OH264179   2.837   0.366   5.793 -1.0561 -0.1286  0.0250
14255TIP3    H164180   2.888   0.308   5.850 -0.5328  0.4135  0.1219
14255TIP3    H264181   2.749   0.364   5.829 -1.2463 -1.5040 -0.4608
14256TIP3   OH264182   3.417   6.615   2.692  0.1306  0.7248 -0.1057
14256TIP3    H164183   3.371   6.670   2.629  1.6537  1.6871 -0.4437
14256TIP3    H264184   3.505   6.654   2.698  0.6565 -0.5531  1.0891
14257TIP3   OH264185   0.016   2.413   4.085 -0.1284 -0.8755 -0.1818
14257TIP3    H164186   0.002   2.449   4.173  1.7017 -0.4175 -0.0390
14257TIP3    H264187  -0.067   2.429   4.039 -0.5284  0.4486  0.9280
14258TIP3   OH264188   5.086   5.320   6.268 -0.4480 -0.1669 -0.1413
14258TIP3    H164189   5.168   5.306   6.317 -0.4493 -2.5389 -0.7010
14258TIP3    H264190   5.065   5.235   6.232 -2.8161  0.5543 -0.6394
14259TIP3   OH264191   6.151   1.718  11.129 -0.3631  0.2752  0.4232
14259TIP3    H164192   6.236   1.677  11.110 -0.5289 -0.9289  2.0605
14259TIP3    H264193   6.087   1.662  11.085 -0.3733  1.0147 -0.5577
14260TIP3   OH264194   0.670   2.916  12.427 -0.5069  0.4497  0.1459
14260TIP3    H164195   0.718   2.918  12.510 -1.6838  1.5709  0.8410
14260TIP3    H264196   0.685   3.003  12.390 -1.4860  0.6073  0.0934
14261TIP3   OH264197   2.194   4.218   1.664  0.3773  0.5273  0.1750
14261TIP3    H164198   2.210   4.125   1.679  0.6464  0.3802 -0.9056
14261TIP3    H264199   2.101   4.223   1.641  0.3264  0.5490  0.3830
14262TIP3   OH264200   5.297   0.963   2.611 -0.3276 -0.7869  0.3432
14262TIP3    H164201   5.264   1.051   2.628  1.1998  0.2098 -1.5386
14262TIP3    H264202   5.224   0.918   2.569 -0.6694  0.0361  0.0349
14263TIP3   OH264203   2.049   4.388  15.422  0.1791  0.0474 -0.0562
14263TIP3    H164204   2.140   4.373  15.397 -0.1068  0.2294 -1.2578
14263TIP3    H264205   2.006   4.304  15.407 -0.4838  0.7515 -2.5164
14264TIP3   OH264206   0.099   4.110   1.552 -0.1700 -0.3271  0.4123
14264TIP3    H164207   0.006   4.094   1.562  0.0808 -2.1932  0.0958
14264TIP3    H264208   0.105   4.186   1.494 -1.4667  1.2944  2.2673
14265TIP3   OH264209   1.905   4.050   0.935 -0.7233  0.3038 -0.1039
14265TIP3    H164210   1.909   4.093   0.850 -2.3352  0.2931 -0.2035
14265TIP3    H264211   1.969   4.098   0.988 -0.1395  0.7000 -1.1347
14266TIP3   OH264212   2.019   5.868   0.981 -0.2218 -0.5111 -0.3409
14266TIP3    H164213   1.938   5.913   1.000 -0.0054  0.8135 -2.2910
14266TIP3    H264214   2.084   5.908   1.039 -0.2869  0.8818 -1.1958
14267TIP3   OH264215   1.673   6.641   2.830  0.2251  0.2940 -0.1802
14267TIP3    H164216   1.668   6.600   2.744  1.4581  1.0108 -0.6153
14267TIP3    H264217   1.671   6.735   2.813  2.5868  0.4991  0.3700
14268TIP3   OH264218   2.713   1.602   1.326  0.0428  0.5593 -0.0174
14268TIP3    H164219   2.701   1.513   1.292 -1.7310 -2.0156  5.9767
14268TIP3    H264220   2.649   1.655   1.278 -1.5857 -2.3145 -1.2843
14269TIP3   OH264221   5.419   4.194  13.752  0.8068 -0.1776 -0.4206
14269TIP3    H164222   5.503   4.240  13.748  0.5972  0.2509 -0.0441
14269TIP3    H264223   5.441   4.105  13.778  1.0408  0.2678  0.9709
14270TIP3   OH264224   6.429   1.100   3.256 -0.2945  0.2571 -0.6481
14270TIP3    H164225   6.368   1.092   3.329 -0.3146  0.1114 -0.6812
14270TIP3    H264226   6.513   1.122   3.298  0.1773 -1.8384 -0.3889
14271TIP3   OH264227   0.190   4.892   3.555  0.1178  0.6160 -0.3357
14271TIP3    H164228   0.205   4.953   3.482  1.3724 -0.8288 -1.3630
14271TIP3    H264229   0.277   4.858   3.576 -0.4885 -0.5407  0.4304
14272TIP3   OH264230   5.609   0.962  10.913  0.3554  0.0694  0.2076
14272TIP3    H164231   5.697   0.970  10.952 -0.5959 -0.5700  2.6879
14272TIP3    H264232   5.603   0.870  10.887  0.6741  0.2944 -0.6949
14273TIP3   OH264233   6.609   0.458  13.944 -0.1122 -0.1761 -0.6141
14273TIP3    H164234   6.565   0.528  13.897 -0.0797  1.2079  1.2748
14273TIP3    H264235   6.548   0.385  13.942 -0.1541 -0.1325 -2.6096
14274TIP3   OH264236   0.710   5.975  11.674  0.1885  0.1787 -0.0417
14274TIP3    H164237   0.705   5.890  11.718 -0.1837  0.2690  0.0973
14274TIP3    H264238   0.742   5.955  11.587  0.5736 -0.0498  0.1499
14275TIP3   OH264239   3.804   1.086   2.659  0.2260  0.4156  0.4276
14275TIP3    H164240   3.789   1.176   2.630  0.2145  0.2777 -0.0005
14275TIP3    H264241   3.836   1.040   2.581 -1.3113 -0.3352  0.1921
14276TIP3   OH264242   3.557   3.011  11.851 -0.2962 -0.6597 -0.8028
14276TIP3    H164243   3.621   2.940  11.859  0.5838  0.1724 -0.2391
14276TIP3    H264244   3.554   3.030  11.757  0.3816 -0.6342 -0.8274
14277TIP3   OH264245   3.698   1.963  15.540  0.6796  0.0680  0.5012
14277TIP3    H164246   3.648   1.891  15.500  0.9154  0.7795 -1.1266
14277TIP3    H264247   3.772   1.919  15.582 -0.6173 -0.8835  1.9030
14278TIP3   OH264248   6.759   3.395   1.505 -0.0749  0.3780 -0.1956
14278TIP3    H164249   6.689   3.438   1.455  0.3244  0.1381 -0.9895
14278TIP3    H264250   6.837   3.448   1.486  0.3517 -0.4665 -0.9051
14279TIP3   OH264251   0.642   1.743  12.640 -0.2120 -0.4682 -0.0283
14279TIP3    H164252   0.547   1.755  12.633 -0.0992  0.2446 -0.4207
14279TIP3    H264253   0.660   1.664  12.588 -0.6196 -0.7939  0.3084
14280TIP3   OH264254   4.726   6.466  11.141 -0.1617  0.3272 -0.2521
14280TIP3    H164255   4.704   6.470  11.234  0.1358 -0.7184 -0.1220
14280TIP3    H264256   4.763   6.552  11.121 -2.1221  1.2873  0.0844
14281TIP3   OH264257   5.253   3.367   0.694 -0.7643  0.6072 -0.8949
14281TIP3    H164258   5.162   3.397   0.695 -0.5375  1.3561 -1.3238
14281TIP3    H264259   5.286   3.395   0.609  0.1211  1.1690 -0.3912
14282TIP3   OH264260   5.795   2.400   3.096 -0.0915 -0.0038 -0.1454
14282TIP3    H164261   5.807   2.323   3.041 -0.1024  0.1624 -0.3838
14282TIP3    H264262   5.862   2.391   3.164 -1.8759 -1.6579  1.4904
14283TIP3   OH264263   4.413   6.463  12.458  0.4758 -0.6361  0.2084
14283TIP3    H164264   4.507   6.465  12.476  0.2569  0.6074  1.3447
14283TIP3    H264265   4.376   6.410  12.528  0.4597 -2.4239 -1.0867
14284TIP3   OH264266   4.304   5.869  12.442 -0.3442 -0.4686 -0.0496
14284TIP3    H164267   4.315   5.886  12.348  1.0001  0.5846  0.2798
14284TIP3    H264268   4.366   5.927  12.485 -0.9089 -0.9667  1.5135
14285TIP3   OH264269   5.260   1.148   6.392  0.3360 -0.2707 -0.5124
14285TIP3    H164270   5.284   1.200   6.469 -0.0208 -1.5905  0.5203
14285TIP3    H264271   5.201   1.081   6.425  1.7207 -2.1136 -1.5320
14286TIP3   OH264272   0.567   3.920   2.574 -0.1517 -0.1495 -0.5293
14286TIP3    H164273   0.607   3.980   2.510 -0.2148 -1.2552 -1.6603
14286TIP3    H264274   0.483   3.960   2.595  1.1264  1.7874  1.2406
14287TIP3   OH264275   5.264   0.576   5.664 -0.0737  1.1615 -0.2466
14287TIP3    H164276   5.344   0.595   5.615  0.0647 -0.0248 -0.5129
14287TIP3    H264277   5.294   0.530   5.743 -0.5087  0.4115 -0.5119
14288TIP3   OH264278   0.018   4.360  11.450 -0.1443  0.3224  0.2417
14288TIP3    H164279   0.099   4.390  11.492  0.2321  0.3277 -0.4706
14288TIP3    H264280  -0.021   4.440  11.414 -0.1807  0.2472  0.1100
14289TIP3   OH264281   1.964   1.414   1.928  0.0450  0.7704  0.6372
14289TIP3    H164282   1.912   1.421   1.848  0.5123 -2.9151 -0.1481
14289TIP3    H264283   2.054   1.434   1.900  0.0846  0.2503  0.3691
14290TIP3   OH264284   2.659   6.482  13.496  0.0441 -0.8025 -0.0438
14290TIP3    H164285   2.593   6.534  13.542  0.1017  1.7852 -2.5489
14290TIP3    H264286   2.742   6.516  13.528  0.1231 -1.2230  0.2008
14291TIP3   OH264287   4.465   0.137   4.121  0.0074 -0.0965 -0.4967
14291TIP3    H164288   4.459   0.195   4.045 -0.2014  0.0959 -0.3362
14291TIP3    H264289   4.385   0.156   4.171  0.6709  0.5839  0.3353
14292TIP3   OH264290   5.986   4.516  16.629  0.6830  0.3098  0.0254
14292TIP3    H164291   6.026   4.429  16.631  0.4244  0.2011  0.5867
14292TIP3    H264292   5.893   4.500  16.641  0.6097  0.6534 -0.0750
14293TIP3   OH264293   4.224   2.698  11.464  0.0430  0.0002  0.1381
14293TIP3    H164294   4.143   2.699  11.412  1.0543 -0.5673 -1.5236
14293TIP3    H264295   4.272   2.622  11.432  0.8523 -0.2095  1.7465
14294TIP3   OH264296   1.303   6.425  15.592  0.5122  0.1756 -0.4956
14294TIP3    H164297   1.366   6.353  15.585 -0.2263 -0.7995  1.8941
14294TIP3    H264298   1.232   6.401  15.532 -0.0774 -1.5568  0.8103
14295TIP3   OH264299   2.796   2.756   3.553 -0.1902 -0.4706  0.1823
14295TIP3    H164300   2.834   2.839   3.580 -0.4692 -0.5912  0.9754
14295TIP3    H264301   2.703   2.763   3.577 -0.7776 -0.0578 -1.9874
14296TIP3   OH264302   1.804   0.401   5.727  0.3253 -0.1314 -0.1163
14296TIP3    H164303   1.889   0.361   5.745 -0.0786 -0.8976  0.1436
14296TIP3    H264304   1.824   0.490   5.699  1.2035 -0.2612  0.0881
14297TIP3   OH264305   5.312   3.771  14.467 -0.1041 -0.2341  0.5724
14297TIP3    H164306   5.379   3.835  14.489 -0.7833  1.1381 -1.1918
14297TIP3    H264307   5.331   3.696  14.525  0.7824  1.4543  2.5974
14298TIP3   OH264308   0.588   2.379  12.623 -0.5279 -0.3136 -0.1599
14298TIP3    H164309   0.520   2.410  12.562 -0.2307  0.2002 -0.2354
14298TIP3    H264310   0.670   2.403  12.581 -0.3168 -0.0374  0.4013
14299TIP3   OH264311   3.968   5.930  15.301  0.0300  0.0507  0.6581
14299TIP3    H164312   3.971   5.834  15.301 -0.2220  0.0011 -1.1989
14299TIP3    H264313   4.059   5.957  15.309  0.6772 -0.4838 -3.1618
14300TIP3   OH264314   5.605   1.876  11.200 -0.1677 -0.1222 -0.2834
14300TIP3    H164315   5.679   1.885  11.140 -1.4433  2.4163 -1.6304
14300TIP3    H264316   5.529   1.906  11.149 -1.4763  1.1866  2.2650
14301TIP3   OH264317   0.794   1.023  17.000 -0.2521 -0.6364 -0.4528
14301TIP3    H164318   0.745   1.022  16.918  0.2449  0.2443 -0.7797
14301TIP3    H264319   0.835   0.936  17.004 -0.2935 -0.6950 -1.1366
14302TIP3   OH264320   0.375   3.047  13.444  0.5350  0.1780  0.4839
14302TIP3    H164321   0.420   3.040  13.528  0.4522 -0.5617  0.4689
14302TIP3    H264322   0.287   3.014  13.460  0.1407  1.1501  0.3889
14303TIP3   OH264323   4.189   3.560   3.347  0.4208  0.7428 -0.0287
14303TIP3    H164324   4.242   3.536   3.271  3.2524 -0.4037  2.1292
14303TIP3    H264325   4.177   3.478   3.395 -0.6604  1.5461  1.1442
14304TIP3   OH264326   0.467   2.971   1.788  0.0024 -0.5355  0.3768
14304TIP3    H164327   0.534   2.904   1.778  0.6859  0.2982 -0.9510
14304TIP3    H264328   0.402   2.950   1.720  0.2708  0.1733 -0.1136
14305TIP3   OH264329   3.047   5.945   3.233 -0.4584  0.3344 -0.0202
14305TIP3    H164330   3.105   6.010   3.272  1.5257 -0.5523 -1.3431
14305TIP3    H264331   3.077   5.861   3.268 -2.0247 -0.0426  0.5208
14306TIP3   OH264332   0.399   3.426  12.174  0.0863 -0.0568  0.2974
14306TIP3    H164333   0.321   3.384  12.138  0.0083  0.2131  0.1493
14306TIP3    H264334   0.472   3.389  12.125  0.0172 -0.0106  0.1606
14307TIP3   OH264335   4.861   3.525  11.696 -0.3628  0.1050  0.1142
14307TIP3    H164336   4.911   3.572  11.764 -0.0355 -0.0794  0.0043
14307TIP3    H264337   4.927   3.500  11.631 -0.4229 -1.0838  0.4915
14308TIP3   OH264338   1.844   4.210  13.617 -0.1167  0.1234  0.7045
14308TIP3    H164339   1.758   4.234  13.582  0.7801  1.2557 -0.8752
14308TIP3    H264340   1.837   4.225  13.711 -2.1939 -1.6116  0.9120
14309TIP3   OH264341   5.445   3.054   0.580 -0.0000 -0.4520  0.6343
14309TIP3    H164342   5.437   3.133   0.526  0.8616 -0.6972  0.1334
14309TIP3    H264343   5.383   3.068   0.652 -0.5135  0.2738  0.0634
14310TIP3   OH264344   2.366   2.019  12.212  0.0523 -0.4533 -0.5479
14310TIP3    H164345   2.343   2.106  12.244  0.3816  0.2119 -2.0310
14310TIP3    H264346   2.284   1.970  12.214 -0.2548  0.0649 -0.2249
14311TIP3   OH264347   0.248   6.534   4.923 -0.0337  0.2467 -0.1913
14311TIP3    H164348   0.246   6.606   4.860  1.3275  0.4334 -0.0402
14311TIP3    H264349   0.158   6.502   4.925 -0.7848  2.2208  0.0574
14312TIP3   OH264350   6.020   3.695   4.375  0.1926 -0.5593 -0.2543
14312TIP3    H164351   6.035   3.699   4.281  0.3105  1.3303 -0.1809
14312TIP3    H264352   6.098   3.734   4.414 -1.2435  1.8089  0.4611
14313TIP3   OH264353   2.687   1.033  15.341  0.1804 -0.2592  0.5367
14313TIP3    H164354   2.633   0.993  15.409  1.1621 -2.4667  0.0957
14313TIP3    H264355   2.625   1.056  15.272 -0.5557  0.0632  1.2941
14314TIP3   OH264356   2.548   0.630   4.738  0.2088 -0.4609 -0.3852
14314TIP3    H164357   2.503   0.651   4.819  1.6718 -0.2901  0.4152
14314TIP3    H264358   2.640   0.619   4.763  0.7831  0.0608 -2.0780
14315TIP3   OH264359   5.412   5.868   4.691  0.3740  0.4188  0.1638
14315TIP3    H164360   5.416   5.890   4.784 -1.1049 -0.5057  0.4925
14315TIP3    H264361   5.394   5.774   4.690 -0.6365  0.5992 -1.0361
14316TIP3   OH264362   5.151   1.535  12.393 -0.5885  0.3966 -0.4540
14316TIP3    H164363   5.121   1.624  12.410  1.6931  1.0151  0.8053
14316TIP3    H264364   5.121   1.484  12.468  3.1371  1.5265  2.1069
14317TIP3   OH264365   0.544   3.541  16.664 -0.5359  0.0337 -0.0032
14317TIP3    H164366   0.635   3.568  16.679 -0.0437 -0.6701 -1.5360
14317TIP3    H264367   0.492   3.607  16.711  0.7394  0.8219  0.3750
14318TIP3   OH264368   0.597   0.389  10.550 -0.0285 -0.0800 -0.5295
14318TIP3    H164369   0.635   0.304  10.570 -1.7713 -0.7995 -0.0871
14318TIP3    H264370   0.505   0.382  10.578 -0.1956  1.9712 -0.3943
14319TIP3   OH264371   4.294   5.681  13.144  0.2304  0.5587 -0.2320
14319TIP3    H164372   4.376   5.730  13.134  0.2204  0.4091 -1.0914
14319TIP3    H264373   4.234   5.721  13.082 -0.1020  0.1363 -0.1861
14320TIP3   OH264374   4.667   2.332  17.212  0.3443  0.5454  0.3077
14320TIP3    H164375   4.690   2.248  17.174 -0.3157 -0.0527  1.1878
14320TIP3    H264376   4.659   2.391  17.137  0.0823 -0.3463 -0.3894
14321TIP3   OH264377   4.164   2.189  13.320  0.6529  0.1143 -0.3502
14321TIP3    H164378   4.075   2.154  13.325  0.7834 -0.1260  0.3093
14321TIP3    H264379   4.184   2.188  13.226  0.8830 -2.1460 -0.3123
14322TIP3   OH264380   5.613   1.644  11.772 -0.4228 -0.9389  0.2891
14322TIP3    H164381   5.552   1.611  11.707  0.3007 -2.6940  0.4371
14322TIP3    H264382   5.673   1.570  11.789  0.9648  0.2972  1.0534
14323TIP3   OH264383   5.050   3.180   0.427  0.7059 -0.9901 -0.0993
14323TIP3    H164384   4.965   3.177   0.383 -0.1879 -2.4813  1.6343
14323TIP3    H264385   5.046   3.259   0.481  0.7611 -0.6064 -0.6506
14324TIP3   OH264386   5.599   6.424   5.071 -0.2896  0.0686  0.3552
14324TIP3    H164387   5.595   6.485   4.997  1.3135  0.0609  0.2286
14324TIP3    H264388   5.626   6.478   5.145  0.0040 -0.2653  0.4973
14325TIP3   OH264389   5.633   1.645   2.866  0.2902  0.2329 -0.5135
14325TIP3    H164390   5.656   1.735   2.890 -1.6911  0.7236 -0.2912
14325TIP3    H264391   5.579   1.654   2.788 -0.0761 -0.7611 -0.3890
14326TIP3   OH264392   4.893   4.528   0.523 -0.7586 -0.1423  0.1846
14326TIP3    H164393   4.870   4.591   0.455 -0.1041  0.2577  0.3278
14326TIP3    H264394   4.979   4.557   0.555 -0.9024 -0.5279  0.9395
14327TIP3   OH264395   2.141   0.093   3.440 -0.3218 -0.3798 -0.0419
14327TIP3    H164396   2.129  -0.002   3.444 -2.4968 -0.2216 -1.3013
14327TIP3    H264397   2.227   0.108   3.480 -0.9605 -2.6243  2.5020
14328TIP3   OH264398   2.525   2.749  10.578 -0.4636 -0.2848  0.7267
14328TIP3    H164399   2.431   2.734  10.588 -0.5387  0.1789  0.7009
14328TIP3    H264400   2.532   2.840  10.550 -0.0255 -0.4075  0.4242
14329TIP3   OH264401   5.904   6.074  12.892  0.1447 -0.1112  0.1897
14329TIP3    H164402   5.991   6.057  12.929  0.1346 -0.0837  0.2254
14329TIP3    H264403   5.877   6.157  12.930  1.3683  1.4498 -2.0878
14330TIP3   OH264404   2.663   1.367   0.049 -0.4032 -0.1056  0.2829
14330TIP3    H164405   2.670   1.304   0.121 -1.9373 -0.6184  0.0112
14330TIP3    H264406   2.648   1.313  -0.028  0.1402  0.5088 -0.2619
14331TIP3   OH264407   0.129   4.522  14.408 -0.0361 -0.5266 -0.2828
14331TIP3    H164408   0.223   4.500  14.404  0.1529  0.4207 -2.4097
14331TIP3    H264409   0.100   4.488  14.492  2.0682 -1.4770  0.1210
14332TIP3   OH264410   2.445   1.721  12.994  0.8261  0.6837 -0.7778
14332TIP3    H164411   2.359   1.680  12.985 -0.2441  2.7608 -0.5271
14332TIP3    H264412   2.507   1.648  12.988 -0.7739 -0.5922 -3.6420
14333TIP3   OH264413   2.046   0.304   4.459 -0.0786  0.0747  0.1580
14333TIP3    H164414   2.077   0.214   4.455  0.3114  0.1870  0.5614
14333TIP3    H264415   2.004   0.311   4.544  1.3467  0.7188  0.8506
14334TIP3   OH264416   6.266   0.996   5.921 -0.3903  0.0568 -0.2814
14334TIP3    H164417   6.273   1.007   5.826 -0.1757  0.2362 -0.2445
14334TIP3    H264418   6.250   1.084   5.955 -0.8917 -0.0675 -0.1872
14335TIP3   OH264419   4.157   1.331   1.775  0.7073  0.7716  0.3596
14335TIP3    H164420   4.225   1.358   1.714 -0.8961  2.0211 -0.9529
14335TIP3    H264421   4.145   1.407   1.832 -1.1188  1.4792 -0.8755
14336TIP3   OH264422   4.922   4.492   2.105  0.0095  0.0757 -0.1468
14336TIP3    H164423   4.921   4.410   2.155 -1.3758  0.6046  0.7793
14336TIP3    H264424   4.856   4.546   2.148 -1.5436  0.4527 -2.7854
14337TIP3   OH264425   4.253   2.319   0.854 -0.2781  0.2942  0.0321
14337TIP3    H164426   4.191   2.269   0.906 -0.0380 -0.2087 -0.1589
14337TIP3    H264427   4.335   2.313   0.902 -0.6067  1.8504  0.8438
14338TIP3   OH264428   0.473   2.680   1.589 -0.3179  0.7030  0.3662
14338TIP3    H164429   0.412   2.633   1.532  0.0917 -0.7684  1.1078
14338TIP3    H264430   0.479   2.768   1.550 -1.2537  0.2204 -0.9335
14339TIP3   OH264431   3.866   3.205   1.914 -0.1963  0.4508 -0.6987
14339TIP3    H164432   3.830   3.126   1.953  1.4027  0.2286  0.4158
14339TIP3    H264433   3.933   3.173   1.853  0.5695  0.9375 -0.1242
14340TIP3   OH264434   6.241   3.652  13.560 -0.1633 -0.1306 -0.5652
14340TIP3    H164435   6.155   3.691  13.578 -0.4021 -0.3451 -1.2077
14340TIP3    H264436   6.221   3.564  13.528  0.3669 -0.7157  0.6681
14341TIP3   OH264437   5.407   5.457   4.267 -0.1181  0.6520  0.2319
14341TIP3    H164438   5.480   5.400   4.239 -1.2991  0.4245 -2.7181
14341TIP3    H264439   5.422   5.469   4.361  0.5267 -4.1022  1.0252
14342TIP3   OH264440   2.910   4.504  15.156 -0.3361 -0.3475  0.0369
14342TIP3    H164441   2.957   4.559  15.219 -2.4872  0.8928  0.6527
14342TIP3    H264442   2.977   4.444  15.123  1.2924  0.1988  2.0871
14343TIP3   OH264443   3.382   0.779   5.441  0.0982  0.0026 -0.0261
14343TIP3    H164444   3.384   0.738   5.527 -2.2035  0.6116  0.3832
14343TIP3    H264445   3.471   0.814   5.428  0.6393 -0.6216  1.8203
14344TIP3   OH264446   1.835   3.726   0.386  0.1249 -0.2629  0.1916
14344TIP3    H164447   1.839   3.717   0.481  2.0423 -0.6571  0.1084
14344TIP3    H264448   1.797   3.644   0.356 -0.2146 -0.2555  0.5880
14345TIP3   OH264449   6.709   2.880   3.819 -0.1784 -0.0056  0.3688
14345TIP3    H164450   6.774   2.941   3.785  0.2994 -0.2940  0.7548
14345TIP3    H264451   6.625   2.921   3.800  0.1382  0.7469  0.5750
14346TIP3   OH264452   4.607   4.687   1.682 -0.4889  0.2161  0.0733
14346TIP3    H164453   4.572   4.636   1.610 -0.6047 -1.9108  1.5320
14346TIP3    H264454   4.694   4.715   1.652  0.1687 -2.0548 -0.3405
14347TIP3   OH264455   3.040   5.163   2.851  0.4777  0.3565  0.1434
14347TIP3    H164456   3.038   5.075   2.813 -0.0746 -0.1171  1.2291
14347TIP3    H264457   2.948   5.185   2.867  0.5038  1.6653 -1.2650
14348TIP3   OH264458   0.216   4.472  15.066  0.1894 -0.0219  0.0282
14348TIP3    H164459   0.133   4.476  15.114  0.4991 -1.5377  0.7463
14348TIP3    H264460   0.223   4.557  15.023 -1.7607  0.1136 -0.0909
14349TIP3   OH264461   2.327   2.917   4.183 -0.0887 -0.2119 -0.8559
14349TIP3    H164462   2.417   2.938   4.159 -0.1420  2.5290  0.9196
14349TIP3    H264463   2.314   2.957   4.269 -2.5475 -1.8909 -0.3184
14350TIP3   OH264464   0.587   5.172   3.724 -0.0277 -0.3888 -0.0682
14350TIP3    H164465   0.677   5.200   3.706 -0.0634 -0.5087 -0.4241
14350TIP3    H264466   0.593   5.125   3.807  0.1497  0.0692  0.1826
14351TIP3   OH264467   0.233   1.655  14.483 -0.6110 -0.2734  0.7387
14351TIP3    H164468   0.274   1.741  14.471  0.0390 -0.5724  0.8186
14351TIP3    H264469   0.254   1.607  14.402 -1.4309 -0.1773  0.4579
14352TIP3   OH264470   4.817   5.449  15.545 -0.0189 -0.0755 -0.1194
14352TIP3    H164471   4.792   5.438  15.637 -1.1902  1.6977 -0.1758
14352TIP3    H264472   4.824   5.543  15.533 -1.8698 -0.1202 -2.3228
14353TIP3   OH264473   2.707   6.276   0.182  0.3335 -0.2663  0.4816
14353TIP3    H164474   2.645   6.263   0.110  1.4493 -0.9540 -0.3827
14353TIP3    H264475   2.654   6.271   0.261 -0.3723 -3.5055 -0.0834
14354TIP3   OH264476   4.295   3.092   1.165  0.2439 -0.0798 -0.1703
14354TIP3    H164477   4.266   3.143   1.089  1.7905  0.0210 -0.7277
14354TIP3    H264478   4.322   3.008   1.129  1.8421  0.2818  0.1140
14355TIP3   OH264479   3.405   6.604   0.610 -0.3854 -0.0654  0.2529
14355TIP3    H164480   3.464   6.544   0.657 -0.9839  0.2280  1.4175
14355TIP3    H264481   3.331   6.549   0.584 -0.1285 -0.1921 -0.2350
14356TIP3   OH264482   4.481   4.888   4.207 -0.3636  0.0206 -0.2301
14356TIP3    H164483   4.391   4.864   4.188 -1.1612  2.1230  0.6199
14356TIP3    H264484   4.479   4.921   4.297  1.3010 -0.0788 -0.1161
14357TIP3   OH264485   0.089   3.961   6.029 -0.2204  0.1892 -0.0170
14357TIP3    H164486   0.093   3.873   6.066  0.9804  0.7675  1.3068
14357TIP3    H264487   0.116   4.019   6.100  0.3484  1.5230 -1.2604
14358TIP3   OH264488   4.948   0.292  12.598 -0.4140 -0.1175 -0.0498
14358TIP3    H164489   4.992   0.371  12.566 -2.4771  1.9591  1.8084
14358TIP3    H264490   5.019   0.237  12.631  1.0615  1.4131 -0.5111
14359TIP3   OH264491   4.802   3.571  13.987  0.1425 -0.5572 -0.6303
14359TIP3    H164492   4.806   3.666  13.984  1.6853 -0.6305 -1.9926
14359TIP3    H264493   4.785   3.551  14.080  0.6827  1.0015 -0.1618
14360TIP3   OH264494   2.246   2.621   2.790 -0.0554  0.3787  0.1889
14360TIP3    H164495   2.217   2.698   2.742  0.2110  0.8465  0.7545
14360TIP3    H264496   2.324   2.652   2.838 -0.6986  0.1263  1.4357
14361TIP3   OH264497   1.234   0.516  15.610  0.0652  0.0912  0.1864
14361TIP3    H164498   1.297   0.507  15.682  1.3606  0.0874 -0.9155
14361TIP3    H264499   1.228   0.428  15.572  0.1794  0.3112 -0.3452
14362TIP3   OH264500   4.245   5.684  15.982  0.2132  0.2221 -0.1306
14362TIP3    H164501   4.189   5.760  15.966  1.8400  1.6396  0.5206
14362TIP3    H264502   4.259   5.646  15.895 -0.8406  0.5009 -0.4347
14363TIP3   OH264503   5.835   0.222   4.506 -0.4971  0.2618  0.0343
14363TIP3    H164504   5.768   0.210   4.439  1.2468 -0.4531 -1.6762
14363TIP3    H264505   5.854   0.315   4.505  0.1756  0.1290 -1.1839
14364TIP3   OH264506   0.056   5.414   5.449 -0.5469 -0.5448 -0.3405
14364TIP3    H164507   0.058   5.418   5.353  0.2964 -1.0326 -0.3514
14364TIP3    H264508   0.141   5.447   5.476 -0.0803 -2.0652  0.1576
14365TIP3   OH264509   4.205   5.207   3.735 -0.5657  0.2435 -0.3851
14365TIP3    H164510   4.300   5.211   3.726 -0.5660 -1.0378 -1.2653
14365TIP3    H264511   4.181   5.124   3.694 -1.8195 -0.6605  2.0127
14366TIP3   OH264512   4.995   5.819   4.467  0.2459  0.0382  0.1175
14366TIP3    H164513   4.998   5.884   4.537 -2.3711  0.3953 -0.0060
14366TIP3    H264514   4.912   5.835   4.423 -0.0685 -2.7920 -0.4937
14367TIP3   OH264515   3.831   4.566  11.825  0.0165 -0.3185  0.8399
14367TIP3    H164516   3.785   4.483  11.841 -0.1345 -0.0802  1.6671
14367TIP3    H264517   3.761   4.629  11.808  0.0290  0.0093  1.9381
14368TIP3   OH264518   5.854   2.664   5.245 -0.2425  0.4634 -0.0491
14368TIP3    H164519   5.817   2.738   5.293 -0.7429  0.4310 -0.3702
14368TIP3    H264520   5.872   2.699   5.158 -2.4274 -0.2778 -0.8754
14369TIP3   OH264521   2.136   4.863   2.153  0.0356 -0.3314 -0.6401
14369TIP3    H164522   2.060   4.900   2.198  0.0897  0.7952 -1.4309
14369TIP3    H264523   2.203   4.854   2.221 -0.4941 -0.4642 -0.1278
14370TIP3   OH264524   0.892   2.147   1.906 -0.8751 -0.5647 -0.0354
14370TIP3    H164525   0.974   2.187   1.932 -1.5132  0.1747  0.9080
14370TIP3    H264526   0.899   2.134   1.812 -1.1271  2.9740 -0.6555
14371TIP3   OH264527   2.713   3.138  11.882  0.0509 -0.4524  0.0011
14371TIP3    H164528   2.718   3.100  11.969 -1.4836  0.7649  0.6812
14371TIP3    H264529   2.713   3.063  11.822 -0.0034 -1.3616  1.1118
14372TIP3   OH264530   0.707   1.865   5.862 -0.6265 -0.1949 -0.8625
14372TIP3    H164531   0.672   1.873   5.951 -1.1560 -1.5278 -0.9280
14372TIP3    H264532   0.644   1.810   5.816 -0.1116  0.0812 -1.9324
14373TIP3   OH264533   5.552   4.629  11.463 -0.0122 -0.5480  0.0097
14373TIP3    H164534   5.599   4.684  11.525  0.3767 -1.5678  0.6407
14373TIP3    H264535   5.529   4.550  11.513 -1.4542 -0.5406 -0.5730
14374TIP3   OH264536   1.138   5.165   3.816 -0.1419  0.0936  0.2367
14374TIP3    H164537   1.212   5.147   3.874  0.9868 -0.3153 -1.2568
14374TIP3    H264538   1.132   5.087   3.761 -0.8105  0.6923 -0.5567
14375TIP3   OH264539   2.316   4.141  12.680 -0.0459  0.8395  0.0529
14375TIP3    H164540   2.350   4.226  12.651  1.8335  0.6729  1.6038
14375TIP3    H264541   2.376   4.114  12.749 -1.8288 -0.7991  1.0272
14376TIP3   OH264542   5.907   5.926   3.352  0.8265  0.0429  0.3762
14376TIP3    H164543   5.943   5.997   3.298  0.4481  0.5035  0.7263
14376TIP3    H264544   5.912   5.848   3.295 -0.4963  0.7004 -0.6938
14377TIP3   OH264545   6.036   1.691   3.780 -0.0030  0.5849  0.1671
14377TIP3    H164546   5.951   1.660   3.810 -0.2737  1.5108  0.4122
14377TIP3    H264547   6.038   1.673   3.686 -0.0562 -0.3424  0.3410
14378TIP3   OH264548   5.589   5.271  11.448 -0.2437 -0.2991  0.0657
14378TIP3    H164549   5.501   5.266  11.485 -0.3906  0.4110 -0.1779
14378TIP3    H264550   5.612   5.364  11.452  0.7350 -0.5549  0.6735
14379TIP3   OH264551   0.635   3.751  11.459  0.5457 -0.5571  0.2058
14379TIP3    H164552   0.639   3.833  11.409  0.0238  0.0824  1.1828
14379TIP3    H264553   0.726   3.727  11.473  0.7635  0.9419  1.6059
14380TIP3   OH264554   6.232   3.438   2.379 -0.4052 -0.4153 -0.2185
14380TIP3    H164555   6.326   3.450   2.395 -0.3322 -1.7748  0.5392
14380TIP3    H264556   6.217   3.480   2.295  0.8457  0.0070 -0.2613
14381TIP3   OH264557   2.389   4.552   4.297  0.0331 -0.0108 -0.1324
14381TIP3    H164558   2.395   4.460   4.323 -2.0294 -0.0987  0.1572
14381TIP3    H264559   2.416   4.553   4.205  1.3690 -0.6616  0.2232
14382TIP3   OH264560   5.490   6.193   5.082  0.0593 -0.0033  0.0542
14382TIP3    H164561   5.550   6.267   5.088 -0.4303  0.4708 -0.6740
14382TIP3    H264562   5.435   6.213   5.005  1.5113 -2.2666 -1.7022
14383TIP3   OH264563   0.051   1.307  14.495  0.1456 -0.4714  0.1188
14383TIP3    H164564   0.132   1.302  14.444  0.5345 -0.6045  0.7412
14383TIP3    H264565   0.053   1.394  14.534  0.9059 -1.1263  1.6114
14384TIP3   OH264566   0.544   0.839   3.077 -0.0876  0.1023 -0.6751
14384TIP3    H164567   0.454   0.824   3.049 -0.2151  2.6113 -1.8854
14384TIP3    H264568   0.545   0.930   3.107  1.7281 -0.3193  0.7596
14385TIP3   OH264569   0.466   3.225  11.888  0.1741  0.3360  0.1229
14385TIP3    H164570   0.482   3.216  11.794  0.9517  1.5346  0.1259
14385TIP3    H264571   0.448   3.319  11.901  0.2289  0.2168  1.1943
14386TIP3   OH264572   0.461   5.303  13.039  0.1311 -0.0755 -0.0484
14386TIP3    H164573   0.499   5.248  13.108  0.3884 -0.0356 -0.1606
14386TIP3    H264574   0.424   5.378  13.086  3.6308  1.9281 -0.2355
14387TIP3   OH264575   6.021   1.898  15.463  0.5515 -0.3258 -0.7313
14387TIP3    H164576   6.017   1.940  15.377  1.6643  0.2332 -0.5367
14387TIP3    H264577   6.114   1.876  15.475  0.3858 -0.5752  0.2375
14388TIP3   OH264578   6.572   6.224   5.050  0.3809  0.0327  0.3211
14388TIP3    H164579   6.602   6.164   4.982 -0.0143  0.1360  0.0517
14388TIP3    H264580   6.488   6.256   5.018  0.2055  0.1033  0.8463
14389TIP3   OH264581   3.621   5.687  16.952  0.4663 -0.2507  0.7166
14389TIP3    H164582   3.648   5.638  16.874 -0.3910  1.1560 -0.5425
14389TIP3    H264583   3.545   5.737  16.922  0.7104  1.0696  2.1953
14390TIP3   OH264584   1.442   5.369  14.849 -0.0164 -0.0458  0.0933
14390TIP3    H164585   1.475   5.292  14.803 -0.3919  0.4434 -1.0302
14390TIP3    H264586   1.355   5.383  14.812  0.2448  1.2080 -0.0731
14391TIP3   OH264587   2.760   0.090  10.421  0.2863  0.3591 -0.4205
14391TIP3    H164588   2.762  -0.002  10.392 -0.1417  0.8542 -2.1040
14391TIP3    H264589   2.851   0.118  10.418  0.7154 -0.5152  1.9790
14392TIP3   OH264590   0.675   0.446   2.075 -0.4917 -0.3799 -0.4375
14392TIP3    H164591   0.604   0.438   2.139 -0.7348  0.6435 -0.5696
14392TIP3    H264592   0.747   0.396   2.114 -0.3611  0.9009  1.0528
14393TIP3   OH264593   5.918   4.260  14.584 -0.2780  0.1080 -0.1725
14393TIP3    H164594   6.003   4.300  14.569  0.1670 -1.0166 -0.8004
14393TIP3    H264595   5.856   4.318  14.540  0.1517  0.9644  0.3396
14394TIP3   OH264596   0.628   3.411  16.178  0.8483 -0.1740  0.0221
14394TIP3    H164597   0.669   3.469  16.243 -1.5764  0.9508  0.6807
14394TIP3    H264598   0.662   3.324  16.199  1.2710  0.3747  1.8773
14395TIP3   OH264599   3.929   5.307   1.983 -0.0826 -0.1741  0.3752
14395TIP3    H164600   3.977   5.367   2.041  1.3075 -1.5912  0.7320
14395TIP3    H264601   3.840   5.342   1.982  0.3326  1.0237  1.7953
14396TIP3   OH264602   6.111   4.817  12.171  0.2106  0.5979  0.5114
14396TIP3    H164603   6.190   4.829  12.223 -0.4082  1.3112  1.3177
14396TIP3    H264604   6.120   4.878  12.097  1.2338 -0.6412 -0.4319
14397TIP3   OH264605   6.468   4.002   5.702 -0.1235  0.5041 -0.0342
14397TIP3    H164606   6.562   4.016   5.716 -0.3374  2.0532 -0.0460
14397TIP3    H264607   6.426   4.038   5.780 -0.7668  0.6384 -0.4370
14398TIP3   OH264608   2.554   3.794   0.166  0.1255 -0.1832 -0.2181
14398TIP3    H164609   2.622   3.805   0.233  0.7560 -1.9341 -0.5177
14398TIP3    H264610   2.482   3.752   0.212  0.3352 -0.8653 -0.5131
14399TIP3   OH264611   0.465   2.429  15.510  0.1121 -0.1624  0.3993
14399TIP3    H164612   0.447   2.495  15.443 -0.8845 -1.8941 -1.1134
14399TIP3    H264613   0.385   2.377  15.516  1.0925 -1.6870  0.9972
14400TIP3   OH264614   5.244   3.515  10.890  0.0856 -0.4084  0.1787
14400TIP3    H164615   5.204   3.556  10.813  0.1967 -0.9643 -0.1766
14400TIP3    H264616   5.253   3.587  10.953 -3.2763 -0.5686  1.0517
14401TIP3   OH264617   0.453   2.814  12.237 -0.4615 -0.1435 -0.2849
14401TIP3    H164618   0.532   2.851  12.277  1.6703 -2.8689 -1.5681
14401TIP3    H264619   0.449   2.855  12.151 -0.8564  0.5226  0.0525
14402TIP3   OH264620   4.721   3.430   1.745 -0.3150  0.6107  0.1953
14402TIP3    H164621   4.686   3.354   1.791 -0.7896  0.7009 -0.0137
14402TIP3    H264622   4.723   3.404   1.653  2.6349 -0.3597  0.4280
14403TIP3   OH264623   0.119   5.190   0.449  0.0336  0.4568 -0.1392
14403TIP3    H164624   0.193   5.190   0.511  1.0777 -0.6069 -1.3297
14403TIP3    H264625   0.146   5.253   0.382  1.4929 -2.3079 -2.3453
14404TIP3   OH264626   6.313   2.127  13.392 -0.2393  0.0320  0.2107
14404TIP3    H164627   6.251   2.098  13.459  1.5521 -0.0813  1.8918
14404TIP3    H264628   6.326   2.049  13.337 -2.6255  0.4551 -1.1081
14405TIP3   OH264629   1.668   2.202  17.170 -0.2982 -0.0813 -0.2601
14405TIP3    H164630   1.589   2.148  17.180 -0.1904  0.1008  2.2537
14405TIP3    H264631   1.736   2.151  17.214  0.5409  0.6986 -0.6367
14406TIP3   OH264632   6.450   3.131  15.504  0.1149  0.3274 -0.0447
14406TIP3    H164633   6.371   3.182  15.485  0.0140  0.5060  0.8001
14406TIP3    H264634   6.471   3.152  15.595  1.4578  0.7031 -0.4179
14407TIP3   OH264635   1.344   0.769  13.680  0.1178 -0.0291 -0.1688
14407TIP3    H164636   1.365   0.847  13.628 -2.0304 -0.0581 -1.1953
14407TIP3    H264637   1.391   0.699  13.636 -1.7734 -0.0832 -2.3439
14408TIP3   OH264638   6.474   1.489  12.800  0.3324  0.1933  0.2923
14408TIP3    H164639   6.453   1.508  12.892  0.0529 -1.0721  0.5053
14408TIP3    H264640   6.395   1.449  12.765  0.6410  0.1299 -0.3360
14409TIP3   OH264641   5.065   0.623   0.530 -0.3019 -0.3954 -0.2441
14409TIP3    H164642   4.978   0.633   0.568  0.1653  0.1544  0.7111
14409TIP3    H264643   5.109   0.560   0.587 -0.7514 -2.4121 -1.9597
14410TIP3   OH264644   5.149   4.993  13.701 -0.0227 -0.4266 -0.2912
14410TIP3    H164645   5.114   4.959  13.619 -0.9394 -1.4342  0.4835
14410TIP3    H264646   5.198   5.071  13.676 -2.0137  0.5013 -1.5592
14411TIP3   OH264647   0.316   1.654  15.506  0.1914 -0.6044 -0.4488
14411TIP3    H164648   0.228   1.624  15.529 -0.1621  0.6979  0.0131
14411TIP3    H264649   0.301   1.734  15.455  1.1016 -0.6979 -0.8765
14412TIP3   OH264650   2.662   6.703   5.035 -0.3521  0.0025 -0.5401
14412TIP3    H164651   2.685   6.671   4.948 -1.0116 -1.2010 -0.2904
14412TIP3    H264652   2.618   6.786   5.018 -1.2621 -0.6309 -1.4448
14413TIP3   OH264653   4.063   5.106   2.643 -0.3071 -0.0926  0.2835
14413TIP3    H164654   4.084   5.156   2.721  0.2719  0.0221  0.0575
14413TIP3    H264655   4.134   5.125   2.582 -1.4528  0.9577 -0.8043
14414TIP3   OH264656   5.704   1.808  15.942  0.4451  0.2724  0.1599
14414TIP3    H164657   5.634   1.861  15.905  0.3348  0.6911  0.9410
14414TIP3    H264658   5.711   1.838  16.032  0.4812 -0.9473  0.5794
14415TIP3   OH264659   2.806   1.096  10.424 -0.0660  0.7804 -0.1556
14415TIP3    H164660   2.780   1.183  10.455  2.2551  2.2067 -1.9333
14415TIP3    H264661   2.891   1.080  10.465 -0.0339 -0.2430 -0.5884
14416TIP3   OH264662   5.212   3.579   3.795 -0.0039  0.0502 -0.3820
14416TIP3    H164663   5.131   3.599   3.841  1.5458  0.8238  2.1944
14416TIP3    H264664   5.202   3.620   3.709 -1.5221  1.9374  0.6339
14417TIP3   OH264665   1.174   3.433   4.166 -0.0810 -0.1342 -0.4027
14417TIP3    H164666   1.081   3.448   4.185 -0.2082 -0.5235 -0.6824
14417TIP3    H264667   1.209   3.396   4.247 -0.0407  0.5326 -0.1144
14418TIP3   OH264668   5.531   5.598  14.250  0.5548  0.1686  0.4007
14418TIP3    H164669   5.514   5.637  14.165  1.7326  0.5029  0.2933
14418TIP3    H264670   5.473   5.644  14.311 -1.5085 -1.1918 -0.4284
14419TIP3   OH264671   3.431   5.653  11.363  0.2106 -0.1781 -0.3529
14419TIP3    H164672   3.373   5.583  11.336 -0.2646  0.7203 -1.8021
14419TIP3    H264673   3.409   5.726  11.305  3.5870 -0.1610 -1.8374
14420TIP3   OH264674   6.149   4.925  12.718 -0.2252 -0.6927  0.0008
14420TIP3    H164675   6.165   4.969  12.634 -0.6279 -0.6774 -0.0716
14420TIP3    H264676   6.195   4.979  12.782  0.1377 -0.7411 -0.2197
14421TIP3   OH264677   6.406   0.522  13.080 -0.2396 -0.0090  0.4512
14421TIP3    H164678   6.412   0.431  13.051 -0.7210 -0.3444  1.3595
14421TIP3    H264679   6.487   0.538  13.128  0.2514  0.3319 -0.4797
14422TIP3   OH264680   1.088   4.508   3.751  0.5024  0.1173 -0.2046
14422TIP3    H164681   1.015   4.566   3.728  0.9809  0.3424 -1.2077
14422TIP3    H264682   1.077   4.491   3.844  0.0807  1.4455  0.0055
14423TIP3   OH264683   6.014   4.089   3.739 -0.6052  0.9763 -0.4029
14423TIP3    H164684   5.957   4.159   3.771  0.9036  0.8742  2.9080
14423TIP3    H264685   6.101   4.129   3.736 -0.2103  0.0761 -1.5998
14424TIP3   OH264686   5.859   2.819   4.602  0.0070  0.1991 -0.1583
14424TIP3    H164687   5.941   2.771   4.605  0.4944  1.0896  2.2626
14424TIP3    H264688   5.852   2.862   4.687 -1.6653  2.3217 -1.2610
14425TIP3   OH264689   4.432   4.740   2.360  0.5198 -0.7301 -0.0275
14425TIP3    H164690   4.508   4.796   2.346 -0.4954  1.0963  1.3214
14425TIP3    H264691   4.439   4.712   2.451  0.1233 -1.4659 -0.2118
14426TIP3   OH264692   5.437   6.611  11.888  0.4676  0.0547 -0.0491
14426TIP3    H164693   5.521   6.651  11.912  1.0240 -1.1231  0.0471
14426TIP3    H264694   5.446   6.519  11.914 -1.0597  0.0163  0.4657
14427TIP3   OH264695   1.459   5.931   1.603  0.4368 -0.1314 -0.2661
14427TIP3    H164696   1.550   5.924   1.573  0.7049 -2.0221  0.8121
14427TIP3    H264697   1.417   5.850   1.573 -0.5309  0.1174  0.3771
14428TIP3   OH264698   1.002   1.603  15.266 -0.1201  0.5449  0.1414
14428TIP3    H164699   0.922   1.644  15.301  0.1560  1.8858 -0.7095
14428TIP3    H264700   0.969   1.539  15.203 -0.5450  0.4866  0.4139
14429TIP3   OH264701   2.361   6.393  13.121  0.4696 -0.2041 -0.2143
14429TIP3    H164702   2.382   6.314  13.171 -0.9453 -0.8987 -0.6424
14429TIP3    H264703   2.347   6.361  13.032  0.9443  0.7103 -0.6257
14430TIP3   OH264704   6.548   0.322  11.869  0.2584  0.1800  0.2514
14430TIP3    H164705   6.613   0.282  11.926 -0.9700  0.1661  1.6701
14430TIP3    H264706   6.485   0.364  11.928 -0.4874  1.0716 -1.1034
14431TIP3   OH264707   1.706   2.856  13.865 -0.4429 -0.2529  0.0079
14431TIP3    H164708   1.738   2.898  13.945  0.1827  1.4400 -1.0706
14431TIP3    H264709   1.777   2.798  13.838 -0.2473 -0.0840  0.1593
14432TIP3   OH264710   3.917   0.504  12.361 -0.2375  0.6061  0.2512
14432TIP3    H164711   3.923   0.468  12.450  1.7556  1.2416  0.4150
14432TIP3    H264712   3.845   0.454  12.320 -1.0093  0.1074  2.1003
14433TIP3   OH264713   1.932   2.489  16.404 -0.4040 -0.2496  0.3344
14433TIP3    H164714   1.890   2.460  16.323 -0.3066 -0.7828  0.4662
14433TIP3    H264715   1.887   2.570  16.427 -1.7373 -1.0770  0.7433
14434TIP3   OH264716   0.059   3.331   3.609 -0.2745  0.1025  0.0152
14434TIP3    H164717   0.046   3.425   3.602  0.9984  0.2652 -0.5831
14434TIP3    H264718   0.046   3.298   3.520 -0.2812 -0.2164  0.1327
14435TIP3   OH264719   4.067   4.575   2.465  0.1538 -0.2379  0.6246
14435TIP3    H164720   4.004   4.585   2.536  0.0437 -1.9197  0.8007
14435TIP3    H264721   4.144   4.535   2.506  0.8531  0.5912  0.1600
14436TIP3   OH264722   3.218   3.503   0.337 -0.0051 -0.2336 -0.2849
14436TIP3    H164723   3.192   3.515   0.246 -0.9833 -2.0115 -0.2932
14436TIP3    H264724   3.312   3.521   0.339 -0.1002  0.4597 -1.4972
14437TIP3   OH264725   0.563   5.939  13.287 -0.3025 -0.3809  0.0949
14437TIP3    H164726   0.556   5.928  13.382  2.6854 -1.8827  0.2816
14437TIP3    H264727   0.650   5.977  13.274  0.1110 -1.9022 -2.0945
14438TIP3   OH264728   5.393   4.003   1.982 -0.2736  0.1820  0.0755
14438TIP3    H164729   5.298   4.010   1.975 -0.3462 -1.5929 -1.5020
14438TIP3    H264730   5.424   4.003   1.892  1.3019  1.3588  0.5741
14439TIP3   OH264731   0.340   2.449  13.887 -0.5235  0.2007 -0.1010
14439TIP3    H164732   0.436   2.448  13.885 -0.4212  0.0098  2.2665
14439TIP3    H264733   0.318   2.532  13.928 -1.4294  0.5021 -1.1478
14440TIP3   OH264734   5.152   0.262  13.189 -0.2564 -0.2429  0.3793
14440TIP3    H164735   5.247   0.274  13.192 -0.3433  0.2771  1.1840
14440TIP3    H264736   5.136   0.219  13.105  0.4509  1.8332 -0.8834
14441TIP3   OH264737   0.397   1.010   4.495 -0.5685  0.0029 -0.5266
14441TIP3    H164738   0.348   1.064   4.558  0.0397  0.8060 -0.7242
14441TIP3    H264739   0.423   1.072   4.427  0.0580 -0.5701 -0.8094
14442TIP3   OH264740   3.123   1.877  11.662  0.0368 -0.1831 -0.4475
14442TIP3    H164741   3.218   1.867  11.651  0.0768 -0.5358  0.1812
14442TIP3    H264742   3.090   1.890  11.573  1.0196  3.2066 -0.4651
14443TIP3   OH264743   3.794   4.978   2.567 -0.1342  0.2346  0.6312
14443TIP3    H164744   3.819   4.908   2.506  0.5733  1.0504 -0.0417
14443TIP3    H264745   3.874   5.030   2.577 -0.4463  0.5149  1.7106
14444TIP3   OH264746   1.693   1.135   5.879 -0.6339  0.2028 -0.7484
14444TIP3    H164747   1.748   1.106   5.952 -2.3674 -1.1077  0.1239
14444TIP3    H264748   1.674   1.055   5.829  0.6972  1.1093 -2.8309
14445TIP3   OH264749   3.213   3.334   5.206 -0.7757  0.1474 -0.2007
14445TIP3    H164750   3.141   3.397   5.214 -1.1268 -0.2424 -0.2493
14445TIP3    H264751   3.287   3.386   5.176 -1.3622  0.3349 -1.3936
14446TIP3   OH264752   0.053   4.293  11.979  0.0490 -0.6520  0.0422
14446TIP3    H164753   0.009   4.348  12.043 -0.5045  0.4183 -1.2005
14446TIP3    H264754  -0.015   4.232  11.948 -0.2891  0.2272 -1.0227
14447TIP3   OH264755   2.092   6.220   4.311 -0.2895  0.2486 -0.2081
14447TIP3    H164756   2.009   6.173   4.309  0.2766 -0.7627 -1.7294
14447TIP3    H264757   2.152   6.162   4.357  0.1582 -0.1219 -1.2230
14448TIP3   OH264758   0.750   4.975  14.291  0.0245 -0.3538 -0.2731
14448TIP3    H164759   0.691   5.006  14.222 -0.1005  0.4145  0.1583
14448TIP3    H264760   0.836   5.008  14.266 -0.1777  0.7381  0.3965
14449TIP3   OH264761   3.036   4.396  12.159 -0.1787  0.5163  0.4416
14449TIP3    H164762   3.013   4.449  12.082  0.5954  0.5532  0.2271
14449TIP3    H264763   2.953   4.355  12.185 -0.9292  2.2706  0.9792
14450TIP3   OH264764   5.678   2.824  16.735 -0.5148  0.2881 -0.4202
14450TIP3    H164765   5.587   2.851  16.734 -0.6621 -0.2070 -1.2576
14450TIP3    H264766   5.724   2.896  16.779 -1.4291  0.0895  0.9273
14451TIP3   OH264767   1.119   1.458  16.262  0.1487 -0.2950 -0.2655
14451TIP3    H164768   1.067   1.414  16.328  0.6548 -0.1344  0.2491
14451TIP3    H264769   1.073   1.540  16.244  0.6360  0.2334  0.7889
14452TIP3   OH264770   5.825   2.660   3.018 -0.7693  0.3177 -0.7842
14452TIP3    H164771   5.817   2.675   3.112  2.6893 -1.7002  0.0038
14452TIP3    H264772   5.806   2.567   3.007  2.3042 -0.3654 -1.3721
14453TIP3   OH264773   0.915   0.038  13.246 -0.0783  0.4587 -0.4047
14453TIP3    H164774   0.892   0.036  13.339  0.2851  1.9429 -0.2640
14453TIP3    H264775   0.955  -0.047  13.229  0.3668  0.3910  0.9294
14454TIP3   OH264776   0.361   3.629   6.107 -0.4809  0.3713 -0.3021
14454TIP3    H164777   0.451   3.638   6.077  0.5828 -1.0380  2.2013
14454TIP3    H264778   0.349   3.701   6.169 -1.0636  0.5362 -0.6031
14455TIP3   OH264779   5.754   2.722  15.056 -0.3379 -0.7250  0.4487
14455TIP3    H164780   5.831   2.768  15.090  0.2118 -1.5873  0.4136
14455TIP3    H264781   5.704   2.789  15.010 -1.0522  0.4690  2.8238
14456TIP3   OH264782   3.939   1.430   1.550 -0.0548 -0.9952  0.7124
14456TIP3    H164783   3.849   1.457   1.570  0.1447 -0.4489  0.8910
14456TIP3    H264784   3.952   1.350   1.601  0.1424 -0.1138  2.0801
14457TIP3   OH264785   2.339   4.165   3.767  0.4877 -0.3843  0.4298
14457TIP3    H164786   2.302   4.086   3.727 -0.4048  0.3269 -0.1752
14457TIP3    H264787   2.311   4.236   3.710 -0.7613  0.6755  2.2800
14458TIP3   OH264788   2.031   3.576   4.995 -0.8513 -0.2541  0.6714
14458TIP3    H164789   2.054   3.669   5.007  1.1932 -0.5436 -0.5828
14458TIP3    H264790   2.038   3.539   5.083  0.5965  0.3564  0.8540
14459TIP3   OH264791   0.083   2.584   3.162  0.3518  0.4225  0.5650
14459TIP3    H164792   0.166   2.630   3.147  0.5142  0.6745  2.1362
14459TIP3    H264793   0.017   2.643   3.125  0.8562  0.0437 -1.0560
14460TIP3   OH264794   4.413   2.480  14.032 -0.3080 -0.0690  0.1489
14460TIP3    H164795   4.470   2.455  13.959 -1.2918  0.9444 -1.0058
14460TIP3    H264796   4.436   2.572  14.050  0.0375 -0.3534  1.2436
14461TIP3   OH264797   5.719   1.012   1.884 -0.7814  0.1702  0.1246
14461TIP3    H164798   5.662   1.070   1.834 -0.4672  0.3711 -0.0007
14461TIP3    H264799   5.659   0.951   1.926 -1.1787  1.0427  0.8570
14462TIP3   OH264800   1.086   0.533   1.962  0.1249 -0.0874 -0.2232
14462TIP3    H164801   1.107   0.575   1.878 -1.5428 -0.7338 -1.0141
14462TIP3    H264802   1.137   0.453   1.963  1.3209  0.6571  0.0991
14463TIP3   OH264803   5.268   4.284   0.268 -0.2787  0.1546  0.0598
14463TIP3    H164804   5.357   4.260   0.240  0.6529  2.0877  1.1769
14463TIP3    H264805   5.226   4.200   0.288  1.2926 -0.8056 -0.4757
14464TIP3   OH264806   1.242   1.693  15.131  0.7174  0.0779  0.0500
14464TIP3    H164807   1.154   1.669  15.160  0.9201  1.5816  2.1506
14464TIP3    H264808   1.293   1.612  15.142 -0.2617 -0.7024 -0.8255
14465TIP3   OH264809   4.088   6.270  16.537  0.3238 -0.1543 -0.1560
14465TIP3    H164810   4.154   6.203  16.554  0.5298  0.0373 -0.1968
14465TIP3    H264811   4.023   6.258  16.606  0.1238 -0.6937 -0.4361
14466TIP3   OH264812   0.183   3.123  11.963 -0.2196 -0.0812 -0.0932
14466TIP3    H164813   0.237   3.178  11.906  1.9957 -1.4050  0.6080
14466TIP3    H264814   0.175   3.040  11.915 -1.3833 -0.0286 -0.0218
14467TIP3   OH264815   0.143   1.992   5.647  0.8650  0.0117  0.1801
14467TIP3    H164816   0.206   2.025   5.583  0.6732  0.3879  0.1783
14467TIP3    H264817   0.177   2.023   5.731  0.4507  0.6045  0.1377
14468TIP3   OH264818   4.240   5.889   3.654 -0.2658  0.1880  0.3107
14468TIP3    H164819   4.234   5.982   3.673 -0.3688 -0.2841  3.0853
14468TIP3    H264820   4.333   5.874   3.637 -0.0212  0.6227  1.1913
14469TIP3   OH264821   2.600   1.869   5.636  0.1412  0.1839  0.3523
14469TIP3    H164822   2.515   1.856   5.677 -0.1697 -2.1734 -0.8473
14469TIP3    H264823   2.587   1.943   5.577 -0.8999  0.2332  0.6179
14470TIP3   OH264824   1.574   0.122   3.401  0.1259  0.5107 -0.8046
14470TIP3    H164825   1.666   0.124   3.426  0.0327 -2.0793 -0.0470
14470TIP3    H264826   1.559   0.207   3.359  2.5320  1.4611  0.1028
14471TIP3   OH264827   6.010   4.105   0.586  0.8841 -0.1849 -0.4512
14471TIP3    H164828   5.955   4.039   0.542 -0.0542 -0.0446  0.4607
14471TIP3    H264829   6.059   4.055   0.652  1.2369 -0.1803 -0.7074
14472TIP3   OH264830   3.177   6.786  13.808 -0.4141 -0.5348  0.4478
14472TIP3    H164831   3.162   6.871  13.850 -1.9717 -1.1972  1.3172
14472TIP3    H264832   3.124   6.789  13.729 -0.6207 -0.7682  0.5778
14473TIP3   OH264833   0.452   1.558   5.567  0.1672 -0.0096 -0.0701
14473TIP3    H164834   0.451   1.643   5.523  2.9929 -0.3303 -1.0121
14473TIP3    H264835   0.443   1.494   5.496  1.8227 -0.4929  0.0991
14474TIP3   OH264836   6.173   0.415  16.568 -0.1949 -0.0425  0.5127
14474TIP3    H164837   6.163   0.392  16.476  0.8426 -1.2714  0.6719
14474TIP3    H264838   6.146   0.336  16.615  0.5509  0.1057  1.2102
14475TIP3   OH264839   1.394   4.791   0.405  0.2594 -0.2816 -0.0539
14475TIP3    H164840   1.425   4.882   0.408 -0.0460 -0.1774 -0.0136
14475TIP3    H264841   1.435   4.754   0.327 -0.1453  0.0901 -0.4491
14476TIP3   OH264842   1.112   1.926   1.541 -0.1373 -0.2291 -0.2592
14476TIP3    H164843   1.095   1.909   1.448  0.4448 -0.8076 -0.2684
14476TIP3    H264844   1.095   1.842   1.584 -1.1250  0.2241  0.2715
14477TIP3   OH264845   1.003   6.397  14.033 -0.5126 -0.4738 -0.1434
14477TIP3    H164846   1.090   6.414  13.997 -0.6277  0.0962 -0.1695
14477TIP3    H264847   1.005   6.436  14.120 -0.4953 -1.1441  0.1626
14478TIP3   OH264848   6.553   6.258   4.722 -0.2510  0.3290  0.8416
14478TIP3    H164849   6.543   6.164   4.708  0.3882  0.3570  0.1475
14478TIP3    H264850   6.466   6.288   4.749 -0.2098 -0.6374  2.1413
14479TIP3   OH264851   5.767   4.158  14.010  0.2083  0.0424  0.5925
14479TIP3    H164852   5.836   4.123  13.953 -1.8959  0.1556 -2.2592
14479TIP3    H264853   5.720   4.081  14.041  0.0047  0.0603  0.3312
14480TIP3   OH264854   2.714   5.237   6.202  0.3605 -0.1863 -0.2817
14480TIP3    H164855   2.691   5.314   6.151 -2.9088 -2.4454 -2.5955
14480TIP3    H264856   2.673   5.251   6.287 -1.1233  0.1964 -1.0403
14481TIP3   OH264857   4.334   0.538  14.603  0.0376 -0.0141 -0.1050
14481TIP3    H164858   4.418   0.561  14.565  0.9750 -0.6646  1.4770
14481TIP3    H264859   4.292   0.622  14.621  0.2835  0.3095 -0.9762
14482TIP3   OH264860   5.478   2.870   5.764  0.7115  0.6480  0.2377
14482TIP3    H164861   5.508   2.916   5.842  2.2958  2.3169 -1.2394
14482TIP3    H264862   5.390   2.904   5.748  0.7420  0.9834  0.7674
14483TIP3   OH264863   4.730   1.900   4.592  0.6579 -0.1630  0.2069
14483TIP3    H164864   4.796   1.925   4.527  0.6646  0.8731  0.5960
14483TIP3    H264865   4.651   1.886   4.541  1.2192 -1.7242 -0.3060
14484TIP3   OH264866   1.544   4.621   3.868 -0.6706 -0.0376 -0.1658
14484TIP3    H164867   1.548   4.526   3.878 -1.9079 -0.2534 -1.3663
14484TIP3    H264868   1.463   4.646   3.912 -2.4664 -0.1143 -3.1678
14485TIP3   OH264869   3.471   3.165   2.474  0.2182  0.0539 -0.3449
14485TIP3    H164870   3.407   3.113   2.424  0.0120  2.6331 -3.0500
14485TIP3    H264871   3.554   3.149   2.429  0.5030  0.5981 -0.0120
14486TIP3   OH264872   0.463   5.363   5.367 -0.7280 -0.0210  0.2734
14486TIP3    H164873   0.420   5.313   5.436  1.0335 -1.4803  0.3682
14486TIP3    H264874   0.543   5.396   5.407 -1.1869  1.7633 -0.2004
14487TIP3   OH264875   5.053   5.198  12.441 -0.2043 -0.0565 -0.2321
14487TIP3    H164876   5.115   5.266  12.466 -0.8760  1.3744 -2.2443
14487TIP3    H264877   5.006   5.178  12.522  0.1665  1.7346  0.4761
14488TIP3   OH264878   6.422   6.644  16.583  0.0656  0.2442  0.0381
14488TIP3    H164879   6.379   6.712  16.532  0.9153  0.3184 -0.6093
14488TIP3    H264880   6.351   6.589  16.616 -0.5325  0.5620 -0.7068
14489TIP3   OH264881   1.864   2.991  10.957 -0.8231  0.0646  0.1349
14489TIP3    H164882   1.801   3.062  10.945  0.0381  0.8161 -0.0776
14489TIP3    H264883   1.905   3.009  11.041 -0.5853 -0.1636  0.0696
14490TIP3   OH264884   3.991   6.247   2.430 -0.6435  0.0946 -0.0048
14490TIP3    H164885   3.980   6.157   2.462  0.0315 -0.2460 -0.7007
14490TIP3    H264886   4.077   6.274   2.462  0.2024 -0.3800 -1.7410
14491TIP3   OH264887   0.401   4.533   6.290 -0.4634 -0.0867 -0.1546
14491TIP3    H164888   0.356   4.601   6.339  1.1308  1.7497 -1.1020
14491TIP3    H264889   0.480   4.515   6.341 -0.4568 -0.6085 -0.3409
14492TIP3   OH264890   4.038   5.295   5.572 -0.1518  0.0243  0.4128
14492TIP3    H164891   3.994   5.229   5.625 -2.3612  2.3574  1.7044
14492TIP3    H264892   4.001   5.378   5.601  1.1872  1.7399 -2.3432
14493TIP3   OH264893   3.417   5.372  12.674  0.3769  0.2218  0.0387
14493TIP3    H164894   3.401   5.442  12.610 -0.8016  0.2117  0.2905
14493TIP3    H264895   3.392   5.411  12.758 -1.7927 -0.9454  0.0026
14494TIP3   OH264896   1.763   2.534  14.753  0.0651  0.4307 -0.2254
14494TIP3    H164897   1.675   2.546  14.718  0.9800  2.5980 -2.0854
14494TIP3    H264898   1.764   2.445  14.786 -2.8840  0.4330  0.1144
14495TIP3   OH264899   0.973   4.930  11.823 -0.6811  0.4768  0.0660
14495TIP3    H164900   1.023   4.881  11.889 -1.7222  1.9547  2.0852
14495TIP3    H264901   0.969   5.019  11.858 -0.4342  1.5945 -2.5607
14496TIP3   OH264902   3.950   3.170   3.844  0.4513 -0.4882 -0.1467
14496TIP3    H164903   3.946   3.216   3.760  1.2281 -0.6028 -0.2543
14496TIP3    H264904   3.978   3.081   3.822 -0.9862 -1.0234  0.0709
14497TIP3   OH264905   5.942   4.454   3.475 -0.3159 -0.1990 -0.3411
14497TIP3    H164906   5.860   4.473   3.430 -0.1164  0.7623 -0.3305
14497TIP3    H264907   5.920   4.456   3.568 -0.3723 -0.3994 -0.3506
14498TIP3   OH264908   2.248   4.592   5.078 -0.3003  0.0660  0.3817
14498TIP3    H164909   2.300   4.658   5.124 -0.6844  0.7421 -0.1292
14498TIP3    H264910   2.163   4.594   5.121 -0.4704  0.2672  0.0400
14499TIP3   OH264911   0.394   3.516   2.763  0.2495  0.5130 -0.0507
14499TIP3    H164912   0.348   3.441   2.726  0.8491 -0.1638  0.5543
14499TIP3    H264913   0.453   3.545   2.693 -0.4330  0.8350 -0.5104
14500TIP3   OH264914   0.488   6.740   6.677 -0.3066  0.2249 -0.5804
14500TIP3    H164915   0.485   6.766   6.585  0.0810  1.2537 -0.3181
14500TIP3    H264916   0.397   6.723   6.700 -0.4976  0.7170 -0.9553
14501TIP3   OH264917   0.289   0.008  16.653 -0.2297 -0.0971 -0.4565
14501TIP3    H164918   0.375  -0.033  16.662 -0.0297  0.4617  0.1737
14501TIP3    H264919   0.233  -0.039  16.716  0.1123  0.8899  0.6050
14502TIP3   OH264920   2.561   4.520  16.957  0.2958 -0.0931 -0.1469
14502TIP3    H164921   2.480   4.521  16.907  0.9123 -0.9408 -1.2350
14502TIP3    H264922   2.607   4.600  16.931 -1.5347  2.1556  2.9478
14503TIP3   OH264923   3.115   1.726  16.481  0.3033  0.0329  0.1614
14503TIP3    H164924   3.078   1.663  16.419 -0.0161  0.8684 -0.5209
14503TIP3    H264925   3.046   1.791  16.493 -0.0258 -0.6468  2.2111
14504TIP3   OH264926   6.646   6.006  13.225 -0.0372 -0.2053 -0.0298
14504TIP3    H164927   6.663   5.951  13.301 -0.2799 -0.9159 -0.4840
14504TIP3    H264928   6.666   5.951  13.149 -0.0682  0.3993 -0.4896
14505TIP3   OH264929   2.721   5.685   4.878 -0.4366 -0.1906  0.5702
14505TIP3    H164930   2.693   5.691   4.786 -0.2387  1.7483  0.5884
14505TIP3    H264931   2.656   5.629   4.919 -0.8886 -0.5809 -0.6327
14506TIP3   OH264932   2.202   1.474  16.748 -0.1891  0.1771 -0.1194
14506TIP3    H164933   2.206   1.503  16.657  1.8792  1.1779  0.2289
14506TIP3    H264934   2.213   1.554  16.800 -2.1700 -0.2441  1.0897
14507TIP3   OH264935   1.458   4.005  11.401 -0.4937  0.0657  0.0058
14507TIP3    H164936   1.432   4.091  11.434  0.6205 -0.3204  2.0609
14507TIP3    H264937   1.483   4.020  11.310 -1.7110  1.6052 -0.1137
14508TIP3   OH264938   3.416   3.940   5.873 -0.5861  0.1202  0.2586
14508TIP3    H164939   3.347   3.920   5.810 -0.1710  1.9169 -0.8429
14508TIP3    H264940   3.448   4.027   5.847  2.3042 -0.7513  0.5373
14509TIP3   OH264941   0.074   6.729   3.621 -0.4913  0.4010  0.0726
14509TIP3    H164942   0.094   6.823   3.628  0.5684  0.1176  1.1828
14509TIP3    H264943   0.102   6.705   3.533  1.0982  0.7349  0.4528
14510TIP3   OH264944   2.405   5.738  12.234  0.0721 -0.2787 -0.7916
14510TIP3    H164945   2.482   5.777  12.193  0.3370 -0.4052 -0.4155
14510TIP3    H264946   2.425   5.736  12.327 -0.7996  0.6206 -0.5592
14511TIP3   OH264947   1.672   4.829   0.895 -0.1744 -0.0685  0.6937
14511TIP3    H164948   1.620   4.907   0.915 -0.2894  0.1842 -0.5180
14511TIP3    H264949   1.758   4.864   0.870 -0.3340 -0.3097 -0.1963
14512TIP3   OH264950   2.571   1.251  14.657  0.3956  0.0234  0.1608
14512TIP3    H164951   2.482   1.240  14.626  0.4689 -0.3935  0.0984
14512TIP3    H264952   2.601   1.333  14.616  1.3326 -1.7041 -2.9336
14513TIP3   OH264953   6.234   3.683   3.210 -0.0851  0.0821  0.0526
14513TIP3    H164954   6.190   3.768   3.222  0.1020  0.3354 -0.9288
14513TIP3    H264955   6.226   3.666   3.116  0.0676 -0.8937  0.2092
14514TIP3   OH264956   4.034   4.019   4.647  0.0594 -0.6262 -0.9039
14514TIP3    H164957   4.018   4.108   4.617 -1.3771 -1.3714 -2.5447
14514TIP3    H264958   3.965   4.002   4.711  0.4430 -0.5161 -0.4543
14515TIP3   OH264959   0.231   6.681  14.062 -0.7284  0.2442 -0.4619
14515TIP3    H164960   0.312   6.630  14.064 -1.4678 -1.0744 -1.6522
14515TIP3    H264961   0.257   6.767  14.030  0.3715  0.2299  0.3457
14516TIP3   OH264962   5.237   1.792  15.109 -0.3479  0.1052 -0.2092
14516TIP3    H164963   5.285   1.868  15.141 -0.5296 -0.0872  0.5414
14516TIP3    H264964   5.289   1.761  15.035 -0.3151  0.9971 -0.5740
14517TIP3   OH264965   5.120   5.400   2.958 -1.0311  0.0521  1.0444
14517TIP3    H164966   5.066   5.321   2.969  1.5758 -1.9091  0.8566
14517TIP3    H264967   5.087   5.442   2.879 -1.5804 -1.6888  0.3059
14518TIP3   OH264968   4.595   3.783   1.286 -0.7962  0.0655 -0.4985
14518TIP3    H164969   4.537   3.744   1.351 -1.4842  0.4185 -0.8932
14518TIP3    H264970   4.681   3.746   1.305 -1.0455 -0.0506  0.4357
14519TIP3   OH264971   1.246   3.954   2.390 -0.0687 -0.3123 -0.4444
14519TIP3    H164972   1.219   3.929   2.478 -0.8898 -0.2583 -0.6712
14519TIP3    H264973   1.269   3.872   2.348 -0.1140 -0.3892 -0.3199
14520TIP3   OH264974   0.066   1.076   0.993  0.0259  0.0905  0.5081
14520TIP3    H164975   0.150   1.083   1.039  0.1277  0.4993  0.2650
14520TIP3    H264976   0.058   0.983   0.973  1.3347  0.2711 -1.1138
14521TIP3   OH264977   1.192   6.717  13.664  0.4581 -0.3792  0.1119
14521TIP3    H164978   1.216   6.625  13.652 -0.6010 -0.5893 -0.5089
14521TIP3    H264979   1.101   6.722  13.635  0.7440  1.0340 -0.5937
14522TIP3   OH264980   6.572   0.890   5.829  0.0017  0.0678  0.3060
14522TIP3    H164981   6.622   0.962   5.789 -0.0575  0.7084  1.3460
14522TIP3    H264982   6.639   0.827   5.857  0.0609 -0.2455 -0.5166
14523TIP3   OH264983   5.433   0.084   3.117  0.2654  0.8710  0.1986
14523TIP3    H164984   5.441   0.135   3.198 -1.8055  0.6326  0.6219
14523TIP3    H264985   5.384   0.006   3.144  0.7466  0.1218 -1.0321
14524TIP3   OH264986   3.581   3.570   2.717  0.1486 -0.3528  0.4129
14524TIP3    H164987   3.489   3.596   2.730  0.0017  0.5386 -1.9156
14524TIP3    H264988   3.632   3.648   2.738  0.1919 -0.1774 -0.3076
14525TIP3   OH264989   2.514   6.639  11.870 -0.3494 -0.3075  0.9202
14525TIP3    H164990   2.535   6.643  11.777  0.0258  1.9299  1.0322
14525TIP3    H264991   2.597   6.619  11.913 -0.4188 -0.8314  0.8177
14526TIP3   OH264992   5.971   6.430  11.721  0.2571 -0.3388  0.2924
14526TIP3    H164993   5.904   6.433  11.789  0.0316  0.9649  0.0186
14526TIP3    H264994   6.033   6.499  11.745  1.3036 -1.2412  0.3109
14527TIP3   OH264995   4.867   5.818  15.266 -0.0996  0.7946 -0.2504
14527TIP3    H164996   4.854   5.908  15.235  2.1039  1.0849 -0.4442
14527TIP3    H264997   4.865   5.765  15.186  0.3825  0.9026 -0.3373
14528TIP3   OH264998   1.212   3.470  16.308  0.3509 -0.6283 -0.1631
14528TIP3    H164999   1.131   3.430  16.275  0.8822 -1.3329 -0.6692
14528TIP3    H265000   1.235   3.535  16.242  0.6252 -1.0094 -0.4546
14529TIP3   OH265001   3.299   4.805  12.586 -0.4820 -0.1367 -0.3172
14529TIP3    H165002   3.212   4.845  12.579 -0.3298  0.4059  0.7524
14529TIP3    H265003   3.356   4.860  12.532 -0.1516  1.5093  1.5983
14530TIP3   OH265004   0.622   4.349   2.915 -0.4760  0.4553  0.1779
14530TIP3    H165005   0.646   4.422   2.973 -0.7245  0.5834  0.1209
14530TIP3    H265006   0.638   4.271   2.968 -0.7390  0.5732  0.4350
14531TIP3   OH265007   2.119   4.389   4.062 -0.5578  0.2030 -0.1815
14531TIP3    H165008   2.204   4.431   4.055 -0.9017  0.6204 -3.2397
14531TIP3    H265009   2.079   4.428   4.140  0.9290  2.1360 -0.3086
14532TIP3   OH265010   5.141   6.430  16.844  0.5044  0.4213  0.3814
14532TIP3    H165011   5.158   6.439  16.751 -1.7570 -0.2938 -0.1654
14532TIP3    H265012   5.209   6.370  16.875  0.2582 -0.7405 -1.1938
14533TIP3   OH265013   4.751   3.736   0.698  0.3840 -0.1920  0.0881
14533TIP3    H165014   4.759   3.803   0.630  0.2085 -0.0552  0.2033
14533TIP3    H265015   4.676   3.763   0.750  0.8785  0.0276  0.6954
14534TIP3   OH265016   5.592   5.844   5.010  0.0008  0.2907  0.0914
14534TIP3    H165017   5.553   5.909   5.068  3.5761  1.4202  1.4677
14534TIP3    H265018   5.634   5.895   4.941  2.3578 -0.4895  0.8694
14535TIP3   OH265019   3.515   3.513   4.508 -0.1839  1.1367 -0.3586
14535TIP3    H165020   3.593   3.523   4.453  1.3856  0.1437  1.5784
14535TIP3    H265021   3.464   3.445   4.465  0.6534  0.8710 -0.9580
14536TIP3   OH265022   3.467   5.775   4.958 -0.3193 -0.3297  0.1611
14536TIP3    H165023   3.508   5.690   4.974 -1.5995 -0.4707  3.6493
14536TIP3    H265024   3.407   5.759   4.885 -0.0376 -2.2472  0.2860
14537TIP3   OH265025   3.654   2.688  12.580 -0.0569 -0.6667  0.8719
14537TIP3    H165026   3.578   2.639  12.548 -1.0566  1.5823 -0.3929
14537TIP3    H265027   3.686   2.736  12.504  0.8799  0.6443  2.0483
14538TIP3   OH265028   0.581   5.910   3.454  0.2261  0.0501 -0.4894
14538TIP3    H165029   0.512   5.975   3.467  1.4103  1.1558  0.5908
14538TIP3    H265030   0.662   5.958   3.472  1.1608 -1.6429 -0.0172
14539TIP3   OH265031   1.696   1.880  14.903 -0.3389  0.3387 -0.0506
14539TIP3    H165032   1.658   1.811  14.958 -0.4819  0.2476 -0.2623
14539TIP3    H265033   1.624   1.940  14.886 -0.1806  0.6146  0.2460
14540TIP3   OH265034   1.568   5.982  13.301  0.9690  0.4726 -0.0233
14540TIP3    H165035   1.581   5.930  13.381  0.5887  1.3076  0.5874
14540TIP3    H265036   1.473   5.984  13.289  1.0590 -1.0079 -1.4304
14541TIP3   OH265037   5.697   0.788   5.724 -0.3993 -0.0481  0.2327
14541TIP3    H165038   5.646   0.815   5.801 -0.5632 -1.3773  0.6224
14541TIP3    H265039   5.772   0.742   5.761 -0.0704 -0.0198 -0.3955
14542TIP3   OH265040   0.004   1.495  14.031  0.1192  0.0404 -0.0962
14542TIP3    H165041   0.010   1.537  13.945 -0.7047 -0.0677 -0.2228
14542TIP3    H265042  -0.004   1.402  14.011  3.4560 -0.4124  0.2260
14543TIP3   OH265043   3.605   4.917   3.416 -0.0465 -0.6127  0.5304
14543TIP3    H165044   3.543   4.887   3.350 -0.0726 -0.9604  0.7151
14543TIP3    H265045   3.613   5.011   3.399 -0.9749 -0.4762  0.8013
14544TIP3   OH265046   4.670   6.274  15.920  0.2378 -0.1042  0.0185
14544TIP3    H165047   4.649   6.309  15.833 -0.8031 -0.5020  0.0975
14544TIP3    H265048   4.681   6.351  15.975 -2.5792  0.1665  0.3190
14545TIP3   OH265049   0.853   6.506   0.919 -0.1592  0.4874 -0.1575
14545TIP3    H165050   0.882   6.591   0.883 -0.9299  0.7975 -0.0600
14545TIP3    H265051   0.839   6.452   0.841 -0.5457  0.7373 -0.2623
14546TIP3   OH265052   3.712   4.371   1.422 -0.3294  0.3817 -0.2913
14546TIP3    H165053   3.624   4.336   1.405 -0.8474  2.9308 -4.0817
14546TIP3    H265054   3.703   4.465   1.410  2.5986  0.9918  1.3063
14547TIP3   OH265055   3.753   5.788   2.737 -0.0419  0.2360  0.3268
14547TIP3    H165056   3.814   5.715   2.749  0.7927  0.6398 -1.1628
14547TIP3    H265057   3.800   5.848   2.679 -1.6431  0.8345 -0.3900
14548TIP3   OH265058   2.513   0.530   5.373  0.8246 -0.1336  0.0406
14548TIP3    H165059   2.481   0.619   5.384 -0.9602 -0.7171  0.0357
14548TIP3    H265060   2.475   0.482   5.447 -0.7237 -1.4540 -1.5217
14549TIP3   OH265061   3.705   2.546  16.770  0.1188 -0.6272  0.1311
14549TIP3    H165062   3.685   2.630  16.811 -1.8307 -1.2299  0.5515
14549TIP3    H265063   3.623   2.522  16.726  1.4587 -1.0572 -2.2917
14550TIP3   OH265064   2.919   0.417  10.931  0.1813  0.6075 -0.2918
14550TIP3    H165065   2.900   0.495  10.878 -1.5704  0.1227 -0.4173
14550TIP3    H265066   2.970   0.361  10.872 -0.3340  0.7782 -0.9110
14551TIP3   OH265067   1.644   5.970  12.476 -0.5951 -0.5183  0.0647
14551TIP3    H165068   1.705   6.042  12.488 -0.5858 -0.5335  0.1103
14551TIP3    H265069   1.609   5.953  12.563 -0.8027 -0.3874  0.0066
14552TIP3   OH265070   3.410   3.313  12.505  0.0118  0.1344  0.1713
14552TIP3    H165071   3.403   3.228  12.462 -1.6110  0.5437 -0.4307
14552TIP3    H265072   3.399   3.377  12.435 -0.5141  0.8215  0.8599
14553TIP3   OH265073   2.009   4.913   1.185 -0.2265 -0.5317  0.0363
14553TIP3    H165074   1.950   4.844   1.212 -1.8302  0.0258 -1.8031
14553TIP3    H265075   2.043   4.950   1.267 -2.2329 -1.0446  1.1604
14554TIP3   OH265076   2.543   1.061   1.802 -0.1791  0.2772 -0.0397
14554TIP3    H165077   2.535   0.980   1.751  0.1212  0.1095  0.1771
14554TIP3    H265078   2.481   1.121   1.761  0.8489  0.5113 -1.3032
14555TIP3   OH265079   4.425   1.560   4.699  0.0217 -0.0046 -0.3843
14555TIP3    H165080   4.419   1.506   4.778 -1.2300 -1.2134 -1.2614
14555TIP3    H265081   4.504   1.612   4.712 -0.6107  0.4766  2.0536
14556TIP3   OH265082   3.027   3.456  11.641 -0.8490 -0.2632 -0.1157
14556TIP3    H165083   3.012   3.364  11.619  0.3933 -0.6624  0.5711
14556TIP3    H265084   2.978   3.470  11.722  0.0857 -0.7533  0.5642
14557TIP3   OH265085   4.582   2.765   3.845 -0.8903  0.3408 -0.0573
14557TIP3    H165086   4.657   2.816   3.877  0.1731 -0.5834 -0.9876
14557TIP3    H265087   4.525   2.757   3.921  0.6923 -0.2505  1.1369
14558TIP3   OH265088   0.778   3.348  16.498 -0.1442  0.1599 -0.7583
14558TIP3    H165089   0.801   3.425  16.550 -0.5176  1.9865 -3.1232
14558TIP3    H265090   0.685   3.335  16.513  0.0980 -0.4289  0.3372
14559TIP3   OH265091   1.641   0.722   3.408  0.2033  0.0462  0.1498
14559TIP3    H165092   1.717   0.682   3.366  0.3593  0.9889 -0.5136
14559TIP3    H265093   1.570   0.660   3.395  0.5948 -0.3322 -0.2260
14560TIP3   OH265094   2.278   1.712   2.781 -0.1167 -0.8908  0.5434
14560TIP3    H165095   2.197   1.761   2.769  0.7217 -0.0155 -2.0811
14560TIP3    H265096   2.345   1.767   2.741  1.5989 -2.1754  1.5398
14561TIP3   OH265097   3.505   3.676  14.085 -0.4388  0.9142 -0.0092
14561TIP3    H165098   3.562   3.746  14.116 -0.3600  0.4622  0.9175
14561TIP3    H265099   3.562   3.599  14.080 -1.0377  0.3219  1.4621
14562TIP3   OH265100   2.258   2.173  10.505  0.2268  0.2921 -0.9476
14562TIP3    H165101   2.178   2.131  10.472 -0.5942  1.8446 -1.0402
14562TIP3    H265102   2.245   2.177  10.600  0.3915  0.1489 -0.9197
14563TIP3   OH265103   4.609   3.104  14.803 -0.4197 -0.4108  0.0875
14563TIP3    H165104   4.574   3.185  14.839 -0.5567 -0.3786 -0.1172
14563TIP3    H265105   4.533   3.058  14.769 -0.1061  0.4249 -1.9007
14564TIP3   OH265106   3.894   3.352  14.777  0.3000 -0.6381 -0.3497
14564TIP3    H165107   3.923   3.352  14.685  0.9568 -1.6899 -0.1585
14564TIP3    H265108   3.857   3.439  14.790  1.2545 -0.0606 -1.2970
14565TIP3   OH265109   2.282   3.309   1.697 -0.2598  0.1515  0.1155
14565TIP3    H165110   2.372   3.324   1.726  1.0758 -0.8960 -3.0053
14565TIP3    H265111   2.286   3.317   1.602 -3.8376  1.5489 -0.0929
14566TIP3   OH265112   5.727   4.953  14.877  0.0170 -0.1955 -0.3840
14566TIP3    H165113   5.791   4.884  14.862 -0.2080 -0.2889 -0.9290
14566TIP3    H265114   5.765   5.007  14.947 -0.3538 -1.5661  0.9259
14567TIP3   OH265115   0.967   1.294  14.842  0.2177 -0.5487 -0.5182
14567TIP3    H165116   1.046   1.347  14.848  1.1852 -2.0106  0.5939
14567TIP3    H265117   0.980   1.241  14.763  0.6079 -1.1323 -0.0750
14568TIP3   OH265118   0.525   6.297  14.178 -0.0076  0.2817  0.0417
14568TIP3    H165119   0.582   6.368  14.206 -0.2803  0.5142  0.0080
14568TIP3    H265120   0.442   6.339  14.158  0.1315  0.1073 -0.9860
14569TIP3   OH265121   1.277   5.657   3.613 -0.4224 -0.0707 -0.0426
14569TIP3    H165122   1.208   5.591   3.602 -1.0118  0.3830  0.8285
14569TIP3    H265123   1.233   5.732   3.654  0.3693  0.6342 -0.4464
14570TIP3   OH265124   4.164   3.024   6.318  0.0146  0.0982 -0.1998
14570TIP3    H165125   4.251   3.021   6.358 -0.2276  1.5373  0.5036
14570TIP3    H265126   4.131   2.934   6.326  0.9624 -0.1999  0.5905
14571TIP3   OH265127   2.018   4.209  14.521  0.3901  0.4243  0.5605
14571TIP3    H165128   2.077   4.230  14.449 -0.5106  0.7355 -0.1115
14571TIP3    H265129   1.931   4.208  14.481 -0.1075  0.3599  1.5997
14572TIP3   OH265130   6.416   0.251   5.626 -0.1024  0.0890  1.0180
14572TIP3    H165131   6.436   0.233   5.534 -1.9457 -2.3334  0.9824
14572TIP3    H265132   6.404   0.345   5.630 -0.0705  0.2483 -1.2465
14573TIP3   OH265133   2.654   3.939  11.493 -0.2847 -0.1552 -0.4625
14573TIP3    H165134   2.670   3.986  11.412 -1.8335  0.4287 -0.4608
14573TIP3    H265135   2.592   3.994  11.541  0.3804 -0.6325  0.9910
14574TIP3   OH265136   6.397   4.340   4.772 -0.3792  0.5542 -0.0896
14574TIP3    H165137   6.376   4.386   4.853 -0.5221  0.1077  0.1263
14574TIP3    H265138   6.434   4.257   4.800  2.0218  1.4305 -0.4533
14575TIP3   OH265139   4.392   4.117   1.867  0.1005 -0.0519 -0.6270
14575TIP3    H165140   4.356   4.205   1.859 -0.7245 -0.4155 -1.0504
14575TIP3    H265141   4.409   4.107   1.961 -0.2285  0.3967 -0.5110
14576TIP3   OH265142   4.022   4.396   5.095  0.2042 -0.5981 -0.7878
14576TIP3    H165143   4.116   4.387   5.106 -0.1186 -1.1625  3.3048
14576TIP3    H265144   4.003   4.486   5.122 -0.5927 -1.3226  1.2886
14577TIP3   OH265145   2.197   6.191  15.438  0.1567  0.0512  0.3832
14577TIP3    H165146   2.117   6.149  15.404 -0.0238  1.0927 -0.5545
14577TIP3    H265147   2.258   6.118  15.452 -0.2552 -0.5761 -0.8928
14578TIP3   OH265148   1.645   6.062  15.374 -0.3260 -0.4665  0.1943
14578TIP3    H165149   1.552   6.050  15.352 -0.2365  0.4653 -0.7671
14578TIP3    H265150   1.646   6.140  15.430 -0.2912 -1.4956  1.6957
14579TIP3   OH265151   4.412   4.075   5.259  0.1346  0.3029  0.0535
14579TIP3    H165152   4.484   4.103   5.316 -0.4255  3.4530 -0.5924
14579TIP3    H265153   4.336   4.123   5.291 -1.2837 -1.4383 -0.5172
14580TIP3   OH265154   5.917   1.170  15.384  0.1588 -0.0454 -0.0226
14580TIP3    H165155   5.969   1.162  15.464 -0.1963 -0.0804  0.2098
14580TIP3    H265156   5.879   1.258  15.388  0.5029  0.1201 -0.3793
14581TIP3   OH265157   6.052   4.609   4.195  0.4731  0.2734 -0.2472
14581TIP3    H165158   5.973   4.616   4.141  1.1791  0.5494 -1.2781
14581TIP3    H265159   6.122   4.590   4.133  1.1498 -0.4860  0.7085
14582TIP3   OH265160   6.265   4.093   1.312 -0.0182  0.0331  0.3200
14582TIP3    H165161   6.290   4.182   1.288  0.7222 -0.3491 -0.3920
14582TIP3    H265162   6.248   4.049   1.228  2.3676 -1.2630  0.4064
14583TIP3   OH265163   1.742   1.745  10.408  0.1685  0.3320  0.4563
14583TIP3    H165164   1.687   1.803  10.461  1.3388  1.5519  0.4094
14583TIP3    H265165   1.764   1.673  10.468 -0.4746  0.4516  0.8513
14584TIP3   OH265166   6.627   3.956  11.404 -0.1601  0.0031  0.5268
14584TIP3    H165167   6.708   3.907  11.395 -0.5949 -0.5001 -0.9309
14584TIP3    H265168   6.630   3.991  11.493  2.1903  0.9879  0.1268
14585TIP3   OH265169   2.376   1.578  15.643 -0.5652 -0.1041 -0.4903
14585TIP3    H165170   2.281   1.592  15.650 -0.4453  0.4278  0.1068
14585TIP3    H265171   2.414   1.665  15.647  0.1363 -0.4510  2.5693
14586TIP3   OH265172   2.683   4.680   4.395  0.2643 -0.0075 -0.5077
14586TIP3    H165173   2.634   4.760   4.412  0.2695 -0.0900 -0.1021
14586TIP3    H265174   2.624   4.627   4.342  0.9704  1.0461 -2.4421
14587TIP3   OH265175   3.160   5.031  17.112 -0.1212 -0.0718 -0.2315
14587TIP3    H165176   3.217   4.994  17.178  0.8514  1.0060 -0.4428
14587TIP3    H265177   3.174   5.126  17.118  2.6099  0.0002 -4.1661
14588TIP3   OH265178   4.653   3.473   1.015  0.1638 -0.1035 -0.0389
14588TIP3    H165179   4.692   3.390   1.041  0.4315 -0.5125 -1.6846
14588TIP3    H265180   4.559   3.457   1.017  0.2235 -0.5573 -0.6891
14589TIP3   OH265181   3.227   0.152  13.280  0.6186 -0.0484 -0.0435
14589TIP3    H165182   3.266   0.074  13.240  2.2552  0.7032 -0.0026
14589TIP3    H265183   3.270   0.225  13.236  0.7150  0.8132  1.4204
14590TIP3   OH265184   5.663   1.154   4.683  0.1730  0.0715 -0.1347
14590TIP3    H165185   5.702   1.239   4.660  0.3179 -0.1990 -0.9077
14590TIP3    H265186   5.658   1.107   4.600 -1.5319 -0.0301 -0.0069
14591TIP3   OH265187   5.914   0.473   0.369 -0.1988 -0.2779  0.2176
14591TIP3    H165188   6.007   0.494   0.375 -0.2945  0.2643 -0.1472
14591TIP3    H265189   5.911   0.379   0.351  0.2789 -0.2469 -0.0183
14592TIP3   OH265190   3.285   6.512   1.435  0.4765  0.0622  0.0760
14592TIP3    H165191   3.366   6.461   1.426  0.6320  0.3576 -0.2378
14592TIP3    H265192   3.315   6.598   1.464  0.3227  0.3450 -0.5927
14593TIP3   OH265193   6.625   2.149  14.106 -0.3360  0.1434 -0.2063
14593TIP3    H165194   6.667   2.233  14.126  0.5240 -0.3292  0.0197
14593TIP3    H265195   6.646   2.133  14.014 -0.3544  0.0976 -0.2026
14594TIP3   OH265196   2.497   1.828  15.660  0.0693  0.1040  0.3306
14594TIP3    H165197   2.419   1.883  15.659 -0.2788 -0.3725  0.7387
14594TIP3    H265198   2.570   1.890  15.654 -0.3483  0.4592 -1.6323
14595TIP3   OH265199   6.016   2.197   3.002  0.2626  0.2016 -0.1295
14595TIP3    H165200   6.097   2.177   2.954 -0.2580 -0.2834 -0.8311
14595TIP3    H265201   5.957   2.231   2.935 -1.4570 -3.1234 -0.4968
14596TIP3   OH265202   6.566   0.708  14.108  0.0463 -0.2274  0.1832
14596TIP3    H165203   6.488   0.723  14.162  0.8922  0.3505  1.2866
14596TIP3    H265204   6.546   0.749  14.025 -0.0650  1.7097  1.1233
14597TIP3   OH265205   5.747   3.918   0.945  0.3874 -0.1687  0.2205
14597TIP3    H165206   5.741   3.904   1.039  0.0040 -0.0276  0.2192
14597TIP3    H265207   5.663   3.956   0.921  1.5806  2.7706  0.3313
14598TIP3   OH265208   5.075   2.355   1.220  0.5317  0.0405 -0.0318
14598TIP3    H165209   5.033   2.317   1.143 -1.4847  0.4596  0.7976
14598TIP3    H265210   5.153   2.300   1.234 -0.3687 -1.5547 -0.9440
14599TIP3   OH265211   3.969   2.563  12.114  0.6128 -1.0037 -0.3988
14599TIP3    H165212   4.061   2.537  12.109  0.3273 -2.2912  0.5259
14599TIP3    H265213   3.923   2.497  12.062 -0.1083 -2.3432  1.7968
14600TIP3   OH265214   4.916   1.968  15.298  0.2182 -0.6119  0.4539
14600TIP3    H165215   4.906   1.992  15.390  0.8163 -0.4917  0.4885
14600TIP3    H265216   4.980   2.030  15.263  0.5008 -1.0808  0.1248
14601TIP3   OH265217   2.807   5.887  16.386 -0.0510 -0.1084 -0.1999
14601TIP3    H165218   2.885   5.943  16.386 -0.5439  0.6048  0.2107
14601TIP3    H265219   2.788   5.872  16.294 -0.7789  1.6720 -0.3770
14602TIP3   OH265220   2.065   2.392   0.809  0.1780 -0.1330  0.1927
14602TIP3    H165221   2.083   2.299   0.795 -0.7801 -0.2064 -0.6945
14602TIP3    H265222   1.990   2.393   0.868  0.6202  0.0970  0.7587
14603TIP3   OH265223   0.757   1.359  11.829 -0.6141  0.3191  0.2753
14603TIP3    H165224   0.690   1.394  11.888 -0.9727  0.9761 -0.5065
14603TIP3    H265225   0.836   1.407  11.852 -0.7423  0.5463  0.2421
14604TIP3   OH265226   1.597   0.830  16.396  0.1866 -0.2871  0.1023
14604TIP3    H165227   1.607   0.924  16.410  0.0374  0.0655 -1.8437
14604TIP3    H265228   1.681   0.792  16.424  0.7534  0.5980 -0.3534
14605TIP3   OH265229   3.252   2.426  12.646 -0.1009 -0.0919  0.6555
14605TIP3    H165230   3.270   2.517  12.625 -0.0572 -0.3007 -0.2708
14605TIP3    H265231   3.336   2.381  12.637 -0.4392 -0.5177 -0.6162
14606TIP3   OH265232   1.227   3.149   5.073 -0.2304  0.1485  0.3243
14606TIP3    H165233   1.148   3.112   5.032 -1.7696 -0.4652  3.5150
14606TIP3    H265234   1.266   3.203   5.005 -1.1968 -2.6010 -2.6687
14607TIP3   OH265235   2.230   0.871  16.004 -0.1265 -0.1382  0.0224
14607TIP3    H165236   2.276   0.950  15.977 -0.8465  0.2580 -0.0671
14607TIP3    H265237   2.163   0.858  15.936 -1.2016  0.2069  0.9974
14608TIP3   OH265238   4.848   1.129  16.177  0.1316  0.0472  0.6884
14608TIP3    H165239   4.791   1.196  16.215 -0.8688 -0.3432 -0.0646
14608TIP3    H265240   4.830   1.050  16.227  1.1406  0.2733  1.4257
14609TIP3   OH265241   4.528   6.018  12.528 -0.5735 -0.4982  0.3046
14609TIP3    H165242   4.577   5.937  12.543  0.1204  0.0899  1.3459
14609TIP3    H265243   4.590   6.076  12.483 -0.3298  0.2101  1.5191
14610TIP3   OH265244   0.287   2.922   4.501 -0.2627  0.3089 -0.1722
14610TIP3    H165245   0.226   2.935   4.428 -1.5382  1.7251  1.0568
14610TIP3    H265246   0.240   2.956   4.577  1.4731 -0.0482  1.1174
14611TIP3   OH265247   1.564   6.570   0.424 -0.4425  0.1476 -0.6038
14611TIP3    H165248   1.573   6.581   0.518  0.0652  2.1189 -0.8486
14611TIP3    H265249   1.489   6.510   0.415 -1.0995  0.6570  1.0225
14612TIP3   OH265250   2.088   0.349  12.484 -0.3117  0.4315  0.3857
14612TIP3    H165251   2.129   0.324  12.402  0.5747 -0.2080  1.0109
14612TIP3    H265252   2.160   0.375  12.541 -0.9117  0.8696  0.9750
14613TIP3   OH265253   0.218   5.511  16.456  0.1690  0.2334  0.6591
14613TIP3    H165254   0.133   5.522  16.499  0.3351  2.0863  0.5783
14613TIP3    H265255   0.196   5.493  16.364 -0.1310 -1.4079  1.0054
14614TIP3   OH265256   1.223   4.768   6.362 -0.0472 -0.5804  0.9261
14614TIP3    H165257   1.243   4.720   6.282  0.9264  1.3711 -0.0762
14614TIP3    H265258   1.128   4.771   6.366 -0.1580  0.8828 -1.2364
14615TIP3   OH265259   1.046   2.368   3.966 -0.4556  1.0334  0.5131
14615TIP3    H165260   1.062   2.279   3.998  0.5959  1.2970  0.7775
14615TIP3    H265261   1.102   2.423   4.020 -1.4707  1.9275  0.6906
14616TIP3   OH265262   5.930   4.327   0.440  0.7613 -0.2249 -0.6550
14616TIP3    H165263   5.968   4.259   0.496 -0.8596 -0.4311  0.2508
14616TIP3    H265264   5.927   4.288   0.353  0.0338 -1.2507 -0.1857
14617TIP3   OH265265   3.839   0.631  11.326 -0.0175  0.1522  0.0367
14617TIP3    H165266   3.778   0.658  11.395  0.2691  2.5666 -0.5558
14617TIP3    H265267   3.809   0.544  11.300 -2.0099  0.4544  1.0883
14618TIP3   OH265268   5.008   2.428  10.719 -0.2766 -0.1977 -0.7302
14618TIP3    H165269   5.072   2.358  10.730 -0.7456 -0.5096  0.0533
14618TIP3    H265270   5.058   2.501  10.683  0.1584 -1.0229 -1.8429
14619TIP3   OH265271   5.006   1.949  12.086  0.5486  0.2764  0.4197
14619TIP3    H165272   4.918   1.917  12.064  0.9974 -0.2447 -0.6584
14619TIP3    H265273   5.045   1.972  12.003  2.0334 -1.0895  0.6933
14620TIP3   OH265274   5.810   0.327  12.839 -0.1411 -0.4255  0.7104
14620TIP3    H165275   5.876   0.378  12.886 -1.0787  1.2225  0.3355
14620TIP3    H265276   5.859   0.258  12.794  0.9857 -0.9458  2.6230
14621TIP3   OH265277   3.828   3.237  13.110  0.5494  0.1646  0.6296
14621TIP3    H165278   3.749   3.287  13.087  0.2626 -1.0939 -1.3259
14621TIP3    H265279   3.872   3.222  13.027  1.3093 -1.7112  1.3275
14622TIP3   OH265280   4.161   0.231  12.178 -0.0997  0.0069 -0.5249
14622TIP3    H165281   4.157   0.323  12.204  0.1325  0.4483 -1.9710
14622TIP3    H265282   4.246   0.200  12.211 -0.7836 -0.1348  1.2403
14623TIP3   OH265283   3.798   5.556   2.089  0.4043 -0.2408  0.1464
14623TIP3    H165284   3.877   5.547   2.142  0.3452 -0.5246  0.1904
14623TIP3    H265285   3.755   5.634   2.122  1.6579  1.0863 -1.1743
14624TIP3   OH265286   1.667   1.536  11.924  0.2678  0.8156  0.1889
14624TIP3    H165287   1.622   1.554  12.007 -0.7144 -1.6117  0.2708
14624TIP3    H265288   1.598   1.542  11.858  0.1006 -1.1463  0.0993
14625TIP3   OH265289   1.457   6.394   5.897 -0.6042 -0.4871  0.0968
14625TIP3    H165290   1.381   6.451   5.888  0.1658  0.3141 -1.8366
14625TIP3    H265291   1.420   6.311   5.927 -1.8360  0.7307  2.2559
14626TIP3   OH265292   2.403   1.169  12.102  0.0020  0.9526 -0.4146
14626TIP3    H165293   2.472   1.112  12.067  0.3378  2.1902 -1.8353
14626TIP3    H265294   2.373   1.220  12.027 -1.9288  1.0202  0.3416
14627TIP3   OH265295   6.663   0.186  12.897 -0.3801  0.3007 -0.0643
14627TIP3    H165296   6.708   0.270  12.904 -1.8389  1.0983 -0.0285
14627TIP3    H265297   6.585   0.196  12.952 -0.3346 -1.2512  0.3222
14628TIP3   OH265298   4.275   4.586  11.431  0.4178  0.5178 -0.5296
14628TIP3    H165299   4.362   4.576  11.391  0.4029 -0.9079 -0.2636
14628TIP3    H265300   4.214   4.561  11.362  0.2251  1.0788 -0.5715
14629TIP3   OH265301   4.683   4.175   1.184 -0.0575 -0.0284  0.6260
14629TIP3    H165302   4.693   4.134   1.270 -0.2001  0.4668  0.8798
14629TIP3    H265303   4.770   4.211   1.166 -0.1374  0.2240  0.7457
14630TIP3   OH265304   6.553   3.581  12.896 -0.0703 -0.1590  0.1953
14630TIP3    H165305   6.461   3.605  12.897  0.1102  0.5740  1.7599
14630TIP3    H265306   6.556   3.494  12.935 -0.1506 -0.4990 -0.5268
14631TIP3   OH265307   2.589   4.149  15.935  0.4397  0.8960 -0.4597
14631TIP3    H165308   2.665   4.137  15.878  0.7819  1.1088 -0.0586
14631TIP3    H265309   2.552   4.233  15.909 -0.2752  0.3271 -1.3489
14632TIP3   OH265310   1.869   3.215  15.002 -0.0903  0.0209  0.3220
14632TIP3    H165311   1.961   3.237  15.015 -0.1136  0.5491 -0.3314
14632TIP3    H265312   1.826   3.249  15.081  0.2156  0.1365  0.4417
14633TIP3   OH265313   4.422   3.782  14.222  0.0052 -0.1707 -0.1881
14633TIP3    H165314   4.359   3.854  14.225  0.2036 -0.0144  0.5705
14633TIP3    H265315   4.408   3.735  14.304  0.8682 -0.1365 -0.0117
14634TIP3   OH265316   5.863   5.861   2.554  0.1540 -0.1400 -0.7212
14634TIP3    H165317   5.769   5.871   2.567  0.2833 -0.0246  0.1873
14634TIP3    H265318   5.886   5.781   2.603  0.8351  0.8939  0.7214
14635TIP3   OH265319   2.892   2.585  16.496 -0.1442  0.4423 -0.1264
14635TIP3    H165320   2.953   2.514  16.479 -0.2227  0.0132  1.2191
14635TIP3    H265321   2.829   2.548  16.558 -0.1330  1.6961  0.6664
14636TIP3   OH265322   4.646   3.610   3.369  0.1163  0.3323  0.0852
14636TIP3    H165323   4.674   3.638   3.456  2.3886  2.0378 -1.0646
14636TIP3    H265324   4.708   3.653   3.309 -1.5786 -0.4494 -2.4073
14637TIP3   OH265325   1.476   5.768  15.391 -0.2351 -0.1740  0.6679
14637TIP3    H165326   1.466   5.753  15.297 -0.6209  0.3516  0.6125
14637TIP3    H265327   1.567   5.794  15.402 -0.4232  0.6984  0.2892
14638TIP3   OH265328   1.695   2.963   3.738 -0.0265  0.0115  0.3403
14638TIP3    H165329   1.727   3.041   3.692 -0.6642  0.2329  0.2659
14638TIP3    H265330   1.753   2.955   3.814  0.7440 -0.0948 -0.2506
14639TIP3   OH265331   6.750   6.709  14.401 -0.3485  0.2579  0.1424
14639TIP3    H165332   6.681   6.759  14.444 -1.4294 -1.0412 -0.0340
14639TIP3    H265333   6.708   6.670  14.325  0.8440  0.2680 -0.5363
14640TIP3   OH265334   0.634   0.919   1.204 -0.0886  0.2208  0.3642
14640TIP3    H165335   0.689   0.842   1.185  0.9024  0.8328  0.6923
14640TIP3    H265336   0.547   0.894   1.174  0.3910 -0.7354 -0.2772
14641TIP3   OH265337   5.376   5.010   3.529  0.1636 -0.1255 -0.3583
14641TIP3    H165338   5.450   5.047   3.576 -0.9690  2.2128 -0.2490
14641TIP3    H265339   5.404   5.005   3.438  0.4476  0.9060 -0.3446
14642TIP3   OH265340   0.233   0.719  13.448 -0.5836  0.3523 -0.0525
14642TIP3    H165341   0.325   0.694  13.440 -0.0381  2.3423 -0.8708
14642TIP3    H265342   0.204   0.680  13.530  1.6881  1.5324  1.4289
14643TIP3   OH265343   6.555   5.614  12.095 -0.8805 -0.4923 -0.8221
14643TIP3    H165344   6.471   5.582  12.127 -0.9960  0.5314 -0.0508
14643TIP3    H265345   6.613   5.609  12.171 -0.5655 -0.0971 -1.0315
14644TIP3   OH265346   5.841   0.761   2.934 -0.0499  0.5950 -0.1466
14644TIP3    H165347   5.793   0.839   2.961 -0.1736  0.4505  0.0499
14644TIP3    H265348   5.933   0.789   2.931 -0.0513  0.6424  0.3016
14645TIP3   OH265349   4.247   4.980  11.048 -0.0208  0.9966 -0.4143
14645TIP3    H165350   4.163   5.003  11.009 -1.0990 -1.1400  0.4793
14645TIP3    H265351   4.310   4.993  10.978 -1.5374 -0.2532 -2.1080
14646TIP3   OH265352   3.404   4.134  14.578 -0.6029 -0.7023  0.3401
14646TIP3    H165353   3.326   4.080  14.590 -1.8214  0.5768 -1.3358
14646TIP3    H265354   3.394   4.171  14.490  2.4836 -1.4028 -0.4331
14647TIP3   OH265355   4.420   2.505   4.228 -0.5570  0.0759 -0.0592
14647TIP3    H165356   4.363   2.542   4.160 -0.8886 -1.3050 -0.5657
14647TIP3    H265357   4.373   2.428   4.259 -0.3372  0.6080  1.6664
14648TIP3   OH265358   6.298   3.873   0.667 -0.6529 -0.2793  0.5458
14648TIP3    H165359   6.363   3.817   0.711  1.2010  1.7525  0.5460
14648TIP3    H265360   6.311   3.959   0.707 -2.4252  0.4899 -0.4655
14649TIP3   OH265361   0.021   0.896  11.787  0.3310  0.3928  0.9157
14649TIP3    H165362   0.008   0.991  11.788 -3.2851  0.0257  1.9525
14649TIP3    H265363   0.013   0.872  11.694 -0.7429  0.9065  0.8678
14650TIP3   OH265364   2.422   0.326  15.965  0.5712 -0.3478 -0.0849
14650TIP3    H165365   2.431   0.235  15.937  0.2677 -0.0389 -1.2600
14650TIP3    H265366   2.403   0.374  15.884 -2.3477  0.3308  0.8537
14651TIP3   OH265367   0.885   4.678  13.157 -0.3079  0.1980 -0.2151
14651TIP3    H165368   0.914   4.666  13.248  2.0866 -2.1986 -1.1594
14651TIP3    H265369   0.963   4.711  13.111 -0.4612 -1.6884 -1.9545
14652TIP3   OH265370   1.961   1.352  11.472  0.1625  0.3752  0.2701
14652TIP3    H165371   1.935   1.316  11.388  0.4171 -2.2901  1.2493
14652TIP3    H265372   2.056   1.366  11.464 -0.0867  1.8291 -0.4258
14653TIP3   OH265373   1.140   6.335  14.484 -0.1084  0.1101 -0.0046
14653TIP3    H165374   1.170   6.270  14.548 -2.6853 -1.4494 -0.2303
14653TIP3    H265375   1.045   6.334  14.492 -0.6039 -0.2556 -3.9316
14654TIP3   OH265376   0.774   4.551  12.910 -0.3069 -0.1264  0.3814
14654TIP3    H165377   0.744   4.584  12.995 -0.0065 -0.3035  0.5573
14654TIP3    H265378   0.865   4.580  12.904 -0.4299  0.1854 -0.0367
14655TIP3   OH265379   3.029   2.025  13.116  0.1167  0.9062  0.0612
14655TIP3    H165380   3.009   2.118  13.127  0.0903  0.8108  0.9046
14655TIP3    H265381   3.074   2.020  13.032  1.4629  1.9052  0.6944
14656TIP3   OH265382   1.396   0.281  16.932 -0.2417  0.1520  0.2048
14656TIP3    H165383   1.375   0.336  17.008  0.2393 -0.4011  0.7576
14656TIP3    H265384   1.430   0.342  16.866  1.2971  0.4314  1.1837
14657TIP3   OH265385   2.548   6.067  12.892 -0.4130 -0.6003  0.6815
14657TIP3    H165386   2.643   6.082  12.888 -0.4027 -0.9896 -0.9829
14657TIP3    H265387   2.539   5.975  12.917 -0.3258 -0.8798 -0.2931
14658TIP3   OH265388   0.761   3.468   1.150 -0.6779 -0.1566 -0.1081
14658TIP3    H165389   0.817   3.415   1.094  0.8760 -0.3730  1.5734
14658TIP3    H265390   0.702   3.405   1.191  0.7132 -0.5502  1.3641
14659TIP3   OH265391   4.446   2.012  14.979 -0.1171  0.1169 -0.2922
14659TIP3    H165392   4.502   2.035  14.905  0.4006  1.1274  0.3884
14659TIP3    H265393   4.430   1.919  14.970  1.8379 -0.2430 -0.4105
14660TIP3   OH265394   0.525   0.752  17.196 -0.4662 -0.4080  0.0971
14660TIP3    H165395   0.620   0.741  17.204 -0.3318  1.2023  1.2609
14660TIP3    H265396   0.497   0.783  17.282 -1.8644  0.3009 -0.5716
14661TIP3   OH265397   1.282   3.821   6.712  0.2834 -0.4121 -0.8304
14661TIP3    H165398   1.229   3.876   6.770  1.1904 -1.4436  1.0798
14661TIP3    H265399   1.372   3.846   6.732  0.6650 -1.8674 -0.6339
14662TIP3   OH265400   3.160   1.516   4.414  0.4026  0.2266  0.2148
14662TIP3    H165401   3.078   1.468   4.417 -0.7801  1.9986 -1.5569
14662TIP3    H265402   3.198   1.493   4.329  1.1310  0.3929  0.4884
14663TIP3   OH265403   5.287   2.100   5.725  0.1638 -0.1479  0.0777
14663TIP3    H165404   5.238   2.172   5.684  0.8975 -0.4653 -1.4296
14663TIP3    H265405   5.225   2.059   5.784 -0.5085  1.2383  0.3613
14664TIP3   OH265406   3.646   6.182   1.338  0.1705 -0.4966  0.5701
14664TIP3    H165407   3.655   6.214   1.427 -0.5234 -1.2214  0.9044
14664TIP3    H265408   3.554   6.160   1.328  0.2135 -0.3329 -0.3616
14665TIP3   OH265409   2.578   2.904  15.744 -0.0416  0.2331 -0.4371
14665TIP3    H165410   2.640   2.944  15.683  0.3788 -0.2635 -0.3453
14665TIP3    H265411   2.537   2.834  15.692 -1.4016  1.3207 -0.8659
14666TIP3   OH265412   0.660   1.195  14.721  0.4279  0.2328  0.2935
14666TIP3    H165413   0.582   1.150  14.690  0.5234  0.3364 -0.1011
14666TIP3    H265414   0.702   1.134  14.781  1.2690 -0.7569 -1.2344
14667TIP3   OH265415   2.210   5.100   5.389  0.1551 -0.1353  0.0846
14667TIP3    H165416   2.292   5.099   5.339  0.3953  2.6475  0.2490
14667TIP3    H265417   2.146   5.137   5.328 -0.5332 -0.5209  0.5609
14668TIP3   OH265418   1.563   5.772   3.988  0.5833 -0.0199  0.5494
14668TIP3    H165419   1.625   5.831   3.945 -0.0347  0.2093 -0.0472
14668TIP3    H265420   1.478   5.815   3.978 -0.2279 -1.9147 -1.7623
14669TIP3   OH265421   2.377   2.838  12.888 -0.2628  1.1160 -1.0748
14669TIP3    H165422   2.401   2.780  12.960 -1.7004  1.6090 -0.1275
14669TIP3    H265423   2.341   2.781  12.821  1.1236  0.6458 -1.4458
14670TIP3   OH265424   1.418   2.012   1.166  0.4135 -0.1617  0.4044
14670TIP3    H165425   1.381   1.930   1.199  0.9901 -0.4645  0.3170
14670TIP3    H265426   1.512   2.005   1.185  0.7228 -0.2211 -1.0415
14671TIP3   OH265427   0.667   5.192   0.408 -0.5705  0.4100  0.1355
14671TIP3    H165428   0.654   5.105   0.447 -1.7938  0.6856  0.3658
14671TIP3    H265429   0.705   5.174   0.322 -0.3707 -0.3274  0.3664
14672TIP3   OH265430   3.435   5.315   4.214 -0.0673  0.1684  0.4791
14672TIP3    H165431   3.522   5.298   4.177 -0.8288 -0.7510 -1.0040
14672TIP3    H265432   3.398   5.228   4.230  0.2480  0.4906  3.6848
14673TIP3   OH265433   2.464   1.483  13.539 -0.1472 -0.3351  0.0756
14673TIP3    H165434   2.531   1.517  13.479 -1.5461  2.1937 -0.1930
14673TIP3    H265435   2.416   1.419  13.487 -0.3894  0.7258 -1.0760
14674TIP3   OH265436   2.000   3.093  13.612 -0.4376 -0.2450 -0.5686
14674TIP3    H165437   2.016   3.110  13.705  1.3755  1.1911 -1.0706
14674TIP3    H265438   2.071   3.035  13.586 -0.3264  0.1998 -1.2763
14675TIP3   OH265439   5.884   5.478  12.346 -0.2359 -0.7461  0.2710
14675TIP3    H165440   5.882   5.573  12.334 -1.2930 -0.8245 -0.2963
14675TIP3    H265441   5.801   5.447  12.309 -0.3102 -1.8018  1.2437
14676TIP3   OH265442   2.974   0.880   2.505 -0.6325 -0.1077  0.3849
14676TIP3    H165443   3.000   0.962   2.545  1.5331 -0.9081  0.7541
14676TIP3    H265444   3.055   0.845   2.466 -1.7807 -1.3891 -0.9782
14677TIP3   OH265445   5.315   5.473  11.661 -0.2434 -0.0725  0.4111
14677TIP3    H165446   5.385   5.419  11.698  0.7931  1.1505  0.2834
14677TIP3    H265447   5.263   5.500  11.736 -0.3261 -0.6231  0.5586
14678TIP3   OH265448   2.404   6.762  12.118 -0.0370 -0.4435  0.2246
14678TIP3    H165449   2.430   6.849  12.087 -0.9664 -0.4723 -0.7008
14678TIP3    H265450   2.429   6.702  12.049 -1.3514 -0.6206 -0.1317
14679TIP3   OH265451   3.757   0.315   4.468  0.2675 -0.4276 -0.2991
14679TIP3    H165452   3.683   0.298   4.411  0.2656  0.8249 -0.6988
14679TIP3    H265453   3.829   0.265   4.429 -0.2654 -1.3572 -0.1135
14680TIP3   OH265454   0.222   4.157  16.940  0.0491 -0.1770  0.5422
14680TIP3    H165455   0.134   4.184  16.966  0.3488  0.3909  0.9857
14680TIP3    H265456   0.274   4.237  16.943  0.3668 -0.3105 -0.7132
14681TIP3   OH265457   2.785   2.887  16.882 -0.2155  0.6414  0.5823
14681TIP3    H165458   2.860   2.857  16.831 -0.1629 -1.8764  2.0080
14681TIP3    H265459   2.821   2.909  16.968 -1.0581 -0.8027  1.3492
14682TIP3   OH265460   2.636   3.875  14.054  0.4597  0.5888  0.0073
14682TIP3    H165461   2.657   3.942  14.119  0.8458 -0.5683  1.1142
14682TIP3    H265462   2.666   3.793  14.093  0.4105 -0.1862 -1.5038
14683TIP3   OH265463   0.247   2.641   5.349 -0.1760 -0.0062 -0.6764
14683TIP3    H165464   0.181   2.701   5.384 -0.4075 -0.3664 -0.4882
14683TIP3    H265465   0.197   2.576   5.300 -0.1888 -1.5192  1.2159
14684TIP3   OH265466   3.052   5.448  12.292  0.1290 -0.5743 -0.2559
14684TIP3    H165467   3.146   5.434  12.279  0.0622 -1.3068  0.0051
14684TIP3    H265468   3.041   5.454  12.386 -0.0298 -0.0293 -0.3052
14685TIP3   OH265469   3.784   1.781  11.324  0.2603 -0.2676 -0.1931
14685TIP3    H165470   3.768   1.740  11.239  1.0947 -2.3285  0.5761
14685TIP3    H265471   3.699   1.780  11.367  0.3340 -1.7095 -0.0177
14686TIP3   OH265472   2.288   5.955   4.360  0.1249  0.1714  0.0644
14686TIP3    H165473   2.342   6.034   4.369 -0.3366  0.6418 -1.0721
14686TIP3    H265474   2.268   5.950   4.266 -1.6668 -0.0657  0.4125
14687TIP3   OH265475   0.698   3.658   4.530  0.1423  0.4781  0.6527
14687TIP3    H165476   0.655   3.744   4.532  0.4655  0.6384  0.6343
14687TIP3    H265477   0.645   3.604   4.590 -1.8542 -0.1661 -1.5461
14688TIP3   OH265478   1.764   4.018  12.289 -0.5453  0.2943 -0.5740
14688TIP3    H165479   1.826   4.001  12.359 -0.3172  0.4751 -0.7304
14688TIP3    H265480   1.816   4.017  12.209 -0.7147  0.6025 -0.6920
14689TIP3   OH265481   1.630   2.621  16.624  0.5329  0.3099 -0.3312
14689TIP3    H165482   1.572   2.686  16.585 -1.2915 -0.2019  1.3739
14689TIP3    H265483   1.581   2.539  16.620  2.5175 -0.9434 -1.8417
14690TIP3   OH265484   0.157   1.632  12.708  0.5255  0.1369  0.0048
14690TIP3    H165485   0.100   1.557  12.727  1.4355 -0.6400 -0.2699
14690TIP3    H265486   0.229   1.596  12.657  1.5700  0.9878  0.8233
14691TIP3   OH265487   2.720   4.142  16.440  0.5137  0.0505 -0.4403
14691TIP3    H165488   2.730   4.048  16.453 -2.4200 -0.5710 -1.7454
14691TIP3    H265489   2.763   4.160  16.357  1.4294 -0.0376  0.0059
14692TIP3   OH265490   6.051   1.405   5.186 -0.1793  0.6545  0.6580
14692TIP3    H165491   6.085   1.441   5.104  1.2517  1.3141  1.4909
14692TIP3    H265492   5.982   1.344   5.159  1.2890 -0.3350 -1.1382
14693TIP3   OH265493   1.852   2.384   4.722 -0.6536 -0.4749 -0.2123
14693TIP3    H165494   1.824   2.462   4.770  0.0519 -0.6404  0.4785
14693TIP3    H265495   1.779   2.366   4.661 -2.5032 -1.4120  2.1322
14694TIP3   OH265496   4.393   4.441   1.068  0.2052 -0.4376  0.3881
14694TIP3    H165497   4.461   4.430   1.134  0.7403 -2.4528 -0.4124
14694TIP3    H265498   4.420   4.518   1.018  0.3127  0.5146  1.8633
14695TIP3   OH265499   1.528   5.685   4.314  0.1841  0.1320 -0.4152
14695TIP3    H165500   1.547   5.735   4.234  1.1874 -0.4037 -0.5255
14695TIP3    H265501   1.594   5.715   4.377  0.0161 -0.1645 -0.0998
14696TIP3   OH265502   5.799   6.179   4.659  0.7385 -0.6830  0.2840
14696TIP3    H165503   5.837   6.255   4.704 -1.3941  0.1131  0.8919
14696TIP3    H265504   5.800   6.109   4.724 -0.4950 -0.1120  0.9610
14697TIP3   OH265505   4.322   4.423  10.525 -0.2737 -0.4898 -0.7580
14697TIP3    H165506   4.331   4.504  10.575 -0.5309 -0.4665 -0.7486
14697TIP3    H265507   4.374   4.359  10.572 -0.1252 -0.3462 -0.7276
14698TIP3   OH265508   0.537   5.338  15.623 -0.1707 -0.4481 -0.0767
14698TIP3    H165509   0.534   5.369  15.713 -0.5301 -0.6987  0.0028
14698TIP3    H265510   0.597   5.263  15.624 -0.2386 -0.5024 -0.0276
14699TIP3   OH265511   2.320   6.702   3.127  0.4697 -0.0245 -0.2639
14699TIP3    H165512   2.319   6.779   3.071 -0.4575  0.4055  0.3371
14699TIP3    H265513   2.237   6.704   3.174  1.1960 -0.3926  1.1057
14700TIP3   OH265514   4.371   1.801   4.094  0.1787 -0.2774  0.0990
14700TIP3    H165515   4.414   1.865   4.150 -1.5125  1.2229 -0.2303
14700TIP3    H265516   4.336   1.736   4.155  1.1390 -0.4253  0.5108
14701TIP3   OH265517   2.562   1.741   1.517  0.1655 -0.3096 -0.8664
14701TIP3    H165518   2.645   1.712   1.480  0.4002 -0.6927 -0.0751
14701TIP3    H265519   2.563   1.708   1.607 -0.4144  0.5210 -0.5396
14702TIP3   OH265520   0.497   5.644  15.972 -0.1739 -0.1963  0.0594
14702TIP3    H165521   0.402   5.636  15.968 -0.0168 -1.9379 -1.2304
14702TIP3    H265522   0.514   5.675  16.061 -1.9141 -0.4604  0.5274
14703TIP3   OH265523   4.126   4.203   3.757  0.3845  0.7099 -0.2131
14703TIP3    H165524   4.165   4.121   3.726 -1.6088 -0.2362 -0.3676
14703TIP3    H265525   4.129   4.262   3.682  1.0958  0.5003 -0.3508
14704TIP3   OH265526   0.608   4.581  17.193  0.1441 -0.0884  0.1637
14704TIP3    H165527   0.688   4.530  17.203 -0.2843 -1.2177 -1.6244
14704TIP3    H265528   0.635   4.662  17.150  0.1969 -1.0856 -1.7835
14705TIP3   OH265529   4.897   2.693   0.167 -0.1005  0.3597  0.8309
14705TIP3    H165530   4.810   2.726   0.188  0.2268  1.7924  0.1068
14705TIP3    H265531   4.884   2.600   0.148 -0.8319 -0.3852  4.3804
14706TIP3   OH265532   5.960   3.983  12.936  0.0835 -0.6907  0.0754
14706TIP3    H165533   5.889   3.958  12.876  2.3534 -0.9179 -2.7151
14706TIP3    H265534   5.945   4.076  12.953 -1.8784 -1.1297  1.1263
14707TIP3   OH265535   4.640   6.191  13.563  0.5836  0.3062 -0.1255
14707TIP3    H165536   4.685   6.115  13.527 -2.8314 -2.7217  1.4892
14707TIP3    H265537   4.669   6.196  13.654 -0.1580  0.1162  0.1252
14708TIP3   OH265538   0.520   3.085   6.619  0.1021 -0.0649  0.3818
14708TIP3    H165539   0.524   3.179   6.636  0.7231 -0.4111  2.3208
14708TIP3    H265540   0.611   3.060   6.607  0.1951 -0.7999  2.3162
14709TIP3   OH265541   3.419   3.095   4.802  0.8393  0.6486 -0.0268
14709TIP3    H165542   3.351   3.074   4.739 -0.7664  0.5870  1.6498
14709TIP3    H265543   3.428   3.190   4.798  1.1214  0.6000 -0.6840
14710TIP3   OH265544   6.700   1.117   4.050 -0.0788 -0.8055  0.3865
14710TIP3    H165545   6.633   1.175   4.085 -1.6180 -1.2667 -1.6047
14710TIP3    H265546   6.664   1.087   3.966  2.2954 -1.6951 -0.3895
14711TIP3   OH265547   5.355   5.238   4.651 -0.1600  0.0128  0.5138
14711TIP3    H165548   5.378   5.184   4.726 -0.3115 -0.1786  0.4246
14711TIP3    H265549   5.274   5.199   4.617  0.2696 -0.3220 -0.1536
14712TIP3   OH265550   2.695   4.330  15.695  0.4998 -0.1404  0.2104
14712TIP3    H165551   2.755   4.382  15.641 -0.2461  0.7405  0.2224
14712TIP3    H265552   2.705   4.241  15.661  1.5877  0.0403  0.0121
14713TIP3   OH265553   4.817   4.829   3.961 -0.3956  0.0119 -0.2523
14713TIP3    H165554   4.885   4.875   3.913 -0.4377 -0.6972 -1.0086
14713TIP3    H265555   4.748   4.894   3.973  0.1636  0.5687  0.0193
14714TIP3   OH265556   4.717   3.821  15.967 -0.1133  0.3250 -0.2944
14714TIP3    H165557   4.748   3.904  16.003 -1.1654  1.0106 -0.9079
14714TIP3    H265558   4.728   3.758  16.038 -0.1990  1.2005  0.5100
14715TIP3   OH265559   4.249   4.160  12.395  0.3236 -0.3469  0.4270
14715TIP3    H165560   4.198   4.218  12.337  1.7186  0.8721  0.3584
14715TIP3    H265561   4.340   4.178  12.372  0.8229 -2.1251  0.8755
14716TIP3   OH265562   2.819   3.797  10.990 -0.1246  0.4037 -0.2766
14716TIP3    H165563   2.842   3.888  11.009 -0.6386  0.3210  0.7895
14716TIP3    H265564   2.902   3.756  10.965 -0.0594  1.4128 -1.8901
14717TIP3   OH265565   6.645   2.662   6.595  0.1347  0.0288  0.0063
14717TIP3    H165566   6.557   2.630   6.615 -0.4318  0.9493 -0.9279
14717TIP3    H265567   6.689   2.667   6.680 -0.0205 -2.3336  0.3034
14718TIP3   OH265568   4.116   6.065   4.380 -0.0719  0.2235 -0.2513
14718TIP3    H165569   4.107   6.075   4.474  0.8714  1.7075 -0.2927
14718TIP3    H265570   4.034   6.099   4.344 -0.3698 -0.2037  0.0173
14719TIP3   OH265571   2.039   2.127  16.768 -0.1929 -0.6050 -0.4714
14719TIP3    H165572   2.128   2.163  16.761  0.1410 -1.3753 -0.3342
14719TIP3    H265573   2.000   2.145  16.682  0.2281 -0.5905 -0.6655
14720TIP3   OH265574   2.812   1.350  15.719  0.4663  0.1725 -0.5275
14720TIP3    H165575   2.903   1.362  15.745  0.4068 -0.7037  0.1087
14720TIP3    H265576   2.765   1.332  15.800 -1.1119  4.8036 -0.1229
14721TIP3   OH265577   3.458   2.328   0.521  0.2471 -0.3857 -0.0205
14721TIP3    H165578   3.540   2.279   0.518  1.2023  1.1682 -0.7347
14721TIP3    H265579   3.466   2.384   0.598 -0.5976 -0.9314  0.4834
14722TIP3   OH265580   0.412   4.026  14.430  0.4186  0.2109 -0.1043
14722TIP3    H165581   0.368   4.111  14.434  1.2629  0.6765 -0.4989
14722TIP3    H265582   0.350   3.965  14.470 -1.4322  0.4798 -2.3712
14723TIP3   OH265583   6.640   6.425   5.913 -0.3546  0.2887 -0.1638
14723TIP3    H165584   6.600   6.380   5.987  0.1737 -0.1664 -0.1473
14723TIP3    H265585   6.637   6.361   5.842 -0.4261  0.5511 -0.3989
14724TIP3   OH265586   1.115   2.501  14.581 -0.4856 -0.2278  0.4226
14724TIP3    H165587   1.120   2.596  14.575 -0.5629 -0.1541  1.3440
14724TIP3    H265588   1.056   2.485  14.655 -2.1616 -1.0123 -1.0241
14725TIP3   OH265589   2.862   5.161   1.912  0.0497  0.5483 -0.1618
14725TIP3    H165590   2.815   5.236   1.876 -0.6330  0.7378  1.1055
14725TIP3    H265591   2.818   5.085   1.874 -1.1857  0.7258  0.8605
14726TIP3   OH265592   4.407   4.281   3.531 -0.3171  0.0360 -0.4739
14726TIP3    H165593   4.420   4.236   3.614 -0.1577  0.3623 -0.3219
14726TIP3    H265594   4.386   4.371   3.555 -1.9973 -0.2564 -0.7263
14727TIP3   OH265595   1.511   0.597   3.148  0.6350 -0.1098  0.3377
14727TIP3    H165596   1.457   0.534   3.101 -1.1713  0.6396  1.3249
14727TIP3    H265597   1.504   0.678   3.097  1.1942 -0.1198  0.2384
14728TIP3   OH265598   0.119   2.040  11.854 -0.2382  0.1219 -0.3539
14728TIP3    H165599   0.090   2.131  11.856  0.7885  0.6083 -2.9990
14728TIP3    H265600   0.178   2.031  11.929 -0.3748  1.6208 -0.0422
14729TIP3   OH265601   3.742   4.653  13.979 -0.1301 -0.2838 -0.2090
14729TIP3    H165602   3.812   4.708  14.013 -0.6225  0.5751 -0.5657
14729TIP3    H265603   3.662   4.688  14.019 -0.2130 -2.6176  1.9969
14730TIP3   OH265604   2.692   1.309  13.657  0.0315  0.4702  0.1075
14730TIP3    H165605   2.734   1.385  13.617  0.2858 -0.5025 -1.5187
14730TIP3    H265606   2.609   1.300  13.611 -0.7696  0.7436  1.4473
14731TIP3   OH265607   5.850   4.278  14.891 -0.2822  0.2079  0.0711
14731TIP3    H165608   5.862   4.271  14.797  1.7921 -0.6618  0.3401
14731TIP3    H265609   5.910   4.212  14.928  2.4473  3.4943  2.1462
14732TIP3   OH265610   5.327   1.674  13.182 -0.5764  0.0764 -0.3090
14732TIP3    H165611   5.286   1.599  13.138 -0.5699 -0.9461  1.3325
14732TIP3    H265612   5.420   1.667  13.159  0.2635 -2.9944  3.0229
14733TIP3   OH265613   6.035   6.311  10.861 -0.1853  0.3793 -0.4120
14733TIP3    H165614   6.069   6.226  10.833  0.9284  1.0130 -1.1014
14733TIP3    H265615   5.950   6.292  10.900  0.2499 -1.0948 -0.1319
14734TIP3   OH265616   0.454   3.545  11.475  0.2348 -0.5063 -0.3118
14734TIP3    H165617   0.473   3.639  11.475  0.0714 -0.3863  2.4485
14734TIP3    H265618   0.529   3.506  11.430  0.9715  0.8599 -0.3509
14735TIP3   OH265619   0.471   5.182   2.715 -0.1211 -0.3234  0.6468
14735TIP3    H165620   0.447   5.229   2.634 -0.3539  0.2890  1.0642
14735TIP3    H265621   0.564   5.161   2.703  0.1025  0.6191  0.6204
14736TIP3   OH265622   6.790   6.526  13.483  0.2585 -0.4683  0.2519
14736TIP3    H165623   6.777   6.619  13.466 -1.1700 -1.0607 -2.4485
14736TIP3    H265624   6.874   6.521  13.529  0.8493  2.0501 -0.4092
14737TIP3   OH265625   4.945   5.935   2.972 -0.5254  0.6469 -0.1350
14737TIP3    H165626   4.900   5.929   3.056 -0.4945  1.6868 -0.0346
14737TIP3    H265627   4.878   5.968   2.911 -0.8430 -1.0767 -0.7692
14738TIP3   OH265628   6.523   1.635   2.838  0.2667 -0.0637 -0.2038
14738TIP3    H165629   6.600   1.651   2.893  0.2805  0.4360 -0.3595
14738TIP3    H265630   6.509   1.718   2.792 -0.4378 -0.1092 -0.0864
14739TIP3   OH265631   3.664   0.733   0.456 -0.7372 -0.8227 -0.7062
14739TIP3    H165632   3.664   0.767   0.546 -0.1339  1.1844 -1.4124
14739TIP3    H265633   3.572   0.724   0.434 -0.8991 -2.0445  0.3318
14740TIP3   OH265634   5.580   2.520   1.280 -0.2015  0.3456  0.2593
14740TIP3    H165635   5.592   2.614   1.291 -1.8923  0.9012 -1.9709
14740TIP3    H265636   5.502   2.499   1.333  1.1002 -0.1905  2.0689
14741TIP3   OH265637   0.326   0.297  13.558 -0.4536 -0.2041  0.0396
14741TIP3    H165638   0.315   0.202  13.566  1.2400 -0.3787  0.6990
14741TIP3    H265639   0.346   0.326  13.647  0.2175  0.6041 -0.3704
14742TIP3   OH265640   0.088   0.006  14.966  0.1947  0.4852  0.1990
14742TIP3    H165641   0.152  -0.025  15.029 -0.0209  1.5511  0.9770
14742TIP3    H265642   0.046   0.081  15.009 -0.9426  0.3709 -0.6464
14743TIP3   OH265643   3.404   5.044  16.914  0.2739 -0.0525  0.6420
14743TIP3    H165644   3.328   5.100  16.924 -0.4756 -0.6307 -1.3064
14743TIP3    H265645   3.373   4.971  16.860  1.7512 -1.2525  1.3293
14744TIP3   OH265646   0.874   4.446  16.109 -0.2934 -0.3407 -0.5723
14744TIP3    H165647   0.870   4.359  16.149  0.9378 -0.1430  0.0286
14744TIP3    H265648   0.951   4.443  16.052  0.0918  0.5133 -0.1141
14745TIP3   OH265649   0.305   2.531  16.695  0.5045 -0.6888  0.5303
14745TIP3    H165650   0.339   2.449  16.658 -0.1361 -1.0120  0.6443
14745TIP3    H265651   0.366   2.551  16.767 -0.5302 -2.2565  1.9361
14746TIP3   OH265652   1.535   0.968   0.755  0.4722  0.4998 -0.0378
14746TIP3    H165653   1.566   0.999   0.670  0.6927  2.5808  0.7662
14746TIP3    H265654   1.607   0.916   0.790  0.8513  0.6466 -0.5992
14747TIP3   OH265655   3.767   1.896   2.790 -0.2719 -0.4222 -0.2029
14747TIP3    H165656   3.813   1.812   2.785 -2.0065 -1.4758  0.5875
14747TIP3    H265657   3.817   1.954   2.733  1.5814 -1.6861  0.0270
14748TIP3   OH265658   2.032   5.600  12.374 -0.3026  0.1186  0.0887
14748TIP3    H165659   2.075   5.544  12.310 -0.6753 -0.8896  0.7085
14748TIP3    H265660   1.945   5.616  12.337 -0.0410  0.6877 -0.3059
14749TIP3   OH265661   4.254   0.528  15.170 -0.0827 -0.1021  0.3881
14749TIP3    H165662   4.261   0.564  15.259 -0.2349 -0.1960  0.4388
14749TIP3    H265663   4.327   0.465  15.164  0.2371  0.2781  0.2679
14750TIP3   OH265664   2.153   2.112  14.698  0.1075  0.6500  0.0284
14750TIP3    H165665   2.234   2.067  14.670  0.0298  0.7737 -0.4105
14750TIP3    H265666   2.113   2.052  14.760  0.5616  0.6064  0.2839
14751TIP3   OH265667   1.883   3.797  15.061  0.3804 -0.0941 -0.2452
14751TIP3    H165668   1.897   3.888  15.036  0.0998  0.2449  0.8045
14751TIP3    H265669   1.962   3.752  15.030  1.0010  0.6890  0.1436
14752TIP3   OH265670   1.824   2.080  12.358  0.2176  0.0584  0.1541
14752TIP3    H165671   1.856   1.992  12.376 -0.0842  0.1042  0.9381
14752TIP3    H265672   1.731   2.078  12.380  0.3826  0.7845  0.9718
14753TIP3   OH265673   6.655   1.586   2.561  0.1954 -0.2120 -0.5766
14753TIP3    H165674   6.728   1.647   2.574 -0.7651  1.0378 -0.8360
14753TIP3    H265675   6.593   1.608   2.630 -0.0365 -1.1068 -0.4956
14754TIP3   OH265676   3.159   5.319   2.627  0.2535 -0.1427 -0.0237
14754TIP3    H165677   3.076   5.292   2.588 -1.0397  0.2461  2.2724
14754TIP3    H265678   3.163   5.271   2.710  1.7676  0.7198  0.4380
14755TIP3   OH265679   6.630   2.755  13.215 -0.4369 -0.4900 -0.1828
14755TIP3    H165680   6.547   2.709  13.220 -1.1833  0.9003  1.4696
14755TIP3    H265681   6.611   2.843  13.249  1.0975  0.7815 -2.3535
14756TIP3   OH265682   5.673   5.779  14.912  0.5331 -0.2092  0.6304
14756TIP3    H165683   5.683   5.869  14.945  0.2539  0.0899 -0.0821
14756TIP3    H265684   5.737   5.772  14.842 -1.0446  0.2339 -0.9251
14757TIP3   OH265685   3.678   3.699   2.254 -0.0247 -0.4912 -0.1127
14757TIP3    H165686   3.694   3.648   2.334 -0.7953 -0.8977 -0.1985
14757TIP3    H265687   3.636   3.636   2.195  2.3909 -0.8044 -1.6354
14758TIP3   OH265688   5.184   5.913   2.092 -0.0006 -0.2544 -0.2182
14758TIP3    H165689   5.201   5.978   2.024 -0.5537 -0.7120 -0.8198
14758TIP3    H265690   5.089   5.915   2.103  0.0839 -0.2110  0.5228
14759TIP3   OH265691   4.990   3.271  16.862  0.1815 -0.0329 -0.2618
14759TIP3    H165692   5.029   3.228  16.938  1.1433 -0.9593 -1.2451
14759TIP3    H265693   5.016   3.216  16.788 -0.6030  0.9370 -1.2790
14760TIP3   OH265694   2.429   5.029  14.414 -0.1448  0.4334  0.8628
14760TIP3    H165695   2.384   5.042  14.497  0.7761  1.4860  1.2192
14760TIP3    H265696   2.375   5.073  14.349  0.0915  1.2371  1.2068
14761TIP3   OH265697   4.211   2.950   0.879  0.3399  0.0145  1.2312
14761TIP3    H165698   4.288   2.893   0.873  1.0156  0.8761  1.5143
14761TIP3    H265699   4.154   2.907   0.942  1.2015  0.0456  2.0583
14762TIP3   OH265700   5.980   0.897  16.468 -0.4831  0.0830 -0.0983
14762TIP3    H165701   6.035   0.923  16.542 -0.0905  1.2640 -0.7620
14762TIP3    H265702   5.902   0.859  16.507  0.2378 -0.4036  0.8901
14763TIP3   OH265703   1.567   5.105   0.702  0.0957  0.2124  0.0057
14763TIP3    H165704   1.547   5.082   0.793 -1.8206 -1.8411 -0.8551
14763TIP3    H265705   1.482   5.107   0.659  1.0268  0.5411 -1.8849
14764TIP3   OH265706   1.837   2.930   5.668 -0.2361 -0.0252 -0.0893
14764TIP3    H165707   1.824   2.840   5.638  1.1717 -1.1380  2.4014
14764TIP3    H265708   1.826   2.983   5.588  1.2681 -2.5743 -2.1678
14765TIP3   OH265709   6.506   5.696   1.447 -0.6247 -0.1351 -0.7427
14765TIP3    H165710   6.478   5.668   1.534  2.1638  0.7577  0.5814
14765TIP3    H265711   6.526   5.614   1.401  1.2655 -0.6327  0.7930
14766TIP3   OH265712   0.590   2.586  11.620 -0.3284 -0.1299 -0.5602
14766TIP3    H165713   0.591   2.490  11.621  1.9559 -0.1571 -0.8068
14766TIP3    H265714   0.511   2.609  11.572 -0.8003 -1.8949 -0.6768
14767TIP3   OH265715   6.404   2.155  15.085  0.1325 -0.0094  0.1679
14767TIP3    H165716   6.368   2.243  15.084 -0.7730 -0.3742 -0.6550
14767TIP3    H265717   6.362   2.112  15.160  0.6387  0.2703  0.6213
14768TIP3   OH265718   3.406   3.064  13.021 -0.0821 -0.3342  0.2976
14768TIP3    H165719   3.319   3.100  13.002 -0.2093 -0.5425  0.4912
14768TIP3    H265720   3.390   2.993  13.083  0.0226 -1.5973 -1.0718
14769TIP3   OH265721   5.842   3.565   5.993  0.6390 -0.0877  0.4477
14769TIP3    H165722   5.913   3.521   6.040  1.1417  0.5900  0.3283
14769TIP3    H265723   5.833   3.650   6.035 -1.5639 -0.9144  1.8895
14770TIP3   OH265724   2.344   5.270   1.068 -0.5750 -0.6225  0.3063
14770TIP3    H165725   2.413   5.218   1.029  1.3178  0.8037  1.5731
14770TIP3    H265726   2.332   5.344   1.009 -0.1945 -0.2734  0.6637
14771TIP3   OH265727   2.911   2.078   1.265 -0.2492  0.9228 -0.5490
14771TIP3    H165728   2.888   1.986   1.248 -0.7583  0.5302  1.8466
14771TIP3    H265729   2.852   2.128   1.209  0.2625 -0.1862 -2.1523
14772TIP3   OH265730   6.269   0.726  12.901 -0.1358  0.4342 -0.2469
14772TIP3    H165731   6.302   0.656  12.957 -0.2055 -0.6638 -1.5360
14772TIP3    H265732   6.200   0.768  12.952 -0.9366 -1.2315  0.0820
14773TIP3   OH265733   6.586   4.463  14.232  0.6585  0.1316  0.1816
14773TIP3    H165734   6.582   4.402  14.305 -0.7527 -0.2059 -0.1600
14773TIP3    H265735   6.523   4.531  14.253  0.0216 -0.1193 -0.8329
14774TIP3   OH265736   5.542   2.129  16.599 -0.3585  0.3165 -0.6738
14774TIP3    H165737   5.489   2.144  16.521 -1.1850  0.1723 -0.1461
14774TIP3    H265738   5.598   2.207  16.605 -1.4209  1.0940 -0.5074
14775TIP3   OH265739   0.216   4.898  12.985 -0.3064 -0.6215  0.2811
14775TIP3    H165740   0.124   4.876  12.970 -0.0068 -1.5334 -0.3013
14775TIP3    H265741   0.264   4.829  12.940  0.6691 -0.8386  1.6147
14776TIP3   OH265742   5.668   1.440   5.061  0.1316 -0.1901  0.3201
14776TIP3    H165743   5.745   1.442   5.004  0.8270 -1.4386  1.1911
14776TIP3    H265744   5.613   1.370   5.026  0.7869 -1.2986  1.4136
14777TIP3   OH265745   0.663   3.540   3.008 -0.5665 -0.7220 -0.0935
14777TIP3    H165746   0.729   3.607   2.987 -0.7610 -0.4080  0.2823
14777TIP3    H265747   0.588   3.562   2.953 -1.0719  0.0938  0.8933
14778TIP3   OH265748   6.581   1.570   1.908  0.2797  0.0481  0.4026
14778TIP3    H165749   6.564   1.664   1.905 -1.1328 -0.1846  0.5325
14778TIP3    H265750   6.524   1.537   1.977  1.0202 -0.8663  0.5995
14779TIP3   OH265751   3.630   4.233  16.405 -0.7950 -0.1792 -0.5653
14779TIP3    H165752   3.662   4.234  16.315 -2.0231  0.5746 -1.0051
14779TIP3    H265753   3.571   4.308  16.411  0.7360  1.0093  1.4226
14780TIP3   OH265754   0.387   2.064   2.129 -0.2889  0.5594  0.1194
14780TIP3    H165755   0.379   2.155   2.158  1.0030  0.9289 -0.5931
14780TIP3    H265756   0.443   2.069   2.051  0.8798 -0.9795  0.8213
14781TIP3   OH265757   6.300   1.462   2.856  0.0499 -0.1292 -0.6263
14781TIP3    H165758   6.329   1.385   2.905  0.2604  1.4249  1.8709
14781TIP3    H265759   6.381   1.502   2.824  0.4373  1.4048  1.9542
14782TIP3   OH265760   0.680   0.765   2.378  0.4794 -0.1258 -0.1296
14782TIP3    H165761   0.774   0.756   2.364  0.4662  1.3073 -1.5106
14782TIP3    H265762   0.662   0.857   2.357 -1.7318 -1.1109 -3.4599
14783TIP3   OH265763   1.784   5.483  16.335 -0.2586  0.1760 -0.5687
14783TIP3    H165764   1.774   5.430  16.256  1.5374 -1.2296  0.0498
14783TIP3    H265765   1.861   5.538  16.317 -0.0401  0.0847  0.0621
14784TIP3   OH265766   3.401   1.946  14.963 -0.1368 -0.3656 -0.2054
14784TIP3    H165767   3.349   1.882  15.011  1.5896 -1.0980  0.8046
14784TIP3    H265768   3.479   1.898  14.935  1.1209  1.1974  0.4117
14785TIP3   OH265769   3.908   2.048   5.186 -0.1289 -0.5267 -0.3446
14785TIP3    H165770   3.817   2.018   5.180 -0.4026 -0.3818  1.9948
14785TIP3    H265771   3.939   2.050   5.096 -1.5169 -3.4179 -0.9903
14786TIP3   OH265772   6.588   3.956  15.796  0.6214 -0.3083 -0.2168
14786TIP3    H165773   6.630   3.968  15.881 -0.2896 -0.4972  0.2662
14786TIP3    H265774   6.601   4.039  15.751  2.8874 -0.8551 -0.7184
14787TIP3   OH265775   4.058   0.306   1.640 -0.2723  0.3329  0.3488
14787TIP3    H165776   4.082   0.394   1.612 -1.0915  0.7518  0.9109
14787TIP3    H265777   3.962   0.305   1.636 -0.4633  0.4133  2.9868
14788TIP3   OH265778   4.655   2.014   4.044  0.0493 -0.4724 -0.2769
14788TIP3    H165779   4.603   2.024   3.964 -0.4919  0.1368  0.1463
14788TIP3    H265780   4.727   2.075   4.033 -0.0512 -0.3535 -0.2774
14789TIP3   OH265781   0.965   6.243   5.573  0.4452  0.1201 -0.7928
14789TIP3    H165782   1.007   6.163   5.540 -0.6201  0.0227 -1.9997
14789TIP3    H265783   0.877   6.215   5.598  0.7550  0.5053  0.8290
14790TIP3   OH265784   4.252   4.547   4.850 -0.0006 -0.1705 -0.7456
14790TIP3    H165785   4.296   4.601   4.916 -3.5423  2.5992 -0.3122
14790TIP3    H265786   4.281   4.458   4.869  2.6193  1.0023  1.5708
14791TIP3   OH265787   2.603   1.277  15.547 -0.0522  0.1979  0.0232
14791TIP3    H165788   2.618   1.192  15.504  0.5678  0.4558 -0.2864
14791TIP3    H265789   2.676   1.286  15.608 -0.6777  0.0497  0.8199
14792TIP3   OH265790   2.530   3.156   4.046 -0.0814  0.4725  0.2967
14792TIP3    H165791   2.593   3.148   4.117 -1.5458 -1.7083  1.4421
14792TIP3    H265792   2.583   3.147   3.966  1.4366  1.8987  1.1004
14793TIP3   OH265793   2.362   4.391   0.929 -0.0024  0.5355  0.1075
14793TIP3    H165794   2.337   4.456   0.995  0.7298  2.9575 -1.8604
14793TIP3    H265795   2.299   4.404   0.858 -0.9157 -2.1749  0.3017
14794TIP3   OH265796   0.340   1.391   0.666 -0.5275 -1.1350 -0.0705
14794TIP3    H165797   0.300   1.357   0.586 -0.8896  0.1503 -0.4645
14794TIP3    H265798   0.420   1.339   0.677 -0.0145 -0.7569 -1.7602
14795TIP3   OH265799   5.185   4.357   4.788 -0.4602  0.2629  0.1649
14795TIP3    H165800   5.205   4.276   4.835 -0.6618 -0.4306 -0.9103
14795TIP3    H265801   5.254   4.418   4.813 -0.6299 -0.0421  1.4440
14796TIP3   OH265802   4.993   6.407   0.168 -0.2340  0.0669  0.1278
14796TIP3    H165803   4.972   6.475   0.103 -0.6826  0.0710  0.2743
14796TIP3    H265804   5.047   6.344   0.119  1.0212  1.0122  0.2446
14797TIP3   OH265805   1.316   5.791  12.421  0.3369  0.1577  0.3120
14797TIP3    H165806   1.375   5.730  12.377 -1.1589 -1.7995  0.8984
14797TIP3    H265807   1.266   5.832  12.350 -0.1392 -0.9233  0.0003
14798TIP3   OH265808   5.056   5.541   4.465  0.5956  0.4234  0.5337
14798TIP3    H165809   5.047   5.552   4.560 -0.1849  0.7505  0.4307
14798TIP3    H265810   5.055   5.630   4.431 -2.0021  0.2573 -0.0064
14799TIP3   OH265811   0.265   5.204   4.321  0.4109 -0.3866  0.7714
14799TIP3    H165812   0.339   5.240   4.370 -0.9923  0.9130  2.0398
14799TIP3    H265813   0.294   5.204   4.230  1.2070  2.2413  0.9384
14800TIP3   OH265814   3.103   5.895   5.643  0.2584  0.2603 -0.1306
14800TIP3    H165815   3.139   5.884   5.555 -1.3322 -1.3440 -0.6483
14800TIP3    H265816   3.019   5.850   5.640 -0.6341  1.6654  1.7392
14801TIP3   OH265817   6.318   1.794  14.546  0.3667 -0.0500 -0.1528
14801TIP3    H165818   6.403   1.826  14.574  0.6759 -0.9252 -0.0825
14801TIP3    H265819   6.280   1.754  14.624 -0.4894  1.0930  0.0480
14802TIP3   OH265820   4.799   4.260   5.178 -0.1307  0.6704  0.3911
14802TIP3    H165821   4.734   4.217   5.234  0.3672 -0.8018 -0.0967
14802TIP3    H265822   4.784   4.353   5.191 -3.3895  0.4473 -0.9162
14803TIP3   OH265823   1.673   1.227  16.863 -0.4477 -0.4122  0.4648
14803TIP3    H165824   1.580   1.239  16.843 -0.0369  1.2628 -0.7331
14803TIP3    H265825   1.696   1.144  16.821 -1.0831 -0.0829 -0.5766
14804TIP3   OH265826   1.282   2.556  16.186  0.5930  0.4446 -0.0800
14804TIP3    H165827   1.206   2.498  16.180  2.0399 -1.5228 -0.4924
14804TIP3    H265828   1.260   2.630  16.130 -0.5905 -0.5852 -1.0390
14805TIP3   OH265829   6.257   1.180  15.929  0.5657 -0.1262 -0.8145
14805TIP3    H165830   6.314   1.152  15.857  0.9200  0.3190 -0.7109
14805TIP3    H265831   6.169   1.154  15.902  0.9142 -1.6281 -0.5863
14806TIP3   OH265832   1.618   0.717  11.132 -0.2563  0.3370 -0.0019
14806TIP3    H165833   1.556   0.667  11.079  0.8861 -0.6967 -0.4208
14806TIP3    H265834   1.583   0.806  11.134 -2.4589 -0.4731  0.8966
14807TIP3   OH265835   6.737   3.118  10.945  0.1283  0.0234  0.2283
14807TIP3    H165836   6.801   3.057  10.908  1.1805  0.8471  0.6310
14807TIP3    H265837   6.666   3.120  10.881  0.3427 -1.1752 -0.0671
14808TIP3   OH265838   2.570   4.284  17.121  0.8763  0.1741 -0.2534
14808TIP3    H165839   2.597   4.370  17.154  0.4992  0.6620 -1.1688
14808TIP3    H265840   2.650   4.245  17.087  0.5955  1.3963 -2.4850
14809TIP3   OH265841   2.357   6.328   0.796 -0.0154 -0.0406 -0.4834
14809TIP3    H165842   2.430   6.276   0.762  1.0478  1.7272 -1.0525
14809TIP3    H265843   2.308   6.354   0.717 -0.0221  0.5086 -0.3072
14810TIP3   OH265844   6.682   2.998  13.495  0.3035 -0.3867  0.0212
14810TIP3    H165845   6.669   3.089  13.470  1.1629  0.0562  1.0875
14810TIP3    H265846   6.606   2.976  13.549 -0.1905 -0.4918 -0.7094
14811TIP3   OH265847   1.371   2.725  15.543 -0.1514  0.3377 -0.0547
14811TIP3    H165848   1.383   2.768  15.458  2.1700  1.8309  0.9244
14811TIP3    H265849   1.402   2.636  15.530  2.2608  1.1428 -0.3426
14812TIP3   OH265850   0.909   2.912  14.356 -0.4634 -0.7919 -0.0903
14812TIP3    H165851   0.942   2.995  14.323 -1.4022 -0.4731 -0.2421
14812TIP3    H265852   0.822   2.903  14.318 -0.8396 -1.2878  0.8403
14813TIP3   OH265853   3.553   0.058   5.579  0.0945  0.0801 -0.2257
14813TIP3    H165854   3.460   0.071   5.597  0.0996 -0.0659 -0.0882
14813TIP3    H265855   3.580   0.138   5.535 -0.2472 -0.1429 -0.8578
14814TIP3   OH265856   2.084   1.160   4.432  0.0232 -0.0219 -0.6870
14814TIP3    H165857   2.129   1.239   4.403 -1.3094  0.9665 -0.1469
14814TIP3    H265858   2.040   1.127   4.354 -0.5017  0.5232 -0.6263
14815TIP3   OH265859   3.114   2.164   2.938  0.4980 -0.4382 -0.0978
14815TIP3    H165860   3.127   2.072   2.961  2.0545 -0.8831 -2.3116
14815TIP3    H265861   3.203   2.201   2.936 -0.0197  0.8683 -0.1627
14816TIP3   OH265862   1.793   6.556   4.896  0.1722  0.2329 -0.4512
14816TIP3    H165863   1.882   6.590   4.902 -0.5566  2.1451  0.1993
14816TIP3    H265864   1.791   6.507   4.814  1.1721  2.2758 -1.7874
14817TIP3   OH265865   3.620   0.406   1.859 -0.2162 -0.7528 -0.0819
14817TIP3    H165866   3.602   0.489   1.815 -1.2860 -1.4111 -0.9354
14817TIP3    H265867   3.686   0.364   1.804  1.3929  0.0698  1.0885
14818TIP3   OH265868   0.278   0.065   2.482  0.1687 -0.4117  0.1181
14818TIP3    H165869   0.320   0.145   2.511 -0.0956 -0.6155  1.0718
14818TIP3    H265870   0.209   0.094   2.422 -0.1377  0.0863  0.7140
14819TIP3   OH265871   4.191   5.846   0.102  0.1035  0.0086  0.3958
14819TIP3    H165872   4.134   5.772   0.122 -0.5909  0.4616  0.1562
14819TIP3    H265873   4.258   5.845   0.170 -0.4147 -0.3148  0.9049
14820TIP3   OH265874   6.172   3.242   2.802  0.0262  1.0523 -0.4392
14820TIP3    H165875   6.202   3.331   2.782 -2.3340  1.6326 -1.8194
14820TIP3    H265876   6.122   3.216   2.725 -0.3372 -1.0112  0.4388
14821TIP3   OH265877   3.640   5.150  13.146 -1.0291 -0.1033  0.2407
14821TIP3    H165878   3.722   5.156  13.097 -1.5710  1.3902 -0.5574
14821TIP3    H265879   3.599   5.069  13.115 -1.7691  1.2036 -2.5427
14822TIP3   OH265880   2.625   5.139  12.393 -0.5202  0.3598 -0.0373
14822TIP3    H165881   2.695   5.199  12.366  0.6659 -1.2432 -0.6304
14822TIP3    H265882   2.582   5.115  12.312 -1.3003  0.7410  0.2534
14823TIP3   OH265883   3.520   6.184  15.141  0.3572 -0.4180  0.4273
14823TIP3    H165884   3.511   6.090  15.158  1.4189 -0.5779  0.1544
14823TIP3    H265885   3.450   6.224  15.192  0.2767 -1.3095  1.0345
14824TIP3   OH265886   5.206   0.445   4.903  0.1283  0.7630  0.2902
14824TIP3    H165887   5.141   0.387   4.944 -0.8057  0.4232 -1.5543
14824TIP3    H265888   5.288   0.425   4.947 -0.3492 -1.3482  0.3118
14825TIP3   OH265889   3.374   1.730  14.313 -0.5662  0.5910  0.0580
14825TIP3    H165890   3.359   1.684  14.396  0.1389 -1.3662 -0.8327
14825TIP3    H265891   3.290   1.725  14.268 -1.0464  1.9454  0.7360
14826TIP3   OH265892   4.101   6.302   0.669  1.0106  0.1143  0.6625
14826TIP3    H165893   4.107   6.311   0.764  0.1675 -0.2054  0.7552
14826TIP3    H265894   4.156   6.372   0.634  1.8507 -0.1695  1.3867
14827TIP3   OH265895   3.353   1.473  11.694 -0.2170  0.3301 -0.1807
14827TIP3    H165896   3.373   1.380  11.704 -1.3133  0.0940 -0.0687
14827TIP3    H265897   3.435   1.517  11.715  0.4636 -0.6222 -0.7339
14828TIP3   OH265898   5.072   2.946   3.778  0.7331 -0.6473 -0.5702
14828TIP3    H165899   5.086   2.940   3.684  0.2309  0.8515 -0.7572
14828TIP3    H265900   5.160   2.945   3.816  1.0402  0.6570 -1.1977
14829TIP3   OH265901   3.644   5.286   4.894 -0.4712  0.0364  0.1530
14829TIP3    H165902   3.596   5.260   4.815 -1.0481 -0.8591  0.7672
14829TIP3    H265903   3.723   5.232   4.893  0.3689  1.2479 -0.6695
14830TIP3   OH265904   0.055   0.501  12.168  0.0961 -0.3063  0.4129
14830TIP3    H165905   0.025   0.411  12.154  1.9766 -0.9573  0.2968
14830TIP3    H265906   0.029   0.548  12.089  0.3762 -1.1156 -0.1768
14831TIP3   OH265907   3.671   3.940   0.526 -0.4393  0.2787 -0.3614
14831TIP3    H165908   3.756   3.964   0.490  1.0480 -1.1009  1.9431
14831TIP3    H265909   3.654   3.852   0.492 -0.2790  0.0205  0.2101
14832TIP3   OH265910   1.730   5.765   2.188  0.3669 -0.4140 -0.3128
14832TIP3    H165911   1.817   5.754   2.227  0.0308  1.9365  1.3374
14832TIP3    H265912   1.746   5.814   2.108  0.5668  0.3509  0.1834
14833TIP3   OH265913   1.033   4.187  16.269 -0.2903  0.0021 -0.0055
14833TIP3    H165914   1.116   4.227  16.244 -0.7213  1.1838  0.3870
14833TIP3    H265915   1.019   4.119  16.204  0.8711 -0.0715 -0.2100
14834TIP3   OH265916   3.568   1.486  16.476  0.0144  0.1729 -0.0125
14834TIP3    H165917   3.485   1.521  16.509  0.0612 -1.5330  2.1497
14834TIP3    H265918   3.605   1.558  16.424 -0.6139  2.7959  2.8303
14835TIP3   OH265919   4.817   1.718  16.912 -0.2930 -0.4204  0.1995
14835TIP3    H165920   4.832   1.788  16.848  1.0967 -1.8102 -1.0551
14835TIP3    H265921   4.755   1.757  16.975 -0.8836  1.3470 -1.3704
14836TIP3   OH265922   2.629   6.051  16.573  0.3907  0.0191 -0.4191
14836TIP3    H165923   2.689   6.125  16.584  0.6195 -0.4653  2.1216
14836TIP3    H265924   2.685   5.979  16.542  0.4897  0.3993 -1.1585
14837TIP3   OH265925   0.489   5.315   3.090 -0.6193  0.3550 -0.6494
14837TIP3    H165926   0.443   5.252   3.035 -0.9556 -1.0398  1.1176
14837TIP3    H265927   0.528   5.262   3.160  0.6149  1.9237 -0.0749
14838TIP3   OH265928   3.201   5.109   2.433 -0.9124  0.0460 -0.5309
14838TIP3    H165929   3.202   5.162   2.353  0.8403  0.9459  0.0303
14838TIP3    H265930   3.278   5.139   2.482 -1.5796 -0.9441  1.1933
14839TIP3   OH265931   4.944   5.544   0.451 -0.3148  0.1104 -0.6129
14839TIP3    H165932   5.006   5.603   0.407 -0.1016 -0.7937 -1.5640
14839TIP3    H265933   4.860   5.563   0.410 -0.4479  0.4899 -0.1704
14840TIP3   OH265934   0.086   5.158   3.979  0.0830  0.7437  0.1029
14840TIP3    H165935   0.171   5.182   4.017  0.0009  0.2982  0.5837
14840TIP3    H265936   0.023   5.214   4.023  0.0034  0.3181  0.5423
14841TIP3   OH265937   5.628   4.110   4.378 -0.1929 -0.0766 -0.4248
14841TIP3    H165938   5.581   4.081   4.300 -1.9816 -2.6638  1.4670
14841TIP3    H265939   5.569   4.174   4.419  0.6653  1.1488 -1.0489
14842TIP3   OH265940   4.614   3.310   4.558  0.1516 -0.1232 -0.5302
14842TIP3    H165941   4.675   3.348   4.622 -0.1475 -2.3939  1.2574
14842TIP3    H265942   4.532   3.356   4.573  0.2597 -0.1818  0.2958
14843TIP3   OH265943   4.798   0.518  14.405 -0.0009 -0.3982 -0.2819
14843TIP3    H165944   4.858   0.454  14.367  0.0749 -0.6396  0.2278
14843TIP3    H265945   4.740   0.543  14.333  0.5764 -0.3219 -0.7257
14844TIP3   OH265946   2.297   5.836   0.424  0.3320 -0.5053  0.1248
14844TIP3    H165947   2.241   5.892   0.477  0.3520  0.9829 -1.3287
14844TIP3    H265948   2.342   5.779   0.486 -0.9541 -0.0557  1.5092
14845TIP3   OH265949   3.544   0.641  17.049 -0.0027  0.3872  0.1442
14845TIP3    H165950   3.591   0.718  17.015 -1.3176  1.0234 -0.2797
14845TIP3    H265951   3.599   0.567  17.024  0.1385  1.0116 -1.4963
14846TIP3   OH265952   4.576   1.532  15.289  0.5914  0.4253 -0.7209
14846TIP3    H165953   4.596   1.568  15.376  2.1707  1.5396 -1.5021
14846TIP3    H265954   4.486   1.500  15.297  0.1152  1.9665  0.8597
14847TIP3   OH265955   2.977   5.887  14.498 -0.2461 -0.3008 -0.3335
14847TIP3    H165956   2.931   5.953  14.549 -1.9290 -1.1960 -0.5964
14847TIP3    H265957   3.067   5.889  14.531 -0.7085  0.7932  0.9652
14848TIP3   OH265958   6.557   4.874   5.644  0.2792 -0.2869  0.0929
14848TIP3    H165959   6.533   4.906   5.557 -1.3994 -0.7554  0.3466
14848TIP3    H265960   6.502   4.797   5.657 -0.5275  0.5815  2.1359
14849TIP3   OH265961   2.033   2.353   4.105 -0.3426 -0.1458 -0.4422
14849TIP3    H165962   2.085   2.293   4.050  0.0034 -1.0160  0.7891
14849TIP3    H265963   1.942   2.332   4.083 -0.2037  0.2880 -1.4745
14850TIP3   OH265964   2.167   6.747   2.738 -0.2958 -0.0632  0.2379
14850TIP3    H165965   2.127   6.681   2.795 -1.3965  0.7562  0.4471
14850TIP3    H265966   2.120   6.739   2.655 -1.1626  1.1221  0.5869
14851TIP3   OH265967   4.953   4.507   4.021 -0.1843 -0.2828  0.4825
14851TIP3    H165968   4.985   4.420   4.042  1.6218  0.3470  0.4908
14851TIP3    H265969   4.962   4.557   4.102 -0.4120  0.1410  0.2555
14852TIP3   OH265970   5.518   5.351  13.447 -0.1579  0.3100  0.3935
14852TIP3    H165971   5.512   5.256  13.450 -3.0945  0.4457  1.2395
14852TIP3    H265972   5.603   5.370  13.488  0.9044 -1.9079 -0.5715
14853TIP3   OH265973   0.308   4.354   6.103 -0.4252  0.4047  0.3124
14853TIP3    H165974   0.307   4.432   6.158 -0.4242  0.4842  0.1997
14853TIP3    H265975   0.257   4.290   6.152  1.0085 -0.0838  1.2160
14854TIP3   OH265976   2.604   5.548  14.124  0.2888  0.1768  0.1705
14854TIP3    H165977   2.580   5.583  14.210 -1.5780 -0.2786 -0.1197
14854TIP3    H265978   2.521   5.519  14.086  1.0512  0.5254 -1.8782
14855TIP3   OH265979   6.542   0.628   5.528  0.5769  0.3323 -0.0090
14855TIP3    H165980   6.536   0.647   5.435 -1.7675 -0.3775 -0.0800
14855TIP3    H265981   6.470   0.677   5.568  1.3189  0.3521  1.3782
14856TIP3   OH265982   0.792   1.169   1.901  0.0181  0.0944  0.7346
14856TIP3    H165983   0.857   1.234   1.929  0.2812 -0.5874  1.7593
14856TIP3    H265984   0.844   1.100   1.860 -0.1805  0.1114  0.4535
14857TIP3   OH265985   3.625   6.223   4.698  0.6353 -0.5376 -0.2419
14857TIP3    H165986   3.638   6.191   4.609  0.1741 -1.5668  0.0425
14857TIP3    H265987   3.593   6.147   4.746  0.6418  0.0690  0.7483
14858TIP3   OH265988   4.969   1.890   1.300  0.4155 -0.0200 -0.4959
14858TIP3    H165989   5.055   1.908   1.338  0.6706  0.0024 -1.0671
14858TIP3    H265990   4.985   1.820   1.236 -0.2728 -1.1182  0.4956
14859TIP3   OH265991   0.210   6.333  11.198  0.4843  0.2101  0.2272
14859TIP3    H165992   0.295   6.359  11.234  1.0654 -1.8399  0.4428
14859TIP3    H265993   0.227   6.319  11.105  0.5605 -0.8152  0.3835
14860TIP3   OH265994   3.228   1.662   5.801 -0.4956  0.1342  0.0078
14860TIP3    H165995   3.192   1.573   5.804  0.2980 -0.1927  0.1624
14860TIP3    H265996   3.278   1.671   5.882 -0.4379  0.6658 -0.0831
14861TIP3   OH265997   4.590   0.183   1.854  0.2847  0.2534  0.4748
14861TIP3    H165998   4.520   0.202   1.917 -1.0557  0.7248 -1.0691
14861TIP3    H265999   4.584   0.089   1.839 -0.7362  0.4240 -0.3750
14862TIP3   OH266000   0.736   5.286  14.260 -0.2543 -0.9603 -0.0443
14862TIP3    H166001   0.716   5.371  14.299  0.4362 -1.2867  1.0691
14862TIP3    H266002   0.742   5.304  14.166  0.9019  0.4306  0.2615
14863TIP3   OH266003   4.652   5.429   4.606  0.1773  0.0830  0.5918
14863TIP3    H166004   4.571   5.382   4.625 -0.3135  1.1037  1.1007
14863TIP3    H266005   4.721   5.363   4.613 -0.7779 -1.3586 -2.1816
14864TIP3   OH266006   6.404   4.473   3.013 -0.4749 -0.1324 -0.1632
14864TIP3    H166007   6.355   4.391   3.017  1.7800 -1.5839 -0.3822
14864TIP3    H266008   6.487   4.454   3.058 -0.0108  2.1494  0.0919
14865TIP3   OH266009   1.765   3.797   2.172  0.3303  0.5760  0.6751
14865TIP3    H166010   1.840   3.737   2.165 -0.9859 -1.3236  1.8042
14865TIP3    H266011   1.724   3.793   2.086  0.5940  0.3200  0.5579
14866TIP3   OH266012   0.336   5.466  13.414 -0.2605 -0.2140 -0.2530
14866TIP3    H166013   0.283   5.398  13.455  0.2145 -0.9996 -0.9059
14866TIP3    H266014   0.308   5.468  13.323 -1.3189  1.5334  0.0769
14867TIP3   OH266015   3.095   6.132   4.796  0.1387  0.2537 -0.4354
14867TIP3    H166016   3.150   6.064   4.758 -0.0412 -0.8898  1.2166
14867TIP3    H266017   3.080   6.193   4.725  0.7417 -1.1636 -1.8552
14868TIP3   OH266018   6.469   0.563  16.926 -0.1160 -0.7744  0.4848
14868TIP3    H166019   6.427   0.563  16.840  1.0376 -0.7184 -0.0924
14868TIP3    H266020   6.520   0.644  16.928  1.8128 -1.9113  0.2218
14869TIP3   OH266021   2.085   2.241  15.015 -0.0304 -0.0070  0.0022
14869TIP3    H166022   1.998   2.212  14.987 -0.9146  1.3551  1.2149
14869TIP3    H266023   2.143   2.170  14.988 -1.4724 -0.8625 -1.0203
14870TIP3   OH266024   5.288   3.471   1.990  0.1087  0.1678  0.7332
14870TIP3    H166025   5.313   3.557   2.024  0.0671 -0.0426  1.3197
14870TIP3    H266026   5.193   3.471   1.993  0.1225 -0.1760  1.4759
14871TIP3   OH266027   2.034   0.321  11.866  0.2349 -0.3966 -0.0124
14871TIP3    H166028   2.094   0.393  11.885  0.9871 -1.1266  0.4531
14871TIP3    H266029   2.034   0.268  11.946 -2.6920  0.7094  0.8435
14872TIP3   OH266030   4.484   3.548  10.815  0.4521  0.2660 -0.0911
14872TIP3    H166031   4.505   3.498  10.894 -1.1181  2.1631  1.6319
14872TIP3    H266032   4.528   3.501  10.744 -0.7290 -3.4159  1.3882
14873TIP3   OH266033   1.488   6.283  11.740 -0.5354 -0.3743 -0.7145
14873TIP3    H166034   1.453   6.319  11.658 -2.0029 -0.8874 -0.3440
14873TIP3    H266035   1.425   6.215  11.765 -1.2408  1.0799  1.8567
14874TIP3   OH266036   2.256   2.989  15.759  0.2022 -0.8565  0.3027
14874TIP3    H166037   2.322   3.054  15.782 -0.0016 -1.0753  1.5867
14874TIP3    H266038   2.173   3.037  15.763  0.2104 -0.7599 -0.5734
14875TIP3   OH266039   3.556   2.616  11.359  0.2552 -0.3829  0.0695
14875TIP3    H166040   3.631   2.581  11.408  0.5375  0.8286  0.5555
14875TIP3    H266041   3.596   2.670  11.290 -0.1613 -0.2549 -0.0733
14876TIP3   OH266042   0.802   5.865  12.195  0.7764 -0.6022  0.2706
14876TIP3    H166043   0.742   5.822  12.135 -0.1311  1.6947 -0.6056
14876TIP3    H266044   0.880   5.809  12.197  0.4644 -1.2380 -2.3203
14877TIP3   OH266045   2.240   3.553  14.725 -0.0549 -0.1679  0.7748
14877TIP3    H166046   2.334   3.564  14.710 -0.4712  0.2695 -2.1138
14877TIP3    H266047   2.200   3.628  14.680 -1.8678 -1.3579  0.3129
14878TIP3   OH266048   0.921   5.969   3.523  0.4865 -0.1513  0.1870
14878TIP3    H166049   0.977   6.028   3.472 -1.0352  0.5392 -0.7841
14878TIP3    H266050   0.957   5.882   3.507  0.3742  0.0965 -1.7173
14879TIP3   OH266051   2.937   0.887   0.808  0.3216 -0.9024  0.1648
14879TIP3    H166052   2.907   0.910   0.896 -1.4954 -0.2701 -0.5726
14879TIP3    H266053   2.864   0.840   0.769  0.2284  0.6605 -1.7100
14880TIP3   OH266054   1.587   3.959   3.490  0.0282  0.7875 -0.6044
14880TIP3    H166055   1.503   3.962   3.445 -0.1809 -0.1440 -0.3073
14880TIP3    H266056   1.580   4.023   3.560 -1.3838 -1.0053  0.9740
14881TIP3   OH266057   1.041   1.762  16.367  0.3186  0.5296 -0.3008
14881TIP3    H166058   1.078   1.828  16.307  0.9165 -0.9901 -1.6852
14881TIP3    H266059   1.113   1.741  16.427  1.2178 -1.1039 -1.8550
14882TIP3   OH266060   5.667   1.527   0.818 -0.2043 -0.1200  0.2302
14882TIP3    H166061   5.600   1.499   0.756 -0.2948  0.5626  0.0096
14882TIP3    H266062   5.705   1.446   0.851 -1.0267 -0.5045  0.2349
14883TIP3   OH266063   4.570   5.750   4.335  0.4197  0.2620 -0.2430
14883TIP3    H166064   4.607   5.714   4.415  1.1230  1.2873 -0.0874
14883TIP3    H266065   4.524   5.677   4.295 -1.0826  0.0374  1.7478
14884TIP3   OH266066   2.925   6.367  12.995  0.2520 -0.0801 -0.1950
14884TIP3    H166067   2.924   6.415  13.078 -0.0537  0.4769 -0.5156
14884TIP3    H266068   3.007   6.392  12.953  0.6277 -0.7234  0.1410
14885TIP3   OH266069   1.096   2.967   0.321 -0.7623  0.0376 -0.0430
14885TIP3    H166070   1.177   2.992   0.365 -0.7956 -0.2207  0.1705
14885TIP3    H266071   1.123   2.914   0.247 -0.7338 -0.0479  0.0277
14886TIP3   OH266072   3.375   3.804  11.701 -0.3526  0.3871 -0.2477
14886TIP3    H166073   3.335   3.720  11.679 -0.6765  0.1026  1.2991
14886TIP3    H266074   3.466   3.783  11.721 -0.8586  0.0503  1.9521
14887TIP3   OH266075   0.983   4.879  14.769  0.4056 -0.1570 -0.5076
14887TIP3    H166076   1.005   4.972  14.762  1.8670 -0.5288 -1.4727
14887TIP3    H266077   0.893   4.873  14.740 -1.1435  1.4405  3.3176
14888TIP3   OH266078   0.115   4.643  15.889 -0.2486 -0.8224 -0.1307
14888TIP3    H166079   0.187   4.704  15.904 -0.1936 -0.9641  0.1906
14888TIP3    H266080   0.066   4.642  15.971 -1.6037  0.5394 -0.8807
14889TIP3   OH266081   4.799   1.898   2.730  0.2257  0.1964  0.0290
14889TIP3    H166082   4.739   1.969   2.710  1.4874  0.8946 -1.4893
14889TIP3    H266083   4.806   1.848   2.649  1.1802 -0.2563  0.3676
14890TIP3   OH266084   1.799   0.101  10.984 -0.2934 -0.7113  0.1918
14890TIP3    H166085   1.761   0.180  10.945  1.9819  0.1381 -0.4893
14890TIP3    H266086   1.833   0.051  10.910 -0.8308 -1.8497  0.6952
14891TIP3   OH266087   5.789   0.674  11.826 -1.0324 -0.0017  0.2712
14891TIP3    H166088   5.858   0.719  11.776 -0.5138 -1.5507 -0.4733
14891TIP3    H266089   5.824   0.667  11.915  0.3507 -1.8507 -0.3731
14892TIP3   OH266090   3.413   2.323   1.243  0.3615  0.0195  0.3743
14892TIP3    H166091   3.382   2.233   1.239 -0.8124  0.4312 -0.2887
14892TIP3    H266092   3.336   2.376   1.222  1.5242  1.0872 -1.4558
14893TIP3   OH266093   1.985   5.862  16.691  0.3548  0.0598 -0.0103
14893TIP3    H166094   1.994   5.834  16.600  0.7866 -1.2774  0.4334
14893TIP3    H266095   1.986   5.958  16.686  0.0509  0.0134 -1.4374
14894TIP3   OH266096   0.228   3.934   0.861  0.4030  0.3682 -0.0737
14894TIP3    H166097   0.318   3.913   0.838  0.4333 -1.6275  1.5449
14894TIP3    H266098   0.233   4.017   0.908  1.0385  1.4640 -1.9525
14895TIP3   OH266099   4.569   1.797  12.603  0.7564  0.0359 -0.4807
14895TIP3    H166100   4.483   1.763  12.582  0.5787  0.5710 -0.6393
14895TIP3    H266101   4.592   1.851  12.527  1.0681  0.1948 -0.2732
14896TIP3   OH266102   3.633   0.081  14.053 -0.3352 -0.3356  0.2208
14896TIP3    H166103   3.561   0.118  14.103 -1.1742  1.2217 -2.0402
14896TIP3    H266104   3.700   0.149  14.052  0.3289 -0.9606  0.5024
14897TIP3   OH266105   0.960   0.511  13.583  0.2613 -0.0150 -0.6157
14897TIP3    H166106   0.998   0.556  13.658  0.9197 -0.3474 -0.7440
14897TIP3    H266107   0.865   0.524  13.593  0.2201 -1.2672  1.0748
14898TIP3   OH266108   3.395   4.302  13.524  0.3692  0.4746 -0.4039
14898TIP3    H166109   3.363   4.225  13.477 -0.9117  1.3683 -1.0798
14898TIP3    H266110   3.315   4.347  13.552  1.0530  2.0160 -0.8231
14899TIP3   OH266111   1.161   5.585  16.476  0.3416 -0.1767 -0.2919
14899TIP3    H166112   1.065   5.582  16.480  0.2480 -3.7081 -1.7857
14899TIP3    H266113   1.181   5.594  16.383  1.4652 -0.3607 -0.0797
14900TIP3   OH266114   5.132   5.686  12.500  0.5837  0.1525  0.0678
14900TIP3    H166115   5.131   5.747  12.574  2.4081 -0.9050  1.0613
14900TIP3    H266116   5.108   5.739  12.424 -2.8000  0.9785  1.5573
14901TIP3   OH266117   2.361   5.558  12.808  0.2089  0.4214  0.5952
14901TIP3    H166118   2.319   5.551  12.893 -1.4633 -1.8000 -0.3197
14901TIP3    H266119   2.289   5.562  12.745  1.3661 -0.7304 -0.8700
14902TIP3   OH266120   6.686   1.281   3.753  0.0088 -0.0861  0.2685
14902TIP3    H166121   6.602   1.309   3.789 -0.2406  0.7738 -0.9407
14902TIP3    H266122   6.747   1.350   3.778  0.1659 -0.2669  0.3834
14903TIP3   OH266123   5.527   4.197  11.795 -0.0117  0.0777  0.5010
14903TIP3    H166124   5.477   4.262  11.845 -0.3813  0.5903 -0.5070
14903TIP3    H266125   5.490   4.113  11.821  0.0306  0.2992  1.3276
14904TIP3   OH266126   1.989   0.420   6.026 -0.0497  0.2534  0.2938
14904TIP3    H166127   2.030   0.395   5.943  0.2137  0.8334  0.2459
14904TIP3    H266128   1.997   0.515   6.030 -0.3399  0.2620  0.8402
14905TIP3   OH266129   3.768   3.234   3.043  0.2631  0.4631 -0.3061
14905TIP3    H166130   3.798   3.146   3.023  0.9132  0.6655 -0.2382
14905TIP3    H266131   3.677   3.236   3.015  0.7391  0.3123 -1.9255
14906TIP3   OH266132   2.801   5.116   1.408 -0.0875 -0.3889 -0.0365
14906TIP3    H166133   2.713   5.136   1.376 -0.4171 -0.0601  1.0115
14906TIP3    H266134   2.834   5.050   1.348 -1.6116 -1.5742  0.3692
14907TIP3   OH266135   0.272   6.402  14.163  0.3616 -0.8660 -0.1105
14907TIP3    H166136   0.220   6.352  14.101 -1.1529  1.3677 -0.7533
14907TIP3    H266137   0.231   6.385  14.248  0.4987 -1.4984 -0.1684
14908TIP3   OH266138   4.969   2.873  16.858 -0.0575 -0.4291 -0.0484
14908TIP3    H166139   4.879   2.907  16.861 -0.4189 -1.4155  1.3234
14908TIP3    H266140   5.019   2.942  16.814 -1.1025  1.0795  1.0212
14909TIP3   OH266141   0.269   0.673  11.198 -0.1325  0.0335  0.5731
14909TIP3    H166142   0.282   0.703  11.108 -0.7753  0.3740  0.5930
14909TIP3    H266143   0.180   0.700  11.220  0.2956  0.6629  1.5886
14910TIP3   OH266144   3.327   4.864  16.723  0.2799  0.0397  0.3464
14910TIP3    H166145   3.357   4.773  16.715 -0.4005 -0.3954  2.2417
14910TIP3    H266146   3.236   4.863  16.692  0.8285  0.5189 -1.4475
14911TIP3   OH266147   3.037   1.913   0.206 -0.5348 -0.0916 -0.1247
14911TIP3    H166148   3.091   1.862   0.145  0.2676 -1.0698  1.3315
14911TIP3    H266149   3.072   2.002   0.200 -0.1838 -0.2662 -0.7674
14912TIP3   OH266150   4.201   5.750   4.683 -0.5916  0.1747 -0.2376
14912TIP3    H166151   4.253   5.771   4.606 -0.7209  0.2417 -0.3064
14912TIP3    H266152   4.111   5.745   4.651 -0.3191 -3.0374 -0.7496
14913TIP3   OH266153   0.077   6.411  14.377 -0.3954  0.0586  0.0122
14913TIP3    H166154   0.021   6.462  14.435  0.3948  0.9124  0.0529
14913TIP3    H266155   0.145   6.376  14.434 -1.1417 -1.4189  0.0602
14914TIP3   OH266156   0.855   5.284  16.845  0.6637 -0.9074 -0.3349
14914TIP3    H166157   0.935   5.319  16.885 -0.0536 -0.0737  0.3984
14914TIP3    H266158   0.824   5.354  16.788 -0.2176 -0.7200  0.3480
14915TIP3   OH266159   3.075   4.213  13.055 -0.5151 -0.0501  0.1866
14915TIP3    H166160   3.033   4.142  13.104  2.1149 -2.7887 -1.2122
14915TIP3    H266161   3.053   4.196  12.964 -0.4784  1.4627 -0.1332
14916TIP3   OH266162   6.508   6.009   4.685 -0.1149 -0.3371 -0.0192
14916TIP3    H166163   6.508   5.915   4.669  0.0169 -0.1716 -1.0154
14916TIP3    H266164   6.588   6.024   4.735 -0.9044 -0.9561  1.5241
14917TIP3   OH266165   1.971   5.785   0.149  0.2832 -0.2412  0.2817
14917TIP3    H166166   1.980   5.747   0.062  0.9919 -1.2771  0.7811
14917TIP3    H266167   2.013   5.721   0.207  1.6228  1.3793  1.1637
14918TIP3   OH266168   4.430   2.863   1.135  0.2695  0.5573  0.2257
14918TIP3    H166169   4.423   2.853   1.040 -0.2180 -4.9236  0.5152
14918TIP3    H266170   4.524   2.860   1.152  0.5038  3.4565  0.0068
14919TIP3   OH266171   3.004   2.544  15.689  0.2310  0.1254  0.2032
14919TIP3    H166172   3.063   2.469  15.687  0.6879  0.3020  3.1347
14919TIP3    H266173   2.939   2.523  15.756 -0.1872  1.9184  0.4291
14920TIP3   OH266174   0.843   1.549  13.141  0.8644  0.4016  0.2211
14920TIP3    H166175   0.921   1.502  13.112  1.3407  0.9249  0.6318
14920TIP3    H266176   0.845   1.542  13.237 -0.0030 -0.2290  0.2078
14921TIP3   OH266177   2.691   1.859  16.736  0.1268 -0.0322 -0.6137
14921TIP3    H166178   2.643   1.922  16.683 -0.7662  0.8818  1.1838
14921TIP3    H266179   2.717   1.909  16.814  2.0704 -1.1063 -0.5093
14922TIP3   OH266180   6.214   2.692   4.110 -0.3754 -0.2572 -0.2448
14922TIP3    H166181   6.167   2.774   4.091 -0.5726 -0.5815 -1.2012
14922TIP3    H266182   6.301   2.721   4.136 -0.9033  0.3273  1.0257
14923TIP3   OH266183   5.458   5.861  12.561  0.3889  0.6582  1.0974
14923TIP3    H166184   5.452   5.766  12.549 -0.3069  0.5602  2.0214
14923TIP3    H266185   5.393   5.897  12.501 -1.0841  0.3642  2.4330
14924TIP3   OH266186   3.412   2.842   5.353  0.2948 -0.1510 -0.4951
14924TIP3    H166187   3.316   2.846   5.357  0.2410 -1.8599  1.0747
14924TIP3    H266188   3.441   2.922   5.396 -0.4283  0.2158 -0.6723
14925TIP3   OH266189   4.736   5.695   0.306  0.4043 -0.1902 -0.4010
14925TIP3    H166190   4.778   5.780   0.295  1.2996 -0.7298 -1.3710
14925TIP3    H266191   4.700   5.675   0.219  1.1956 -1.2896 -0.5014
14926TIP3   OH266192   1.862   3.339   4.354 -0.4195  0.5252  0.3188
14926TIP3    H166193   1.946   3.357   4.398 -0.2831  0.0185  0.2628
14926TIP3    H266194   1.886   3.294   4.273 -0.7789 -0.1797  0.5947
14927TIP3   OH266195   4.990   2.698   3.244  0.5138  0.1602  0.1026
14927TIP3    H166196   4.944   2.781   3.252  0.4296  0.0600  0.6605
14927TIP3    H266197   5.081   2.718   3.269  0.1056 -0.2982  2.1504
14928TIP3   OH266198   5.421   0.796  14.864  0.0075 -0.3471  0.1964
14928TIP3    H166199   5.486   0.862  14.888 -0.8095  0.8315 -0.7294
14928TIP3    H266200   5.415   0.802  14.769  0.0738 -1.9456  0.0558
14929TIP3   OH266201   5.323   6.190  10.971 -0.0956 -0.0000 -0.4833
14929TIP3    H166202   5.414   6.216  10.988 -0.3267  1.0706 -0.7946
14929TIP3    H266203   5.271   6.264  11.003 -0.7841 -0.0841 -1.3837
14930TIP3   OH266204   1.906   6.454  14.713  0.3169  0.4782  0.4322
14930TIP3    H166205   1.931   6.363  14.724 -0.8878 -0.1680 -1.5871
14930TIP3    H266206   1.945   6.480  14.629 -2.0830  0.7172 -0.7099
14931TIP3   OH266207   4.780   4.517   5.664  0.5974  0.3778  0.4665
14931TIP3    H166208   4.855   4.541   5.609 -0.7626  1.7427 -0.9331
14931TIP3    H266209   4.772   4.589   5.727  2.6777 -1.5959  3.2049
14932TIP3   OH266210   5.941   5.427   3.498 -0.4110  0.1433  0.1929
14932TIP3    H166211   6.003   5.361   3.466  0.7103  1.4373 -0.3849
14932TIP3    H266212   5.995   5.491   3.544 -1.2944  1.3706 -0.4156
14933TIP3   OH266213   5.118   4.844   1.157 -0.4486  0.0005  0.0265
14933TIP3    H166214   5.171   4.828   1.080 -1.1248 -3.6293  0.1040
14933TIP3    H266215   5.028   4.828   1.128 -1.2854  3.0675  0.5983
14934TIP3   OH266216   5.006   2.855  11.279 -0.2513  0.1407  0.0400
14934TIP3    H166217   4.929   2.870  11.224 -0.2800  1.2672  0.3656
14934TIP3    H266218   5.006   2.760  11.294 -0.5456 -0.1160 -1.4399
14935TIP3   OH266219   5.515   6.341   2.367 -0.0771  0.0518  0.4134
14935TIP3    H166220   5.502   6.256   2.326  1.4673 -0.9552  1.8941
14935TIP3    H266221   5.541   6.321   2.456  0.1553  2.0990  0.8532
14936TIP3   OH266222   0.750   6.228  12.444  0.1021  0.4805  0.1651
14936TIP3    H166223   0.845   6.235  12.435  0.0721  0.1943 -0.3917
14936TIP3    H266224   0.721   6.188  12.362 -0.3605 -0.5882  0.8335
14937TIP3   OH266225   3.879   2.101   2.538 -0.2997  0.1057  0.1187
14937TIP3    H166226   3.865   2.166   2.469  0.1287  0.8817  0.7539
14937TIP3    H266227   3.901   2.021   2.490  1.4385  0.9824 -0.6530
14938TIP3   OH266228   2.350   1.092  13.188 -0.4882  0.4692  0.0433
14938TIP3    H166229   2.433   1.122  13.150  1.4413 -0.9992  2.7784
14938TIP3    H266230   2.317   1.028  13.125  2.1370 -1.2587  0.2849
14939TIP3   OH266231   1.983   0.841   1.975  0.4859 -0.0002  0.8349
14939TIP3    H166232   2.055   0.861   1.916 -0.1539 -0.3840 -0.0948
14939TIP3    H266233   1.940   0.925   1.990 -0.8584 -0.2616 -1.2817
14940TIP3   OH266234   0.970   4.979  16.891 -0.1826  0.2226 -0.0932
14940TIP3    H166235   1.015   5.058  16.861  0.0852 -0.1962 -0.8126
14940TIP3    H266236   1.034   4.936  16.948 -0.2739  0.4381  0.1774
14941TIP3   OH266237   0.332   4.417  13.561 -0.5469  0.3431  0.6328
14941TIP3    H166238   0.424   4.428  13.588 -0.4743  0.4678  0.3407
14941TIP3    H266239   0.336   4.350  13.493 -0.6855  0.2812  0.6865
14942TIP3   OH266240   4.238   5.507   3.246 -0.1974 -0.5837  0.1318
14942TIP3    H166241   4.161   5.561   3.260 -0.3238 -0.7453  0.0638
14942TIP3    H266242   4.211   5.419   3.274  0.4345 -0.3380  1.5483
14943TIP3   OH266243   3.390   2.146   6.006 -0.4030  0.2622 -0.2948
14943TIP3    H166244   3.409   2.124   6.097  1.7749  1.1542 -0.4635
14943TIP3    H266245   3.308   2.101   5.986 -1.4217  0.7912  2.3596
14944TIP3   OH266246   4.660   0.449  11.027 -0.1332 -0.4586  0.3209
14944TIP3    H166247   4.743   0.494  11.010 -0.6122  0.7258  1.0008
14944TIP3    H266248   4.684   0.379  11.088  0.3939 -0.2363  0.3794
14945TIP3   OH266249   5.638   1.933  14.659  0.4150  0.4419  0.0849
14945TIP3    H166250   5.664   1.947  14.568  3.2907  0.0341  0.7304
14945TIP3    H266251   5.594   1.848  14.658 -1.3985  1.3259 -1.1610
14946TIP3   OH266252   1.941   1.729  15.343 -0.5647 -0.0553  0.1908
14946TIP3    H166253   1.961   1.779  15.421  2.1114 -3.0527  1.6632
14946TIP3    H266254   2.015   1.745  15.284 -1.1512  0.0013 -0.5444
14947TIP3   OH266255   3.935   4.830  14.079  0.4355  0.6062  0.2956
14947TIP3    H166256   4.020   4.795  14.105  0.5080  1.3258  1.0304
14947TIP3    H266257   3.952   4.920  14.053  0.7727 -0.5163 -4.3176
14948TIP3   OH266258   2.653   1.445  10.899 -0.2570  0.3602  0.3770
14948TIP3    H166259   2.640   1.407  10.986 -1.6211  0.1043  0.0876
14948TIP3    H266260   2.748   1.457  10.892  0.1586 -2.0468  0.8897
14949TIP3   OH266261   5.367   5.769   2.871 -0.0553  0.3696 -0.1822
14949TIP3    H166262   5.377   5.690   2.818 -0.1281  0.7657 -0.7923
14949TIP3    H266263   5.286   5.754   2.921  1.7209 -1.4872  2.4226
14950TIP3   OH266264   5.515   0.754   0.338  0.2194  0.2850 -0.2212
14950TIP3    H166265   5.422   0.741   0.321  0.0754  1.2447 -0.2374
14950TIP3    H266266   5.551   0.781   0.254 -0.0724  2.8128  0.3699
14951TIP3   OH266267   5.621   5.918   4.392 -0.3940  0.7334  0.0376
14951TIP3    H166268   5.658   5.895   4.478 -0.9050  0.7412  0.2634
14951TIP3    H266269   5.689   5.893   4.329 -0.9405 -1.5459  0.2637
14952TIP3   OH266270   6.719   1.913  12.414  0.0547 -0.4802 -0.1550
14952TIP3    H166271   6.705   1.959  12.331 -0.7461  2.8375  1.6229
14952TIP3    H266272   6.795   1.957  12.453 -0.8780 -0.4693  1.7670
14953TIP3   OH266273   3.159   0.287   6.144 -0.1841  0.0158 -0.7277
14953TIP3    H166274   3.241   0.335   6.129  0.5715 -0.9371  0.2582
14953TIP3    H266275   3.105   0.348   6.196  0.5848  0.0020  0.1148
14954TIP3   OH266276   5.808   1.359   4.584  0.3571  0.1833 -0.1226
14954TIP3    H166277   5.786   1.439   4.535  1.2707  0.6743  0.2387
14954TIP3    H266278   5.882   1.322   4.536  0.8277  0.3063  0.5012
14955TIP3   OH266279   5.163   4.044  14.714  0.0279  0.1582  0.9311
14955TIP3    H166280   5.070   4.067  14.719  0.3314  1.7278  0.0775
14955TIP3    H266281   5.207   4.110  14.767  0.6176 -1.1790  2.1924
14956TIP3   OH266282   1.702   0.352  10.939 -0.1717 -0.3285 -0.2071
14956TIP3    H166283   1.765   0.412  10.980  0.7138 -0.8818 -0.7369
14956TIP3    H266284   1.655   0.406  10.875 -0.1293  0.0427  0.0693
14957TIP3   OH266285   1.561   1.435   2.839  0.0523  0.5969 -0.3192
14957TIP3    H166286   1.583   1.347   2.809 -0.3716  0.6060 -0.6581
14957TIP3    H266287   1.488   1.462   2.784 -0.9205  0.5078  0.8945
14958TIP3   OH266288   0.182   2.500  16.384  0.0818 -0.0386  0.1178
14958TIP3    H166289   0.141   2.464  16.463  0.9497 -0.8091  0.2405
14958TIP3    H266290   0.270   2.526  16.414 -0.0187  0.8281 -0.3160
14959TIP3   OH266291   1.055   4.040   5.917  0.4647  0.1368  0.7869
14959TIP3    H166292   1.146   4.069   5.923  1.1643 -1.5494 -0.8261
14959TIP3    H266293   1.045   3.977   5.989  0.4640  0.5291  1.1369
14960TIP3   OH266294   5.834   1.929  13.836 -0.4014  0.2371 -0.1579
14960TIP3    H166295   5.927   1.927  13.815  0.0349  0.5392  1.5739
14960TIP3    H266296   5.790   1.948  13.753  1.0961  0.3079 -0.9521
14961TIP3   OH266297   5.360   2.179  11.805  0.0843 -0.0705  0.7853
14961TIP3    H166298   5.410   2.187  11.723 -0.7971  0.6176  0.2963
14961TIP3    H266299   5.332   2.269  11.824 -1.7233 -0.5565  0.5441
14962TIP3   OH266300   5.496   1.683  11.452  0.3364 -0.4799 -0.4328
14962TIP3    H166301   5.540   1.598  11.447  1.8259  0.3089 -2.3256
14962TIP3    H266302   5.520   1.727  11.370 -1.2374  1.3687  0.0222
14963TIP3   OH266303   1.315   3.251  15.638 -0.4728 -0.0302 -0.8205
14963TIP3    H166304   1.228   3.256  15.678 -0.7201 -2.6018 -0.8527
14963TIP3    H266305   1.375   3.271  15.710 -1.0292 -0.8294 -0.1090
14964TIP3   OH266306   5.231   5.192  12.711 -0.1266 -0.1540 -0.7071
14964TIP3    H166307   5.154   5.136  12.724  0.2558 -0.9501 -1.7378
14964TIP3    H266308   5.204   5.253  12.642 -1.3435  2.5275  1.8923
14965TIP3   OH266309   2.812   0.539  15.856 -0.1302  0.3695  0.0247
14965TIP3    H166310   2.825   0.531  15.762 -2.4229  2.1367 -0.5446
14965TIP3    H266311   2.895   0.511  15.895  1.2471  0.6227 -2.5417
14966TIP3   OH266312   6.763   0.035  13.475  0.3499  0.0450 -0.4918
14966TIP3    H166313   6.850   0.049  13.439 -0.1641  1.1266 -1.3815
14966TIP3    H266314   6.707   0.098  13.429 -0.7596 -0.0865  0.6063
14967TIP3   OH266315   0.020   0.791  11.205  0.2231  0.7498 -0.3433
14967TIP3    H166316  -0.054   0.753  11.253 -0.0420  0.1716 -1.1966
14967TIP3    H266317  -0.020   0.861  11.153  0.4323  1.0457 -0.1100
14968TIP3   OH266318   4.817   5.339  15.288 -0.5502  0.0259  0.5315
14968TIP3    H166319   4.801   5.379  15.373 -0.6681  0.4202  0.3228
14968TIP3    H266320   4.874   5.264  15.308 -1.5757 -0.6297  1.1114
14969TIP3   OH266321   5.251   4.820   0.364 -0.0644  0.0903 -0.8418
14969TIP3    H166322   5.168   4.842   0.406  0.2186  0.1257 -0.2810
14969TIP3    H266323   5.303   4.900   0.373  0.1127 -0.0117 -0.9693
14970TIP3   OH266324   5.812   3.189  12.125 -0.2006  0.3123 -0.6337
14970TIP3    H166325   5.877   3.222  12.186  0.9248 -0.5941 -1.2952
14970TIP3    H266326   5.844   3.215  12.039 -0.8392  0.0527 -0.9577
14971TIP3   OH266327   5.339   0.063   3.990 -0.2364  0.6735 -0.0815
14971TIP3    H166328   5.302   0.086   4.075 -2.6599  0.1902 -0.9144
14971TIP3    H266329   5.351   0.148   3.946 -1.0967  0.8321 -0.0388
14972TIP3   OH266330   5.053   1.995   1.886  0.0847  0.5253 -0.3061
14972TIP3    H166331   5.048   1.902   1.909  0.7822  0.4524 -0.4109
14972TIP3    H266332   5.030   1.998   1.794 -2.5606  0.7983  0.2906
14973TIP3   OH266333   3.977   1.521   0.359  0.0520 -0.1554 -0.0763
14973TIP3    H166334   3.939   1.528   0.446 -0.4651 -0.9564 -0.2200
14973TIP3    H266335   4.049   1.582   0.359 -0.5708  0.6015  0.5773
14974TIP3   OH266336   1.082   1.344  11.637 -0.7207  0.1582 -0.2280
14974TIP3    H166337   1.058   1.284  11.567  0.5323  0.3461 -0.8344
14974TIP3    H266338   1.132   1.413  11.595  0.8001 -0.1704  0.9521
14975TIP3   OH266339   1.722   5.469   0.388 -0.4768 -0.0582  0.1835
14975TIP3    H166340   1.699   5.530   0.318 -1.1382 -1.3710 -0.7875
14975TIP3    H266341   1.658   5.399   0.381  0.9794 -1.4937  0.4487
14976TIP3   OH266342   2.459   3.529  16.305 -0.0457  0.0548  0.2549
14976TIP3    H166343   2.403   3.542  16.229 -1.0351 -2.2539  0.5251
14976TIP3    H266344   2.415   3.462  16.357  2.2443 -0.8366  1.1993
14977TIP3   OH266345   6.710   4.956   1.158  0.6202 -0.0624  0.4658
14977TIP3    H166346   6.652   4.906   1.216  0.3331 -0.3649 -0.0810
14977TIP3    H266347   6.745   5.026   1.214 -1.3461  0.9831  0.4802
14978TIP3   OH266348   6.476   6.383  14.406  0.3638  0.8230  0.2978
14978TIP3    H166349   6.463   6.410  14.497 -0.4620  1.8503 -0.1024
14978TIP3    H266350   6.406   6.427  14.358  0.3911 -0.2297 -0.7470
14979TIP3   OH266351   5.706   1.707  12.561 -0.1813  0.3125  0.0113
14979TIP3    H166352   5.625   1.656  12.562  0.1116 -0.1503  0.4125
14979TIP3    H266353   5.677   1.797  12.576 -0.6455  0.1840 -0.0994
14980TIP3   OH266354   5.740   0.575  12.555  0.4979  0.1591  0.0924
14980TIP3    H166355   5.828   0.597  12.524  0.5645  0.2281  0.3272
14980TIP3    H266356   5.690   0.655  12.542  0.6583  0.3562  0.6424
14981TIP3   OH266357   3.595   5.895   1.448 -0.3829  0.4818 -0.1227
14981TIP3    H166358   3.619   5.929   1.361  0.9247  0.5174  0.2266
14981TIP3    H266359   3.639   5.810   1.452  1.9129  1.6301  1.5135
14982TIP3   OH266360   0.769   2.402  11.150  0.5936  0.2493 -0.3312
14982TIP3    H166361   0.720   2.360  11.221 -0.3617 -0.6984 -1.5093
14982TIP3    H266362   0.860   2.375  11.164  0.4382  0.1669  0.5793
14983TIP3   OH266363   6.517   6.237  17.178 -0.1984  0.4704  0.7410
14983TIP3    H166364   6.455   6.310  17.169  1.3058  1.7409  0.1223
14983TIP3    H266365   6.472   6.162  17.138 -0.8755  1.6387 -0.7937
14984TIP3   OH266366   1.860   5.534   1.585  0.4165 -0.5120 -0.4327
14984TIP3    H166367   1.809   5.602   1.628 -1.3699 -1.5149 -0.8689
14984TIP3    H266368   1.802   5.500   1.517  1.1687 -2.6099 -0.0912
14985TIP3   OH266369   3.262   6.018  14.979 -0.2547 -0.2571 -0.9663
14985TIP3    H166370   3.234   5.933  14.945  0.6128 -0.9538 -0.0291
14985TIP3    H266371   3.282   6.070  14.901  2.7827 -2.1577 -1.6523
14986TIP3   OH266372   4.604   5.813   2.431  0.0647 -0.1177 -0.1642
14986TIP3    H166373   4.616   5.735   2.485  0.6551 -0.4341 -0.7381
14986TIP3    H266374   4.596   5.779   2.342  2.2996  0.5595 -0.6831
14987TIP3   OH266375   5.025   5.791  14.687  0.1552  0.2017  0.0749
14987TIP3    H166376   4.959   5.737  14.731  0.9213 -1.4699 -0.7063
14987TIP3    H266377   4.980   5.872  14.665 -1.3560 -0.5161  0.4056
14988TIP3   OH266378   5.206   6.007   4.372  0.3404  0.0992 -0.3543
14988TIP3    H166379   5.241   6.022   4.460 -0.6038 -0.5820  0.1581
14988TIP3    H266380   5.116   5.978   4.387  0.5668 -1.3038 -1.4763
14989TIP3   OH266381   2.805   2.218  13.517 -0.1414 -0.5467 -0.2723
14989TIP3    H166382   2.831   2.165  13.442 -0.1709 -2.1191  0.7763
14989TIP3    H266383   2.885   2.265  13.541 -0.2015  0.1816 -1.4203
14990TIP3   OH266384   6.378   4.304  12.044  0.4283  0.2937 -0.0171
14990TIP3    H166385   6.301   4.358  12.027 -1.3778 -2.4601 -1.2312
14990TIP3    H266386   6.431   4.312  11.964  0.8601  1.2515  0.3450
14991TIP3   OH266387   4.294   4.826   5.593  0.0425  0.6295  0.1203
14991TIP3    H166388   4.275   4.919   5.579  0.1538  0.8301  1.2287
14991TIP3    H266389   4.388   4.823   5.609  0.1003  0.2750 -0.2629
14992TIP3   OH266390   3.706   2.946   1.371 -0.1408 -0.9372  0.5444
14992TIP3    H166391   3.616   2.927   1.345 -0.1761  1.8495 -1.8314
14992TIP3    H266392   3.712   2.913   1.461 -4.3095  0.9772  1.7606
14993TIP3   OH266393   5.076   4.692   4.242 -0.1544  0.3330 -0.0503
14993TIP3    H166394   5.072   4.712   4.336 -1.0152 -0.8418  0.1742
14993TIP3    H266395   5.013   4.752   4.202 -2.0533 -1.2203  0.5111
14994TIP3   OH266396   1.899   2.938   2.412  0.1988 -0.1931  0.0277
14994TIP3    H166397   1.814   2.981   2.420  0.6452  1.0192 -1.2581
14994TIP3    H266398   1.879   2.850   2.380 -0.5517  0.2269 -0.6879
14995TIP3   OH266399   5.067   6.655  13.665 -0.5052 -0.1304  0.3485
14995TIP3    H166400   5.141   6.595  13.652 -0.8650 -0.5994  0.4536
14995TIP3    H266401   5.034   6.672  13.577  0.4802  1.0592  0.1740
14996TIP3   OH266402   2.182   3.469   5.554  0.0790 -0.1007  0.3848
14996TIP3    H166403   2.181   3.521   5.634 -1.7634 -0.3415  0.5656
14996TIP3    H266404   2.091   3.468   5.525  0.8771  1.1387 -2.5142
14997TIP3   OH266405   1.164   0.145  16.447 -0.5153 -0.6164  0.2834
14997TIP3    H166406   1.164   0.066  16.499 -1.2536 -0.9580 -0.2068
14997TIP3    H266407   1.247   0.144  16.400  0.1005 -0.3660  1.3350
14998TIP3   OH266408   1.634   3.920  11.882 -1.0094 -0.2807 -0.1318
14998TIP3    H166409   1.728   3.937  11.878 -1.2170  0.8164 -0.8280
14998TIP3    H266410   1.609   3.943  11.972 -0.3862 -1.9841  0.5119
14999TIP3   OH266411   4.373   0.336  12.946  0.0204  0.0164  0.0057
14999TIP3    H166412   4.462   0.353  12.975  0.6630 -0.0166 -1.7918
14999TIP3    H266413   4.383   0.275  12.872 -1.5071 -0.2500 -0.0172
15000TIP3   OH266414   0.881   0.608  13.901  0.1525 -0.2818 -0.0569
15000TIP3    H166415   0.853   0.700  13.905  0.1363 -0.2936  0.1065
15000TIP3    H266416   0.969   0.612  13.863  1.0065 -0.0098  1.8219
15001TIP3   OH266417   1.576   3.968  13.375 -0.2293  0.1694  0.3460
15001TIP3    H166418   1.510   3.975  13.306  0.1362 -3.0927 -0.5011
15001TIP3    H266419   1.657   3.995  13.333 -0.3751  0.3758  0.1926
15002TIP3   OH266420   3.245   2.455   0.454 -0.4357 -0.1667 -0.1592
15002TIP3    H166421   3.321   2.397   0.453 -1.6070 -1.7639 -0.4633
15002TIP3    H266422   3.224   2.465   0.547 -0.8217 -1.0939 -0.1294
15003TIP3   OH266423   6.076   4.038  12.137 -0.5421  0.2240  0.1148
15003TIP3    H166424   6.028   4.041  12.054 -0.5650  0.9973  0.1458
15003TIP3    H266425   6.022   4.090  12.197 -0.8264 -0.8224  0.7795
15004TIP3   OH266426   6.144   3.021  14.894  0.0562  0.4806 -0.3590
15004TIP3    H166427   6.233   3.007  14.863 -0.1801  1.0623 -1.3167
15004TIP3    H266428   6.153   3.085  14.966  0.4922 -0.1284  0.1377
15005TIP3   OH266429   0.071   1.526  13.770  0.6067 -0.2296  0.7791
15005TIP3    H166430   0.077   1.439  13.808  0.1107  0.1964  1.8986
15005TIP3    H266431  -0.009   1.524  13.717  2.4856 -1.5252 -2.2691
15006TIP3   OH266432   3.718   2.568   3.991  0.3084 -0.3488  0.0585
15006TIP3    H166433   3.625   2.550   4.001  0.3809 -0.8589 -0.1661
15006TIP3    H266434   3.736   2.551   3.898  0.2989  1.2868 -0.2818
15007TIP3   OH266435   2.152   3.695   3.506  0.2633  0.2311 -0.3822
15007TIP3    H166436   2.066   3.737   3.498 -1.3789 -2.7900 -0.1026
15007TIP3    H266437   2.184   3.690   3.415  0.5461  1.9600 -0.4271
15008TIP3   OH266438   6.533   4.967  11.807  0.6932  0.4121  0.1589
15008TIP3    H166439   6.474   4.956  11.881  1.6709 -0.0186  0.8978
15008TIP3    H266440   6.614   4.999  11.846  0.4040  2.8343 -1.0364
15009TIP3   OH266441   0.290   1.871  14.047  0.4783  0.1241 -0.1758
15009TIP3    H166442   0.258   1.814  13.977 -0.8436 -0.3387  0.7551
15009TIP3    H266443   0.321   1.950  14.001 -1.0953  0.1760 -1.2550
15010TIP3   OH266444   3.412   3.486  12.709  0.6563 -0.2468 -0.2540
15010TIP3    H166445   3.350   3.522  12.645 -1.1970 -1.3834  0.8067
15010TIP3    H266446   3.441   3.403  12.670  0.8451 -0.1320 -0.3604
15011TIP3   OH266447   4.089   5.521   0.724  0.3467  0.2982 -0.1987
15011TIP3    H166448   4.010   5.513   0.778  0.3917 -0.6556 -0.2655
15011TIP3    H266449   4.157   5.550   0.785  0.4317 -0.9219  0.3066
15012TIP3   OH266450   1.310   5.047   3.504  0.3686  0.1519  0.7065
15012TIP3    H166451   1.406   5.048   3.515  1.1668 -0.2871 -4.0704
15012TIP3    H266452   1.280   4.980   3.564  3.0565  0.2220  2.3114
15013TIP3   OH266453   4.051   3.160   6.661 -0.3819 -0.3164  1.0612
15013TIP3    H166454   4.140   3.127   6.668 -0.4271 -0.1583  2.7290
15013TIP3    H266455   4.003   3.114   6.729 -1.4081  0.1428  0.6642
15014TIP3   OH266456   2.646   2.517  15.761 -0.4795 -0.1822 -0.6732
15014TIP3    H166457   2.609   2.480  15.841 -2.8914 -0.2139 -1.6993
15014TIP3    H266458   2.690   2.597  15.789  0.7316 -1.3555  0.9542
15015TIP3   OH266459   2.319   0.901   5.773 -0.4526 -0.0268 -0.6955
15015TIP3    H166460   2.319   0.819   5.821 -0.5590  0.0503 -0.5644
15015TIP3    H266461   2.228   0.932   5.778 -0.5023 -0.1050 -1.0888
15016TIP3   OH266462   5.206   4.950   2.174  0.1327  0.6223 -0.1603
15016TIP3    H166463   5.200   4.934   2.080  0.4872 -3.5453  0.3246
15016TIP3    H266464   5.300   4.948   2.193  0.0173 -0.0298  0.4029
15017TIP3   OH266465   0.817   4.318   4.957 -0.2536  0.5457  0.5765
15017TIP3    H166466   0.838   4.252   4.890 -0.2175  0.4912  0.6406
15017TIP3    H266467   0.751   4.373   4.916 -0.2111  0.5293  0.4850
15018TIP3   OH266468   0.332   2.151  13.311 -0.7696  0.1427  0.4829
15018TIP3    H166469   0.348   2.225  13.253  0.1130  0.6029  1.2851
15018TIP3    H266470   0.412   2.098  13.306 -1.6600 -1.1470 -0.6171
15019TIP3   OH266471   5.314   1.120   3.395  0.1580 -0.4719 -0.3606
15019TIP3    H166472   5.229   1.163   3.397  0.4770  0.2748 -1.6701
15019TIP3    H266473   5.294   1.027   3.386 -0.5093 -0.3776  0.0406
15020TIP3   OH266474   3.201   5.292  11.977  0.5034 -0.5681  0.4686
15020TIP3    H166475   3.253   5.370  11.961  0.6646 -0.7324  0.1801
15020TIP3    H266476   3.239   5.254  12.056 -1.4538  1.2348  2.4036
15021TIP3   OH266477   2.819   1.959  15.106 -0.0863  0.1384  0.0197
15021TIP3    H166478   2.826   1.938  15.013  1.1330 -0.1410  0.1476
15021TIP3    H266479   2.820   1.874  15.150  0.2193  0.2902  0.3190
15022TIP3   OH266480   1.393   6.227   2.034  0.2417  0.0433  0.6666
15022TIP3    H166481   1.335   6.201   2.106  0.3041 -2.7526 -0.1540
15022TIP3    H266482   1.346   6.296   1.988 -2.3628 -1.8245  0.2875
15023TIP3   OH266483   4.577   2.466  13.819  0.1056  0.3007  0.2578
15023TIP3    H166484   4.612   2.447  13.732 -0.1215  0.6802  0.0848
15023TIP3    H266485   4.547   2.556  13.814  1.2645  0.7668  1.1091
15024TIP3   OH266486   1.334   6.303   5.564 -0.6772  0.1669 -0.4642
15024TIP3    H166487   1.407   6.244   5.581 -1.1101 -0.7815 -1.7769
15024TIP3    H266488   1.373   6.374   5.512 -0.4550  0.2868 -0.1375
15025TIP3   OH266489   4.936   1.279   1.884 -0.0733  0.1768  0.0018
15025TIP3    H166490   4.895   1.307   1.802  1.2137  0.2084 -0.6576
15025TIP3    H266491   4.946   1.184   1.874  1.2616  0.3451 -0.4591
15026TIP3   OH266492   1.507   1.212   4.709 -0.3321 -0.2122 -0.4525
15026TIP3    H166493   1.462   1.246   4.632 -0.1826 -0.6079 -0.7192
15026TIP3    H266494   1.456   1.245   4.783 -0.0863  0.7347 -0.6937
15027TIP3   OH266495   4.581   1.005  16.121  0.5658  0.2041  0.6608
15027TIP3    H166496   4.554   1.020  16.211  0.8473 -1.3047  1.0080
15027TIP3    H266497   4.499   1.004  16.071  0.0664 -2.2385  1.4052
15028TIP3   OH266498   2.990   0.073  16.209  0.4763  0.1991  0.4933
15028TIP3    H166499   2.946   0.150  16.173  3.0692  1.5165 -0.0153
15028TIP3    H266500   2.969   0.074  16.302 -1.2554  0.2505  0.1409
15029TIP3   OH266501   2.180   2.857  12.537 -0.0440  0.0897  0.2382
15029TIP3    H166502   2.229   2.804  12.600  1.4624  1.9575  0.7511
15029TIP3    H266503   2.158   2.937  12.584  0.7216  1.3578 -1.4270
15030TIP3   OH266504   4.350   5.792  14.422  0.5552  0.5210 -0.2671
15030TIP3    H166505   4.338   5.723  14.357  2.0531  0.4371 -0.4849
15030TIP3    H266506   4.282   5.857  14.402 -0.5586 -0.6357 -0.3671
15031TIP3   OH266507   2.138   4.651   0.046 -0.2105 -0.0356  0.2589
15031TIP3    H166508   2.100   4.570   0.081 -0.2867 -0.0045  0.2494
15031TIP3    H266509   2.231   4.632   0.037 -0.1229  0.0939  0.8766
15032TIP3   OH266510   5.685   4.613  17.062 -0.0845 -0.2126  0.4918
15032TIP3    H166511   5.627   4.548  17.103 -2.3061  2.0951  1.2435
15032TIP3    H266512   5.712   4.571  16.980 -1.4237 -2.0996  0.9243
15033TIP3   OH266513   1.210   0.252   1.693 -0.4012  0.7252  0.5459
15033TIP3    H166514   1.185   0.227   1.604 -0.3936 -0.2002  0.7930
15033TIP3    H266515   1.168   0.186   1.749 -1.8603  2.2966  1.3786
15034TIP3   OH266516   0.945   3.946  12.456 -0.7922 -0.8077  0.3784
15034TIP3    H166517   0.863   3.915  12.496 -1.4364 -0.9256 -0.9857
15034TIP3    H266518   0.967   3.879  12.391 -0.4559 -0.0173 -0.3398
15035TIP3   OH266519   0.749   1.447  12.124  0.3852  0.4466  0.8249
15035TIP3    H166520   0.801   1.383  12.173 -0.0567 -0.1029  0.5762
15035TIP3    H266521   0.661   1.410  12.121  0.3719  0.5367 -0.2658
15036TIP3   OH266522   6.285   3.891  13.404 -0.1137 -0.4582  0.6069
15036TIP3    H166523   6.377   3.912  13.393  0.0202 -0.6482  1.2960
15036TIP3    H266524   6.283   3.801  13.435 -0.5713 -0.6916 -0.0762
15037TIP3   OH266525   5.905   4.002   1.997  0.3497 -0.8534  0.0842
15037TIP3    H166526   5.887   3.911   1.975  3.2111 -0.7577 -3.8840
15037TIP3    H266527   5.853   4.052   1.934  3.7527 -0.2103 -2.5131
15038TIP3   OH266528   2.617   3.612   0.787  0.4969  0.1433 -0.1989
15038TIP3    H166529   2.704   3.598   0.751  0.1942 -1.1210 -0.5099
15038TIP3    H266530   2.632   3.635   0.879  1.1431 -2.1909  0.3601
15039TIP3   OH266531   3.050   5.586  15.644 -0.0454  0.0239 -0.5252
15039TIP3    H166532   3.122   5.523  15.640 -1.1441 -1.3151 -0.0915
15039TIP3    H266533   2.971   5.533  15.636 -1.1275  1.0802  1.9324
15040TIP3   OH266534   0.645   1.728   3.730 -0.5445  0.1366 -0.4263
15040TIP3    H166535   0.642   1.677   3.811 -0.3808  0.4332 -0.2311
15040TIP3    H266536   0.730   1.772   3.732 -0.1415 -0.5676 -1.2040
15041TIP3   OH266537   6.236   6.550   0.623 -0.6210 -0.4501  0.4693
15041TIP3    H166538   6.222   6.644   0.635  0.5016 -0.2644  0.4435
15041TIP3    H266539   6.331   6.539   0.631 -0.8033 -1.6779  1.1144
15042TIP3   OH266540   4.354   2.970   3.690 -0.0947 -0.3941 -0.1338
15042TIP3    H166541   4.327   3.061   3.681 -0.6957 -0.6936 -1.4836
15042TIP3    H266542   4.435   2.974   3.742 -0.0372  0.9081 -0.2973
15043TIP3   OH266543   6.206   3.761  12.185  0.4288  0.2316  0.1240
15043TIP3    H166544   6.301   3.772  12.183  0.4475 -0.0167 -0.5129
15043TIP3    H266545   6.173   3.847  12.212  0.8692  0.0325  1.3904
15044TIP3   OH266546   4.168   3.347  12.208  0.2315 -0.1349 -0.4943
15044TIP3    H166547   4.105   3.332  12.279  0.0279 -0.6442 -0.7748
15044TIP3    H266548   4.248   3.305  12.238  0.4626  0.5668 -0.1099
15045TIP3   OH266549   5.841   2.206  10.849 -0.2038  0.4239  0.0013
15045TIP3    H166550   5.802   2.239  10.768 -0.5159  0.7035  0.2597
15045TIP3    H266551   5.775   2.148  10.885  0.5339 -0.8749 -0.6874
15046TIP3   OH266552   1.847   6.765   1.395 -0.0170 -0.0509 -0.2359
15046TIP3    H166553   1.821   6.676   1.368  0.7961 -0.3940  0.0712
15046TIP3    H266554   1.773   6.820   1.371  0.0075 -0.5919 -1.7007
15047TIP3   OH266555   0.643   5.802   5.224 -0.5055  0.1959 -0.1981
15047TIP3    H166556   0.676   5.884   5.185 -1.1009  0.6786  0.2884
15047TIP3    H266557   0.548   5.815   5.229 -0.9274 -1.5379 -2.4499
15048TIP3   OH266558   1.280   5.398  12.867 -0.5073 -0.5494 -0.1221
15048TIP3    H166559   1.337   5.425  12.939  0.2503 -2.1921 -0.0787
15048TIP3    H266560   1.273   5.476  12.812  0.4836  0.1497  0.6986
15049TIP3   OH266561   2.565   4.620  11.587 -0.6165  0.0198  0.0324
15049TIP3    H166562   2.542   4.550  11.525 -0.5255  0.3339 -0.3629
15049TIP3    H266563   2.525   4.593  11.670  0.3949 -1.0877  0.1934
15050TIP3   OH266564   3.165   2.828   1.516  0.1819  0.3850 -0.3740
15050TIP3    H166565   3.135   2.920   1.514  0.4553  0.5070  0.6153
15050TIP3    H266566   3.091   2.779   1.480 -0.1962  0.9352 -0.3713
15051TIP3   OH266567   4.293   3.945   6.056  0.3426  0.0458  0.3081
15051TIP3    H166568   4.325   3.958   5.967  1.7981 -1.6216  0.5264
15051TIP3    H266569   4.223   3.880   6.048  1.7783 -1.5967  0.5258
15052TIP3   OH266570   4.570   3.981   6.174 -0.3325 -0.0936  0.0389
15052TIP3    H166571   4.485   3.991   6.218 -0.5469 -0.8089 -0.2035
15052TIP3    H266572   4.551   3.931   6.095  0.3824 -0.6453  0.2069
15053TIP3   OH266573   2.682   3.135  10.982 -0.4254 -0.0919 -0.3399
15053TIP3    H166574   2.634   3.210  11.016  0.3790  0.8093 -1.1639
15053TIP3    H266575   2.614   3.078  10.945 -0.8789  1.2347 -1.6265
15054TIP3   OH266576   0.943   0.797  17.084 -0.2759  0.5251  0.5737
15054TIP3    H166577   0.915   0.724  17.029  1.3130 -1.0269  1.7238
15054TIP3    H266578   0.909   0.776  17.171  1.6276  0.2126  1.2911
15055TIP3   OH266579   2.701   3.917  16.158 -0.0518 -0.1901  0.1143
15055TIP3    H166580   2.605   3.909  16.160 -0.0271 -1.3504  3.3326
15055TIP3    H266581   2.717   4.011  16.160 -1.1055  0.0363 -0.9118
15056TIP3   OH266582   3.490   5.642  16.143 -0.3147  0.5010 -0.2979
15056TIP3    H166583   3.475   5.558  16.102 -0.5633  0.9082 -1.0482
15056TIP3    H266584   3.525   5.620  16.230 -1.4983 -0.3858 -0.0252
15057TIP3   OH266585   4.341   4.638  13.082 -0.5293  0.2874 -0.4668
15057TIP3    H166586   4.435   4.643  13.065 -0.3040 -1.8924 -0.1764
15057TIP3    H266587   4.326   4.700  13.153  1.1362 -0.9589  1.0558
15058TIP3   OH266588   1.221   5.810   0.867 -0.1798  0.4675  0.1794
15058TIP3    H166589   1.206   5.748   0.938 -0.1398  0.4689  0.1891
15058TIP3    H266590   1.250   5.756   0.794 -3.2422  0.0340 -0.8551
15059TIP3   OH266591   1.382   0.198   6.367  0.2439  0.0178  0.0104
15059TIP3    H166592   1.294   0.172   6.338 -0.9947  0.8267  2.6859
15059TIP3    H266593   1.375   0.203   6.463  3.0963  0.6007  0.2767
15060TIP3   OH266594   4.811   1.380  11.829  0.0899  0.1329 -0.2489
15060TIP3    H166595   4.730   1.368  11.877  0.3384 -0.9335 -0.0853
15060TIP3    H266596   4.868   1.309  11.859  1.0735  0.8480 -0.3821
15061TIP3   OH266597   6.280   5.427  12.320 -0.2849  0.5098  0.8627
15061TIP3    H166598   6.237   5.455  12.239 -0.2715 -2.2130 -0.1732
15061TIP3    H266599   6.347   5.494  12.336 -0.6623  1.4134 -1.0488
15062TIP3   OH266600   2.001   1.098   5.477  0.7286 -0.3577 -0.6069
15062TIP3    H166601   1.962   1.141   5.553  0.9433 -1.4449  0.1319
15062TIP3    H266602   2.016   1.170   5.415 -0.5300  0.3848 -0.1042
15063TIP3   OH266603   2.572   0.046   3.387 -0.0947  0.4235  0.1473
15063TIP3    H166604   2.596   0.124   3.337  2.7638  0.7620  1.7882
15063TIP3    H266605   2.552  -0.020   3.321  0.7312  1.6141 -1.3650
15064TIP3   OH266606   5.759   0.398  11.464  0.2060 -0.3713 -0.4133
15064TIP3    H166607   5.790   0.375  11.552 -0.9449  2.3850  0.8406
15064TIP3    H266608   5.664   0.388  11.469  0.2016 -1.1156 -1.6920
15065TIP3   OH266609   2.701   6.267  14.754  0.1716 -0.0037  0.1213
15065TIP3    H166610   2.712   6.172  14.757  0.6974  0.0768  1.4303
15065TIP3    H266611   2.647   6.287  14.831  1.0671  0.8753  0.5319
15066TIP3   OH266612   0.266   1.360   3.371  0.2508  0.3170 -0.0688
15066TIP3    H166613   0.277   1.454   3.383  2.0995  0.2228 -0.6407
15066TIP3    H266614   0.271   1.323   3.460  1.5696  0.6059 -0.0105
15067TIP3   OH266615   2.227   5.123   4.198  0.1792  0.1288  0.3242
15067TIP3    H166616   2.175   5.098   4.274  0.6961 -0.7460  0.4060
15067TIP3    H266617   2.300   5.173   4.233  0.2498 -0.0077  0.3727
15068TIP3   OH266618   2.770   4.980   4.083 -0.2333 -0.3110 -0.4834
15068TIP3    H166619   2.843   4.935   4.126 -0.1160 -0.5000 -0.8707
15068TIP3    H266620   2.809   5.061   4.050 -0.9077  1.1849  2.0841
15069TIP3   OH266621   6.204   1.274  15.474  0.0892 -0.3458  0.0309
15069TIP3    H166622   6.144   1.337  15.434 -0.8865 -0.8281  0.6792
15069TIP3    H266623   6.251   1.235  15.400 -3.3652 -2.9843 -1.0534
15070TIP3   OH266624   3.101   0.670  13.849 -0.1954  0.2408 -0.6242
15070TIP3    H166625   3.027   0.611  13.835 -0.0834 -0.4270  1.2913
15070TIP3    H266626   3.178   0.620  13.821 -0.2897  0.1955 -0.7989
15071TIP3   OH266627   4.958   1.921  11.523 -0.3033 -0.2623 -0.2988
15071TIP3    H166628   5.045   1.883  11.528  0.4383  1.3994 -0.0767
15071TIP3    H266629   4.930   1.906  11.432  0.3912 -0.3859 -0.4942
15072TIP3   OH266630   2.230   4.686  16.957  0.3215  0.8559  0.0677
15072TIP3    H166631   2.306   4.742  16.976  0.2078  0.8132  0.6664
15072TIP3    H266632   2.207   4.648  17.042 -2.4915  3.4660  0.6153
15073TIP3   OH266633   4.109   3.858   5.729  0.1651  0.1569  0.5238
15073TIP3    H166634   4.129   3.765   5.717 -0.8825 -0.0077 -0.1129
15073TIP3    H266635   4.194   3.900   5.742  0.9478 -0.5035 -1.9305
15074TIP3   OH266636   2.227   1.343  11.374 -0.4486  0.0774 -0.3852
15074TIP3    H166637   2.275   1.270  11.333 -1.9684 -0.3213 -1.5126
15074TIP3    H266638   2.296   1.399  11.409  0.8055 -2.6247  1.9039
15075TIP3   OH266639   4.892   1.902   4.357  0.0320 -0.1408 -0.1859
15075TIP3    H166640   4.969   1.871   4.309 -0.2331 -2.3421  0.6780
15075TIP3    H266641   4.900   1.997   4.358  3.3030 -0.3245  0.7774
15076TIP3   OH266642   0.457   4.929   3.627  0.0522  0.0961 -0.1037
15076TIP3    H166643   0.491   5.012   3.661  0.0664 -0.4747  1.3601
15076TIP3    H266644   0.466   4.937   3.532 -1.3020  2.3593 -0.1254
15077TIP3   OH266645   5.397   2.370   0.850  0.7744 -0.8875 -0.2809
15077TIP3    H166646   5.371   2.447   0.800 -0.6931 -1.1411  0.0300
15077TIP3    H266647   5.416   2.404   0.938  0.6891 -0.8012 -0.2957
15078TIP3   OH266648   5.571   5.104   2.751  0.0899 -0.5989 -0.2298
15078TIP3    H166649   5.554   5.028   2.695 -2.8034  0.1187 -0.4980
15078TIP3    H266650   5.490   5.155   2.747  1.0689  1.2881  1.8615
15079TIP3   OH266651   0.385   6.149  15.975  0.0669 -0.3914 -0.1270
15079TIP3    H166652   0.290   6.155  15.972 -0.0565 -0.7542  1.8098
15079TIP3    H266653   0.407   6.089  15.904 -1.0411  0.4452 -1.2189
15080TIP3   OH266654   4.467   1.733   5.680  0.1075  0.4652 -0.0103
15080TIP3    H166655   4.494   1.727   5.771 -1.0278  0.5726  0.3477
15080TIP3    H266656   4.372   1.726   5.683  0.1022 -0.3400 -1.2572
15081TIP3   OH266657   6.011   4.745  11.210  0.4111  0.2333  0.1064
15081TIP3    H166658   5.944   4.794  11.162  2.1987  1.4923 -1.2413
15081TIP3    H266659   6.040   4.805  11.279 -0.0422 -0.4318  0.8905
15082TIP3   OH266660   5.367   5.724  13.505  0.2227  0.0805  0.3284
15082TIP3    H166661   5.333   5.651  13.556  1.0869 -1.1734 -0.7998
15082TIP3    H266662   5.290   5.776  13.482 -0.6446 -1.4003 -0.2326
15083TIP3   OH266663   1.203   0.461  10.851  0.2307  0.7347 -0.5082
15083TIP3    H166664   1.182   0.467  10.758  0.5401  0.2455 -0.6129
15083TIP3    H266665   1.162   0.379  10.879 -0.3407  1.1590 -0.0822
15084TIP3   OH266666   1.930   5.167   5.311  0.3775 -0.1398  0.0625
15084TIP3    H166667   1.845   5.144   5.275  0.0237  2.9523 -1.3277
15084TIP3    H266668   1.932   5.125   5.397 -1.1101 -3.0092 -1.1743
15085TIP3   OH266669   5.401   3.985   3.503  0.5804 -0.2180  0.5389
15085TIP3    H166670   5.417   3.952   3.415  2.3110  1.0871  0.3179
15085TIP3    H266671   5.339   4.057   3.490  0.2544 -0.5033  0.4924
15086TIP3   OH266672   3.269   6.518  13.070  0.2963  0.7789 -0.5255
15086TIP3    H166673   3.353   6.472  13.069  0.0369  0.2572 -2.2815
15086TIP3    H266674   3.224   6.485  13.147  0.4752 -1.3126 -1.2507
15087TIP3   OH266675   0.069   1.020   2.622  0.4154  0.3198 -0.1995
15087TIP3    H166676   0.101   1.058   2.703  0.1402  1.1497 -0.4705
15087TIP3    H266677   0.045   1.095   2.568 -0.9075 -0.2524 -0.4383
15088TIP3   OH266678   3.637   4.236   6.599  0.3522 -0.3731  0.7299
15088TIP3    H166679   3.654   4.142   6.601  0.5636 -0.4338 -1.3587
15088TIP3    H266680   3.708   4.272   6.547  0.0846  0.9103  1.2160
15089TIP3   OH266681   6.413   5.931  14.105 -0.6465 -0.6094  0.1199
15089TIP3    H166682   6.424   5.995  14.176  2.4036  1.0018 -1.5817
15089TIP3    H266683   6.382   5.983  14.031  0.3516 -1.3727 -0.8588
15090TIP3   OH266684   6.680   1.209   6.385 -0.0014  0.2838  0.0954
15090TIP3    H166685   6.693   1.268   6.311 -1.9972  1.5740  0.6866
15090TIP3    H266686   6.585   1.203   6.394  0.1356 -2.6048  0.4436
15091TIP3   OH266687   4.850   0.359   2.100  0.5273  0.2063 -0.2567
15091TIP3    H166688   4.843   0.335   2.193 -0.4206 -0.0775 -0.3893
15091TIP3    H266689   4.935   0.323   2.073 -0.4701 -2.4073 -0.2361
15092TIP3   OH266690   0.909   1.635  11.014  0.0183 -0.9169 -0.0404
15092TIP3    H166691   0.919   1.552  10.968  2.4034  0.2684 -1.9099
15092TIP3    H266692   0.947   1.700  10.955 -1.2981  1.4788  1.5467
15093TIP3   OH266693   2.853   6.345   1.022 -0.4741  0.5142 -0.1282
15093TIP3    H166694   2.816   6.406   1.085  0.3679 -1.0668  2.0003
15093TIP3    H266695   2.817   6.260   1.046  2.1678 -0.6025  0.1748
15094TIP3   OH266696   3.366   6.059  16.825  0.3154 -0.1790  0.1180
15094TIP3    H166697   3.303   6.117  16.782  2.2943  2.9339  1.1023
15094TIP3    H266698   3.366   6.087  16.916  1.4321 -1.7570  0.6459
15095TIP3   OH266699   0.342   2.681  14.210  0.0396  0.4018 -0.0570
15095TIP3    H166700   0.433   2.711  14.215 -0.2544  1.4492 -0.6579
15095TIP3    H266701   0.297   2.750  14.162 -1.5951  1.1223  2.3075
15096TIP3   OH266702   2.945   5.473   2.902  0.2776 -0.0224  1.3097
15096TIP3    H166703   2.946   5.543   2.967  0.8529  1.2886 -0.0589
15096TIP3    H266704   3.037   5.461   2.877 -0.1124  1.5278 -1.2839
15097TIP3   OH266705   4.123   0.702   3.936  0.4662 -0.8439  0.4084
15097TIP3    H166706   4.109   0.776   3.877 -1.1648  0.6167  2.4905
15097TIP3    H266707   4.218   0.698   3.948  0.5299  1.8372  1.3254
15098TIP3   OH266708   3.380   0.140  14.141 -0.0980 -0.0942  0.4834
15098TIP3    H166709   3.329   0.210  14.100  1.3642  1.5636  1.3705
15098TIP3    H266710   3.339   0.060  14.110 -0.8556  1.1066 -1.8848
15099TIP3   OH266711   3.162   4.060  17.163  0.1431  0.3309  0.4824
15099TIP3    H166712   3.136   4.019  17.246 -1.9023 -0.6969 -0.5689
15099TIP3    H266713   3.079   4.069  17.115  1.4427 -0.9078 -2.2103
15100TIP3   OH266714   3.764   0.306   1.652 -0.1182  0.4982  0.2090
15100TIP3    H166715   3.702   0.328   1.582 -1.7669  0.6072  1.6496
15100TIP3    H266716   3.759   0.211   1.661  3.1738 -0.1391 -2.4986
15101TIP3   OH266717   4.064   3.208  12.430  0.0733 -0.2571  0.0674
15101TIP3    H166718   4.075   3.255  12.512 -0.5851  1.4841 -0.7799
15101TIP3    H266719   4.121   3.132  12.438 -2.0316 -1.7134  3.2283
15102TIP3   OH266720   3.980   6.527  16.710 -0.0339 -0.0525 -0.6653
15102TIP3    H166721   3.969   6.454  16.649 -1.2569 -0.2994 -0.1826
15102TIP3    H266722   3.895   6.535  16.753  0.5410  0.6863  0.3753
15103TIP3   OH266723   4.274   6.547  16.350 -0.1087  0.5791 -0.9127
15103TIP3    H166724   4.272   6.552  16.446  1.6070 -0.5309 -0.7837
15103TIP3    H266725   4.293   6.637  16.322  0.1562  0.7610 -0.1681
15104TIP3   OH266726   0.946   2.196   6.539 -0.4946 -0.7569 -0.1931
15104TIP3    H166727   0.947   2.276   6.592  1.3710  0.1980 -1.5395
15104TIP3    H266728   0.905   2.223   6.456 -2.0436 -1.8455  0.1863
15105TIP3   OH266729   5.229   4.482   4.514 -0.3652 -0.2181  0.0377
15105TIP3    H166730   5.176   4.554   4.479 -0.9870 -0.5379  0.3118
15105TIP3    H266731   5.167   4.411   4.528  0.0303 -0.4093  0.8989
15106TIP3   OH266732   6.664   2.567  16.068 -0.2481  0.0580  0.3416
15106TIP3    H166733   6.724   2.611  16.127 -2.9801  0.4028  3.1176
15106TIP3    H266734   6.694   2.476  16.065  2.7623  0.9532 -1.8326
15107TIP3   OH266735   5.114   3.459  11.906 -0.0797 -0.1738  0.3660
15107TIP3    H166736   5.193   3.496  11.865  0.1450  1.5996  2.2813
15107TIP3    H266737   5.112   3.368  11.874  1.2314  0.4847 -1.8350
15108TIP3   OH266738   5.030   2.946   5.220 -0.2319 -0.1917  0.4849
15108TIP3    H166739   5.019   3.038   5.195 -0.9264 -0.0563  1.2396
15108TIP3    H266740   5.091   2.949   5.294  0.8639 -0.4797 -0.3803
15109TIP3   OH266741   3.618   1.142   1.946 -0.5173  0.7444  0.6158
15109TIP3    H166742   3.675   1.070   1.921 -2.5531 -1.6868  2.5515
15109TIP3    H266743   3.587   1.177   1.862  0.3802 -0.7151 -0.3785
15110TIP3   OH266744   5.382   0.338   3.895 -0.0595 -0.4592 -0.0298
15110TIP3    H166745   5.300   0.369   3.858  0.6613  0.4934 -0.8775
15110TIP3    H266746   5.378   0.363   3.988  0.5524  2.4379 -0.6987
15111TIP3   OH266747   5.772   1.794  17.137 -0.3924 -0.2094 -0.1533
15111TIP3    H166748   5.767   1.707  17.099  1.1965 -0.5094  0.2727
15111TIP3    H266749   5.689   1.835  17.113 -1.5152 -2.0884  0.2936
15112TIP3   OH266750   6.785   1.909   0.213 -0.0101  0.0863 -0.5977
15112TIP3    H166751   6.813   1.909   0.121  2.2603 -1.8623 -0.0124
15112TIP3    H266752   6.865   1.891   0.262 -1.4150 -0.3586  1.6821
15113TIP3   OH266753   1.599   0.648   2.733  0.0432  0.1701  0.9473
15113TIP3    H166754   1.507   0.659   2.757  0.5062  2.2252  1.9765
15113TIP3    H266755   1.607   0.691   2.648  0.3704  1.4464  1.6126
15114TIP3   OH266756   1.693   5.296  15.434  0.4807 -0.5640  0.6909
15114TIP3    H166757   1.682   5.206  15.405 -2.0235  0.0092 -0.4617
15114TIP3    H266758   1.651   5.299  15.520  0.5315 -0.4793  0.7135
15115TIP3   OH266759   0.922   3.841   5.379  0.0312 -0.1197  0.2738
15115TIP3    H166760   0.840   3.879   5.413  0.1319 -0.4231  0.8626
15115TIP3    H266761   0.945   3.897   5.305 -1.2368 -0.6046 -0.5373
15116TIP3   OH266762   4.308   0.978   4.416  0.0785 -0.2256  0.4314
15116TIP3    H166763   4.381   0.963   4.356  0.1878 -1.4632  0.8474
15116TIP3    H266764   4.245   0.910   4.394 -0.4909  0.1779  0.7924
15117TIP3   OH266765   2.513   4.164   0.816  0.7477  0.2469 -0.3867
15117TIP3    H166766   2.487   4.164   0.723 -1.9029 -1.9368  0.2191
15117TIP3    H266767   2.480   4.248   0.850  0.7941  0.5946 -1.1733
15118TIP3   OH266768   6.047   0.801   0.787 -0.2984 -0.7648  0.3842
15118TIP3    H166769   6.059   0.720   0.737 -2.7286 -1.7380  1.2539
15118TIP3    H266770   6.135   0.820   0.821  0.7757 -1.7871 -1.6053
15119TIP3   OH266771   4.076   5.125  11.249 -0.3586  0.8044  0.1823
15119TIP3    H166772   4.090   5.050  11.308 -2.2365  0.8961  0.8273
15119TIP3    H266773   4.113   5.097  11.165  0.2680 -0.2657  0.7933
15120TIP3   OH266774   0.682   2.441  16.007  0.0718 -0.4865 -0.0569
15120TIP3    H166775   0.623   2.433  15.932 -1.4211  0.5254  0.9508
15120TIP3    H266776   0.706   2.350  16.028 -0.9568 -0.9204 -0.6452
15121TIP3   OH266777   3.657   2.334  15.769 -0.0299  0.2645  0.1646
15121TIP3    H166778   3.701   2.334  15.685  0.1377 -0.5966  0.2407
15121TIP3    H266779   3.609   2.250  15.771  0.5277 -0.0481  1.2019
15122TIP3   OH266780   5.344   2.355   3.277  0.2005  0.3698 -0.2416
15122TIP3    H166781   5.399   2.424   3.241  1.3273 -0.4752 -0.1928
15122TIP3    H266782   5.343   2.372   3.371  0.3409  0.4176 -0.2489
15123TIP3   OH266783   5.623   2.769  13.835  0.0228 -0.5516 -0.5753
15123TIP3    H166784   5.679   2.723  13.772  1.0846 -2.4477  1.5869
15123TIP3    H266785   5.582   2.698  13.885 -1.5278  0.8775  0.2454
15124TIP3   OH266786   1.103   3.266   0.781 -0.0979 -0.5239 -0.0552
15124TIP3    H166787   1.143   3.325   0.845 -1.4044  1.3425 -0.8596
15124TIP3    H266788   1.073   3.191   0.833  0.4064  0.1227  1.2292
15125TIP3   OH266789   6.338   0.516   5.284  0.2016  0.2379  0.2931
15125TIP3    H166790   6.377   0.514   5.196  0.8604  1.0778  0.5572
15125TIP3    H266791   6.349   0.607   5.313 -0.7059  0.1539  0.9407
15126TIP3   OH266792   6.764   6.315   2.929  0.5413 -0.1793 -0.8429
15126TIP3    H166793   6.759   6.220   2.932  2.2392 -0.2682 -0.0237
15126TIP3    H266794   6.736   6.344   3.016  2.4064 -0.0861 -0.2447
15127TIP3   OH266795   4.535   1.674  15.777  0.6368 -0.1078 -0.4264
15127TIP3    H166796   4.470   1.731  15.736  0.1541 -1.4908 -1.7034
15127TIP3    H266797   4.514   1.587  15.744  1.8232 -0.9174  0.8492
15128TIP3   OH266798   6.545   4.465  15.363  0.0486  0.5906  0.5587
15128TIP3    H166799   6.552   4.522  15.440  0.3113  0.7651  0.4085
15128TIP3    H266800   6.504   4.385  15.396 -0.5631  0.9648  0.7223
15129TIP3   OH266801   3.111   2.764   1.826 -0.2187 -0.4811  0.1020
15129TIP3    H166802   3.140   2.843   1.873 -1.5458 -0.2634  0.6134
15129TIP3    H266803   3.127   2.783   1.734  1.5945 -0.5495  0.3525
15130TIP3   OH266804   5.497   0.274  13.627 -0.2090  0.0182 -0.7972
15130TIP3    H166805   5.482   0.221  13.549  2.1794 -2.4466  0.2680
15130TIP3    H266806   5.590   0.298  13.623 -0.1161  0.1272  1.0850
15131TIP3   OH266807   4.765   6.313  15.466 -0.3222  0.4826  0.1440
15131TIP3    H166808   4.760   6.328  15.372  0.1425  0.4465  0.1122
15131TIP3    H266809   4.859   6.315  15.486 -0.4452  1.1724  0.7091
15132TIP3   OH266810   3.631   0.389  15.379 -0.1754 -0.6869  0.1864
15132TIP3    H166811   3.606   0.379  15.287 -1.2652  0.1894  0.3742
15132TIP3    H266812   3.693   0.318  15.394 -0.3441 -1.1377 -1.0933
15133TIP3   OH266813   4.034   2.892   0.132 -0.3908 -0.0317  0.0539
15133TIP3    H166814   4.086   2.906   0.210 -1.9525  0.1781  1.1124
15133TIP3    H266815   3.983   2.973   0.123  1.0013  0.6913 -2.2250
15134TIP3   OH266816   6.402   0.647  10.719 -0.3010 -0.0753 -0.1707
15134TIP3    H166817   6.366   0.706  10.652 -1.3964 -2.4528 -1.7922
15134TIP3    H266818   6.344   0.657  10.794 -0.8481  0.4184 -0.6524
15135TIP3   OH266819   2.271   0.656   5.928  0.0355 -0.4173  0.1028
15135TIP3    H166820   2.201   0.680   5.989  0.1838  0.5264 -0.0818
15135TIP3    H266821   2.305   0.573   5.962  1.3579  0.9580  2.4141
15136TIP3   OH266822   1.240   6.572  14.490  0.3579 -0.0720 -0.4858
15136TIP3    H166823   1.171   6.624  14.532 -0.5369 -1.6531  0.0848
15136TIP3    H266824   1.205   6.483  14.489  2.1663 -0.8134 -0.7318
15137TIP3   OH266825   3.664   0.470   5.795  0.2518 -0.2143 -0.0741
15137TIP3    H166826   3.641   0.476   5.888  1.3612 -0.4870  0.2371
15137TIP3    H266827   3.719   0.548   5.780 -0.3304  0.0936 -0.6301
15138TIP3   OH266828   2.688   6.580  11.014 -0.1510  0.1454  0.0441
15138TIP3    H166829   2.663   6.671  11.026  1.0553  0.2709  2.2203
15138TIP3    H266830   2.754   6.582  10.944 -0.4485  0.8749 -0.2211
15139TIP3   OH266831   0.026   2.265  12.513  0.9731  0.9185  0.4931
15139TIP3    H166832   0.048   2.218  12.594  1.0309  0.4433  0.2032
15139TIP3    H266833  -0.070   2.268  12.513  0.9461  0.2411  0.1997
15140TIP3   OH266834   2.208   3.377   2.132  0.0829 -0.0884 -0.1752
15140TIP3    H166835   2.238   3.298   2.086  0.7868  0.9345 -1.5219
15140TIP3    H266836   2.161   3.427   2.065 -0.5229  0.5707  0.7211
15141TIP3   OH266837   0.729   6.697   3.798 -0.0303  0.0998 -0.3513
15141TIP3    H166838   0.770   6.682   3.713 -0.5526 -2.7310 -0.2057
15141TIP3    H266839   0.797   6.674   3.862 -0.5256 -0.5578 -0.0518
15142TIP3   OH266840   6.185   3.157   3.805  0.4775  0.3608  0.0124
15142TIP3    H166841   6.117   3.161   3.738  0.2612 -1.2152  0.0938
15142TIP3    H266842   6.161   3.224   3.868 -0.5086  0.4237 -0.4157
15143TIP3   OH266843   3.438   3.222  14.073  0.6079  0.5362  0.2859
15143TIP3    H166844   3.374   3.151  14.072  0.0751  0.9531  1.9713
15143TIP3    H266845   3.449   3.243  14.165  1.5577  1.9366 -0.1164
15144TIP3   OH266846   5.686   3.145  10.960  0.6706  0.1653 -0.1078
15144TIP3    H166847   5.686   3.166  10.866  4.9893 -0.3810 -0.4048
15144TIP3    H266848   5.692   3.050  10.963  1.3390  0.2268  0.6838
15145TIP3   OH266849   1.186   5.836  11.587  0.1489  0.0164  0.2288
15145TIP3    H166850   1.140   5.849  11.504  1.8115  0.3644 -0.6907
15145TIP3    H266851   1.175   5.920  11.633  1.9276  1.0511 -1.0964
15146TIP3   OH266852   2.774   0.688   1.811 -0.0254 -0.0399 -0.3279
15146TIP3    H166853   2.813   0.661   1.728 -0.6345  0.9794 -0.9692
15146TIP3    H266854   2.792   0.781   1.817 -0.6351  0.0470  0.3211
15147TIP3   OH266855   0.057   2.591  12.152 -0.2420 -0.7117  0.8472
15147TIP3    H166856   0.108   2.668  12.174  0.9865 -1.4570  0.6741
15147TIP3    H266857   0.040   2.598  12.058 -0.1950 -0.6226  0.8465
15148TIP3   OH266858   2.119   0.898  13.370 -0.0687 -0.0329 -0.3388
15148TIP3    H166859   2.031   0.869  13.345 -0.5333  2.5229 -1.9412
15148TIP3    H266860   2.158   0.929  13.289  1.9844 -0.2092  0.5371
15149TIP3   OH266861   0.452   4.943   2.409  0.1930 -1.3271 -0.0129
15149TIP3    H166862   0.526   4.899   2.368  1.2844 -0.1646  0.6228
15149TIP3    H266863   0.460   5.034   2.382 -1.5350 -1.3102 -0.6294
15150TIP3   OH266864   5.980   6.114   5.711 -0.0738  0.5031  0.6729
15150TIP3    H166865   6.016   6.027   5.693 -4.0583 -1.4234  0.8289
15150TIP3    H266866   5.944   6.142   5.626  0.5760  1.7102  0.7866
15151TIP3   OH266867   6.238   4.860   5.410  0.2837 -0.4880 -1.0476
15151TIP3    H166868   6.165   4.883   5.468  2.1026  1.3309  0.6414
15151TIP3    H266869   6.254   4.768   5.428 -0.3615 -0.4194 -0.0063
15152TIP3   OH266870   6.659   4.816  14.402 -0.1647  0.2346  0.0827
15152TIP3    H166871   6.623   4.784  14.320 -0.7765  1.6465 -0.2236
15152TIP3    H266872   6.754   4.821  14.386 -0.2145 -0.0630 -0.3152
15153TIP3   OH266873   0.255   5.552   1.632 -0.4832  0.2388 -0.2573
15153TIP3    H166874   0.184   5.544   1.569  0.3267 -1.9002 -1.0004
15153TIP3    H266875   0.251   5.471   1.683  0.0652  1.0782  1.1698
15154TIP3   OH266876   1.475   4.283   5.727 -0.1817 -0.1496 -0.4546
15154TIP3    H166877   1.436   4.209   5.681  0.5120 -1.1679  0.5313
15154TIP3    H266878   1.545   4.313   5.669  1.7838 -2.4707  0.5174
15155TIP3   OH266879   4.240   4.982  14.208 -0.1244 -0.0650 -0.3233
15155TIP3    H166880   4.206   4.932  14.282  1.4320 -0.6316  0.0378
15155TIP3    H266881   4.243   5.072  14.239 -0.4712 -0.1401 -0.0668
15156TIP3   OH266882   6.197   5.085  17.012  0.1679 -0.4909  0.2425
15156TIP3    H166883   6.204   4.990  17.002 -0.8243 -0.9217  2.7934
15156TIP3    H266884   6.250   5.104  17.090  1.4867  1.3008 -1.0007
15157TIP3   OH266885   2.324   6.627  13.505  0.0562 -0.2356  0.1910
15157TIP3    H166886   2.310   6.708  13.456 -0.8887  0.0602  0.9125
15157TIP3    H266887   2.270   6.562  13.459  0.9734 -0.5250 -0.5106
15158TIP3   OH266888   6.438   5.316   0.526  0.1112 -0.3653 -0.5544
15158TIP3    H166889   6.485   5.384   0.575  0.4430 -0.2524 -1.0241
15158TIP3    H266890   6.354   5.308   0.572  0.6961 -0.7851  0.4722
15159TIP3   OH266891   2.242   3.737   3.217  0.2996 -0.0915 -0.1633
15159TIP3    H166892   2.327   3.756   3.177  0.8928 -2.1155  0.0146
15159TIP3    H266893   2.179   3.751   3.147  1.1932 -2.2753 -1.5263
15160TIP3   OH266894   6.355   3.251  12.500  0.0671 -0.0858 -0.2481
15160TIP3    H166895   6.422   3.294  12.555 -1.9821  1.7079  1.0058
15160TIP3    H266896   6.369   3.288  12.413  0.4775  0.5650  0.0853
15161TIP3   OH266897   4.883   3.656   0.167 -0.1522 -0.1351  0.2860
15161TIP3    H166898   4.799   3.632   0.127  0.1683 -1.3982  0.3394
15161TIP3    H266899   4.949   3.627   0.105  0.2704  0.4587  0.4488
15162TIP3   OH266900   2.209   4.802   3.820  0.0638 -0.2625 -0.1129
15162TIP3    H166901   2.192   4.853   3.740 -0.6397 -0.7694 -0.2973
15162TIP3    H266902   2.210   4.711   3.790  1.1424 -0.3791  0.2424
15163TIP3   OH266903   2.686   3.224  13.403  0.1209  0.1593  0.3193
15163TIP3    H166904   2.632   3.251  13.329  0.5101 -0.3722 -0.1736
15163TIP3    H266905   2.688   3.299  13.461 -0.7861  0.3316  0.1313
15164TIP3   OH266906   4.614   0.727  17.085  0.4656  0.1596  0.1356
15164TIP3    H166907   4.645   0.809  17.123  1.2372 -1.6428  3.8293
15164TIP3    H266908   4.691   0.687  17.048  0.0965  0.9807 -1.6280
15165TIP3   OH266909   3.741   2.491  15.979  0.0082 -0.0845 -0.6910
15165TIP3    H166910   3.709   2.581  15.975 -0.2139 -0.1580 -0.5574
15165TIP3    H266911   3.761   2.469  15.888 -0.1357  0.0262 -0.7498
15166TIP3   OH266912   3.607   2.069   2.231  0.2792  0.4944  0.4843
15166TIP3    H166913   3.593   2.119   2.151 -0.9088 -0.8057 -0.1493
15166TIP3    H266914   3.582   2.129   2.301 -0.0818  1.1452 -0.1963
15167TIP3   OH266915   4.711   0.981   1.763  0.2414  0.1268 -0.5584
15167TIP3    H166916   4.625   0.951   1.734 -0.1253 -0.0817  0.6683
15167TIP3    H266917   4.718   0.948   1.853  2.0207 -0.7144 -0.9645
15168TIP3   OH266918   1.222   5.354   1.713 -0.2200 -0.4268 -0.5327
15168TIP3    H166919   1.234   5.395   1.799  2.2014 -3.7612  0.9103
15168TIP3    H266920   1.295   5.386   1.661 -0.3230 -0.2759 -0.5879
15169TIP3   OH266921   3.224   5.006   4.869 -0.1931  0.2041 -0.5237
15169TIP3    H166922   3.131   4.996   4.886 -0.1250  1.7397  0.9685
15169TIP3    H266923   3.250   4.923   4.829 -2.0784 -0.4409 -0.4850
15170TIP3   OH266924   4.986   6.772   5.593 -0.3242  0.1233 -0.0117
15170TIP3    H166925   5.078   6.763   5.565 -0.7161  1.4030 -1.9205
15170TIP3    H266926   4.938   6.712   5.535 -0.6310 -1.4391  1.7556
15171TIP3   OH266927   1.296   4.366  16.516  0.3382  0.6653 -0.0168
15171TIP3    H166928   1.213   4.378  16.561 -0.1544  0.1938 -0.7864
15171TIP3    H266929   1.355   4.333  16.584 -0.0525  1.1575  0.5711
15172TIP3   OH266930   5.548   1.579  15.054 -0.5281 -0.6103  0.5739
15172TIP3    H166931   5.592   1.506  15.010 -2.5236 -1.0648 -0.7720
15172TIP3    H266932   5.512   1.541  15.134 -0.4733 -0.7923  0.5127
15173TIP3   OH266933   0.769   3.880  16.142  0.3098 -0.0400  0.1655
15173TIP3    H166934   0.687   3.836  16.163  0.1397 -0.7781 -1.7963
15173TIP3    H266935   0.762   3.902  16.049  2.5773 -0.7581 -0.2625
15174TIP3   OH266936   3.948   5.961  15.603  0.1370  0.1795  0.6179
15174TIP3    H166937   3.960   5.964  15.507  0.3717  0.3204  0.6493
15174TIP3    H266938   3.951   6.053  15.630 -2.2623  0.3485  0.5049
15175TIP3   OH266939   6.406   5.333   2.255 -0.2364  0.2677  0.2405
15175TIP3    H166940   6.398   5.275   2.330 -1.7411 -1.6994 -1.3349
15175TIP3    H266941   6.496   5.320   2.223 -0.2156 -0.3454  0.5488
15176TIP3   OH266942   3.058   2.394  14.668  0.0558 -0.2641  0.1198
15176TIP3    H166943   3.138   2.342  14.664  0.4056  0.2951 -0.3454
15176TIP3    H266944   3.049   2.418  14.760  2.3672  2.5723 -0.2217
15177TIP3   OH266945   0.992   3.543   3.840  0.4913 -0.6357  0.9611
15177TIP3    H166946   0.954   3.574   3.922  1.3966 -0.2540  1.2530
15177TIP3    H266947   0.999   3.622   3.786  0.8364 -0.6999  0.9056
15178TIP3   OH266948   3.410   4.193  11.787  0.1111  0.8816  0.4083
15178TIP3    H166949   3.331   4.139  11.795  1.8145 -1.8959 -0.3784
15178TIP3    H266950   3.376   4.282  11.778 -2.9282 -0.1614  0.1870
15179TIP3   OH266951   0.026   1.563  14.637 -0.1424 -0.2790 -0.1588
15179TIP3    H166952   0.105   1.602  14.602  2.1047 -2.5583  1.9411
15179TIP3    H266953   0.037   1.567  14.732 -2.7812 -0.2761  0.2223
15180TIP3   OH266954   4.944   4.903   2.276 -0.6930 -0.3538 -0.1256
15180TIP3    H166955   5.013   4.947   2.227 -0.2569  0.3081  1.0249
15180TIP3    H266956   4.940   4.952   2.359 -4.5300  1.5649 -1.2220
15181TIP3   OH266957   5.613   0.758   2.330  0.3739 -0.5174  0.1755
15181TIP3    H166958   5.697   0.750   2.283  1.2877  0.6419  1.5202
15181TIP3    H266959   5.591   0.851   2.322  0.5216 -0.3066  1.9322
15182TIP3   OH266960   0.612   4.978   3.897 -0.1543  0.0971  0.1476
15182TIP3    H166961   0.685   4.955   3.955 -1.2195  0.0554  1.5110
15182TIP3    H266962   0.559   4.899   3.893 -0.7752  0.5096  0.1556
15183TIP3   OH266963   4.859   1.558   4.425  0.1360 -0.0696  0.6410
15183TIP3    H166964   4.949   1.543   4.395 -0.8798 -2.5023 -1.6501
15183TIP3    H266965   4.855   1.513   4.510  1.2493  0.6924  1.1131
15184TIP3   OH266966   6.699   5.894   3.268  0.2112 -0.4585  0.6407
15184TIP3    H166967   6.730   5.979   3.237  1.2563 -1.0801 -0.0704
15184TIP3    H266968   6.656   5.914   3.351 -0.2698  0.8662  0.1000
15185TIP3   OH266969   3.479   5.941  14.159  0.2044  0.6153 -0.4450
15185TIP3    H166970   3.428   5.878  14.109  0.5652  0.2441 -0.3444
15185TIP3    H266971   3.443   5.937  14.247  0.0950  0.6982 -0.4849
15186TIP3   OH266972   3.719   1.631   0.270  0.5084  0.0631 -0.2741
15186TIP3    H166973   3.771   1.572   0.324  0.7600 -1.6271 -2.2173
15186TIP3    H266974   3.698   1.704   0.327  1.8827 -0.9667  1.6646
15187TIP3   OH266975   3.539   4.213  13.854 -0.3054 -0.1747 -0.1383
15187TIP3    H166976   3.527   4.300  13.893  1.6441 -0.1592  0.5366
15187TIP3    H266977   3.594   4.229  13.778  0.0707 -0.8145 -0.0025
15188TIP3   OH266978   0.696   6.671   2.614  0.1983  0.2512  0.1949
15188TIP3    H166979   0.676   6.649   2.523  1.9706  1.2594 -0.4783
15188TIP3    H266980   0.611   6.695   2.652 -0.5599 -0.1034 -1.2004
15189TIP3   OH266981   0.368   6.676   4.020  0.3276  0.2683  0.0034
15189TIP3    H166982   0.316   6.739   4.070 -0.4078  0.1223 -0.5479
15189TIP3    H266983   0.302   6.620   3.977  0.9576 -0.4603 -0.0356
15190TIP3   OH266984   1.859   5.019   0.738  0.2282 -0.3047 -0.6530
15190TIP3    H166985   1.838   5.000   0.647  1.8889 -0.9182 -0.9434
15190TIP3    H266986   1.803   5.093   0.761  0.3550  0.3880 -2.4104
15191TIP3   OH266987   3.261   0.544   1.919  0.5224 -0.1727  0.4875
15191TIP3    H166988   3.202   0.487   1.869  1.0213 -0.3882  0.1383
15191TIP3    H266989   3.203   0.606   1.962 -0.1106 -1.3774  1.4442
15192TIP3   OH266990   4.051   0.928   0.725  0.2062 -0.1777  1.0871
15192TIP3    H166991   4.015   1.017   0.733 -0.9749 -0.3905 -1.1632
15192TIP3    H266992   4.121   0.936   0.660  0.7069 -0.7701  1.5331
15193TIP3   OH266993   6.631   6.155  14.999  0.4367  0.4139 -0.0169
15193TIP3    H166994   6.544   6.161  15.039 -0.1887 -1.6461 -0.9275
15193TIP3    H266995   6.644   6.239  14.957 -0.4606  1.3013  1.3887
15194TIP3   OH266996   1.830   3.814   2.860  0.5326  0.1554  0.0795
15194TIP3    H166997   1.840   3.719   2.870  1.7672  0.1248 -1.1272
15194TIP3    H266998   1.788   3.826   2.775 -1.5235  0.6639  1.1074
15195TIP3   OH266999   3.398   4.306   0.514  0.0517  0.1753  0.5084
15195TIP3    H167000   3.426   4.371   0.578  0.3774  0.2882  0.2580
15195TIP3    H267001   3.446   4.329   0.434  1.3981 -1.3012  0.8213
15196TIP3   OH267002   5.357   0.607   3.377 -0.6647 -0.2621  0.0606
15196TIP3    H167003   5.402   0.550   3.439 -1.6828 -1.0257  0.1178
15196TIP3    H267004   5.332   0.550   3.305 -2.7867 -0.2015  0.6711
15197TIP3   OH267005   4.553   3.680   6.554  0.3326  0.0814  0.7109
15197TIP3    H167006   4.511   3.758   6.590 -0.4162  0.8527 -1.6791
15197TIP3    H267007   4.644   3.706   6.540  0.3836  0.1074  1.0946
15198TIP3   OH267008   5.306   4.575   4.942 -0.3269 -0.0616 -0.1104
15198TIP3    H167009   5.312   4.561   5.037  2.3078 -0.6387 -0.2716
15198TIP3    H267010   5.283   4.667   4.933  2.8961  1.0119  1.2068
15199TIP3   OH267011   0.721   5.735   4.123 -1.0383 -0.5583 -0.1446
15199TIP3    H167012   0.660   5.674   4.166  0.3346 -0.7832  1.5995
15199TIP3    H267013   0.707   5.818   4.167 -1.8474  0.0586 -1.5034
15200TIP3   OH267014   5.030   2.263   5.295 -0.3794  0.2905 -0.6529
15200TIP3    H167015   5.004   2.355   5.289  1.1360  0.8843  0.8950
15200TIP3    H267016   5.084   2.259   5.375  0.9828 -1.5867 -1.5935
15201TIP3   OH267017   0.007   4.781  11.170 -0.1745 -0.0169 -0.3684
15201TIP3    H167018   0.099   4.781  11.198 -0.4464  0.3359  0.5534
15201TIP3    H267019   0.011   4.798  11.076  0.7881 -1.7103 -0.6633
15202TIP3   OH267020   3.887   1.606  12.417 -0.4198 -0.1685 -0.1588
15202TIP3    H167021   3.841   1.687  12.438  0.9732  0.6939 -0.3275
15202TIP3    H267022   3.853   1.542  12.480 -3.7492 -0.3216 -1.8762
15203TIP3   OH267023   6.627   2.735  14.360  0.2581  0.1602  0.3776
15203TIP3    H167024   6.669   2.800  14.416 -0.1148  1.8086 -1.1398
15203TIP3    H267025   6.534   2.753  14.367  0.1680 -0.0214 -0.2586
15204TIP3   OH267026   3.319   4.497  15.160  0.0080 -0.2291  0.8752
15204TIP3    H167027   3.363   4.573  15.124 -0.0427 -0.3458  0.5582
15204TIP3    H267028   3.389   4.442  15.194  0.2375 -1.0075 -0.7688
15205TIP3   OH267029   5.092   3.246   5.715 -0.1904 -0.1872 -0.2993
15205TIP3    H167030   5.069   3.276   5.803 -1.1434 -0.5988 -0.3912
15205TIP3    H267031   5.012   3.205   5.683  0.2975 -0.4669 -1.1766
15206TIP3   OH267032   0.633   4.865   4.728  0.3453 -0.2267 -0.2021
15206TIP3    H167033   0.595   4.884   4.814 -0.2257 -0.7195 -0.3398
15206TIP3    H267034   0.601   4.935   4.672 -0.2284 -0.5411 -0.2758
15207TIP3   OH267035   3.870   2.441  14.096  0.7383  0.4118  0.2889
15207TIP3    H167036   3.860   2.427  14.191  0.9026  0.6503  0.3430
15207TIP3    H267037   3.963   2.426  14.080  0.5315 -0.6084 -0.0058
15208TIP3   OH267038   0.568   6.619  12.878 -0.1863 -0.4604 -0.4741
15208TIP3    H167039   0.548   6.581  12.793  0.9604  0.8681 -1.3839
15208TIP3    H267040   0.615   6.551  12.925  0.3415 -0.7542 -1.4162
15209TIP3   OH267041   2.069   0.779   3.234  0.1135 -0.0300 -0.5064
15209TIP3    H167042   2.115   0.805   3.314 -1.0273  1.0530 -0.1782
15209TIP3    H267043   2.079   0.854   3.175  2.3426 -1.4219 -2.0748
15210TIP3   OH267044   3.133   3.618  14.034 -1.0286  0.1732  0.0446
15210TIP3    H167045   3.066   3.686  14.027 -0.8987  0.3292  0.3070
15210TIP3    H267046   3.213   3.660  14.004 -0.7450  0.4429  1.1345
15211TIP3   OH267047   2.406   5.661  15.026  0.0481 -0.2482 -0.5738
15211TIP3    H167048   2.341   5.660  14.956 -2.0198  1.6483  1.1755
15211TIP3    H267049   2.357   5.686  15.104  2.3029 -1.9688  1.5471
15212TIP3   OH267050   0.771   0.613  16.968  0.6475  0.0830  0.5773
15212TIP3    H167051   0.715   0.564  17.029  1.3363 -0.4873  0.7548
15212TIP3    H267052   0.726   0.605  16.883  1.2526 -1.7262  0.3872
15213TIP3   OH267053   1.679   4.563  13.929  0.1120 -0.3479 -0.2634
15213TIP3    H167054   1.653   4.542  13.839  0.2205  1.1494 -0.6777
15213TIP3    H267055   1.612   4.524  13.984 -1.4333  0.9569 -1.1501
15214TIP3   OH267056   0.253   1.733  13.794 -0.3993  0.0766 -0.4253
15214TIP3    H167057   0.347   1.715  13.798 -0.0514  0.7466 -3.3121
15214TIP3    H267058   0.214   1.651  13.763 -0.3714  0.5836 -1.8680
15215TIP3   OH267059   0.284   1.463   1.070 -0.0214  0.8359 -0.1610
15215TIP3    H167060   0.225   1.449   1.144  0.1680 -1.0397 -0.3344
15215TIP3    H267061   0.234   1.436   0.993  1.5408 -2.5309 -0.1545
15216TIP3   OH267062   6.520   3.060  13.130  0.3131  0.1531  0.2176
15216TIP3    H167063   6.426   3.064  13.109  0.6640  0.2329 -1.4654
15216TIP3    H267064   6.536   3.139  13.183 -0.4579  0.4400  0.0429
15217TIP3   OH267065   6.637   2.663  14.899 -0.7790  0.0081 -0.0171
15217TIP3    H167066   6.697   2.729  14.863  0.1775 -0.6268  0.3770
15217TIP3    H267067   6.587   2.632  14.824 -1.1642  1.1020 -0.2275
15218TIP3   OH267068   4.731   3.339  14.651  0.2298  0.0447 -0.2919
15218TIP3    H167069   4.677   3.387  14.714 -0.9411  0.8597 -1.8484
15218TIP3    H267070   4.820   3.369  14.668 -0.4228  2.6963 -1.0433
15219TIP3   OH267071   5.445   3.672  15.380 -0.0794  0.0626 -0.1691
15219TIP3    H167072   5.529   3.690  15.421 -1.0627  0.3024  1.8817
15219TIP3    H267073   5.439   3.577  15.378  0.6576  0.0296 -1.2708
15220TIP3   OH267074   2.197   3.884   4.657  0.3866 -0.7800 -0.4104
15220TIP3    H167075   2.125   3.882   4.720  0.2066 -2.2131 -0.6236
15220TIP3    H267076   2.255   3.813   4.686  1.2199 -0.2758 -0.8142
15221TIP3   OH267077   1.863   4.153  15.382  0.3707  0.0637  0.1661
15221TIP3    H167078   1.773   4.186  15.385  0.9147  1.6270  0.1781
15221TIP3    H267079   1.888   4.161  15.290 -0.0846 -2.1227 -0.2062
15222TIP3   OH267080   2.706   0.659   3.457  0.1898  0.8339  0.2418
15222TIP3    H167081   2.683   0.680   3.367  0.4518  1.6884  0.3597
15222TIP3    H267082   2.789   0.611   3.450 -1.3873 -2.0260 -0.1645
15223TIP3   OH267083   5.184   5.529   5.479  0.0088 -0.3324 -0.3781
15223TIP3    H167084   5.178   5.509   5.572  1.8759 -1.1621 -0.3956
15223TIP3    H267085   5.196   5.624   5.475  0.2504 -0.3363  0.2545
15224TIP3   OH267086   3.316   3.578   0.700  0.1117  0.0886 -0.2768
15224TIP3    H167087   3.324   3.670   0.673 -2.3456  1.1986  2.2866
15224TIP3    H267088   3.229   3.552   0.671 -0.2322 -0.5676  1.2679
15225TIP3   OH267089   0.428   0.294   1.148  0.2209 -0.7324  0.9456
15225TIP3    H167090   0.425   0.224   1.213  0.7507 -2.1374 -0.4923
15225TIP3    H267091   0.411   0.251   1.064 -1.3120  1.1580  0.1895
15226TIP3   OH267092   3.890   2.005  14.115 -0.0961 -0.0307 -0.2632
15226TIP3    H167093   3.924   2.031  14.201 -0.4238  0.1265 -0.1798
15226TIP3    H267094   3.852   1.919  14.129 -0.0685 -0.0435 -0.2693
15227TIP3   OH267095   1.030   2.559  14.156  0.0082 -0.1065 -0.3725
15227TIP3    H167096   1.098   2.532  14.217 -0.3053  0.0121  0.0366
15227TIP3    H267097   1.035   2.495  14.084  1.3877  0.6534 -0.9802
15228TIP3   OH267098   3.346   3.066   1.814  0.1465  0.3614  0.2876
15228TIP3    H167099   3.312   3.106   1.734 -0.3423 -1.8510 -0.6970
15228TIP3    H267100   3.425   3.020   1.786 -1.0686 -2.0833  0.5280
15229TIP3   OH267101   4.985   2.063   6.715  0.5567 -0.3523  0.2646
15229TIP3    H167102   5.070   2.076   6.672  0.9674  1.7440  1.5896
15229TIP3    H267103   5.000   1.989   6.774  1.6241  0.2780  0.8181
15230TIP3   OH267104   6.744   5.444   5.972 -0.1569 -0.1611  0.7613
15230TIP3    H167105   6.696   5.521   6.002  0.3334  0.8734 -0.9708
15230TIP3    H267106   6.680   5.396   5.918  0.3239  0.5313 -0.4625
15231TIP3   OH267107   1.690   6.754   4.411 -0.6480 -0.2002  0.0590
15231TIP3    H167108   1.758   6.781   4.472 -0.2700 -1.2225  0.1177
15231TIP3    H267109   1.731   6.683   4.360 -0.9899  0.5447 -1.3013
15232TIP3   OH267110   3.397   3.112   6.316 -0.1436  0.1996  0.3722
15232TIP3    H167111   3.309   3.075   6.322  1.3144 -3.6409  1.2383
15232TIP3    H267112   3.417   3.110   6.222 -0.2817 -1.0019  0.3423
15233TIP3   OH267113   1.720   4.547   5.065  0.2941 -0.2804  0.3333
15233TIP3    H167114   1.803   4.550   5.112  1.2830 -0.1074 -1.3483
15233TIP3    H267115   1.670   4.620   5.100  0.3445 -1.0707  2.1946
15234TIP3   OH267116   1.229   0.627  14.345 -0.1528  0.7201 -0.0916
15234TIP3    H167117   1.183   0.644  14.263 -0.2550 -0.3660 -0.2725
15234TIP3    H267118   1.286   0.552  14.326  0.5208  1.0553  0.5669
15235TIP3   OH267119   1.451   3.465  11.998  0.0723 -0.0949  0.2417
15235TIP3    H167120   1.437   3.415  12.078 -0.3099 -1.8018 -0.8387
15235TIP3    H267121   1.457   3.399  11.929 -1.5172  1.3575 -1.4149
15236TIP3   OH267122   1.771   4.263   5.874  0.0635 -0.8029 -0.4798
15236TIP3    H167123   1.691   4.226   5.837  0.4838 -1.2955 -0.9198
15236TIP3    H267124   1.771   4.354   5.845 -1.8428  0.1027  2.0193
15237TIP3   OH267125   5.490   5.990  15.240 -0.0311  0.4041 -0.3627
15237TIP3    H167126   5.500   5.994  15.335  2.5016  0.2842 -0.5604
15237TIP3    H267127   5.463   6.078  15.215 -0.9112  0.3836  0.4714
15238TIP3   OH267128   3.389   4.890   4.136  0.4295  0.0285  0.0683
15238TIP3    H167129   3.482   4.883   4.114  0.1556 -1.0810 -0.8167
15238TIP3    H267130   3.351   4.808   4.105 -0.6850  0.0533  1.2859
15239TIP3   OH267131   4.683   5.289   4.987 -0.0284 -0.0757  0.2776
15239TIP3    H167132   4.626   5.213   4.998 -0.4752  0.0790 -0.8537
15239TIP3    H267133   4.764   5.266   5.034 -0.8264 -0.4869  1.5020
15240TIP3   OH267134   6.216   5.806  16.935 -0.2185  0.2536 -0.2148
15240TIP3    H167135   6.208   5.876  16.870  0.9328  0.6434  0.0332
15240TIP3    H267136   6.235   5.851  17.017  0.5558 -0.3448 -0.0538
15241TIP3   OH267137   4.300   3.986  17.144 -0.4653 -0.5821  0.2292
15241TIP3    H167138   4.333   3.915  17.089 -0.1691  0.2573 -0.6891
15241TIP3    H267139   4.333   3.965  17.232 -0.4335 -1.6100 -0.0170
15242TIP3   OH267140   4.546   2.411  15.833  0.6435  0.0109 -0.5442
15242TIP3    H167141   4.638   2.437  15.841  0.2502  1.0549  1.1998
15242TIP3    H267142   4.527   2.366  15.916 -0.4072 -0.2001 -0.8884
15243TIP3   OH267143   2.203   2.684  15.127  0.1015  0.0230  0.2646
15243TIP3    H167144   2.150   2.733  15.189 -2.8114 -1.2099 -1.0664
15243TIP3    H267145   2.197   2.593  15.157  1.0744 -0.2247 -0.2318
15244TIP3   OH267146   6.692   2.323  15.717  0.6976  0.2840  0.5967
15244TIP3    H167147   6.757   2.377  15.762  1.6522 -1.1146  0.9810
15244TIP3    H267148   6.694   2.353  15.627  3.0814 -0.7379  0.2367
15245TIP3   OH267149   2.103   4.046  13.596  0.1215 -0.2903  0.5184
15245TIP3    H167150   2.091   3.985  13.523  0.8193  1.0239 -0.7398
15245TIP3    H267151   2.044   4.014  13.664  0.6582 -2.5132  0.0110
15246TIP3   OH267152   0.395   5.898  12.023 -0.6449 -0.0152 -0.0579
15246TIP3    H167153   0.367   5.975  11.974 -1.4662 -1.4965 -2.0916
15246TIP3    H267154   0.313   5.856  12.049 -0.2324  0.7675  2.8197
15247TIP3   OH267155   5.471   5.243  11.720 -0.0406 -0.3305  0.5241
15247TIP3    H167156   5.475   5.273  11.810 -0.9318  3.4075 -0.4868
15247TIP3    H267157   5.560   5.215  11.699  0.4130 -0.2748  2.2724
15248TIP3   OH267158   3.240   2.047   2.607  0.3856 -0.4236  0.1689
15248TIP3    H167159   3.179   1.977   2.586 -0.4914  0.4728 -0.3578
15248TIP3    H267160   3.300   2.009   2.671  0.8097 -2.0764 -1.1625
15249TIP3   OH267161   5.603   6.474   0.468  0.1823  0.5717  0.1422
15249TIP3    H167162   5.664   6.493   0.397  0.1701  0.6106  0.1424
15249TIP3    H267163   5.522   6.517   0.442  0.3210  1.0100  0.4182
15250TIP3   OH267164   0.573   2.213   6.053 -0.7683 -0.3468 -0.3198
15250TIP3    H167165   0.640   2.267   6.012 -0.3264  1.7580  2.8205
15250TIP3    H267166   0.618   2.131   6.075  1.0613  1.2031  2.1472
15251TIP3   OH267167   3.953   4.437  14.526 -0.1025 -0.0573 -0.0130
15251TIP3    H167168   3.988   4.489  14.454  1.3168 -1.6396 -0.5350
15251TIP3    H267169   3.860   4.427  14.507  0.2092 -0.2700 -1.5157
15252TIP3   OH267170   0.187   4.815   1.694 -0.0135  0.1120 -0.0053
15252TIP3    H167171   0.274   4.783   1.716 -0.3214 -0.6383  0.1482
15252TIP3    H267172   0.188   4.827   1.599 -0.4003 -1.9900 -0.3291
15253TIP3   OH267173   2.300   4.946   0.939  0.2384  0.4432 -0.1025
15253TIP3    H167174   2.373   4.890   0.913  1.8315  0.8059  3.0661
15253TIP3    H267175   2.222   4.905   0.901  1.9491 -0.2797 -3.1236
15254TIP3   OH267176   2.742   5.710   0.837 -0.0314 -0.0891 -0.5237
15254TIP3    H167177   2.814   5.678   0.783  0.7674 -0.8077  0.9098
15254TIP3    H267178   2.739   5.650   0.911  0.0573  1.8347  1.1344
15255TIP3   OH267179   4.644   3.548   0.549  0.5153  0.0768 -0.3602
15255TIP3    H167180   4.662   3.622   0.607  1.6289  0.4392 -1.1226
15255TIP3    H267181   4.584   3.492   0.598 -0.0763  1.3066  0.3762
15256TIP3   OH267182   4.896   1.547   5.571  0.3490  0.1778 -0.3376
15256TIP3    H167183   4.932   1.634   5.590  1.3556 -0.4386  0.7732
15256TIP3    H267184   4.964   1.505   5.518 -0.3216  0.1926 -1.2343
15257TIP3   OH267185   6.315   0.714  11.722  1.1095 -0.0013 -0.1195
15257TIP3    H167186   6.403   0.711  11.759  0.9163  1.8312  0.5793
15257TIP3    H267187   6.275   0.631  11.748  2.3269 -0.4760  0.3044
15258TIP3   OH267188   1.700   2.896   1.781  0.1522 -0.2082 -0.0261
15258TIP3    H167189   1.660   2.866   1.699  0.8178 -2.0548  0.2740
15258TIP3    H267190   1.664   2.837   1.848 -0.3547  1.2431  1.0349
15259TIP3   OH267191   1.512   0.959  11.098  0.5479  0.5943  0.1710
15259TIP3    H167192   1.433   0.977  11.046  0.8884  0.4431 -0.4036
15259TIP3    H267193   1.516   1.031  11.161 -0.3491  0.3154  0.5616
15260TIP3   OH267194   6.743   2.805  14.106 -0.1835  0.1268  0.1257
15260TIP3    H167195   6.699   2.767  14.182  1.4430 -1.8815  0.1346
15260TIP3    H267196   6.751   2.733  14.043  2.0305  0.6716 -0.3112
15261TIP3   OH267197   1.501   5.457  15.113 -0.2422 -0.2889 -0.2011
15261TIP3    H167198   1.478   5.383  15.169  0.0132  0.1924  0.5566
15261TIP3    H267199   1.489   5.424  15.024  3.2209 -2.4808 -0.0709
15262TIP3   OH267200   6.239   6.135  14.505  0.1769  0.3632  0.0668
15262TIP3    H167201   6.218   6.145  14.412  1.6868  0.3784 -0.2924
15262TIP3    H267202   6.283   6.051  14.512  0.6019  0.6255  0.6693
15263TIP3   OH267203   5.936   5.056  12.498  0.1911  0.5369  0.0744
15263TIP3    H167204   6.016   5.057  12.446  0.6673 -1.0485  0.7014
15263TIP3    H267205   5.918   4.963  12.512 -0.3091  0.8878  2.1155
15264TIP3   OH267206   1.948   2.706  14.852  0.6170  0.0654  0.3786
15264TIP3    H167207   2.033   2.661  14.849  1.1855  1.0150  1.4629
15264TIP3    H267208   1.887   2.643  14.814  2.0701  0.0258 -2.1287
15265TIP3   OH267209   2.960   2.484  11.749  0.1826  0.4049  0.2106
15265TIP3    H167210   2.993   2.446  11.668  0.9941  1.6786 -0.0872
15265TIP3    H267211   2.920   2.411  11.795  0.2963 -0.4760 -1.0348
15266TIP3   OH267212   2.146   1.496  14.734 -0.1019  0.4730  0.8793
15266TIP3    H167213   2.052   1.497  14.717  0.0931 -1.0832 -0.6730
15266TIP3    H267214   2.154   1.470  14.825 -1.1894 -1.0529  0.5869
15267TIP3   OH267215   0.121   5.033   2.619 -0.2455 -0.3141 -0.2353
15267TIP3    H167216   0.039   5.083   2.616 -0.4277 -0.4812  1.0528
15267TIP3    H267217   0.190   5.100   2.621 -0.4837 -0.0565  1.3250
15268TIP3   OH267218   4.420   6.368  10.623  0.0340  0.6444  0.5060
15268TIP3    H167219   4.465   6.413  10.552 -0.0553  0.1871  0.1504
15268TIP3    H267220   4.469   6.286  10.635 -1.4382 -0.5010 -0.8021
15269TIP3   OH267221   0.990   0.650  12.056  0.2609 -0.8230  0.1579
15269TIP3    H167222   1.031   0.601  11.985 -0.0865 -0.8046 -0.0580
15269TIP3    H267223   0.962   0.732  12.015 -2.6337 -1.9903 -0.4572
15270TIP3   OH267224   2.924   3.959   6.295 -0.2605 -0.2746  0.4724
15270TIP3    H167225   2.945   4.047   6.327  2.3252 -1.0978  1.2595
15270TIP3    H267226   2.829   3.961   6.282 -0.0344  3.5837 -2.5913
15271TIP3   OH267227   4.027   2.013  14.356 -0.6385  0.1524 -0.0086
15271TIP3    H167228   4.092   1.943  14.363 -1.4388 -0.5319  0.7786
15271TIP3    H267229   3.948   1.977  14.395 -1.9975  0.3947 -2.3187
15272TIP3   OH267230   5.594   2.397   0.196 -0.4848 -0.0823 -0.0369
15272TIP3    H167231   5.523   2.372   0.136  0.7273  0.7457 -1.9417
15272TIP3    H267232   5.663   2.333   0.179  0.1689  0.6303 -0.1381
15273TIP3   OH267233   4.250   2.058   3.858 -1.0912 -0.3466  0.1799
15273TIP3    H167234   4.213   1.978   3.819 -1.7477  0.9137 -1.9657
15273TIP3    H267235   4.181   2.091   3.915 -1.0595 -0.9654  0.5836
15274TIP3   OH267236   0.928   3.202   3.959 -0.1870 -0.4509  0.0917
15274TIP3    H167237   0.916   3.257   3.882  2.0201  0.4369  0.3072
15274TIP3    H267238   0.923   3.262   4.033 -0.8357 -1.0627  0.5603
15275TIP3   OH267239   1.502   4.917  14.854 -0.0034  0.6113 -0.2957
15275TIP3    H167240   1.441   4.887  14.788  0.1169  1.3276 -0.7404
15275TIP3    H267241   1.512   5.011  14.838  0.8929  0.5844  0.0229
15276TIP3   OH267242   1.678   1.563   0.342  0.3886  0.0548  0.0657
15276TIP3    H167243   1.645   1.631   0.284 -0.2136  0.4676  0.8686
15276TIP3    H267244   1.773   1.579   0.346  0.6508 -0.8039 -1.8156
15277TIP3   OH267245   1.613   5.178  10.846  0.3337 -0.8177  0.0297
15277TIP3    H167246   1.612   5.238  10.921 -0.3226 -1.8001  0.8274
15277TIP3    H267247   1.706   5.163  10.828  0.4950 -0.2747  0.3884
15278TIP3   OH267248   2.377   5.069   5.169  0.5656 -0.0341 -0.0229
15278TIP3    H167249   2.456   5.048   5.120 -1.0297 -0.6048 -2.5113
15278TIP3    H267250   2.344   5.150   5.130 -0.6870 -0.4189  0.1824
15279TIP3   OH267251   0.620   3.029  16.489  0.0382  0.2117 -0.1247
15279TIP3    H167252   0.599   3.121  16.501  2.1336  0.7054  0.1861
15279TIP3    H267253   0.602   3.011  16.397 -1.2530  0.6641  0.0323
15280TIP3   OH267254   0.852   0.869   4.488  0.1375 -0.1956 -0.0672
15280TIP3    H167255   0.828   0.894   4.399 -1.1308 -0.9436  0.0302
15280TIP3    H267256   0.808   0.785   4.502  0.5226 -0.2163  1.1747
15281TIP3   OH267257   1.064   4.407  13.916 -0.2476  0.1266 -0.7638
15281TIP3    H167258   1.087   4.318  13.890 -0.4168 -0.5496  1.2485
15281TIP3    H267259   0.986   4.427  13.864 -0.2782 -0.9346 -1.1630
15282TIP3   OH267260   5.273   3.214   5.071 -0.7062  0.4074 -0.0331
15282TIP3    H167261   5.341   3.276   5.044  0.3378 -1.2954 -1.4860
15282TIP3    H267262   5.254   3.238   5.162  1.4232  1.2981  0.2420
15283TIP3   OH267263   2.495   6.048  12.361  0.3612  0.2407 -0.2214
15283TIP3    H167264   2.488   5.960  12.398  1.5089 -0.1227 -0.8409
15283TIP3    H267265   2.458   6.041  12.273 -0.0288  0.5129 -0.0846
15284TIP3   OH267266   2.402   1.150   4.276 -0.1922  0.2952  0.4277
15284TIP3    H167267   2.444   1.215   4.332 -0.6667 -0.1755  1.3586
15284TIP3    H267268   2.381   1.077   4.335  2.2233 -1.6866 -0.9428
15285TIP3   OH267269   6.285   1.834  15.480 -1.0303  0.2266 -0.4008
15285TIP3    H167270   6.339   1.824  15.401 -0.1748 -1.7290  0.3645
15285TIP3    H267271   6.347   1.833  15.552 -1.8753  1.0896  0.3652
15286TIP3   OH267272   4.436   5.528  14.955 -0.5069  0.5363 -0.1633
15286TIP3    H167273   4.341   5.520  14.964 -0.4758 -1.1252 -0.8971
15286TIP3    H267274   4.458   5.465  14.886  1.5948 -2.0977  2.6865
15287TIP3   OH267275   6.308   4.633  11.193  0.7117 -0.5948 -0.2532
15287TIP3    H167276   6.218   4.630  11.225  0.1963  0.1918 -1.5667
15287TIP3    H267277   6.343   4.545  11.212 -1.0432 -1.6706 -1.6883
15288TIP3   OH267278   4.791   4.408  10.676  0.3237  0.4191 -0.2370
15288TIP3    H167279   4.858   4.388  10.741  0.9808  0.3143 -0.9337
15288TIP3    H267280   4.762   4.323  10.643 -0.7859  0.4223  0.6725
15289TIP3   OH267281   2.270   1.975  15.571  1.0835 -0.4139 -0.0607
15289TIP3    H167282   2.260   2.054  15.624  0.6098 -0.7788  0.4170
15289TIP3    H267283   2.187   1.967  15.524  1.0456 -0.7352  0.0551
15290TIP3   OH267284   5.967   4.584  15.401 -0.0321 -0.3369  0.2728
15290TIP3    H167285   6.058   4.589  15.429  1.0908  1.5114 -3.0754
15290TIP3    H267286   5.928   4.667  15.428  0.5175  0.6211 -1.6806
15291TIP3   OH267287   0.237   0.448   1.318 -0.2647  0.1486  0.1227
15291TIP3    H167288   0.281   0.532   1.307 -0.4120  0.1231 -0.6798
15291TIP3    H267289   0.222   0.416   1.229  1.8507 -1.8094  0.3924
15292TIP3   OH267290   1.363   0.701  14.977  0.3140 -0.0752  0.1732
15292TIP3    H167291   1.454   0.724  14.956  0.8453  0.0430  2.3881
15292TIP3    H267292   1.362   0.693  15.072 -2.4713  1.9260  0.4139
15293TIP3   OH267293   1.354   5.048  14.255  0.6660 -0.4342 -0.5874
15293TIP3    H167294   1.410   5.093  14.192  1.2948  0.4270  0.5500
15293TIP3    H267295   1.302   4.987  14.202  0.1135  1.2823 -2.1503
15294TIP3   OH267296   5.186   3.354   1.281  0.1820  0.0247  0.3538
15294TIP3    H167297   5.161   3.275   1.329  1.9360  0.9264  2.9700
15294TIP3    H267298   5.244   3.322   1.212 -0.3395 -1.0942  0.4080
15295TIP3   OH267299   2.011   5.039   5.085 -0.5159  0.0798  0.1648
15295TIP3    H167300   1.993   5.108   5.148 -1.1839 -0.4357  0.5541
15295TIP3    H267301   2.090   5.068   5.039 -0.3973  0.7687  0.7858
15296TIP3   OH267302   6.146   0.691   3.931  0.0574  0.2521 -0.2726
15296TIP3    H167303   6.179   0.777   3.957 -1.3855  0.8729 -0.3608
15296TIP3    H267304   6.167   0.634   4.005  0.1252  0.9204  0.2359
15297TIP3   OH267305   0.945   2.449   2.060  0.3055 -0.2803 -0.3467
15297TIP3    H167306   1.014   2.396   2.099 -0.1133 -1.0049 -0.5632
15297TIP3    H267307   0.978   2.539   2.064  0.1242 -0.2683  1.9974
15298TIP3   OH267308   2.651   5.261  16.198  0.4686  0.1134  0.6503
15298TIP3    H167309   2.601   5.337  16.168  1.0243 -0.0511 -0.7887
15298TIP3    H267310   2.605   5.231  16.276 -0.3727  1.2975  0.6304
15299TIP3   OH267311   6.786   1.460   0.348 -0.6355 -0.3614 -0.0795
15299TIP3    H167312   6.853   1.494   0.288 -1.0340 -1.0672 -0.9618
15299TIP3    H267313   6.725   1.413   0.291 -0.4237 -2.0216  0.9821
15300TIP3   OH267314   4.837   6.610  15.654  0.6467 -0.0770 -0.5376
15300TIP3    H167315   4.823   6.705  15.660 -0.9255 -0.3717  2.0530
15300TIP3    H267316   4.864   6.596  15.563  1.2361  2.8709 -0.9347
15301TIP3   OH267317   1.389   3.138  12.801 -0.1402 -0.7554  0.4994
15301TIP3    H167318   1.378   3.061  12.857 -0.3017 -1.2013 -0.1326
15301TIP3    H267319   1.482   3.159  12.806 -0.4326  0.3425  2.3838
15302TIP3   OH267320   0.014   2.383   1.611  0.1076  0.4407  0.8754
15302TIP3    H167321  -0.014   2.474   1.601  0.1571  0.4878  1.1792
15302TIP3    H267322   0.109   2.386   1.596 -0.1262  0.1766 -0.8692
15303TIP3   OH267323   4.006   2.757   5.237 -0.1709  0.4567  0.3602
15303TIP3    H167324   4.015   2.838   5.187  0.6012  0.1132 -0.0624
15303TIP3    H267325   3.919   2.764   5.277 -0.6925  0.8690 -0.7938
15304TIP3   OH267326   3.915   5.657  15.239 -0.7797  0.3771 -0.2991
15304TIP3    H167327   3.845   5.642  15.303 -0.4149  2.9082  0.8631
15304TIP3    H267328   3.869   5.676  15.157 -1.4400  0.9102  0.1814
15305TIP3   OH267329   5.539   1.897  11.613 -0.3533 -0.0843  0.7189
15305TIP3    H167330   5.576   1.854  11.690 -0.0463  1.3518  1.3881
15305TIP3    H267331   5.536   1.827  11.547 -0.6581 -1.3390  2.0149
15306TIP3   OH267332   5.126   4.871   3.510  0.1951  0.7206 -0.1113
15306TIP3    H167333   5.105   4.815   3.585  2.7503 -1.3980 -0.8356
15306TIP3    H267334   5.216   4.900   3.526  0.9048  0.0202 -2.4046
15307TIP3   OH267335   2.168   2.880   0.144 -0.1441  0.0560  0.1267
15307TIP3    H167336   2.263   2.875   0.158  0.3381  2.3029 -1.6506
15307TIP3    H267337   2.138   2.944   0.209 -0.5785 -0.9925  0.9981
15308TIP3   OH267338   2.338   5.590   0.013  0.3701 -0.2466  0.1681
15308TIP3    H167339   2.381   5.672   0.036 -0.3456  0.2775 -0.3275
15308TIP3    H267340   2.346   5.536   0.091 -2.5485  1.7079  2.0196
15309TIP3   OH267341   1.316   4.254  14.100 -0.9060 -0.3499 -0.1275
15309TIP3    H167342   1.380   4.183  14.090  0.2091  0.6434 -0.2114
15309TIP3    H267343   1.241   4.226  14.047  0.1138 -0.7879 -1.4041
15310TIP3   OH267344   5.504   3.317  11.902  0.3777 -0.5598  0.1306
15310TIP3    H167345   5.551   3.295  11.822  2.2673 -0.0963  1.0461
15310TIP3    H267346   5.500   3.412  11.903 -1.1143 -0.6022 -0.1937
15311TIP3   OH267347   2.945   5.628   2.659 -0.1929 -0.0534 -0.0320
15311TIP3    H167348   2.870   5.618   2.601  0.1296  0.7305 -0.5817
15311TIP3    H267349   2.940   5.551   2.717 -1.0256 -0.3607 -0.4980
15312TIP3   OH267350   5.268   6.649  13.446 -0.1103 -0.2121 -0.5375
15312TIP3    H167351   5.217   6.727  13.467 -2.9496 -2.3642  1.3414
15312TIP3    H267352   5.240   6.626  13.357 -1.6442 -0.7688  0.0735
15313TIP3   OH267353   0.878   1.899  14.392 -0.1256 -0.1509  0.1273
15313TIP3    H167354   0.814   1.964  14.424  1.0469  1.9568 -1.5222
15313TIP3    H267355   0.963   1.940  14.408  0.7367 -1.8548  0.1109
15314TIP3   OH267356   5.483   4.966  10.907  0.1959 -0.0369  0.6754
15314TIP3    H167357   5.561   4.910  10.903  1.3072  1.4034  1.2204
15314TIP3    H267358   5.513   5.050  10.874 -1.5378  0.1699 -0.5019
15315TIP3   OH267359   2.297   5.283  13.171 -0.3612  0.3765  0.3412
15315TIP3    H167360   2.226   5.238  13.217 -0.0319  0.4639  0.9493
15315TIP3    H267361   2.253   5.349  13.117 -0.9723 -1.5844 -1.7059
15316TIP3   OH267362   1.705   5.995   3.844 -0.5037 -0.0110  0.1035
15316TIP3    H167363   1.728   6.050   3.768 -0.2775  0.3401  0.4207
15316TIP3    H267364   1.665   6.056   3.906 -0.6584 -0.2910  0.2796
15317TIP3   OH267365   2.910   6.151  14.605  0.2762  0.2539 -0.9482
15317TIP3    H167366   2.987   6.205  14.621  0.4648  0.0478 -1.1522
15317TIP3    H267367   2.838   6.201  14.642  0.6388 -0.0074  0.1653
15318TIP3   OH267368   0.418   3.670   2.309 -0.1262  0.3714  0.3868
15318TIP3    H167369   0.441   3.761   2.291 -1.0370  0.3669 -1.0089
15318TIP3    H267370   0.499   3.621   2.294  1.5523  1.2531  5.0731
15319TIP3   OH267371   1.889   0.601   6.407  0.2248  0.0814 -0.0873
15319TIP3    H167372   1.938   0.674   6.444 -0.5169  0.1197  0.8595
15319TIP3    H267373   1.935   0.523   6.438 -0.0748  0.1259  0.4990
15320TIP3   OH267374   6.532   0.093   3.624 -0.3259  0.2214  0.3628
15320TIP3    H167375   6.498   0.006   3.606 -0.4574 -0.1175  2.0448
15320TIP3    H267376   6.611   0.100   3.570 -0.9102 -0.4954 -0.6082
15321TIP3   OH267377   4.586   4.531  13.848 -0.0042 -0.2934  0.1498
15321TIP3    H167378   4.620   4.579  13.923 -0.6472 -2.6451  2.0517
15321TIP3    H267379   4.653   4.465  13.829 -0.3786 -0.4773 -0.5814
15322TIP3   OH267380   0.202   3.324  12.832  0.2268  0.2360 -0.0510
15322TIP3    H167381   0.250   3.253  12.788 -1.2585 -1.4518  0.9220
15322TIP3    H267382   0.265   3.361  12.893  0.6537 -1.1848  0.4030
15323TIP3   OH267383   3.931   0.973  15.818  0.2036 -0.0163 -0.3084
15323TIP3    H167384   3.952   0.959  15.910 -1.2300  1.9225  0.3811
15323TIP3    H267385   4.010   0.946  15.771  2.0940  1.6073  1.7074
15324TIP3   OH267386   3.209   2.668   2.096 -0.2892  0.2637 -0.1705
15324TIP3    H167387   3.193   2.608   2.169 -0.0946  1.3273  0.7748
15324TIP3    H267388   3.287   2.717   2.121  0.7021 -0.3739 -1.7980
15325TIP3   OH267389   2.849   1.229  12.129 -0.4154  0.5332  0.5084
15325TIP3    H167390   2.877   1.268  12.046 -0.7856 -2.8586 -1.4252
15325TIP3    H267391   2.927   1.231  12.184  0.6117  0.6396 -0.8863
15326TIP3   OH267392   0.875   1.082   6.348  0.0183  0.2014  0.2853
15326TIP3    H167393   0.932   1.132   6.290 -1.7061 -0.0467 -1.7193
15326TIP3    H267394   0.909   0.993   6.345 -0.3451  0.0913 -0.7533
15327TIP3   OH267395   5.712   1.580   4.467  0.5686  0.1747 -0.7916
15327TIP3    H167396   5.656   1.576   4.389 -1.3980  0.9891  0.4846
15327TIP3    H267397   5.736   1.673   4.474 -0.3156  0.3473  0.2184
15328TIP3   OH267398   1.075   2.549   4.425  0.0626 -0.0398  0.3429
15328TIP3    H167399   1.159   2.579   4.390  1.4863  0.2194  3.6347
15328TIP3    H267400   1.088   2.456   4.441 -0.8836 -0.3516 -0.5579
15329TIP3   OH267401   5.937   1.694   2.012 -0.0113  0.5010  0.0718
15329TIP3    H167402   6.017   1.655   2.048  0.5123  0.2604 -1.2881
15329TIP3    H267403   5.939   1.785   2.042  1.9593  1.1282 -1.7080
15330TIP3   OH267404   4.826   1.571  16.586 -0.5126  0.1022 -0.0466
15330TIP3    H167405   4.739   1.572  16.546 -0.9335 -0.0222  0.8453
15330TIP3    H267406   4.827   1.647  16.644  0.2014  0.4523 -0.5010
15331TIP3   OH267407   4.877   5.440   4.039  0.6324  0.5245 -0.1220
15331TIP3    H167408   4.827   5.391   4.105  0.6057  0.2914 -0.3164
15331TIP3    H267409   4.956   5.468   4.086  0.7114  0.1814 -0.0502
15332TIP3   OH267410   4.600   3.569  11.890  0.0559  0.6267  0.0960
15332TIP3    H167411   4.587   3.653  11.846  0.3137  0.2354 -0.7688
15332TIP3    H267412   4.638   3.513  11.822  0.8800  0.1175  0.9537
15333TIP3   OH267413   3.569   5.641   2.438 -0.7547 -0.0846 -0.1403
15333TIP3    H167414   3.592   5.559   2.483  0.1672 -0.7115 -1.6952
15333TIP3    H267415   3.488   5.621   2.392 -0.1085 -0.3882 -1.1658
15334TIP3   OH267416   3.348   4.377  16.178  0.0672 -0.5488  0.2435
15334TIP3    H167417   3.313   4.459  16.145 -2.1743 -0.5410  2.3503
15334TIP3    H267418   3.386   4.399  16.263 -0.6948 -1.6850  0.9091
15335TIP3   OH267419   0.591   6.663  11.316  0.8799  0.4471  0.4152
15335TIP3    H167420   0.659   6.726  11.293  1.1130  0.2945  0.6673
15335TIP3    H267421   0.635   6.601  11.374 -0.1033  1.8957  2.8803
15336TIP3   OH267422   0.056   2.825  12.548  0.1369  0.0329 -0.3861
15336TIP3    H167423   0.151   2.812  12.548  0.1956  0.1569  1.3993
15336TIP3    H267424   0.023   2.763  12.612 -1.3845 -2.0298 -2.9663
15337TIP3   OH267425   1.049   1.398   3.448  0.5942 -0.5598  0.3681
15337TIP3    H167426   0.990   1.456   3.497  1.8645  0.3357  0.8832
15337TIP3    H267427   1.072   1.447   3.369  0.6626 -0.9002  0.1728
15338TIP3   OH267428   4.968   5.614  12.802  0.1287  0.1417  0.1351
15338TIP3    H167429   4.982   5.536  12.747 -2.3572 -0.8687  0.8010
15338TIP3    H267430   4.896   5.590  12.860 -0.8311  3.0063  0.2954
15339TIP3   OH267431   2.802   6.654   2.639 -0.3959  0.5422  0.4570
15339TIP3    H167432   2.860   6.727   2.659 -0.5853  1.3291 -1.6177
15339TIP3    H267433   2.813   6.640   2.545 -2.7702  0.0438  0.1943
15340TIP3   OH267434   5.010   5.565  16.196  0.0517 -0.6475 -0.8162
15340TIP3    H167435   5.101   5.576  16.221  0.8253 -5.1707 -0.8160
15340TIP3    H267436   5.011   5.561  16.101 -0.5880  1.5284 -0.9649
15341TIP3   OH267437   6.373   4.450   5.846 -0.0261  0.6441 -0.0294
15341TIP3    H167438   6.396   4.543   5.845  2.8274  0.0488 -2.5179
15341TIP3    H267439   6.329   4.435   5.763 -1.5705 -0.0554  0.8746
15342TIP3   OH267440   0.274   5.761  16.217  0.1221 -0.2600 -0.3763
15342TIP3    H167441   0.203   5.764  16.153 -1.8783 -1.4360  1.6420
15342TIP3    H267442   0.251   5.828  16.282  1.0901 -0.3593  0.0925
15343TIP3   OH267443   4.042   5.805  13.601  0.3034  0.2871  0.3974
15343TIP3    H167444   3.953   5.806  13.567  0.3576  0.5301  0.2600
15343TIP3    H267445   4.096   5.836  13.528  0.6547 -1.1125  0.0424
15344TIP3   OH267446   6.607   2.144   1.283  0.0087  0.3878 -0.1095
15344TIP3    H167447   6.584   2.214   1.221  0.1940 -0.1365 -0.7910
15344TIP3    H267448   6.586   2.063   1.235 -0.7649 -0.0199  0.8835
15345TIP3   OH267449   2.984   2.326   2.216  0.1847  0.3138 -0.2306
15345TIP3    H167450   3.025   2.303   2.300  1.7720 -0.6170 -1.1915
15345TIP3    H267451   2.891   2.308   2.229  0.6382 -1.5781  0.7898
15346TIP3   OH267452   3.678   6.162  14.772 -0.1736  0.3663 -0.3212
15346TIP3    H167453   3.741   6.098  14.807 -0.9455 -0.0818  0.2790
15346TIP3    H267454   3.706   6.245  14.809  0.8516  0.4007 -1.1193
15347TIP3   OH267455   3.072   5.888  12.470 -0.0952  0.1365  0.0770
15347TIP3    H167456   3.054   5.815  12.529  1.3434 -1.5338 -1.4308
15347TIP3    H267457   3.096   5.960  12.528 -0.2863 -0.9470  1.5728
15348TIP3   OH267458   1.025   3.454  10.731 -0.1796 -1.3058 -0.0477
15348TIP3    H167459   0.932   3.460  10.750 -0.1465 -0.0579 -0.2116
15348TIP3    H267460   1.056   3.544  10.733  1.1545 -1.7494  0.6229
15349TIP3   OH267461   2.746   5.492   0.594  0.0206 -0.2073 -0.0895
15349TIP3    H167462   2.745   5.399   0.616  1.3923 -0.2876 -0.3050
15349TIP3    H267463   2.818   5.529   0.645 -1.2362  0.9828  0.8869
15350TIP3   OH267464   4.087   3.474   5.092  0.3242 -0.0859 -0.4533
15350TIP3    H167465   4.011   3.423   5.065 -0.0133 -0.2522  0.7403
15350TIP3    H267466   4.051   3.547   5.142  0.9229  0.1244 -0.3219
15351TIP3   OH267467   4.005   3.560   0.532  0.1130  0.1446 -0.0388
15351TIP3    H167468   3.997   3.500   0.606  0.5752 -0.5070 -0.4965
15351TIP3    H267469   4.073   3.622   0.559  0.5716 -0.3349 -0.0697
15352TIP3   OH267470   0.320   1.452   2.659 -0.4221  0.3106 -0.3721
15352TIP3    H167471   0.388   1.386   2.643  1.2136  1.6486  0.6482
15352TIP3    H267472   0.261   1.411   2.723 -1.0484 -1.1477 -1.8138
15353TIP3   OH267473   3.291   2.182  14.904  0.3731  0.2154  0.2020
15353TIP3    H167474   3.336   2.099  14.916 -1.8084 -0.8513  1.8471
15353TIP3    H267475   3.264   2.182  14.812  0.6244 -0.7919  0.1150
15354TIP3   OH267476   5.883   5.001   3.153 -0.2204  0.6154 -0.5758
15354TIP3    H167477   5.846   4.931   3.099  0.4355  0.6743 -1.1247
15354TIP3    H267478   5.817   5.017   3.220 -0.3881 -0.5342 -0.4359
15355TIP3   OH267479   1.007   6.399   0.662  0.3650  0.0586 -0.3452
15355TIP3    H167480   0.924   6.427   0.624  1.1821  2.5326 -0.5454
15355TIP3    H267481   1.072   6.455   0.619  1.8409 -0.1357  1.5129
15356TIP3   OH267482   2.968   4.859   5.467 -0.4250  0.1588 -0.4271
15356TIP3    H167483   3.015   4.852   5.550 -0.3624 -0.7470 -0.5341
15356TIP3    H267484   2.915   4.939   5.476  1.2974  1.3569 -0.4029
15357TIP3   OH267485   1.933   1.350   0.637  0.2020 -0.4410  0.1970
15357TIP3    H167486   1.984   1.400   0.573 -0.4777  0.1101  0.0805
15357TIP3    H267487   1.988   1.274   0.657  0.8504 -0.1116 -0.2993
15358TIP3   OH267488   3.489   5.195   2.512  0.2615 -0.1295  0.0617
15358TIP3    H167489   3.581   5.187   2.488  0.4538 -0.3124  0.8245
15358TIP3    H267490   3.488   5.261   2.582 -0.3720  0.9713 -0.9445
15359TIP3   OH267491   6.134   4.661   0.229  0.6961  0.7481  0.4716
15359TIP3    H167492   6.073   4.681   0.300  1.6252 -0.8887  1.8180
15359TIP3    H267493   6.148   4.745   0.185 -1.0905  1.5079  1.2612
15360TIP3   OH267494   4.813   0.129  15.812 -0.0727  0.3643  0.6930
15360TIP3    H167495   4.720   0.133  15.791  0.0229  1.9074  0.4123
15360TIP3    H267496   4.824   0.194  15.882  0.4502 -1.2672  2.1897
15361TIP3   OH267497   4.112   3.310  17.008 -0.0145 -0.4783  0.2326
15361TIP3    H167498   4.085   3.391  17.051 -0.3182 -0.8859  0.8242
15361TIP3    H267499   4.058   3.242  17.049  0.9558 -1.1177  0.4769
15362TIP3   OH267500   4.873   6.065   5.762 -0.1770  0.1210 -0.2236
15362TIP3    H167501   4.782   6.093   5.746  0.1877  0.8968 -1.0416
15362TIP3    H267502   4.921   6.147   5.772  0.2905 -0.2984  1.1323
15363TIP3   OH267503   1.070   4.272   5.662  0.1349  0.1863  0.4214
15363TIP3    H167504   1.085   4.178   5.660 -0.7731 -0.0347 -3.3656
15363TIP3    H267505   0.975   4.281   5.664  0.2167  1.0648  0.9321
15364TIP3   OH267506   1.976   0.905   4.722 -0.3674  0.0749 -0.3415
15364TIP3    H167507   1.951   0.996   4.708  0.5375  0.4078  0.2012
15364TIP3    H267508   1.992   0.871   4.633 -0.4607  0.5024 -0.5230
15365TIP3   OH267509   5.797   4.815  10.696 -0.6530  0.0610  0.3689
15365TIP3    H167510   5.739   4.833  10.621 -0.2730 -0.4621 -0.0549
15365TIP3    H267511   5.813   4.901  10.735 -0.6254  0.3746 -0.3241
15366TIP3   OH267512   1.282   3.649   6.038  0.5785  0.4278 -0.1620
15366TIP3    H167513   1.209   3.589   6.031  1.0531  0.0368 -2.5993
15366TIP3    H267514   1.322   3.628   6.122 -1.0418 -0.5535  0.4111
15367TIP3   OH267515   3.464   0.692  12.968 -0.4983  0.2082 -0.0408
15367TIP3    H167516   3.509   0.614  13.003 -2.0811 -1.5265 -1.6583
15367TIP3    H267517   3.417   0.728  13.043  0.4178 -0.2390  0.7829
15368TIP3   OH267518   4.397   5.638  16.200  0.0600 -0.7020  0.1918
15368TIP3    H167519   4.484   5.677  16.188 -0.4659  1.0689  1.5787
15368TIP3    H267520   4.337   5.702  16.159 -0.7488 -0.6360  1.4312
15369TIP3   OH267521   2.489   5.685   5.048  0.5418  0.5393 -0.0102
15369TIP3    H167522   2.429   5.726   4.985  0.5576  0.0776 -0.3240
15369TIP3    H267523   2.468   5.728   5.131 -1.2277 -0.5942  0.1822
15370TIP3   OH267524   6.217   6.021  16.719 -0.5626  0.3747 -0.1551
15370TIP3    H167525   6.146   6.034  16.656  1.2678 -0.3016 -2.5146
15370TIP3    H267526   6.253   5.935  16.697  1.1356  0.7906  0.7846
15371TIP3   OH267527   1.701   5.232  13.235 -0.4570 -0.1405  0.4595
15371TIP3    H167528   1.694   5.173  13.159 -1.6631  0.9742 -0.3294
15371TIP3    H267529   1.787   5.212  13.272  0.0342 -0.9450 -1.0210
15372TIP3   OH267530   1.204   2.409  13.371  0.0701 -0.1443 -0.6173
15372TIP3    H167531   1.211   2.318  13.400 -0.4681  0.4781  1.6974
15372TIP3    H267532   1.240   2.460  13.444 -0.0176  1.5294 -1.6866
15373TIP3   OH267533   4.020   2.098  13.899  0.4378 -0.1956  0.2181
15373TIP3    H167534   3.981   2.035  13.959  0.3150  0.9098  1.3504
15373TIP3    H267535   4.100   2.128  13.944 -0.3761  1.6646  0.5310
15374TIP3   OH267536   4.527   1.454  11.937 -0.5536  0.2497 -0.3700
15374TIP3    H167537   4.565   1.477  12.022  1.0225 -0.0118 -0.9667
15374TIP3    H267538   4.433   1.448  11.954 -0.3452  0.8271  1.2078
15375TIP3   OH267539   1.160   0.237   3.562  0.2814 -0.1365  0.3792
15375TIP3    H167540   1.069   0.229   3.589 -0.2108  2.0323 -0.4175
15375TIP3    H267541   1.187   0.323   3.594  1.3134  0.2448 -1.3804
15376TIP3   OH267542   6.666   4.646   2.384  0.2106 -0.4066 -0.4529
15376TIP3    H167543   6.651   4.738   2.404 -1.7216 -1.2115  2.4889
15376TIP3    H267544   6.643   4.637   2.291 -3.2781  1.4809  0.0583
15377TIP3   OH267545   6.034   5.693   0.534 -0.2836 -0.1031 -0.2318
15377TIP3    H167546   6.039   5.599   0.554  2.4205 -0.1883 -0.9940
15377TIP3    H267547   6.031   5.735   0.620  1.6670 -0.8081  0.2304
15378TIP3   OH267548   6.634   1.213  11.822 -0.4907 -0.3424 -0.0030
15378TIP3    H167549   6.604   1.235  11.733 -0.0113 -0.5161 -0.2092
15378TIP3    H267550   6.718   1.259  11.830 -0.5209 -0.3517  0.3522
15379TIP3   OH267551   3.989   2.973   5.083  0.4635 -0.5581 -0.0967
15379TIP3    H167552   4.040   3.042   5.039  1.3067 -0.8197  0.4635
15379TIP3    H267553   3.898   2.991   5.057  0.6954  0.6339 -0.1405
15380TIP3   OH267554   6.170   1.096  13.302 -0.7186  0.5385  0.0086
15380TIP3    H167555   6.109   1.140  13.242  1.0752  0.5516 -1.9184
15380TIP3    H267556   6.169   1.004  13.272 -0.5599  0.3282  0.6448
15381TIP3   OH267557   6.553   2.358  16.271 -0.0132 -0.0008 -0.1513
15381TIP3    H167558   6.460   2.337  16.264  0.1165 -0.2394 -1.4759
15381TIP3    H267559   6.595   2.299  16.208  1.1574 -0.6023  1.1389
15382TIP3   OH267560   1.352   6.733  16.873  0.0028 -0.0865  0.0158
15382TIP3    H167561   1.387   6.744  16.784 -0.5274 -0.6305 -0.2737
15382TIP3    H267562   1.424   6.757  16.931 -0.2050  2.0577 -0.5279
15383TIP3   OH267563   2.155   0.637   5.641 -0.5563 -0.2737  0.3392
15383TIP3    H167564   2.212   0.583   5.586 -0.1720  1.3451 -0.9483
15383TIP3    H267565   2.198   0.639   5.726  0.3677 -0.5350 -0.1128
15384TIP3   OH267566   2.966   3.042  11.373 -0.4790  0.3324  0.1225
15384TIP3    H167567   2.873   3.020  11.363 -0.3021 -0.2358 -0.3020
15384TIP3    H267568   2.999   3.051  11.284 -0.4085  1.8069  0.2649
15385TIP3   OH267569   4.616   5.560  13.308  0.1374  0.4147 -0.3429
15385TIP3    H167570   4.666   5.577  13.228  1.5100  0.4838  0.5026
15385TIP3    H267571   4.565   5.640  13.322 -1.2882 -0.1394 -1.9256
15386TIP3   OH267572   5.016   6.356  15.770 -0.1349  0.4084 -0.0625
15386TIP3    H167573   4.957   6.287  15.742  0.1166  0.7562 -1.5569
15386TIP3    H267574   5.051   6.393  15.688  0.0897  1.9863  0.6970
15387TIP3   OH267575   5.149   0.209   2.542  0.3615  0.6018  0.4794
15387TIP3    H167576   5.064   0.195   2.585 -0.2543  1.3473 -0.4545
15387TIP3    H267577   5.199   0.261   2.605 -0.1289  0.7462  0.7528
15388TIP3   OH267578   3.375   2.806   6.394  0.1997 -0.1297 -0.6986
15388TIP3    H167579   3.351   2.748   6.322  1.6560  1.1361 -2.2577
15388TIP3    H267580   3.327   2.887   6.376 -0.7203 -0.3130  0.7094
15389TIP3   OH267581   3.156   1.661   0.932  0.3382  0.6660 -0.5060
15389TIP3    H167582   3.117   1.637   1.016 -0.3060  0.1427 -0.9533
15389TIP3    H267583   3.082   1.683   0.876  0.7808  1.2501 -0.8751
15390TIP3   OH267584   6.569   4.726  14.109 -0.8261 -0.5819  0.3398
15390TIP3    H167585   6.484   4.718  14.153 -0.5560 -1.9737  0.6525
15390TIP3    H267586   6.565   4.663  14.037 -0.6719  0.5589 -0.7036
15391TIP3   OH267587   1.736   6.453   5.963  0.0599  0.4598 -0.2362
15391TIP3    H167588   1.645   6.432   5.945 -0.4565  2.0379  0.4151
15391TIP3    H267589   1.754   6.411   6.047  0.7043 -1.8911 -1.4677
15392TIP3   OH267590   0.396   3.142  12.848 -0.1103 -0.1179 -0.7922
15392TIP3    H167591   0.393   3.172  12.939 -0.8941  0.1821 -0.9108
15392TIP3    H267592   0.487   3.153  12.822 -0.2119  1.4216 -0.5846
15393TIP3   OH267593   2.608   6.742   2.899  0.0146  0.2785  0.0646
15393TIP3    H167594   2.646   6.659   2.870  3.1916  1.1998  1.1162
15393TIP3    H267595   2.545   6.764   2.831  1.4980 -1.3853 -2.0231
15394TIP3   OH267596   1.164   1.461   2.328  0.1172  0.2117  0.5969
15394TIP3    H167597   1.131   1.505   2.249  1.2864 -3.0393 -1.9234
15394TIP3    H267598   1.096   1.477   2.394 -2.8367  0.0329 -2.1205
15395TIP3   OH267599   0.556   2.516   0.477  0.2564  0.1739 -0.8794
15395TIP3    H167600   0.513   2.543   0.396 -0.1613 -1.8635 -1.3967
15395TIP3    H267601   0.646   2.548   0.468  0.0932  0.3838 -1.9283
15396TIP3   OH267602   0.125   6.296  10.905 -0.0412  0.1637  0.2373
15396TIP3    H167603   0.147   6.207  10.877  1.3678  0.7472 -0.6194
15396TIP3    H267604   0.094   6.339  10.825  0.4388  0.7807  0.3775
15397TIP3   OH267605   1.175   2.541  12.703 -0.4947 -0.0601 -0.3636
15397TIP3    H167606   1.168   2.492  12.785  1.0494 -0.3323 -0.3684
15397TIP3    H267607   1.120   2.619  12.717 -0.6233 -0.3254  0.7407
15398TIP3   OH267608   5.382   4.333   4.196 -0.3121  0.2507  0.0302
15398TIP3    H167609   5.400   4.351   4.289 -0.9451  1.1746 -0.0134
15398TIP3    H267610   5.330   4.408   4.167  0.1548  0.1245 -1.1669
15399TIP3   OH267611   2.919   3.974   5.969 -0.2876  0.4628 -0.6513
15399TIP3    H167612   2.859   3.986   6.043 -0.8129 -1.4261 -0.7229
15399TIP3    H267613   2.945   4.063   5.945  0.3774  1.1203  2.1699
15400TIP3   OH267614   1.251   0.868  13.016  0.2668 -0.3176 -0.6952
15400TIP3    H167615   1.257   0.834  13.105 -0.0370 -0.8767 -0.8788
15400TIP3    H267616   1.323   0.827  12.969  0.9619  0.6595 -0.5015
15401TIP3   OH267617   1.348   4.518   3.654 -0.2873 -0.0314 -0.2703
15401TIP3    H167618   1.273   4.546   3.706  0.1042 -0.4577  0.5431
15401TIP3    H267619   1.417   4.501   3.718  0.4824  0.2688 -0.9952
15402TIP3   OH267620   4.457   2.753  11.877 -0.0221 -0.0449  0.2233
15402TIP3    H167621   4.454   2.775  11.784  0.7411 -0.4393  0.0949
15402TIP3    H267622   4.368   2.770  11.909 -0.4559 -0.4957 -0.7097
15403TIP3   OH267623   6.089   5.163   5.601  0.1263  0.0255  0.6464
15403TIP3    H167624   6.170   5.210   5.581 -0.4620  0.8736  0.1886
15403TIP3    H267625   6.117   5.074   5.623  1.2652  0.5517  1.4263
15404TIP3   OH267626   1.175   0.716   4.699 -0.2661 -0.2072  0.2172
15404TIP3    H167627   1.128   0.675   4.627  0.0185  1.3597 -0.9028
15404TIP3    H267628   1.146   0.668   4.777 -2.4062 -0.3855 -0.6341
15405TIP3   OH267629   2.040   1.081   2.402 -0.0896  0.1593  0.0527
15405TIP3    H167630   2.096   1.019   2.448  0.0101 -0.2927 -0.6623
15405TIP3    H267631   2.087   1.102   2.322  0.2734  1.8437  0.6716
15406TIP3   OH267632   2.825   3.679   5.033  1.0532  0.0528  0.7348
15406TIP3    H167633   2.920   3.676   5.045  1.0562 -0.5067  0.6099
15406TIP3    H267634   2.789   3.651   5.117  1.0078 -0.1869  0.6358
15407TIP3   OH267635   2.190   2.985   6.139  0.1026 -0.6457  0.4233
15407TIP3    H167636   2.212   2.917   6.075  0.3712 -0.4129  0.2645
15407TIP3    H267637   2.267   2.992   6.194 -0.0735 -0.7418  0.6839
15408TIP3   OH267638   4.535   6.363   4.740 -0.0884  0.1884 -0.2102
15408TIP3    H167639   4.568   6.402   4.821  0.7318  0.2475 -0.5558
15408TIP3    H267640   4.528   6.270   4.758  0.5941  0.1300 -0.2257
15409TIP3   OH267641   2.733   6.038  11.412 -0.5501  0.1800 -0.7282
15409TIP3    H167642   2.640   6.062  11.417 -0.3659  0.9202 -0.8374
15409TIP3    H267643   2.736   5.950  11.450 -1.1656  0.4916  0.0658
15410TIP3   OH267644   3.476   3.202  15.260 -0.1563 -0.1582  0.1527
15410TIP3    H167645   3.553   3.146  15.263  0.2474  0.4195  1.0997
15410TIP3    H267646   3.500   3.274  15.202 -0.1843 -0.2656  0.0086
15411TIP3   OH267647   3.206   0.206   5.241  0.2412 -0.0040  0.3596
15411TIP3    H167648   3.281   0.223   5.184 -0.6117  0.8942 -0.5419
15411TIP3    H267649   3.186   0.290   5.281  0.7519 -0.5980  1.9290
15412TIP3   OH267650   6.511   4.770  14.663 -0.1590  0.2381 -0.5691
15412TIP3    H167651   6.582   4.805  14.609 -1.4983  0.6169 -2.1353
15412TIP3    H267652   6.502   4.679  14.636 -0.5788  0.3193 -0.7057
15413TIP3   OH267653   1.804   0.773   2.198  0.0949  0.2405 -0.0345
15413TIP3    H167654   1.875   0.838   2.198  0.4163 -0.1113 -0.0885
15413TIP3    H267655   1.816   0.725   2.116 -0.8681  0.8964 -0.5814
15414TIP3   OH267656   4.893   1.234   5.720 -0.1606 -0.2045  0.1030
15414TIP3    H167657   4.920   1.180   5.794  1.4883  0.3865 -0.0159
15414TIP3    H267658   4.959   1.216   5.652  0.8425  2.3533  0.2745
15415TIP3   OH267659   4.202   5.861   3.262  0.6100  0.5485  0.2809
15415TIP3    H167660   4.151   5.788   3.297  1.6084 -0.9219 -1.2260
15415TIP3    H267661   4.136   5.923   3.231 -0.2608 -0.1516  0.6742
15416TIP3   OH267662   5.436   1.992  12.038 -0.2371 -0.2685 -0.1647
15416TIP3    H167663   5.406   2.055  12.104  1.0966  0.5962 -0.3571
15416TIP3    H267664   5.406   2.029  11.955 -0.4021 -0.4613 -0.1920
15417TIP3   OH267665   6.733   1.063  14.527  0.1822 -0.0229  0.5189
15417TIP3    H167666   6.771   1.022  14.449 -1.4316  0.7343 -0.7385
15417TIP3    H267667   6.762   1.154  14.522 -2.6207  0.9277 -1.2062
15418TIP3   OH267668   0.937   2.204   4.529 -0.1617 -0.1995  0.2319
15418TIP3    H167669   0.915   2.249   4.448 -2.5624 -0.5016  0.6680
15418TIP3    H267670   0.871   2.135   4.537  0.1392 -0.2915  2.3450
15419TIP3   OH267671   3.599   0.709   2.104  0.2496  0.1334 -0.0957
15419TIP3    H167672   3.691   0.733   2.118  0.1640  0.6586 -0.3987
15419TIP3    H267673   3.599   0.656   2.025  0.2960  0.1185 -0.0856
15420TIP3   OH267674   3.147   4.408  14.786  0.3421 -0.0827  0.8032
15420TIP3    H167675   3.210   4.435  14.719 -0.4826  0.8838  0.3836
15420TIP3    H267676   3.078   4.362  14.737 -0.5054  1.0452  0.8970
15421TIP3   OH267677   2.411   6.415   2.251  0.0561  0.4055 -0.2586
15421TIP3    H167678   2.456   6.487   2.207  1.6606  0.7751  1.8732
15421TIP3    H267679   2.481   6.366   2.296 -1.4735  0.2002  2.0573
15422TIP3   OH267680   2.301   5.897   2.417 -0.3073  0.2673  0.3468
15422TIP3    H167681   2.214   5.937   2.420 -0.4059  0.0369  0.5289
15422TIP3    H267682   2.328   5.893   2.509 -0.0719  0.4066  0.2853
15423TIP3   OH267683   5.971   1.617   1.457  0.3977 -0.4241 -0.1248
15423TIP3    H167684   5.963   1.609   1.552  2.9518  0.7527  0.2710
15423TIP3    H267685   5.963   1.527   1.425 -1.0282 -0.7762  1.1243
15424TIP3   OH267686   5.046   1.996   4.652  0.0021 -0.2906  0.6306
15424TIP3    H167687   5.044   2.092   4.654  1.1377 -0.2389  3.3895
15424TIP3    H267688   4.955   1.970   4.662 -0.2859  0.4853  0.1421
15425TIP3   OH267689   4.628   4.213   4.659  0.6831  0.2453  0.2270
15425TIP3    H167690   4.694   4.157   4.699 -1.4780 -2.1546  0.7130
15425TIP3    H267691   4.640   4.200   4.565  1.0274  0.0071  0.3021
15426TIP3   OH267692   4.464   1.989  13.878  0.4032  0.1882 -0.3270
15426TIP3    H167693   4.424   1.917  13.829 -1.1533  1.5445 -1.1446
15426TIP3    H267694   4.461   1.960  13.970  0.2998 -0.9970 -0.6883
15427TIP3   OH267695   0.520   4.818   6.379  0.1887 -0.0536 -0.0091
15427TIP3    H167696   0.598   4.764   6.392  0.2214 -0.0002  0.0181
15427TIP3    H267697   0.457   4.785   6.443  0.5000  0.4943  0.5948
15428TIP3   OH267698   6.258   4.771  14.056 -0.0612  0.1304  0.1235
15428TIP3    H167699   6.166   4.773  14.028  0.4159  1.0895 -1.4743
15428TIP3    H267700   6.298   4.847  14.015  1.0093  0.9808  2.5417
15429TIP3   OH267701   6.284   0.998  12.795 -0.4727  0.3302  0.1484
15429TIP3    H167702   6.322   1.027  12.712  0.9770  2.9411  1.6149
15429TIP3    H267703   6.310   0.906  12.802  1.7650  0.7934 -1.0521
15430TIP3   OH267704   0.567   6.291   1.906  0.1763 -0.5649  0.1224
15430TIP3    H167705   0.622   6.364   1.933 -1.7794  0.9903  0.1449
15430TIP3    H267706   0.534   6.254   1.988 -0.9442  0.2642  0.0623
15431TIP3   OH267707   2.269   6.264  16.292  0.1339 -0.2304  0.2202
15431TIP3    H167708   2.225   6.209  16.227 -0.1642 -1.2310  1.2303
15431TIP3    H267709   2.342   6.209  16.323  1.5800  1.0438 -0.7733
15432TIP3   OH267710   6.753   1.913  11.620  0.6462  0.2796  0.1292
15432TIP3    H167711   6.665   1.951  11.625 -0.0759 -1.4631  2.7743
15432TIP3    H267712   6.806   1.967  11.679  1.0977  0.6524 -0.6020
15433TIP3   OH267713   5.852   3.706   4.775  0.2430  0.1065  0.1432
15433TIP3    H167714   5.925   3.768   4.768 -1.6345  2.5927  1.0340
15433TIP3    H267715   5.825   3.691   4.684  1.1711  0.0042 -0.1289
15434TIP3   OH267716   2.496   2.081   3.879 -0.4755 -0.3502 -0.2240
15434TIP3    H167717   2.422   2.031   3.846 -1.7835  0.2669  1.6008
15434TIP3    H267718   2.503   2.055   3.971 -1.1309  2.5899  0.7733
15435TIP3   OH267719   3.067   3.459  12.564 -0.5502  0.4169 -0.5693
15435TIP3    H167720   3.142   3.517  12.549 -1.2206  1.5997  0.4727
15435TIP3    H267721   3.069   3.399  12.489  1.3781  0.4416 -0.6041
15436TIP3   OH267722   5.437   1.760  15.416 -0.0039  0.5768 -0.2418
15436TIP3    H167723   5.434   1.827  15.485  0.1618 -0.0515  0.3926
15436TIP3    H267724   5.357   1.774  15.366 -1.0849 -0.1114  1.2072
15437TIP3   OH267725   6.779   3.579  14.778 -0.0573 -0.0395  0.5078
15437TIP3    H167726   6.749   3.669  14.771 -0.4148 -0.2446 -0.7321
15437TIP3    H267727   6.874   3.585  14.785  0.0540  0.3736 -1.1762
15438TIP3   OH267728   0.850   4.854   3.693  0.0698  0.4658  0.2586
15438TIP3    H167729   0.837   4.946   3.717  2.0378  1.4758 -2.1341
15438TIP3    H267730   0.894   4.857   3.608 -0.9667 -2.7356 -0.5460
15439TIP3   OH267731   1.361   2.260   1.065  0.0877 -0.0407 -0.1701
15439TIP3    H167732   1.378   2.179   1.112  0.5048  0.5588  0.7527
15439TIP3    H267733   1.269   2.280   1.085  0.7239  1.1118  1.8999
15440TIP3   OH267734   2.460   0.448   1.108  0.2580  0.7215 -0.1317
15440TIP3    H167735   2.472   0.365   1.063  0.5832  0.5591  0.2425
15440TIP3    H267736   2.519   0.509   1.063 -0.6772  1.0018 -1.0192
15441TIP3   OH267737   6.676   2.655   1.592 -0.3859  0.1526 -0.1467
15441TIP3    H167738   6.643   2.607   1.516 -1.9503  2.8598 -1.3433
15441TIP3    H267739   6.601   2.707   1.622  0.8451  0.9171  1.8154
15442TIP3   OH267740   3.819   5.965   5.365  0.3252  0.4853 -0.3865
15442TIP3    H167741   3.893   5.908   5.347  0.0966  0.4007 -1.0698
15442TIP3    H267742   3.767   5.917   5.430 -0.5092 -0.6721 -1.8455
15443TIP3   OH267743   2.229   5.793   5.633 -0.1456  0.4077 -0.1428
15443TIP3    H167744   2.317   5.774   5.602 -1.1760 -0.4464 -2.7600
15443TIP3    H267745   2.224   5.889   5.632  0.0722  0.4333 -2.1556
15444TIP3   OH267746   0.341   2.301   4.123  0.1310  0.0058  0.3801
15444TIP3    H167747   0.301   2.318   4.038 -0.8471  1.2311  1.0565
15444TIP3    H267748   0.411   2.366   4.130  2.3454 -2.0543 -0.7528
15445TIP3   OH267749   5.297   1.337   4.737  0.1397 -0.0297 -0.1801
15445TIP3    H167750   5.295   1.264   4.676 -0.3147 -0.6945  0.6066
15445TIP3    H267751   5.350   1.403   4.694  1.4704 -1.2358 -0.4527
15446TIP3   OH267752   3.560   1.559   4.430  0.0693  0.4299  0.1554
15446TIP3    H167753   3.491   1.493   4.424 -1.9632  2.5300 -1.8231
15446TIP3    H267754   3.606   1.553   4.346  0.5102  0.8719  0.3608
15447TIP3   OH267755   0.730   4.134  12.479 -0.2460  0.0115  0.5893
15447TIP3    H167756   0.704   4.042  12.474 -0.4208  0.0077  1.4899
15447TIP3    H267757   0.773   4.151  12.395 -0.0487 -0.9385  0.4873
15448TIP3   OH267758   0.116   2.539   2.016  0.3595  0.0734 -0.0231
15448TIP3    H167759   0.131   2.447   1.994 -0.6218  0.0883 -0.8438
15448TIP3    H267760   0.123   2.585   1.932  4.2173  1.2839  0.7582
15449TIP3   OH267761   3.304   2.307  15.307 -0.2323 -0.6185 -0.4010
15449TIP3    H167762   3.226   2.261  15.337 -0.3810 -2.3959 -3.1767
15449TIP3    H267763   3.371   2.239  15.301  0.5315  0.1792 -1.3621
15450TIP3   OH267764   3.932   2.683  12.379  0.2542  0.3379 -0.1567
15450TIP3    H167765   3.980   2.765  12.389 -0.0996  0.7400 -1.5285
15450TIP3    H267766   3.938   2.663  12.285 -1.4512 -0.0989 -0.1951
15451TIP3   OH267767   2.330   0.706  12.929  0.3226 -0.0531  0.0187
15451TIP3    H167768   2.335   0.674  13.019 -0.4997  0.1160  0.1332
15451TIP3    H267769   2.241   0.742  12.921  1.0197  1.6877 -0.2751
15452TIP3   OH267770   1.129   5.180  16.749 -0.9349  0.1706  0.3015
15452TIP3    H167771   1.159   5.264  16.714 -0.5630  0.1500  0.5688
15452TIP3    H267772   1.156   5.181  16.841  1.7363 -1.4628 -0.3589
15453TIP3   OH267773   1.367   5.469   4.484  0.0112 -0.2305 -0.4747
15453TIP3    H167774   1.395   5.424   4.564 -0.2423  3.1426  1.7017
15453TIP3    H267775   1.287   5.515   4.509  0.2562  1.4386 -2.4781
15454TIP3   OH267776   2.552   2.236  10.462 -0.1869  0.1252  0.1160
15454TIP3    H167777   2.563   2.321  10.418  0.3152 -0.3973 -0.7947
15454TIP3    H267778   2.458   2.220  10.459 -0.0841 -0.3832 -1.7634
15455TIP3   OH267779   1.240   6.416   6.547  0.2577 -0.1916  0.7648
15455TIP3    H167780   1.238   6.504   6.511  0.4447 -0.0746  1.0352
15455TIP3    H267781   1.241   6.429   6.642  1.9441 -0.4386  0.8195
15456TIP3   OH267782   3.597   2.926   1.756 -0.1406  0.1110 -0.1175
15456TIP3    H167783   3.622   2.866   1.686 -0.3829 -1.6041  1.2059
15456TIP3    H267784   3.666   2.919   1.821 -0.8753  0.1779  0.6973
15457TIP3   OH267785   3.721   3.486  12.852  0.3249 -0.1327  0.0116
15457TIP3    H167786   3.755   3.522  12.934 -1.5117  1.2614  0.2168
15457TIP3    H267787   3.626   3.488  12.862  0.0811 -1.2320 -1.6392
15458TIP3   OH267788   5.561   3.033   1.913 -0.0461 -0.1530 -0.0479
15458TIP3    H167789   5.559   3.073   1.826  0.8816 -1.7650 -0.8507
15458TIP3    H267790   5.569   3.107   1.973 -1.1177  1.0122 -1.2959
15459TIP3   OH267791   3.340   5.244   3.788  0.1304  0.2920 -0.9305
15459TIP3    H167792   3.366   5.155   3.814  0.1926  0.5461 -0.1011
15459TIP3    H267793   3.422   5.291   3.779  0.1249  0.1294 -1.9058
15460TIP3   OH267794   2.001   6.686  15.760  1.3375  0.3038  0.3140
15460TIP3    H167795   2.083   6.646  15.791  1.8258  1.1996  0.2186
15460TIP3    H267796   1.962   6.724  15.838  1.0324 -0.0797  0.3501
15461TIP3   OH267797   2.450   4.612  12.299  0.0204  0.5318  1.0412
15461TIP3    H167798   2.428   4.694  12.343  2.2646  2.0523 -0.4515
15461TIP3    H267799   2.539   4.592  12.330  1.2118  1.0289 -1.7297
15462TIP3   OH267800   1.590   4.993   5.903  0.0527  0.1063  0.3650
15462TIP3    H167801   1.568   5.068   5.848 -0.3658  0.3375  0.8398
15462TIP3    H267802   1.516   4.985   5.963  0.5612 -0.0723  0.9676
15463TIP3   OH267803   4.154   0.448  13.218  0.0881  0.6040  0.1966
15463TIP3    H167804   4.216   0.521  13.220 -0.0991  0.7547  1.4123
15463TIP3    H267805   4.206   0.374  13.187  0.7752  0.8368  0.7532
15464TIP3   OH267806   0.754   4.021  11.373 -0.4695  0.1895 -0.1065
15464TIP3    H167807   0.722   4.014  11.283  0.1457 -0.8220 -0.2535
15464TIP3    H267808   0.845   3.993  11.369 -0.1603  1.0074  0.6852
15465TIP3   OH267809   6.150   3.019  13.134 -1.1511  0.4957 -0.1991
15465TIP3    H167810   6.120   3.021  13.225  1.3197 -0.5305  0.7270
15465TIP3    H267811   6.202   2.940  13.127 -0.2627  1.1807 -2.1811
15466TIP3   OH267812   1.762   6.524   1.318  0.0925 -0.1844 -0.2763
15466TIP3    H167813   1.737   6.442   1.276 -0.2343 -0.6955  0.8580
15466TIP3    H267814   1.689   6.543   1.378  0.7450  0.2657  0.3876
15467TIP3   OH267815   2.264   0.595  15.105  0.7254  0.0547  0.0367
15467TIP3    H167816   2.189   0.585  15.163  2.0000  0.4013  1.8053
15467TIP3    H267817   2.331   0.537  15.141  1.4312 -0.0321 -1.3302
15468TIP3   OH267818   5.540   4.032  15.272  0.4392 -0.1483  0.1881
15468TIP3    H167819   5.489   4.093  15.325 -0.7515  0.6376 -1.7288
15468TIP3    H267820   5.522   4.059  15.182  1.7942 -1.8569 -0.6436
15469TIP3   OH267821   6.293   5.398  16.978  0.0181  0.0671  0.4055
15469TIP3    H167822   6.341   5.362  17.053  1.3764 -0.4812 -0.6713
15469TIP3    H267823   6.216   5.342  16.970 -0.5095  0.5620  1.7942
15470TIP3   OH267824   1.412   6.514  12.161 -0.0376  0.0851  0.0508
15470TIP3    H167825   1.445   6.447  12.220  0.6332  0.5762  0.2521
15470TIP3    H267826   1.317   6.517  12.178  0.0394 -0.2838  0.5758
15471TIP3   OH267827   4.506   2.364  16.123  0.2196 -0.1697 -0.0897
15471TIP3    H167828   4.521   2.458  16.113  0.8540 -0.0174  1.9368
15471TIP3    H267829   4.412   2.356  16.138  0.3569  0.2961  1.0855
15472TIP3   OH267830   0.300   4.548   4.860 -0.4272  0.2841 -0.0895
15472TIP3    H167831   0.269   4.507   4.778 -0.1159  0.8443 -0.4955
15472TIP3    H267832   0.230   4.531   4.923 -0.8236  0.1332 -0.5635
15473TIP3   OH267833   1.201   1.747  12.413 -0.3831  0.2700 -0.7064
15473TIP3    H167834   1.107   1.758  12.404 -0.5836 -0.4641  0.3243
15473TIP3    H267835   1.215   1.652  12.409  0.4813  0.4257 -2.2247
15474TIP3   OH267836   1.722   6.281   1.182  0.5767  0.0412  0.6384
15474TIP3    H167837   1.710   6.200   1.231  1.4148  0.8622  2.2834
15474TIP3    H267838   1.817   6.294   1.178  0.4832  0.5976 -0.2154
15475TIP3   OH267839   1.321   4.525   5.606 -0.7302 -0.3307 -0.0058
15475TIP3    H167840   1.325   4.549   5.514  2.0334  1.8411  0.5481
15475TIP3    H267841   1.312   4.429   5.606 -0.9362 -0.3616 -2.4962
15476TIP3   OH267842   4.737   6.639  13.052  0.5354  0.2481 -0.1823
15476TIP3    H167843   4.820   6.687  13.039  0.0055  0.8838 -1.4480
15476TIP3    H267844   4.720   6.599  12.967 -0.9002  0.8667 -0.2090
15477TIP3   OH267845   2.327   4.707   4.515  0.2663 -0.5423  0.9484
15477TIP3    H167846   2.335   4.719   4.421 -0.1301  0.5523  1.0434
15477TIP3    H267847   2.362   4.619   4.531 -0.3311 -1.0308 -0.3017
15478TIP3   OH267848   4.101   3.271   2.619 -0.4291 -0.4469  0.0968
15478TIP3    H167849   4.196   3.260   2.611 -0.3375 -1.7381  2.1742
15478TIP3    H267850   4.089   3.366   2.622  0.9500 -0.2618  1.0415
15479TIP3   OH267851   1.435   3.121   1.967  0.7257  0.1416 -0.3759
15479TIP3    H167852   1.391   3.205   1.979  2.4380  1.9085 -4.5204
15479TIP3    H267853   1.381   3.076   1.901  0.5988 -1.4776  0.7750
15480TIP3   OH267854   3.314   1.272   4.567 -0.5812 -0.2325 -0.5816
15480TIP3    H167855   3.357   1.257   4.652  1.1835 -1.4734 -1.6283
15480TIP3    H267856   3.221   1.276   4.588 -0.1364  0.4406  1.5300
15481TIP3   OH267857   4.579   2.074   5.852  0.4723 -0.5917 -0.4609
15481TIP3    H167858   4.524   1.997   5.841  1.5432 -1.4075 -0.3042
15481TIP3    H267859   4.568   2.099   5.943  1.6880 -1.8311  0.0577
15482TIP3   OH267860   3.853   6.287   4.937 -0.3356  0.7959 -0.2763
15482TIP3    H167861   3.796   6.233   4.882  1.2965  0.1492 -1.3815
15482TIP3    H267862   3.823   6.377   4.921 -1.4173  0.4312 -0.3636
15483TIP3   OH267863   3.584   5.691  12.371 -0.2184  0.3857  0.6595
15483TIP3    H167864   3.511   5.716  12.314 -1.9372 -1.9010  1.7027
15483TIP3    H267865   3.643   5.642  12.314 -0.3429  0.7860  0.1765
15484TIP3   OH267866   1.571   6.535   1.528 -0.3214 -0.0877 -0.3378
15484TIP3    H167867   1.608   6.517   1.615  0.3584  2.3102 -0.0803
15484TIP3    H267868   1.506   6.604   1.543  0.6395  1.2006 -1.8827
15485TIP3   OH267869   5.679   0.085  12.551  0.4500  0.1233 -0.4087
15485TIP3    H167870   5.612   0.153  12.561  1.5647  1.1194  0.6115
15485TIP3    H267871   5.637   0.018  12.497 -0.0334  2.5053 -3.2591
15486TIP3   OH267872   4.452   1.526   1.936 -0.0182 -0.4220 -0.5285
15486TIP3    H167873   4.403   1.551   1.857 -0.2178  1.1296  0.0360
15486TIP3    H267874   4.401   1.564   2.008  0.0674 -1.9464  0.3766
15487TIP3   OH267875   1.159   5.518  13.854  0.4598 -0.4153  0.4038
15487TIP3    H167876   1.254   5.527  13.863  0.3629 -0.2238  1.2815
15487TIP3    H267877   1.142   5.537  13.762  1.3752 -1.3919  0.0072
15488TIP3   OH267878   1.029   1.949  17.087  0.3799  0.0815  0.0138
15488TIP3    H167879   1.078   2.006  17.147  1.3617 -2.1743  1.4957
15488TIP3    H267880   1.089   1.932  17.015  0.5806 -0.1626  0.2408
15489TIP3   OH267881   2.918   2.955  15.664  0.2333  0.0133  0.0973
15489TIP3    H167882   2.852   2.983  15.600 -1.0799 -1.1958  0.8735
15489TIP3    H267883   2.967   2.887  15.619  1.5251  1.4304 -0.7549
15490TIP3   OH267884   6.117   4.790  14.322  0.1155  0.3976  0.0057
15490TIP3    H167885   6.172   4.810  14.246  0.5490 -0.3315  0.1182
15490TIP3    H267886   6.058   4.721  14.291 -0.1899  0.5994  0.1287
15491TIP3   OH267887   0.359   3.468   0.231  0.4698 -0.0696 -0.0320
15491TIP3    H167888   0.444   3.424   0.228 -0.2931 -1.6670  0.5489
15491TIP3    H267889   0.344   3.485   0.324  0.0352 -0.0404 -0.1026
15492TIP3   OH267890   6.339   3.277  12.939 -0.0508  0.3323  0.3104
15492TIP3    H167891   6.258   3.326  12.925  1.6989  3.1838 -0.7789
15492TIP3    H267892   6.324   3.192  12.896 -2.1393  1.0907 -0.5698
15493TIP3   OH267893   0.038   3.439  13.124  0.4158  0.0688  0.1074
15493TIP3    H167894  -0.053   3.418  13.106 -0.3591  1.4475  2.0959
15493TIP3    H267895   0.056   3.517  13.072  0.7555 -0.6707 -0.9204
15494TIP3   OH267896   2.639   2.918  16.376  0.0545  0.1471 -0.2660
15494TIP3    H167897   2.550   2.951  16.394  0.5831  1.6445 -0.2046
15494TIP3    H267898   2.663   2.960  16.293  0.7911 -0.0777 -0.1677
15495TIP3   OH267899   2.935   1.660  14.945 -0.1903  0.1181 -0.5094
15495TIP3    H167900   2.839   1.662  14.943 -0.2026  2.9547 -1.3061
15495TIP3    H267901   2.958   1.695  15.031  0.0507  1.7507 -1.1914
15496TIP3   OH267902   5.020   3.858  11.565  0.6061 -0.3935 -0.1906
15496TIP3    H167903   4.936   3.817  11.546  0.5794 -0.3799 -0.1056
15496TIP3    H267904   4.999   3.951  11.576  0.5746 -0.4456  0.1921
15497TIP3   OH267905   5.709   5.562   1.930 -0.5016 -0.3856 -0.2728
15497TIP3    H167906   5.643   5.495   1.911 -0.5419  0.1180 -2.0986
15497TIP3    H267907   5.665   5.645   1.913 -0.0516  0.0638  0.6695
15498TIP3   OH267908   3.144   3.136  12.964  0.3584  0.3282 -0.1836
15498TIP3    H167909   3.127   3.223  12.929  0.6447  0.6871  0.5426
15498TIP3    H267910   3.097   3.077  12.906 -0.7265  1.0391 -0.0634
15499TIP3   OH267911   3.160   2.726  15.273 -0.3216 -0.2498  0.1238
15499TIP3    H167912   3.180   2.818  15.251 -0.3402 -0.6113 -1.5712
15499TIP3    H267913   3.210   2.675  15.210  0.9004 -1.5065  2.0028
15500TIP3   OH267914   2.674   1.755   4.951  0.2606  0.0741 -0.3724
15500TIP3    H167915   2.601   1.714   4.999  0.6977  0.9484  1.1135
15500TIP3    H267916   2.712   1.817   5.014  1.3645  0.7091 -1.6207
15501TIP3   OH267917   6.532   2.071  16.105 -0.0354  0.4450 -0.1847
15501TIP3    H167918   6.519   2.110  16.018 -2.6765  1.2139  0.4602
15501TIP3    H267919   6.469   2.000  16.109  1.6127 -1.0673  0.3558
15502TIP3   OH267920   1.889   1.030   3.484  0.4470 -0.0901 -0.1038
15502TIP3    H167921   1.886   0.935   3.472 -1.0013 -0.2012  0.9287
15502TIP3    H267922   1.938   1.042   3.565 -0.0109 -0.0102  0.1653
15503TIP3   OH267923   2.938   2.404   1.953  0.5542  0.4957  0.1357
15503TIP3    H167924   2.893   2.489   1.953  0.0499  0.2395 -1.1210
15503TIP3    H267925   2.903   2.359   2.030 -0.2614  0.8610 -0.0108
15504TIP3   OH267926   3.432   1.020   1.740  0.0779  0.1884 -0.5418
15504TIP3    H167927   3.445   0.930   1.770 -1.5369  0.3585  0.8387
15504TIP3    H267928   3.410   1.012   1.647  0.3013 -0.8137 -0.5165
15505TIP3   OH267929   1.841   3.676   3.261  0.4795 -0.5796  0.0643
15505TIP3    H167930   1.761   3.711   3.221  1.5344  0.9891 -0.7881
15505TIP3    H267931   1.912   3.727   3.222  2.2898 -4.1914 -1.9720
15506TIP3   OH267932   2.244   1.713  17.222 -0.3748 -0.3540 -0.2171
15506TIP3    H167933   2.220   1.767  17.297  1.9786  0.1636  0.2415
15506TIP3    H267934   2.202   1.755  17.147 -0.0567  1.0925  0.3857
15507TIP3   OH267935   6.549   2.970   5.316  0.2249 -0.0809  0.5155
15507TIP3    H167936   6.521   2.918   5.391  0.1360 -1.5150 -0.4744
15507TIP3    H267937   6.509   2.927   5.240  0.3483  1.3043 -0.3716
15508TIP3   OH267938   4.605   2.793  14.359  0.3810 -0.1469 -0.1820
15508TIP3    H167939   4.659   2.850  14.414  0.1593  1.8894 -1.9365
15508TIP3    H267940   4.669   2.749  14.302  0.4108 -0.1115 -0.1759
15509TIP3   OH267941   0.335   0.976   2.179 -0.1924 -0.1196 -0.0913
15509TIP3    H167942   0.368   0.886   2.185  1.3152  0.4060 -0.0148
15509TIP3    H267943   0.256   0.977   2.232 -0.4438 -1.4897 -0.4041
15510TIP3   OH267944   4.459   5.230  14.136 -0.1339  0.7489  0.0404
15510TIP3    H167945   4.461   5.315  14.093  0.5298  0.7873  0.1285
15510TIP3    H267946   4.456   5.167  14.064  1.6198  0.7917 -0.1298
15511TIP3   OH267947   2.903   6.408   0.034  0.3941 -0.0171 -0.0434
15511TIP3    H167948   2.840   6.373   0.096  0.1814 -0.2566 -0.3891
15511TIP3    H267949   2.921   6.336  -0.026  3.1463 -0.9011  1.6414
15512TIP3   OH267950   2.263   2.434  15.234 -0.0055 -0.1767  0.1159
15512TIP3    H167951   2.197   2.366  15.233 -0.1289 -0.0706  0.6887
15512TIP3    H267952   2.312   2.420  15.316  0.4313 -0.0220 -0.1116
15513TIP3   OH267953   2.081   0.013   5.752  0.4088 -0.4269 -0.1282
15513TIP3    H167954   2.130  -0.054   5.800  1.0524 -0.6593 -1.0761
15513TIP3    H267955   2.084  -0.016   5.661 -2.3414 -0.9679 -0.1298
15514TIP3   OH267956   0.905   1.504   3.241 -0.3724  0.1406 -0.3004
15514TIP3    H167957   0.875   1.585   3.283 -0.5444 -0.5293  0.9169
15514TIP3    H267958   0.948   1.533   3.160  1.3419  1.6283  1.0555
15515TIP3   OH267959   3.051   5.980   0.726 -0.2450  0.2767 -0.5799
15515TIP3    H167960   3.125   6.033   0.695  0.7421 -0.9486 -0.3871
15515TIP3    H267961   3.056   5.900   0.675 -0.7084 -0.3235  0.2944
15516TIP3   OH267962   0.323   3.313   0.488  0.2428 -0.2380  0.2856
15516TIP3    H167963   0.281   3.305   0.574 -0.5022  1.9649  0.1863
15516TIP3    H267964   0.324   3.224   0.453 -0.4780 -0.9940  2.0880
15517TIP3   OH267965   4.216   5.006   0.375  0.1466 -0.2519  0.4226
15517TIP3    H167966   4.247   4.985   0.463 -1.8035 -0.0253  1.2019
15517TIP3    H267967   4.122   5.018   0.385 -0.2322 -0.9081 -1.8236
15518TIP3   OH267968   5.517   0.221  11.501  0.7701 -0.4182  0.1633
15518TIP3    H167969   5.427   0.190  11.492  0.3683  0.3863  1.3413
15518TIP3    H267970   5.553   0.170  11.574  0.8605  0.1919  0.5448
15519TIP3   OH267971   2.676   3.705  12.943  0.5342  0.6805 -0.3969
15519TIP3    H167972   2.663   3.768  12.873 -0.4906  0.2115 -0.6469
15519TIP3    H267973   2.701   3.624  12.898 -2.7876 -0.4141 -0.5344
15520TIP3   OH267974   2.023   4.057  16.280  0.2350 -0.2720 -0.1163
15520TIP3    H167975   1.967   4.125  16.318 -2.7402 -1.6965 -1.6137
15520TIP3    H267976   2.111   4.081  16.308 -0.6716  3.8640 -0.0941
15521TIP3   OH267977   5.450   2.579   3.893 -0.6337  0.1103  1.1445
15521TIP3    H167978   5.418   2.508   3.948 -0.3314 -0.4183  0.6583
15521TIP3    H267979   5.440   2.546   3.804 -0.0631  0.5002  0.9311
15522TIP3   OH267980   4.009   4.153  14.958  0.1324 -0.2645  0.0631
15522TIP3    H167981   4.030   4.211  14.885  2.0711 -0.1526  0.6523
15522TIP3    H267982   4.091   4.107  14.976 -0.7580 -1.5110  1.0967
15523TIP3   OH267983   5.234   4.665  17.150  0.5844 -0.0534 -0.5738
15523TIP3    H167984   5.217   4.575  17.177 -0.2532  0.2364 -0.0799
15523TIP3    H267985   5.269   4.707  17.229 -0.8923  0.5312 -0.1798
15524TIP3   OH267986   2.594   6.500   5.516  0.0169 -0.1401 -0.3183
15524TIP3    H167987   2.681   6.468   5.493 -1.2529 -1.8415 -3.2892
15524TIP3    H267988   2.604   6.595   5.521  2.1886 -0.3471  0.4422
15525TIP3   OH267989   0.735   4.724  15.541 -0.7575  0.3969  0.5484
15525TIP3    H167990   0.781   4.652  15.584 -1.4673 -1.1359 -1.1198
15525TIP3    H267991   0.646   4.720  15.577 -0.7459  0.5558  0.5937
15526TIP3   OH267992   1.264   5.898   0.466  0.2114 -1.0311  0.0288
15526TIP3    H167993   1.310   5.860   0.541 -0.7080 -2.0461  0.1081
15526TIP3    H267994   1.264   5.992   0.483 -0.2903 -1.2693  1.5092
15527TIP3   OH267995   3.186   4.752   2.928  0.0802  0.0057 -0.1102
15527TIP3    H167996   3.154   4.842   2.938  0.0854 -0.2742  3.2544
15527TIP3    H267997   3.115   4.698   2.963 -0.8128 -1.6097 -3.9149
15528TIP3   OH267998   2.651   2.798  15.263  0.2042 -0.2455 -0.2095
15528TIP3    H167999   2.635   2.765  15.175  0.0752  0.3393 -0.4074
15528TIP3    H268000   2.731   2.753  15.291 -0.4505 -1.3963 -0.1224
15529TIP3   OH268001   1.992   2.282  12.702  0.1002 -0.0440  0.0273
15529TIP3    H168002   1.901   2.295  12.677 -0.0329 -0.2765  0.3836
15529TIP3    H268003   2.033   2.367  12.690  0.4043 -0.4515 -2.4392
15530TIP3   OH268004   0.909   5.966  10.733  0.0603  0.3486  0.2646
15530TIP3    H168005   0.946   6.052  10.719  2.5749 -0.4813  1.2354
15530TIP3    H268006   0.923   5.919  10.651  1.7441 -0.1108  0.7757
15531TIP3   OH268007   0.811   2.413   0.533  0.0811  0.1464  0.1415
15531TIP3    H168008   0.767   2.461   0.603  1.8115  2.0655  0.0089
15531TIP3    H268009   0.889   2.465   0.513  0.9202 -1.6207 -1.5549
15532TIP3   OH268010   4.017   2.262  16.378 -0.3209  0.3041  0.3651
15532TIP3    H168011   3.999   2.279  16.471  1.0974  1.4821  0.4455
15532TIP3    H268012   3.961   2.324  16.332  0.6638  1.3321  0.5155
15533TIP3   OH268013   4.262   2.140   4.952  0.3485 -0.2928 -0.0444
15533TIP3    H168014   4.203   2.179   4.887 -1.4629 -3.0511 -0.2452
15533TIP3    H268015   4.305   2.068   4.906  1.9026  0.0214  0.8482
15534TIP3   OH268016   2.361   3.437   5.131 -0.6432  0.0722 -0.4439
15534TIP3    H168017   2.348   3.436   5.037  1.9609  2.1631 -0.9399
15534TIP3    H268018   2.303   3.507   5.163  0.3886  1.1641 -0.9063
15535TIP3   OH268019   1.206   5.066   0.301  0.3739 -0.1739  0.6632
15535TIP3    H168020   1.123   5.027   0.328  0.8744 -1.1192  0.8848
15535TIP3    H268021   1.183   5.156   0.277 -0.9849 -0.8337 -0.7325
15536TIP3   OH268022   6.359   1.427   6.646  0.4472 -0.0736 -0.3720
15536TIP3    H168023   6.326   1.432   6.556 -0.5964 -2.7326 -0.2329
15536TIP3    H268024   6.424   1.356   6.643  1.9385  1.2029  0.5862
15537TIP3   OH268025   4.215   5.120  12.632  0.3515 -0.2182 -0.6915
15537TIP3    H168026   4.154   5.142  12.702  0.4981 -2.3148  0.1726
15537TIP3    H268027   4.230   5.203  12.586 -0.5763  1.0031  1.0894
15538TIP3   OH268028   2.417   3.069   4.717  0.2534  0.6088 -0.2485
15538TIP3    H168029   2.371   3.079   4.800 -0.4698  1.2070 -0.6995
15538TIP3    H268030   2.399   2.980   4.689 -1.9139  1.2564 -1.1189
15539TIP3   OH268031   6.397   6.777  15.187 -0.2339 -0.3389 -0.4287
15539TIP3    H168032   6.410   6.791  15.093 -0.5977 -2.0236 -0.7493
15539TIP3    H268033   6.341   6.700  15.193 -1.5005  0.6441  1.1597
15540TIP3   OH268034   2.868   4.447  16.413 -0.0435  0.1909 -0.5686
15540TIP3    H168035   2.776   4.426  16.397  0.0394  0.5157 -1.5570
15540TIP3    H268036   2.908   4.362  16.434 -0.8329  0.2497  1.3982
15541TIP3   OH268037   4.641   4.155  16.288 -0.3773  0.3136  1.0310
15541TIP3    H168038   4.556   4.110  16.287 -0.4476  0.4444  0.3806
15541TIP3    H268039   4.653   4.185  16.197 -1.1987  3.2020  1.7667
15542TIP3   OH268040   3.883   5.122   0.157  0.8958 -0.5973  0.4312
15542TIP3    H168041   3.842   5.191   0.105  2.7146  0.8987  0.8768
15542TIP3    H268042   3.964   5.103   0.111  0.4645 -2.4476  0.3651
15543TIP3   OH268043   0.501   5.618  13.579 -0.3479  0.1920  0.2489
15543TIP3    H168044   0.423   5.598  13.527  0.2776  1.8214 -1.4027
15543TIP3    H268045   0.549   5.535  13.583 -1.6348 -0.5725  0.3951
15544TIP3   OH268046   1.286   2.057   3.503  0.3428 -0.0674 -0.3188
15544TIP3    H168047   1.207   2.034   3.552  0.3515  3.5236  1.7063
15544TIP3    H268048   1.358   2.035   3.562  0.9980 -2.7923 -1.9316
15545TIP3   OH268049   2.501   6.394  11.653  0.2320 -0.6379  0.3012
15545TIP3    H168050   2.416   6.409  11.612 -0.0237  0.9809  1.3338
15545TIP3    H268051   2.545   6.479  11.649  1.0409 -0.9791  1.4424
15546TIP3   OH268052   0.584   0.051   4.566 -0.4398  0.1821 -0.0590
15546TIP3    H168053   0.656  -0.011   4.566  0.3002  1.0119  0.8632
15546TIP3    H268054   0.564   0.064   4.473  0.0401 -0.6682 -0.2924
15547TIP3   OH268055   6.017   4.128  15.626 -0.1783 -0.1903 -0.7543
15547TIP3    H168056   5.958   4.053  15.633 -0.0676 -0.1860  0.5292
15547TIP3    H268057   6.104   4.089  15.615 -0.3356 -0.2012 -2.1714
15548TIP3   OH268058   1.532   5.750  11.375  0.2713  0.0506 -0.2701
15548TIP3    H168059   1.449   5.702  11.381  0.3519  0.0098  0.7071
15548TIP3    H268060   1.507   5.842  11.385  0.3274  0.0501 -0.1281
15549TIP3   OH268061   4.489   1.789   2.992  0.4195 -0.1249 -0.3742
15549TIP3    H168062   4.529   1.747   3.068  0.5260  0.7292  0.0493
15549TIP3    H268063   4.560   1.841   2.953  0.4187 -0.6924 -1.1699
15550TIP3   OH268064   3.502   3.246  14.717  0.1155  0.1693 -0.5642
15550TIP3    H168065   3.414   3.242  14.755  0.3830  0.7720  0.1342
15550TIP3    H268066   3.549   3.172  14.757  0.4839  0.9773  0.5278
15551TIP3   OH268067   5.842   2.448   3.948  0.6424  0.6579  0.2875
15551TIP3    H168068   5.937   2.440   3.943  0.9931  0.5767  4.0687
15551TIP3    H268069   5.811   2.359   3.960 -0.0540  0.6004 -1.6406
15552TIP3   OH268070   2.061   2.277   5.006  0.0043 -0.7511  0.1428
15552TIP3    H168071   2.024   2.361   5.031  1.0493 -0.4873  0.8439
15552TIP3    H268072   2.002   2.212   5.044  1.1490 -0.3637  2.7875
15553TIP3   OH268073   1.517   1.319  12.125 -0.1157  0.7070 -0.3669
15553TIP3    H168074   1.497   1.282  12.211  0.1482  0.1209 -0.5523
15553TIP3    H268075   1.507   1.414  12.136 -0.7910  0.5828  0.1180
15554TIP3   OH268076   5.939   3.047  16.480 -0.0812  0.1989 -0.4520
15554TIP3    H168077   5.849   3.032  16.509 -0.0587 -1.0678 -0.9626
15554TIP3    H268078   5.940   3.019  16.389  0.9145 -0.1777 -0.3393
15555TIP3   OH268079   3.797   1.916  14.471 -0.1285 -0.7026 -0.3126
15555TIP3    H168080   3.756   2.002  14.480 -0.8295 -1.0366 -0.2604
15555TIP3    H268081   3.724   1.855  14.472  0.4580 -1.4340  1.4157
15556TIP3   OH268082   2.178   1.565  12.637  0.4217  0.7424 -0.1329
15556TIP3    H168083   2.094   1.520  12.642  0.1740  0.9965 -1.6032
15556TIP3    H268084   2.155   1.658  12.637  0.7903  0.8446  0.5422
15557TIP3   OH268085   4.380   0.060  15.802  0.4233 -0.1070  0.5323
15557TIP3    H168086   4.364  -0.034  15.803 -0.0333 -0.0482 -0.5181
15557TIP3    H268087   4.333   0.094  15.879 -3.4402 -0.1258 -1.6104
15558TIP3   OH268088   5.241   4.277  14.836  0.4204  0.6519  0.6562
15558TIP3    H168089   5.210   4.327  14.760 -0.6217  0.0238  0.6564
15558TIP3    H268090   5.191   4.312  14.909  0.8617  0.7152  0.9315
15559TIP3   OH268091   6.298   5.533  16.473  0.0209 -0.0207  0.4781
15559TIP3    H168092   6.357   5.460  16.495  1.6413  0.9021 -0.5920
15559TIP3    H268093   6.309   5.545  16.379 -0.7700  1.1447  0.5159
15560TIP3   OH268094   1.274   0.151  11.901  1.1733  0.7217 -0.2212
15560TIP3    H168095   1.299   0.239  11.871  1.2116 -0.0960 -2.7215
15560TIP3    H268096   1.354   0.099  11.890  1.6718  0.6400  2.8225
15561TIP3   OH268097   4.663   5.621   1.442 -0.2974  0.2679  0.6783
15561TIP3    H168098   4.736   5.683   1.438  0.9345 -1.0368  1.7166
15561TIP3    H268099   4.625   5.635   1.529 -1.5327  1.1510  0.0312
15562TIP3   OH268100   0.364   1.173  10.474 -0.3609 -0.5561 -0.0472
15562TIP3    H168101   0.426   1.182  10.546  0.4755 -0.0737 -0.8115
15562TIP3    H268102   0.399   1.102  10.420  0.7004  1.0378 -1.5890
15563TIP3   OH268103   3.027   5.246  11.668 -0.4737  0.0407 -0.6007
15563TIP3    H168104   3.077   5.305  11.724 -1.6223 -0.3359  0.9062
15563TIP3    H268105   3.045   5.276  11.579  2.3669 -0.0825 -0.1666
15564TIP3   OH268106   5.296   2.933   1.925 -0.3146  0.2302  0.3341
15564TIP3    H168107   5.390   2.953   1.920  0.0775 -1.4478  0.5169
15564TIP3    H268108   5.279   2.879   1.848 -0.6936 -1.0659  1.2948
15565TIP3   OH268109   0.946   0.262  12.763 -0.1043 -0.0113  0.0618
15565TIP3    H168110   0.909   0.184  12.723  0.7831 -1.2427  1.5402
15565TIP3    H268111   0.875   0.299  12.815 -0.3981 -0.0803 -0.2922
15566TIP3   OH268112   6.292   0.574  17.230  0.1091 -0.0898 -0.2455
15566TIP3    H168113   6.249   0.489  17.232  1.2834 -0.6951  0.6059
15566TIP3    H268114   6.381   0.557  17.262  1.2689  0.9550 -2.5914
15567TIP3   OH268115   6.656   1.952   5.872 -0.0803  0.1533 -0.3259
15567TIP3    H168116   6.655   1.980   5.780  0.3137 -0.0372 -0.3895
15567TIP3    H268117   6.744   1.918   5.886 -0.1137  0.2604  0.1497
15568TIP3   OH268118   4.496   4.107   0.557 -0.2007 -1.3694 -0.1972
15568TIP3    H168119   4.508   4.167   0.483  0.0021 -1.3352 -0.1388
15568TIP3    H268120   4.437   4.153   0.617  1.2361 -0.5117  0.6174
15569TIP3   OH268121   0.400   4.024  12.270  0.0465 -1.0051 -0.4534
15569TIP3    H168122   0.354   3.964  12.328  0.5982 -0.6034  0.4198
15569TIP3    H268123   0.473   3.974  12.236 -0.4561 -1.3383 -1.0656
15570TIP3   OH268124   1.469   1.330  11.622 -0.5722 -0.1228 -0.2122
15570TIP3    H168125   1.563   1.316  11.612 -0.8319 -1.2361 -1.2651
15570TIP3    H268126   1.429   1.259  11.573 -1.9850  1.3475 -1.2577
15571TIP3   OH268127   5.442   6.014  13.103 -0.5983  0.2845 -0.1371
15571TIP3    H168128   5.476   5.928  13.129  2.5173  1.0500 -1.1737
15571TIP3    H268129   5.348   6.008  13.118 -0.5983 -3.4488 -0.6113
15572TIP3   OH268130   2.561   4.983  14.848 -0.0770  0.0199 -0.0135
15572TIP3    H168131   2.485   5.000  14.904 -1.3557 -2.6868 -0.7554
15572TIP3    H268132   2.627   4.948  14.907 -0.1505  0.4065  0.3043
15573TIP3   OH268133   1.796   2.539  12.657 -0.0123  0.0568 -0.1534
15573TIP3    H168134   1.724   2.495  12.702  1.2961 -2.7388 -0.5728
15573TIP3    H268135   1.854   2.569  12.727 -2.1244  3.6510  0.2697
15574TIP3   OH268136   6.065   0.779  16.193  0.6560  0.3391 -0.6245
15574TIP3    H168137   6.032   0.817  16.275 -1.5504 -1.0194 -0.8059
15574TIP3    H268138   6.141   0.832  16.172  2.5232 -0.3811  3.2688
15575TIP3   OH268139   0.061   0.845  13.281 -0.1970  0.2116  0.4521
15575TIP3    H168140   0.136   0.798  13.318  1.1163  0.7847 -1.3387
15575TIP3    H268141   0.040   0.911  13.347 -0.2192 -1.0095  1.7218
15576TIP3   OH268142   3.581   2.590   1.325  0.7931  0.0204  0.3544
15576TIP3    H168143   3.665   2.550   1.304  0.0654 -1.0010 -0.7378
15576TIP3    H268144   3.517   2.520   1.314 -0.1412  0.5774  1.9062
15577TIP3   OH268145   4.901   1.221  16.479 -0.3682  0.0667  0.2061
15577TIP3    H168146   4.981   1.215  16.426 -1.1892  0.4945 -1.1080
15577TIP3    H268147   4.920   1.290  16.543  0.4198 -0.0610  0.1256
15578TIP3   OH268148   6.746   6.384  15.353  0.1752 -0.5722 -1.0829
15578TIP3    H168149   6.665   6.408  15.307 -0.5610 -0.5385  0.1807
15578TIP3    H268150   6.716   6.328  15.425  1.1948  0.0530 -0.1560
15579TIP3   OH268151   3.083   4.484  13.131  0.1762  0.2433  0.4755
15579TIP3    H168152   3.159   4.533  13.101 -0.1056  0.4842  0.1448
15579TIP3    H268153   3.099   4.394  13.103  0.4523  0.2454  0.6264
15580TIP3   OH268154   4.700   3.654  12.874  0.2219  0.2324  0.2119
15580TIP3    H168155   4.715   3.694  12.960  0.2928  1.9191 -0.5487
15580TIP3    H268156   4.788   3.633  12.842  0.3644  1.4318 -0.2521
15581TIP3   OH268157   0.683   1.138   4.325  0.4455 -0.6612 -0.4810
15581TIP3    H168158   0.709   1.217   4.372  3.8887 -1.7035 -0.3226
15581TIP3    H268159   0.588   1.141   4.323  0.3679  2.3181  1.4783
15582TIP3   OH268160   6.032   5.381  11.980 -0.7571  0.7004  0.4355
15582TIP3    H168161   6.121   5.367  11.948 -0.4155 -0.2167  1.7009
15582TIP3    H268162   6.014   5.473  11.963  0.4707  0.9197  0.2487
15583TIP3   OH268163   4.534   6.279   3.981  0.4939  0.5841 -0.5443
15583TIP3    H168164   4.590   6.205   3.959 -1.7769 -1.1026 -1.0078
15583TIP3    H268165   4.560   6.304   4.069  0.1948 -1.9458  0.3470
15584TIP3   OH268166   2.370   1.284  10.895  0.1909 -0.1483  0.0812
15584TIP3    H168167   2.462   1.267  10.873 -0.0799 -0.2603 -1.0601
15584TIP3    H268168   2.331   1.314  10.812 -0.4273  1.5236  0.9285
15585TIP3   OH268169   5.736   0.117  11.776 -0.2695 -0.4680  0.0158
15585TIP3    H168170   5.690   0.186  11.823  2.0820 -0.7265  2.9491
15585TIP3    H268171   5.803   0.163  11.725  1.8368 -0.4018  2.5917
15586TIP3   OH268172   0.849   4.511  16.802  0.2503 -0.0427 -0.1296
15586TIP3    H168173   0.772   4.454  16.802 -1.1239  1.6538  1.6281
15586TIP3    H268174   0.813   4.600  16.800  2.1609  0.8145  0.6060
15587TIP3   OH268175   2.763   3.248   6.210  0.1782  0.4708  0.2214
15587TIP3    H168176   2.827   3.201   6.265 -0.6231  1.8262  2.4732
15587TIP3    H268177   2.679   3.208   6.231  0.0331 -0.0339 -1.2626
15588TIP3   OH268178   3.118   2.121  14.368  0.3208  0.3700  0.0803
15588TIP3    H168179   3.094   2.029  14.376 -0.2931  0.2905 -2.0317
15588TIP3    H268180   3.043   2.169  14.405 -0.4176  0.0295 -0.9342
15589TIP3   OH268181   0.407   1.015  14.619 -0.3040  0.5400 -0.5565
15589TIP3    H168182   0.349   1.088  14.641  1.4699  1.6111  0.8650
15589TIP3    H268183   0.433   0.979  14.704  1.4197  0.3935 -1.1088
15590TIP3   OH268184   3.051   2.160  11.728  0.1150  0.0020 -0.2409
15590TIP3    H168185   3.066   2.070  11.698  1.0298 -0.3639  1.2206
15590TIP3    H268186   3.124   2.178  11.787 -1.8157  0.4377  2.2092
15591TIP3   OH268187   0.919   3.257  13.864  0.0337 -0.3724  0.0419
15591TIP3    H168188   0.939   3.262  13.957 -0.9943  1.7008  0.2090
15591TIP3    H268189   0.997   3.219  13.824  0.4847 -1.3018  1.7184
15592TIP3   OH268190   1.007   5.713   4.100 -0.3831  0.4437 -0.1429
15592TIP3    H168191   1.034   5.804   4.113 -1.5773  0.9542 -1.0233
15592TIP3    H268192   0.911   5.715   4.109 -0.4658 -0.6612 -0.5723
15593TIP3   OH268193   2.567   2.846  13.353  0.0907 -0.1706 -0.4336
15593TIP3    H168194   2.623   2.771  13.334 -1.0708 -0.4796 -3.0687
15593TIP3    H268195   2.491   2.809  13.398 -0.3864 -0.5998 -1.5495
15594TIP3   OH268196   2.296   4.762  11.537  0.3834 -0.7524 -0.0860
15594TIP3    H168197   2.389   4.744  11.552  0.3088 -0.2725  1.0596
15594TIP3    H268198   2.295   4.851  11.501  0.2507  0.2910  2.3165
15595TIP3   OH268199   4.260   4.842   3.113 -0.1370  0.1108  0.1384
15595TIP3    H168200   4.310   4.765   3.137 -0.5455  0.2460  1.5532
15595TIP3    H268201   4.171   4.809   3.096  0.1631  0.0068 -1.3586
15596TIP3   OH268202   0.887   1.482  10.430 -0.5153  0.6128 -0.1235
15596TIP3    H168203   0.963   1.443  10.473 -0.8105 -0.9826 -0.9913
15596TIP3    H268204   0.841   1.528  10.500  0.5516  0.5061  0.6717
15597TIP3   OH268205   0.397   2.906  16.630 -0.2975  0.1324 -0.5330
15597TIP3    H168206   0.465   2.939  16.571 -0.5805 -0.3919 -1.1710
15597TIP3    H268207   0.445   2.871  16.705  0.1500 -0.2074 -0.9629
15598TIP3   OH268208   1.548   2.341   5.063 -0.2223  0.0991 -0.3621
15598TIP3    H168209   1.497   2.377   5.135 -1.2755 -0.2585 -0.9085
15598TIP3    H268210   1.512   2.383   4.985 -0.0548 -0.5741 -0.8080
15599TIP3   OH268211   2.466   3.874  15.226 -0.2165 -0.2003 -0.3024
15599TIP3    H168212   2.404   3.859  15.155 -0.4501  0.0223 -0.1469
15599TIP3    H268213   2.551   3.853  15.189 -0.2493  0.6532 -0.8836
15600TIP3   OH268214   1.317   2.377   1.693 -0.1302  0.4247  0.0701
15600TIP3    H168215   1.283   2.290   1.671 -0.3096  0.4836  0.1047
15600TIP3    H268216   1.396   2.360   1.744  0.7640  0.3023 -1.3325
15601TIP3   OH268217   1.257   1.727  16.551 -0.4519  0.1397  0.4107
15601TIP3    H168218   1.330   1.720  16.490 -0.5692 -1.5008  0.4108
15601TIP3    H268219   1.297   1.724  16.637 -0.4959 -0.6494  0.4101
15602TIP3   OH268220   6.685   0.170  13.235 -0.1031  0.0356 -0.1739
15602TIP3    H168221   6.637   0.113  13.175  0.4403 -0.1794 -0.4196
15602TIP3    H268222   6.773   0.175  13.197  0.7218 -1.3522  1.4142
15603TIP3   OH268223   4.342   6.385   3.099  0.0268  0.3106  0.4031
15603TIP3    H168224   4.349   6.384   3.003 -2.5775 -0.6731  0.1412
15603TIP3    H268225   4.365   6.296   3.125  0.2565  0.4456  0.6655
15604TIP3   OH268226   6.635   2.337  15.418 -0.9522 -0.3178  0.8168
15604TIP3    H168227   6.682   2.419  15.431 -1.4395  0.1184 -0.0809
15604TIP3    H268228   6.697   2.282  15.369 -0.4903 -0.6379  1.7264
15605TIP3   OH268229   2.666   6.156   5.336 -0.0975 -0.9574 -0.7544
15605TIP3    H168230   2.593   6.169   5.396  0.6077 -0.6107  0.0640
15605TIP3    H268231   2.731   6.107   5.387  0.7994 -0.0535 -0.9923
15606TIP3   OH268232   1.516   4.473   0.490  0.7129  0.0581  0.1578
15606TIP3    H168233   1.579   4.520   0.435  0.0479 -0.0503 -0.7117
15606TIP3    H268234   1.487   4.537   0.554  0.2489  0.6781 -0.6538
15607TIP3   OH268235   2.385   4.345  12.159  0.0109  0.0408  0.1208
15607TIP3    H168236   2.417   4.264  12.198 -0.8645 -0.6719 -0.5900
15607TIP3    H268237   2.358   4.399  12.233 -0.3511 -0.7359  0.5629
15608TIP3   OH268238   4.484   5.389   5.151  0.0657 -0.1328 -0.1927
15608TIP3    H168239   4.571   5.393   5.110  0.0193  1.0770 -0.1943
15608TIP3    H268240   4.503   5.382   5.245  0.1614 -1.2152 -0.2831
15609TIP3   OH268241   0.787   5.817  15.606  0.4789  0.0219 -0.0479
15609TIP3    H168242   0.814   5.877  15.675 -1.1386 -0.2949  0.9159
15609TIP3    H268243   0.841   5.739  15.619  0.0084 -0.1434  1.0892
15610TIP3   OH268244   2.088   5.622  15.302  0.2729  0.4266 -0.0280
15610TIP3    H168245   2.021   5.560  15.332  0.4390 -0.1556 -0.8155
15610TIP3    H268246   2.171   5.577  15.318  0.3713  0.1009 -1.2877
15611TIP3   OH268247   5.997   2.114  14.902 -0.3186 -0.4580  0.5340
15611TIP3    H168248   5.938   2.042  14.880 -1.5234  0.5609  0.2841
15611TIP3    H268249   5.963   2.150  14.984 -0.8974  0.9727 -0.2855
15612TIP3   OH268250   2.242   4.302   1.308 -1.0001  0.1013 -0.1213
15612TIP3    H168251   2.264   4.390   1.340 -3.6138  0.8489 -0.1282
15612TIP3    H268252   2.318   4.249   1.331 -0.3291  1.8351  2.1373
15613TIP3   OH268253   1.534   3.775  12.360 -0.2360  0.1534  0.3821
15613TIP3    H168254   1.549   3.750  12.269 -0.9168  0.8365  0.0748
15613TIP3    H268255   1.506   3.693  12.402 -1.4533  0.1475 -0.3886
15614TIP3   OH268256   5.024   4.414  15.258  0.4490  0.2552 -0.1685
15614TIP3    H168257   5.036   4.503  15.227  1.6952  1.4582  3.2836
15614TIP3    H268258   5.104   4.395  15.307 -0.2941 -2.3239  0.1872
15615TIP3   OH268259   2.331   3.489  14.252  0.2460 -0.1925 -0.2214
15615TIP3    H168260   2.349   3.454  14.339  0.2720 -0.2855 -0.2640
15615TIP3    H268261   2.282   3.570  14.268  1.0340  0.2718 -0.0878
15616TIP3   OH268262   5.387   4.790  13.647  0.4152  0.0798 -0.6299
15616TIP3    H168263   5.367   4.698  13.632  0.1366  0.1887 -0.9247
15616TIP3    H268264   5.312   4.838  13.611  0.0983  0.3811  0.3868
15617TIP3   OH268265   0.327   3.698  12.146 -0.4375  0.2060  0.0494
15617TIP3    H168266   0.374   3.626  12.189  0.1127 -0.4334 -1.5168
15617TIP3    H268267   0.396   3.749  12.104 -1.0090  0.1144 -1.0437
15618TIP3   OH268268   6.077   5.740   3.476  0.0279  0.3550 -0.0035
15618TIP3    H168269   6.046   5.827   3.500  1.4274  0.9404 -0.1992
15618TIP3    H268270   6.158   5.728   3.526  1.2039  0.2368 -1.8331
15619TIP3   OH268271   4.180   6.773  11.998 -0.0121  0.6802  0.4703
15619TIP3    H168272   4.098   6.794  11.952  0.7674  0.2200 -1.2017
15619TIP3    H268273   4.208   6.856  12.036  0.0431  1.4026 -1.1055
15620TIP3   OH268274   5.967   3.458  12.592  0.4101  0.0301  0.3480
15620TIP3    H168275   6.004   3.544  12.570  2.8292 -0.7746  0.9166
15620TIP3    H268276   6.042   3.407  12.622 -0.9290 -2.3602 -0.1159
15621TIP3   OH268277   1.867   2.847  16.771  0.0356 -0.3798 -0.0813
15621TIP3    H168278   1.783   2.894  16.771 -0.6284 -1.5233  0.3671
15621TIP3    H268279   1.847   2.762  16.733  0.9696 -0.7320  0.1823
15622TIP3   OH268280   0.911   2.698  12.038  0.2622  0.1392 -0.4041
15622TIP3    H168281   0.937   2.786  12.013 -0.6250  0.7723  0.7691
15622TIP3    H268282   0.827   2.684  11.995 -0.1396  0.3285  0.2903
15623TIP3   OH268283   3.223   5.376   0.883 -0.2176  0.2122  0.0338
15623TIP3    H168284   3.156   5.435   0.916 -0.8571  0.3103 -1.3679
15623TIP3    H268285   3.283   5.432   0.833 -0.1048 -0.1317 -0.2257
15624TIP3   OH268286   1.833   4.688  11.668 -0.0164 -0.6023  0.0254
15624TIP3    H168287   1.855   4.596  11.682  1.3749 -0.6210 -1.7784
15624TIP3    H268288   1.919   4.732  11.662 -0.5402  0.2694 -2.0950
15625TIP3   OH268289   1.806   5.300  13.603 -0.2445  0.0407  0.0715
15625TIP3    H168290   1.838   5.247  13.531  0.1853  0.1857  0.1519
15625TIP3    H268291   1.851   5.265  13.680  1.8059  1.9101 -0.1485
15626TIP3   OH268292   4.486   5.948   2.128  0.3875  0.3573 -0.4213
15626TIP3    H168293   4.562   5.978   2.179  1.0644 -1.5477 -0.2472
15626TIP3    H268294   4.465   5.862   2.164 -2.3667  1.1267  0.0448
15627TIP3   OH268295   4.155   4.390  11.868 -0.6783  0.3206 -0.1843
15627TIP3    H168296   4.095   4.439  11.811 -0.9700 -0.5646 -0.6629
15627TIP3    H268297   4.193   4.456  11.925 -0.7813  1.1637 -1.0607
15628TIP3   OH268298   5.692   1.740   4.781  0.3332  0.0956  0.2606
15628TIP3    H168299   5.697   1.645   4.774 -2.0875 -0.0992  0.2241
15628TIP3    H268300   5.740   1.773   4.705  1.5770 -1.0509  0.5158
15629TIP3   OH268301   4.376   6.626  13.124  0.2655  0.2108 -0.0902
15629TIP3    H168302   4.342   6.714  13.144  1.0810  1.1684 -2.5736
15629TIP3    H268303   4.470   6.632  13.145  0.4172  0.0998 -0.7278
15630TIP3   OH268304   2.812   0.383   1.925  0.2564 -0.3129 -0.4772
15630TIP3    H168305   2.766   0.328   1.861 -0.5197 -0.2986  0.0521
15630TIP3    H268306   2.870   0.438   1.873 -2.3488  1.6578 -1.4621
15631TIP3   OH268307   0.943   0.490  14.472  0.0837 -0.0001  0.0810
15631TIP3    H168308   1.023   0.501  14.420  0.3559 -0.4211  0.4048
15631TIP3    H268309   0.936   0.395  14.486  1.1997  0.2052  2.6226
15632TIP3   OH268310   4.135   3.972  16.027  0.3150  0.3920 -0.1308
15632TIP3    H168311   4.229   3.978  16.012 -0.0627  3.1129 -2.0086
15632TIP3    H268312   4.126   3.968  16.122  2.3131  0.2596  0.0794
15633TIP3   OH268313   3.593   3.744   0.266  0.5758 -0.2031  0.4785
15633TIP3    H168314   3.613   3.666   0.317  1.4159 -0.9264 -0.8988
15633TIP3    H268315   3.591   3.714   0.175  3.4031  1.7543 -0.3659
15634TIP3   OH268316   6.436   4.511  14.576 -0.5019  0.0050 -0.1072
15634TIP3    H168317   6.356   4.466  14.604 -1.6423  1.2147 -1.3046
15634TIP3    H268318   6.497   4.440  14.554 -0.6662 -0.9625  2.2037
15635TIP3   OH268319   5.962   6.731   2.192 -0.2283  0.1978 -0.2180
15635TIP3    H168320   5.897   6.794   2.221  1.2989  1.6039  0.3166
15635TIP3    H268321   6.002   6.698   2.273  0.7377  0.4959 -0.5540
15636TIP3   OH268322   3.103   2.544   2.421 -0.6580  0.0978 -0.2866
15636TIP3    H168323   3.109   2.469   2.362 -0.3549  1.0608 -1.5048
15636TIP3    H268324   3.104   2.505   2.509 -1.5150 -1.3884 -0.8906
15637TIP3   OH268325   5.297   5.045  14.853 -0.2406 -0.5447  0.4460
15637TIP3    H168326   5.292   4.950  14.846 -0.6038 -0.4752 -0.2931
15637TIP3    H268327   5.387   5.066  14.828 -0.4948 -0.6003 -0.5207
15638TIP3   OH268328   1.903   1.525  15.549  0.1983  0.2572 -0.1641
15638TIP3    H168329   1.944   1.600  15.507  1.1446  0.1431  0.5190
15638TIP3    H268330   1.971   1.490  15.607 -0.7780 -0.1254  0.7723
15639TIP3   OH268331   5.347   3.227   1.557  0.3241 -0.0484 -0.0226
15639TIP3    H168332   5.357   3.141   1.597  1.2970 -0.7384 -1.6511
15639TIP3    H268333   5.394   3.286   1.616 -2.3532 -0.1545  2.3892
15640TIP3   OH268334   4.625   3.686   1.698 -0.0939  0.7081 -0.1688
15640TIP3    H168335   4.653   3.601   1.731 -0.5416  0.8080  0.4956
15640TIP3    H268336   4.663   3.749   1.759  0.5105  1.0123 -0.8481
15641TIP3   OH268337   3.135   1.323   5.581 -0.4854 -0.3496  0.3999
15641TIP3    H168338   3.069   1.391   5.594  0.3443  0.2174  1.9458
15641TIP3    H268339   3.094   1.243   5.616 -0.0926  0.1678  2.1343
15642TIP3   OH268340   1.908   1.099  14.151 -0.0390 -0.1754 -0.0545
15642TIP3    H168341   1.830   1.122  14.101 -1.7426 -1.2118  1.9584
15642TIP3    H268342   1.881   1.109  14.242  2.2468 -0.4490  0.7119
15643TIP3   OH268343   6.107   6.701  17.146 -0.0727 -0.6263  0.0160
15643TIP3    H168344   6.052   6.720  17.070 -0.8892 -1.8251  0.2876
15643TIP3    H268345   6.184   6.757  17.134 -0.4188 -0.4244 -1.4284
15644TIP3   OH268346   6.428   5.069   2.761  0.1962 -0.2838  0.1529
15644TIP3    H168347   6.475   5.025   2.690  0.5637  2.9629 -1.8151
15644TIP3    H268348   6.487   5.062   2.836  1.0567 -1.4713 -0.5935
15645TIP3   OH268349   5.284   1.317   6.047  0.7915 -0.3261 -0.0595
15645TIP3    H168350   5.244   1.256   5.986 -0.6817  0.8649 -0.3297
15645TIP3    H268351   5.314   1.389   5.993  3.4968 -1.1975  0.1153
15646TIP3   OH268352   0.157   6.212   1.979 -0.0035 -0.2318 -0.4628
15646TIP3    H168353   0.158   6.259   1.895 -0.2257  2.4631  0.9449
15646TIP3    H268354   0.225   6.145   1.969  0.8131  0.7975 -2.3976
15647TIP3   OH268355   1.032   6.766  16.882 -0.0581 -0.2966 -0.2168
15647TIP3    H168356   1.029   6.729  16.794 -0.6934 -2.1954  0.5499
15647TIP3    H268357   1.125   6.771  16.904  0.0500 -2.4550  0.0066
15648TIP3   OH268358   1.942   6.721  13.293  0.1054  0.6092 -0.2928
15648TIP3    H168359   1.978   6.657  13.231  0.5657 -0.1792  0.7438
15648TIP3    H268360   1.848   6.721  13.276 -0.0577 -1.1665  0.3661
15649TIP3   OH268361   3.180   4.103   1.071  0.0070 -0.1440 -0.1917
15649TIP3    H168362   3.104   4.121   1.016 -0.4293 -1.8347 -0.2174
15649TIP3    H268363   3.142   4.084   1.157  0.4448 -0.4153 -0.0570
15650TIP3   OH268364   2.767   5.823  14.335 -0.3400 -0.3017  0.0264
15650TIP3    H168365   2.801   5.736  14.358  1.1413  0.7965  2.4067
15650TIP3    H268366   2.828   5.884  14.377 -1.4610  1.9138 -1.3828
15651TIP3   OH268367   2.704   1.145  15.942  0.2813 -0.3861  0.2803
15651TIP3    H168368   2.783   1.126  15.993 -0.7674 -2.8692  1.1303
15651TIP3    H268369   2.647   1.191  16.004  0.6369  0.4392  0.0006
15652TIP3   OH268370   0.658   1.990   4.289 -0.1727 -0.1561 -0.3484
15652TIP3    H168371   0.607   2.066   4.318  0.3505  0.2800 -0.5436
15652TIP3    H268372   0.657   1.996   4.194 -1.0424 -1.0179 -0.4032
15653TIP3   OH268373   6.019   3.845   1.500  0.1053 -0.2366 -0.0295
15653TIP3    H168374   5.980   3.870   1.584 -1.9298 -0.6229 -0.7916
15653TIP3    H268375   5.986   3.911   1.438 -0.6874 -1.4913 -1.0033
15654TIP3   OH268376   0.241   5.978  13.999  0.1762 -0.3719 -0.1711
15654TIP3    H168377   0.202   6.043  14.058 -0.5342 -0.1110 -0.8991
15654TIP3    H268378   0.335   5.991  14.007  0.0401  0.7504 -0.3003
15655TIP3   OH268379   5.936   1.158  10.736 -0.3392  0.2351  0.5301
15655TIP3    H168380   5.903   1.153  10.646 -0.4436 -0.2755  0.5962
15655TIP3    H268381   6.027   1.185  10.726  0.2475 -1.7148  0.1375
15656TIP3   OH268382   6.271   4.574   4.038  0.3206  0.8527  0.4703
15656TIP3    H168383   6.270   4.556   3.944  0.5095  0.2995  0.5703
15656TIP3    H268384   6.350   4.627   4.052  0.2514  0.9984  0.3066
15657TIP3   OH268385   0.509   1.810  15.653  0.1032  0.1954 -0.1586
15657TIP3    H168386   0.448   1.755  15.604  0.4678  0.3249 -0.7712
15657TIP3    H268387   0.463   1.893  15.665 -0.2443 -0.0620  0.3042
15658TIP3   OH268388   5.707   3.000   3.519 -0.0822 -0.1165  0.0718
15658TIP3    H168389   5.664   2.931   3.468  1.6338 -0.8076 -0.5182
15658TIP3    H268390   5.681   2.983   3.609 -1.0049 -0.5165 -0.2502
15659TIP3   OH268391   4.236   5.199  16.233 -0.3712  0.0173 -0.1433
15659TIP3    H168392   4.181   5.161  16.164 -0.5504 -1.0587  0.5656
15659TIP3    H268393   4.231   5.294  16.219 -0.8876 -0.1593 -1.2284
15660TIP3   OH268394   3.339   1.386  15.927  0.2774  0.0234  0.4737
15660TIP3    H168395   3.424   1.358  15.894  0.8048  2.1483 -0.1166
15660TIP3    H268396   3.307   1.311  15.979  1.2929 -1.7988 -1.4013
15661TIP3   OH268397   4.029   2.713   1.405 -0.0429  0.2815 -0.1827
15661TIP3    H168398   4.113   2.749   1.433  1.5963 -3.0209 -0.4526
15661TIP3    H268399   4.026   2.728   1.311  0.2666  0.3132 -0.1872
15662TIP3   OH268400   4.922   0.230   3.305  0.6307 -0.8512 -0.1979
15662TIP3    H168401   4.853   0.261   3.247  1.9376  1.9949 -0.4199
15662TIP3    H268402   4.876   0.202   3.385 -0.8091  2.1557  0.1695
15663TIP3   OH268403   5.553   2.809   1.340  0.0479  0.3872  0.4608
15663TIP3    H168404   5.479   2.854   1.300  0.1380  2.1260  2.0751
15663TIP3    H268405   5.626   2.870   1.329  0.4448  0.1773  1.7789
15664TIP3   OH268406   3.436   5.247  13.766  0.7177  0.9242 -0.2377
15664TIP3    H168407   3.355   5.196  13.774  1.1791  0.1104 -0.6442
15664TIP3    H268408   3.464   5.261  13.857  1.4967 -1.0584 -0.1185
15665TIP3   OH268409   5.735   3.754   5.325  0.1153  0.1634  0.2241
15665TIP3    H168410   5.797   3.734   5.254 -0.9007  0.8167 -0.8900
15665TIP3    H268411   5.756   3.691   5.394  0.8936 -0.7451 -0.8077
15666TIP3   OH268412   3.457   2.012   4.809 -0.1548  0.2529 -0.3981
15666TIP3    H168413   3.539   1.971   4.783 -1.8808 -2.8973 -1.4996
15666TIP3    H268414   3.402   2.007   4.730 -1.7942  1.2135  0.6161
15667TIP3   OH268415   0.183   0.744  11.962 -0.8239 -0.1300  0.4116
15667TIP3    H168416   0.125   0.746  12.038 -0.9997  2.2247  0.2772
15667TIP3    H268417   0.141   0.802  11.898  1.1756  0.8568 -0.0685
15668TIP3   OH268418   4.125   6.044  14.253  0.0863 -0.3094  0.2806
15668TIP3    H168419   4.077   6.118  14.291 -0.8891 -0.2642 -1.0008
15668TIP3    H268420   4.090   5.968  14.299  0.3122 -0.0853  0.8370
15669TIP3   OH268421   5.581   1.483  14.262  0.3762  0.5772 -0.0740
15669TIP3    H168422   5.510   1.519  14.316 -0.6454  0.7206 -1.4719
15669TIP3    H268423   5.661   1.512  14.306 -0.4169  0.8388  1.2540
15670TIP3   OH268424   1.531   3.843  17.194 -0.2515 -0.2716  0.0142
15670TIP3    H168425   1.534   3.862  17.101 -1.1427  0.5561  0.1334
15670TIP3    H268426   1.602   3.781  17.209 -1.6350 -2.3700 -1.6345
15671TIP3   OH268427   2.454   2.029  14.244  0.1172 -0.1346  0.2740
15671TIP3    H168428   2.543   1.998  14.231  0.6875  1.1776  0.9191
15671TIP3    H268429   2.458   2.081  14.325 -1.0489  0.6116 -0.1255
15672TIP3   OH268430   5.817   0.804   2.134 -0.1832  0.0201  0.4380
15672TIP3    H168431   5.792   0.755   2.056 -1.4119  1.7755 -0.3342
15672TIP3    H268432   5.912   0.793   2.140 -0.2968 -1.5925 -0.2552
15673TIP3   OH268433   4.896   1.785   2.988 -0.1143 -0.4007  0.0109
15673TIP3    H168434   4.872   1.826   2.904 -0.7212 -2.0296 -0.6550
15673TIP3    H268435   4.932   1.856   3.040  1.3240  0.4544 -2.0370
15674TIP3   OH268436   4.557   6.288  11.018  0.2226 -0.1354 -0.4552
15674TIP3    H168437   4.469   6.294  11.056  0.0135 -2.4646 -0.4215
15674TIP3    H268438   4.604   6.363  11.053 -0.7797 -0.6695  2.2212
15675TIP3   OH268439   2.612   5.797   6.112  0.0107 -0.2350 -0.1745
15675TIP3    H168440   2.655   5.723   6.155  0.4364  0.3006  0.3486
15675TIP3    H268441   2.528   5.763   6.083 -0.3857 -0.5614  1.2909
15676TIP3   OH268442   3.548   5.799   2.931 -0.1158  0.4732  0.3706
15676TIP3    H168443   3.529   5.893   2.937  1.4405  0.8337 -0.0548
15676TIP3    H268444   3.593   5.788   2.848 -0.8532 -0.7818  0.0981
15677TIP3   OH268445   2.393   5.361  11.620  0.7516 -0.1979 -0.3114
15677TIP3    H168446   2.468   5.405  11.581  0.9924 -0.2370  0.0984
15677TIP3    H268447   2.415   5.268  11.615 -1.0072 -0.5671 -3.8259
15678TIP3   OH268448   4.878   6.325  13.165 -0.0933  0.1589  0.0910
15678TIP3    H168449   4.878   6.229  13.159  0.6302  0.0650  1.2857
15678TIP3    H268450   4.866   6.354  13.075 -0.1980 -1.0551 -0.3130
15679TIP3   OH268451   2.705   4.564  13.279 -0.2250 -0.1748  0.1849
15679TIP3    H168452   2.751   4.482  13.263 -0.6544 -0.5455  0.8126
15679TIP3    H268453   2.775   4.629  13.289  0.2447  0.7135 -5.4425
15680TIP3   OH268454   5.252   1.283  14.249  0.0730  0.0015  0.2286
15680TIP3    H168455   5.328   1.227  14.230 -0.3210 -0.4759  0.0363
15680TIP3    H268456   5.186   1.256  14.184 -0.4426  0.0478  0.7276
15681TIP3   OH268457   5.851   4.580  13.125  0.3538 -0.0707 -1.0567
15681TIP3    H168458   5.919   4.619  13.071 -0.8296  1.1849 -1.6861
15681TIP3    H268459   5.895   4.562  13.209  1.7030 -0.2469 -1.7703
15682TIP3   OH268460   2.364   3.249  13.279  0.1793  0.3789 -0.3933
15682TIP3    H168461   2.356   3.162  13.240 -1.5067  0.3125  0.0078
15682TIP3    H268462   2.387   3.233  13.370  2.1133  0.4606 -0.8388
15683TIP3   OH268463   1.991   6.785  11.779 -0.0723  0.2532 -0.1849
15683TIP3    H168464   1.951   6.698  11.791 -0.2166  0.7253  4.5584
15683TIP3    H268465   1.928   6.831  11.723 -1.7475 -1.6736 -0.0504
15684TIP3   OH268466   3.296   2.968   2.375  1.2051  0.3846 -0.2935
15684TIP3    H168467   3.313   2.903   2.306  2.0766 -0.4583  0.6831
15684TIP3    H268468   3.219   2.935   2.421  0.4090  1.1320 -1.0601
15685TIP3   OH268469   4.198   2.561   2.712  0.5309  0.6503  0.3806
15685TIP3    H168470   4.277   2.598   2.752  1.4165 -0.3573 -0.4019
15685TIP3    H268471   4.224   2.536   2.624  0.3940 -2.9887  1.2075
15686TIP3   OH268472   0.697   6.206   5.595 -0.3731  0.5277  0.5549
15686TIP3    H168473   0.619   6.261   5.582 -0.6421  0.2278  0.8806
15686TIP3    H268474   0.732   6.193   5.507  0.7695  2.7438  0.6179
15687TIP3   OH268475   4.038   2.470   5.600  0.2364 -1.1320 -0.2093
15687TIP3    H168476   4.045   2.556   5.557  1.0092 -2.4616 -2.9895
15687TIP3    H268477   3.959   2.431   5.563  0.1104 -1.7759  0.7183
15688TIP3   OH268478   2.571   5.328   6.405  0.0548 -0.0568  0.1888
15688TIP3    H168479   2.483   5.366   6.400 -1.0190 -2.4755 -1.1365
15688TIP3    H268480   2.563   5.254   6.465  1.1498 -0.4174 -0.0748
15689TIP3   OH268481   0.262   1.369  11.655 -0.0362 -0.0394  0.0063
15689TIP3    H168482   0.348   1.391  11.692 -0.6051  1.1623  0.6846
15689TIP3    H268483   0.237   1.447  11.605 -0.9847 -0.1332  0.3165
15690TIP3   OH268484   6.750   5.026  14.594 -0.5123  0.0644  0.2799
15690TIP3    H168485   6.724   4.964  14.526 -0.5025 -0.1611  0.4790
15690TIP3    H268486   6.798   5.094  14.548 -0.7326  0.0493  0.0258
15691TIP3   OH268487   2.103   4.270  12.583 -0.2320  0.0400  0.2131
15691TIP3    H168488   2.187   4.225  12.593  0.0492  0.5030 -0.0575
15691TIP3    H268489   2.121   4.360  12.608 -0.5318  0.2487 -0.3181
15692TIP3   OH268490   3.148   6.273   1.283 -0.5168  0.0867 -0.2997
15692TIP3    H168491   3.120   6.186   1.310  0.6808  0.1123  1.1953
15692TIP3    H268492   3.241   6.264   1.265 -0.5613  0.8747 -0.9841
15693TIP3   OH268493   1.675   2.638   1.856 -0.2819  0.4504  0.0607
15693TIP3    H168494   1.729   2.605   1.783 -0.9814  0.4673 -0.4731
15693TIP3    H268495   1.693   2.577   1.928  0.0028  0.1091 -0.2900
15694TIP3   OH268496   3.661   4.593   0.141 -0.0741  0.4770 -0.2788
15694TIP3    H168497   3.744   4.621   0.102  1.0103 -1.1109  0.7453
15694TIP3    H268498   3.615   4.674   0.161  0.6891  1.3795 -1.9525
15695TIP3   OH268499   5.815   4.591   0.759 -0.5371  0.3295 -0.4345
15695TIP3    H168500   5.846   4.502   0.745  0.4878  0.7412 -0.8727
15695TIP3    H268501   5.870   4.625   0.829 -2.1403  0.0375  1.0504
15696TIP3   OH268502   5.509   4.056   2.645 -0.2383 -0.5566 -0.3574
15696TIP3    H168503   5.518   4.063   2.550 -1.6725  1.3672 -0.4102
15696TIP3    H268504   5.472   3.970   2.660  0.9049 -1.2707 -1.4444
15697TIP3   OH268505   2.329   4.683  14.238  0.2730  0.1689 -0.3525
15697TIP3    H168506   2.270   4.613  14.209  0.7441  0.5284 -2.3352
15697TIP3    H268507   2.272   4.757  14.257 -0.1545 -0.4588  0.9210
15698TIP3   OH268508   5.038   2.212  13.357  0.0621 -0.3660  0.1013
15698TIP3    H168509   5.031   2.127  13.314  1.5951 -0.4762  0.0304
15698TIP3    H268510   5.053   2.274  13.286  0.0853 -0.1973  0.2538
15699TIP3   OH268511   0.250   5.074  16.641 -0.1805  0.3581 -0.1483
15699TIP3    H168512   0.222   4.996  16.689 -0.6183 -0.2013 -1.2516
15699TIP3    H268513   0.269   5.139  16.708 -0.8000 -0.3723  0.7639
15700TIP3   OH268514   1.347   6.467  15.200  0.2177 -0.1411 -0.0920
15700TIP3    H168515   1.377   6.418  15.123 -0.9523 -0.5629 -0.2982
15700TIP3    H268516   1.341   6.558  15.169  0.2441 -0.2286 -0.3559
15701TIP3   OH268517   5.093   1.403   1.264 -0.2860  0.3773 -0.3055
15701TIP3    H168518   5.009   1.405   1.218  0.2610  0.1105 -1.3662
15701TIP3    H268519   5.110   1.309   1.276 -0.8963  0.4484  1.3980
15702TIP3   OH268520   4.502   6.746  15.092  0.1334  0.1326  0.2257
15702TIP3    H168521   4.524   6.680  15.027  0.0470  0.2054  0.1220
15702TIP3    H268522   4.436   6.705  15.147 -3.1208  1.4845 -2.3160
15703TIP3   OH268523   5.125   5.871  10.881  0.2293  0.0845  0.0953
15703TIP3    H168524   5.130   5.953  10.930 -0.7414 -0.5634  1.3333
15703TIP3    H268525   5.060   5.819  10.928  0.3437 -1.1451 -1.0524
15704TIP3   OH268526   3.777   3.549   1.880 -0.8016  0.6515  0.4616
15704TIP3    H168527   3.695   3.593   1.900 -0.8148  0.4865  0.7727
15704TIP3    H268528   3.839   3.581   1.946 -0.7396  0.4174  0.5180
15705TIP3   OH268529   6.480   6.406  16.326 -0.4341 -0.2754 -0.3222
15705TIP3    H168530   6.389   6.391  16.354 -0.8693  2.0313 -0.3500
15705TIP3    H268531   6.480   6.495  16.292  1.8912 -0.1908 -0.2116
15706TIP3   OH268532   0.464   2.191  12.844  0.1101  0.2488  0.0856
15706TIP3    H168533   0.537   2.129  12.845  1.1390  1.3543  2.6337
15706TIP3    H268534   0.505   2.275  12.826 -0.9242  0.5523 -0.9256
15707TIP3   OH268535   0.970   0.342  12.460  0.3140  0.0734 -0.0676
15707TIP3    H168536   0.888   0.385  12.482  1.1534  1.6590  0.1015
15707TIP3    H268537   1.024   0.350  12.539  1.0911  0.2048 -0.6012
15708TIP3   OH268538   2.720   4.221   2.833  0.1003 -0.1404  0.7223
15708TIP3    H168539   2.722   4.158   2.760 -1.1129 -0.4860  0.9664
15708TIP3    H268540   2.750   4.170   2.908  0.5958  0.0039  0.6281
15709TIP3   OH268541   1.995   5.726   4.884  0.5902 -0.0331  0.0273
15709TIP3    H168542   1.992   5.805   4.938  1.5673 -0.5475  0.8705
15709TIP3    H268543   1.903   5.701   4.873  0.3491  0.2751  1.1790
15710TIP3   OH268544   6.294   6.242  12.071 -0.1056 -0.1280  0.1541
15710TIP3    H168545   6.300   6.240  12.166 -0.2478  0.9309  0.1948
15710TIP3    H268546   6.202   6.262  12.053  0.1161  0.6415 -0.1784
15711TIP3   OH268547   0.250   5.088  15.796  0.7624  0.1470  0.1479
15711TIP3    H168548   0.197   5.044  15.863 -0.4035  1.3219  0.0336
15711TIP3    H268549   0.265   5.176  15.831  0.1414  0.7791 -1.1146
15712TIP3   OH268550   0.179   0.198  12.099  0.5345 -0.0177  0.0732
15712TIP3    H168551   0.165   0.160  12.013  0.9894  1.1838 -0.5601
15712TIP3    H268552   0.273   0.189  12.114  0.4158 -0.4826  0.5860
15713TIP3   OH268553   2.849   2.242   4.928 -0.3032  0.5922  0.4234
15713TIP3    H168554   2.847   2.286   5.013  3.3971  0.7112  0.6050
15713TIP3    H268555   2.911   2.170   4.939  1.1113  1.2214 -2.3905
15714TIP3   OH268556   5.137   2.124  15.041 -0.2792 -0.1458  0.7905
15714TIP3    H168557   5.203   2.114  14.973  0.0271 -0.2586  1.1043
15714TIP3    H268558   5.065   2.068  15.013 -1.0679  1.4612 -0.5681
15715TIP3   OH268559   1.586   6.004  16.116 -0.1826 -0.2297  0.3727
15715TIP3    H168560   1.604   5.982  16.207 -0.3168 -1.2106  0.1703
15715TIP3    H268561   1.492   5.987  16.106  0.0697 -1.3007 -0.2634
15716TIP3   OH268562   0.120   6.037   1.087 -0.1032  0.3458 -0.0789
15716TIP3    H168563   0.181   5.972   1.053  0.1318 -1.1302  2.8465
15716TIP3    H268564   0.095   6.004   1.173 -0.8739  3.5873  1.0945
15717TIP3   OH268565   5.693   0.812   3.796 -0.0523  0.4507 -0.3084
15717TIP3    H168566   5.598   0.822   3.793 -0.0598  0.2972 -0.6572
15717TIP3    H268567   5.718   0.791   3.706  0.2668  0.1075 -0.1448
15718TIP3   OH268568   3.351   6.002  14.403 -0.2928 -0.6759  0.7620
15718TIP3    H168569   3.294   5.939  14.448 -1.1748 -0.5143 -0.1049
15718TIP3    H268570   3.369   6.069  14.469  0.5465 -1.7330  1.6588
15719TIP3   OH268571   1.796   6.608   5.562 -0.3715  0.0109 -0.1707
15719TIP3    H168572   1.780   6.696   5.596  0.9123 -0.0293  0.6068
15719TIP3    H268573   1.836   6.561   5.636 -1.1809 -1.2760 -0.5162
15720TIP3   OH268574   2.757   3.886   5.284  0.0446 -0.2546  0.3884
15720TIP3    H168575   2.690   3.878   5.216 -0.6110 -0.2859  1.0286
15720TIP3    H268576   2.837   3.907   5.236 -0.5917  0.6329 -0.3249
15721TIP3   OH268577   6.269   0.486   2.517  0.6465  0.0444  0.0356
15721TIP3    H168578   6.294   0.558   2.575 -0.1225 -0.5970  1.1830
15721TIP3    H268579   6.279   0.407   2.570 -1.0052 -0.4781 -0.3626
15722TIP3   OH268580   0.166   0.383  16.164  0.2522  0.7356 -0.6496
15722TIP3    H168581   0.200   0.469  16.142  0.2172  0.8550 -0.2550
15722TIP3    H268582   0.174   0.378  16.260 -0.0861  0.4490 -0.6330
15723TIP3   OH268583   2.335   0.119  16.922 -0.0785  0.2639 -0.2922
15723TIP3    H168584   2.242   0.102  16.936 -0.1064 -1.2574 -2.0774
15723TIP3    H268585   2.364   0.050  16.863  2.7511 -0.7272  2.0369
15724TIP3   OH268586   1.465   4.866  16.141  0.8448 -0.3302  0.1687
15724TIP3    H168587   1.518   4.840  16.217  0.1837 -0.7495  0.4966
15724TIP3    H268588   1.387   4.812  16.147  0.4904  0.1005 -0.4545
15725TIP3   OH268589   4.319   2.776   1.867  0.1713 -0.1302  0.0448
15725TIP3    H168590   4.347   2.688   1.842 -0.5175 -0.4713  0.4425
15725TIP3    H268591   4.373   2.835   1.814 -0.2157 -0.8055 -1.1410
15726TIP3   OH268592   2.783   5.815   2.811  0.7185  0.0536  0.1259
15726TIP3    H168593   2.753   5.726   2.828  1.5176 -0.2388  0.0635
15726TIP3    H268594   2.872   5.804   2.777  1.0298  0.9007  0.6361
15727TIP3   OH268595   0.767   6.611  15.814  0.5829  0.3928  0.2403
15727TIP3    H168596   0.789   6.564  15.734 -0.1979 -3.2442  1.9502
15727TIP3    H268597   0.677   6.642  15.800 -0.4520 -2.2581  0.4038
15728TIP3   OH268598   0.861   2.766  15.677  0.3134 -0.1739  0.9221
15728TIP3    H168599   0.772   2.781  15.645  0.4558 -1.1995 -0.0163
15728TIP3    H268600   0.893   2.853  15.700 -0.5925  0.3315  0.3564
15729TIP3   OH268601   4.736   3.821   5.874  0.0789 -0.7817  0.3824
15729TIP3    H168602   4.824   3.800   5.903  1.2250  0.8938 -1.6005
15729TIP3    H268603   4.722   3.766   5.797 -0.8995 -1.5208  1.0653
15730TIP3   OH268604   2.084   6.477   5.253  0.5243  0.5802  0.9700
15730TIP3    H168605   2.046   6.485   5.340 -2.0942  1.3408 -0.1568
15730TIP3    H268606   2.093   6.383   5.239 -1.0601  0.3678  1.2571
15731TIP3   OH268607   0.905   5.467  16.445 -0.5961  0.1394 -0.4904
15731TIP3    H168608   0.907   5.372  16.438 -1.6956 -0.0250  0.7899
15731TIP3    H268609   0.882   5.498  16.358  0.2313 -0.7338 -1.0275
15732TIP3   OH268610   4.767   6.782  14.519  0.3882  0.0149  0.2481
15732TIP3    H168611   4.797   6.857  14.468 -0.6238 -0.2915 -0.8655
15732TIP3    H268612   4.845   6.727  14.531  0.6456  0.0552 -1.0841
15733TIP3   OH268613   4.611   2.801  16.988 -0.2076 -0.3387  0.4712
15733TIP3    H168614   4.567   2.804  17.073 -1.7511 -0.1280 -0.3016
15733TIP3    H268615   4.621   2.892  16.962  0.8199 -0.3786  0.6807
15734TIP3   OH268616   6.306   2.054  11.679 -0.2977 -0.0827 -0.8303
15734TIP3    H168617   6.265   2.024  11.597  0.5925  0.5900 -1.5484
15734TIP3    H268618   6.232   2.074  11.736 -0.9385 -0.6867 -1.4219
15735TIP3   OH268619   6.281   2.025  10.886 -0.2065  0.5388  0.1171
15735TIP3    H168620   6.327   1.942  10.897  0.4937  0.7070 -1.2977
15735TIP3    H268621   6.325   2.085  10.947 -0.1912  0.0828  0.5630
15736TIP3   OH268622   5.320   0.944  15.509 -0.7804  0.0188 -0.3637
15736TIP3    H168623   5.337   1.036  15.492  1.0722 -0.3137 -0.5414
15736TIP3    H268624   5.281   0.941  15.596  3.2582  0.7213  1.6852
15737TIP3   OH268625   0.667   2.319  16.981 -0.0309  0.2376  0.0748
15737TIP3    H168626   0.745   2.267  16.960  0.4839  1.0592 -0.0784
15737TIP3    H268627   0.603   2.254  17.012  1.1259 -0.2941  1.4199
15738TIP3   OH268628   3.100   1.360  12.554 -0.0952 -0.3347  0.7591
15738TIP3    H168629   3.050   1.339  12.633 -0.8282  0.4886  0.5283
15738TIP3    H268630   3.055   1.436  12.516  0.6319 -0.3128 -0.0996
15739TIP3   OH268631   6.164   2.193  16.105  0.2431  0.6483 -0.8480
15739TIP3    H168632   6.220   2.265  16.133  0.5797  0.3900 -0.8574
15739TIP3    H268633   6.207   2.156  16.028 -0.6565  1.3321 -1.7008
15740TIP3   OH268634   3.095   2.633   0.263 -0.8754  0.3460  0.4058
15740TIP3    H168635   3.097   2.559   0.203  0.4328  2.0646 -1.8291
15740TIP3    H268636   3.165   2.614   0.326  0.5687  0.3607 -1.1164
15741TIP3   OH268637   3.799   6.202  16.980 -0.2532 -0.0434 -0.2939
15741TIP3    H168638   3.787   6.184  17.073 -1.1072  0.8643 -0.2014
15741TIP3    H268639   3.723   6.255  16.956 -0.6203 -1.1786 -1.7793
15742TIP3   OH268640   4.120   2.608   0.233  0.8032 -0.1400  0.1365
15742TIP3    H168641   4.165   2.552   0.297 -0.1420 -2.0311 -0.7539
15742TIP3    H268642   4.123   2.696   0.271  3.8442 -0.4355  0.8424
15743TIP3   OH268643   5.621   2.876  17.221  0.6130  0.5423 -0.4250
15743TIP3    H168644   5.658   2.789  17.236  1.2990  0.7581 -0.8182
15743TIP3    H268645   5.559   2.888  17.293 -0.1670 -0.6280 -0.8704
15744TIP3   OH268646   2.721   3.127  14.277 -0.2867  0.1656 -0.9501
15744TIP3    H168647   2.751   3.042  14.246 -2.0148 -0.6416 -0.5307
15744TIP3    H268648   2.716   3.181  14.199 -1.0490 -0.7241 -1.5384
15745TIP3   OH268649   0.957   6.006  12.477  0.3326 -0.0143  0.5621
15745TIP3    H168650   0.873   5.964  12.496  0.2002  0.3805  0.8779
15745TIP3    H268651   0.974   6.060  12.554  1.4370 -0.9523  1.0112
15746TIP3   OH268652   0.824   6.258  13.506 -0.0874 -0.1053 -0.1439
15746TIP3    H168653   0.908   6.222  13.477 -0.3613 -1.2744  0.4556
15746TIP3    H268654   0.810   6.219  13.592 -0.6173  1.1201  0.3472
15747TIP3   OH268655   5.396   4.750   4.478  0.2222  0.3334  0.5711
15747TIP3    H168656   5.431   4.671   4.520 -0.8077  0.0692  0.9766
15747TIP3    H268657   5.366   4.720   4.392 -0.1057  0.2811  0.6987
15748TIP3   OH268658   5.564   3.657   3.552 -0.4825 -0.0342 -1.0397
15748TIP3    H168659   5.576   3.566   3.580 -0.9740 -0.5899 -2.5361
15748TIP3    H268660   5.541   3.650   3.459  1.9219  1.7362 -1.8827
15749TIP3   OH268661   5.425   0.505   5.907 -0.1983  0.3685 -0.3422
15749TIP3    H168662   5.519   0.494   5.895 -0.2899 -0.5179 -0.2963
15749TIP3    H268663   5.397   0.426   5.953 -0.7462  1.2408  0.8725
15750TIP3   OH268664   4.134   2.891  10.943 -0.1154 -0.1221 -0.2267
15750TIP3    H168665   4.167   2.976  10.914 -1.7141  0.7682  0.4368
15750TIP3    H268666   4.062   2.871  10.883 -0.9539 -0.1022  0.7480
15751TIP3   OH268667   1.710   4.290  13.143  0.0512 -0.0118 -0.0789
15751TIP3    H168668   1.754   4.358  13.194  0.6079 -0.6180  0.2585
15751TIP3    H268669   1.734   4.308  13.052  0.6633 -0.0978  0.0629
15752TIP3   OH268670   0.183   6.466  15.994 -0.9177  0.1670 -0.0203
15752TIP3    H168671   0.276   6.485  15.988 -0.9790 -0.0061 -2.8437
15752TIP3    H268672   0.173   6.419  16.077  1.3235  0.9540  0.7613
15753TIP3   OH268673   2.145   4.798  16.384  0.7677 -0.2917  0.0724
15753TIP3    H168674   2.136   4.849  16.304 -0.5728 -0.8127 -0.1371
15753TIP3    H268675   2.070   4.739  16.384  1.1730 -0.8574  1.3226
15754TIP3   OH268676   1.332   1.192  16.478  0.2247 -0.5024 -0.1529
15754TIP3    H168677   1.320   1.105  16.438  1.5284 -0.1389 -1.4278
15754TIP3    H268678   1.406   1.182  16.538  1.4831  0.0506 -1.5343
15755TIP3   OH268679   0.405   6.358  12.844 -0.1942  0.0943 -0.1874
15755TIP3    H168680   0.428   6.316  12.926 -1.2042  0.3202  0.2231
15755TIP3    H268681   0.474   6.332  12.783  0.6867  0.1105  0.7840
15756TIP3   OH268682   2.980   3.693  12.884 -0.2204  1.0132 -0.4038
15756TIP3    H168683   2.953   3.620  12.828 -1.0899  0.3854  0.7784
15756TIP3    H268684   3.012   3.760  12.824 -2.3839  0.9175 -1.7667
15757TIP3   OH268685   2.964   1.705  15.665 -0.6078  0.1877 -1.0436
15757TIP3    H168686   2.871   1.728  15.665 -1.0116 -1.2689  0.5726
15757TIP3    H268687   3.006   1.778  15.711 -1.3386 -0.3631  0.5676
15758TIP3   OH268688   4.566   1.127   2.389  0.2461 -0.2145 -0.8099
15758TIP3    H168689   4.595   1.048   2.435  1.9379  2.0351  2.3450
15758TIP3    H268690   4.627   1.136   2.316  1.3565 -0.7337  0.0173
15759TIP3   OH268691   2.463   2.218  16.876 -0.0521  0.2817  0.1026
15759TIP3    H168692   2.504   2.221  16.790  1.2408 -1.8536  0.5861
15759TIP3    H268693   2.536   2.229  16.937 -0.8626  1.0668  0.9673
15760TIP3   OH268694   3.275   6.325   3.937 -0.2007  0.3248 -0.4117
15760TIP3    H168695   3.335   6.288   3.872  1.1328  0.7578  0.5142
15760TIP3    H268696   3.239   6.402   3.895  1.3936  1.1540 -0.3413
15761TIP3   OH268697   0.293   5.272   4.921  0.7608 -0.0247 -0.3278
15761TIP3    H168698   0.352   5.212   4.875  1.4006  0.0435  0.3878
15761TIP3    H268699   0.210   5.264   4.874  0.7770 -1.6124 -0.1560
15762TIP3   OH268700   3.906   2.478  16.595  0.4642  0.5628  0.2973
15762TIP3    H168701   3.854   2.514  16.666  1.9634 -1.9005  2.8866
15762TIP3    H268702   3.962   2.550  16.567 -0.5491  1.7596  1.2518
15763TIP3   OH268703   0.447   1.411  15.796  0.3184  0.2099 -0.3341
15763TIP3    H168704   0.368   1.460  15.773  1.9822  2.0111 -2.7300
15763TIP3    H268705   0.488   1.461  15.866 -1.3458 -1.5946  2.0677
15764TIP3   OH268706   5.596   6.036   2.046  0.8327 -0.4766 -0.1275
15764TIP3    H168707   5.600   5.985   2.126 -1.6220 -1.4622 -0.5680
15764TIP3    H268708   5.644   5.983   1.982  1.5679 -0.3578  0.3037
15765TIP3   OH268709   5.012   2.090  12.873 -0.4877  0.2131  0.4726
15765TIP3    H168710   5.012   2.183  12.848  0.8661 -0.0354 -0.6022
15765TIP3    H268711   4.995   2.044  12.791 -3.7380 -0.4684  1.4276
15766TIP3   OH268712   1.833   6.611  15.547 -0.0462 -0.0637 -0.1226
15766TIP3    H168713   1.861   6.649  15.464 -0.0049 -2.6234 -1.3668
15766TIP3    H268714   1.903   6.633  15.608  0.7533  0.4280 -1.1776
15767TIP3   OH268715   2.537   6.111  16.021  0.4640  0.0444 -0.1461
15767TIP3    H168716   2.469   6.162  15.977  2.2933  2.5725 -0.2441
15767TIP3    H268717   2.585   6.069  15.950 -1.4380 -2.5477 -0.0391
15768TIP3   OH268718   0.358   2.985  13.960 -0.2075  0.1125  0.5726
15768TIP3    H168719   0.311   2.981  14.043 -1.3139  2.6970  0.1935
15768TIP3    H268720   0.383   3.077  13.952  0.7714 -0.2776 -1.4930
15769TIP3   OH268721   4.634   5.822   3.007  0.7438  0.6528  0.0509
15769TIP3    H168722   4.574   5.748   3.010  1.7306 -0.2384 -1.1296
15769TIP3    H268723   4.589   5.888   2.956  0.6281  0.1048 -0.5711
15770TIP3   OH268724   2.879   0.440   0.372  0.2267 -0.2066  0.0399
15770TIP3    H168725   2.824   0.502   0.419  0.9414  0.8189 -0.4159
15770TIP3    H268726   2.875   0.469   0.280  1.0019 -0.4966 -0.0984
15771TIP3   OH268727   5.414   2.342   2.606 -0.1796 -0.7359 -0.1833
15771TIP3    H168728   5.349   2.365   2.672 -0.2545  1.3109 -0.8745
15771TIP3    H268729   5.400   2.406   2.536  1.3116 -1.4693 -1.2096
15772TIP3   OH268730   4.878   3.596  16.434 -0.1326 -0.5664  0.2281
15772TIP3    H168731   4.860   3.595  16.528  1.8188 -0.1246  0.6492
15772TIP3    H268732   4.910   3.684  16.416  0.1470 -0.8442 -0.7094
15773TIP3   OH268733   5.365   2.293  13.932  0.5565 -0.1676  0.1143
15773TIP3    H168734   5.285   2.346  13.931  0.2759 -0.5922 -0.1615
15773TIP3    H268735   5.435   2.357  13.943  0.3126  0.3919 -1.3004
15774TIP3   OH268736   4.803   5.899  16.574  0.2312  0.1356  0.3260
15774TIP3    H168737   4.848   5.834  16.521  0.8703 -0.9450  2.0830
15774TIP3    H268738   4.736   5.848  16.621 -0.8759  1.1998 -0.0579
15775TIP3   OH268739   1.892   0.589   3.310  0.3435  0.4502 -0.1439
15775TIP3    H168740   1.956   0.657   3.291  2.0096 -0.9312  0.3309
15775TIP3    H268741   1.940   0.523   3.360 -1.6802 -0.2186  1.0624
15776TIP3   OH268742   5.402   3.781  15.952  0.3327  0.0840  0.1647
15776TIP3    H168743   5.446   3.705  15.990  0.1815 -0.2654 -0.3567
15776TIP3    H268744   5.325   3.745  15.908 -0.4596  0.6871  1.0196
15777TIP3   OH268745   1.539   1.755  11.021  0.2860  0.0841  0.0879
15777TIP3    H168746   1.493   1.791  10.945 -0.5163 -0.8488  0.1124
15777TIP3    H268747   1.471   1.738  11.085  0.8208 -0.1791  0.5987
15778TIP3   OH268748   5.251   4.723  16.858  0.4500  0.4173  0.3114
15778TIP3    H168749   5.309   4.786  16.815 -0.0847  0.0316 -1.0285
15778TIP3    H268750   5.280   4.722  16.949  2.0712  0.7766 -0.1680
15779TIP3   OH268751   6.122   0.622   1.100 -0.0334  0.5739 -0.2245
15779TIP3    H168752   6.179   0.567   1.046  0.1614  0.9213 -0.3773
15779TIP3    H268753   6.055   0.562   1.133 -1.3017  0.6841 -2.3983
15780TIP3   OH268754   2.379   1.106  15.990 -0.1830 -0.1580  0.0486
15780TIP3    H168755   2.344   1.144  16.071 -1.6885 -1.0270 -0.1614
15780TIP3    H268756   2.409   1.181  15.940 -2.0006  0.7023  0.1545
15781TIP3   OH268757   2.863   1.238   2.152 -0.3175  0.1303 -0.2284
15781TIP3    H168758   2.913   1.313   2.121 -0.1930 -0.5224 -1.6494
15781TIP3    H268759   2.790   1.230   2.091 -2.4223  1.2565  1.9743
15782TIP3   OH268760   5.622   2.089   0.117 -0.1167 -0.0633  0.2257
15782TIP3    H168761   5.564   2.156   0.082  0.3756  0.0338 -0.4239
15782TIP3    H268762   5.596   2.008   0.073 -0.0531 -0.1066  0.2659
15783TIP3   OH268763   0.253   3.067  14.880 -0.3110  0.3806 -0.5423
15783TIP3    H168764   0.245   3.012  14.803 -1.8873 -0.1606 -0.0275
15783TIP3    H268765   0.180   3.129  14.873  0.5687  1.4710 -0.3674
15784TIP3   OH268766   1.109   2.324   2.930  0.0615  0.3928 -0.4825
15784TIP3    H168767   1.200   2.308   2.905  0.9842  1.0426  2.1225
15784TIP3    H268768   1.109   2.413   2.964 -1.8993  0.9138 -1.7648
15785TIP3   OH268769   3.547   4.500  13.886 -0.2158  0.8640  0.1228
15785TIP3    H168770   3.632   4.535  13.911 -0.1107  0.6371  0.0897
15785TIP3    H268771   3.514   4.560  13.819 -0.9619  2.0680  1.5164
15786TIP3   OH268772   1.572   6.129   4.287  0.5297 -0.2644  0.3550
15786TIP3    H168773   1.515   6.054   4.270  1.4867 -0.9218 -0.0408
15786TIP3    H268774   1.563   6.145   4.381  0.6372 -1.1450  0.5185
15787TIP3   OH268775   3.304   3.766  11.200  0.2452  0.3432  0.1662
15787TIP3    H168776   3.286   3.682  11.241  0.3521  0.0431 -0.4013
15787TIP3    H268777   3.376   3.802  11.251  0.0376  0.2063  0.5637
15788TIP3   OH268778   5.545   6.349  13.304  0.0232  0.4765  0.2941
15788TIP3    H168779   5.487   6.289  13.351  0.5651  0.5900  1.1401
15788TIP3    H268780   5.613   6.371  13.368  0.0814  1.6392 -0.1405
15789TIP3   OH268781   2.468   4.913  12.468 -0.3247  0.1980  0.5077
15789TIP3    H168782   2.378   4.937  12.446 -0.1609 -0.7256 -1.3316
15789TIP3    H268783   2.522   4.972  12.416  0.0787 -3.0840 -3.2688
15790TIP3   OH268784   0.727   3.166   5.112 -0.0359  0.6968  0.1617
15790TIP3    H168785   0.676   3.095   5.151 -0.6414  0.3197 -1.2414
15790TIP3    H268786   0.713   3.156   5.018 -0.9065  3.2398 -0.0475
15791TIP3   OH268787   0.638   1.718   4.532  1.0326  0.1016  0.2373
15791TIP3    H168788   0.664   1.811   4.529  0.7989  0.1687  0.2678
15791TIP3    H268789   0.720   1.671   4.543  1.1099  0.3355  0.7203
15792TIP3   OH268790   2.288   3.373   4.037 -0.0640  0.2047 -0.2230
15792TIP3    H168791   2.319   3.306   3.977  1.0512  0.1884  0.3385
15792TIP3    H268792   2.295   3.332   4.124 -0.5825  0.6077  0.0144
15793TIP3   OH268793   1.960   6.541  10.567  0.2810 -0.6215 -0.6000
15793TIP3    H168794   1.952   6.462  10.621  1.2144 -1.0003 -0.9970
15793TIP3    H268795   2.048   6.574  10.585 -0.4087  0.8547  0.2452
15794TIP3   OH268796   2.538   2.934  10.851 -0.1799 -0.0784  0.5301
15794TIP3    H168797   2.564   2.985  10.775  0.7413  0.0990  0.9411
15794TIP3    H268798   2.609   2.871  10.862 -0.0749  0.1923  1.4984
15795TIP3   OH268799   2.886   3.359  11.906  0.2430 -0.1639 -0.3087
15795TIP3    H168800   2.813   3.420  11.919  0.2569 -0.2403  0.1558
15795TIP3    H268801   2.844   3.277  11.880  0.2731  0.2620 -1.7893
15796TIP3   OH268802   2.818   3.583   3.540 -0.2768 -0.2470  0.6985
15796TIP3    H168803   2.781   3.668   3.514  0.0322 -0.1824  0.4637
15796TIP3    H268804   2.742   3.531   3.564 -0.3749  0.5479  2.2203
15797TIP3   OH268805   0.452   6.665   0.492  0.3491  0.1366  0.3306
15797TIP3    H168806   0.418   6.737   0.545 -0.2100  0.6837 -0.7529
15797TIP3    H268807   0.387   6.653   0.423 -1.3017 -3.5649  2.2505
15798TIP3   OH268808   6.606   6.318  13.410  0.0231  0.0925  0.0417
15798TIP3    H168809   6.554   6.308  13.489 -1.1281 -1.6055 -0.8873
15798TIP3    H268810   6.674   6.381  13.434 -0.4647 -0.1697  2.2768
15799TIP3   OH268811   2.550   6.260  11.945 -0.5872  0.1284 -0.4193
15799TIP3    H168812   2.518   6.281  11.858  1.2046 -0.3452 -1.2498
15799TIP3    H268813   2.642   6.286  11.944 -0.6043  0.4238  1.4562
15800TIP3   OH268814   5.752   3.425   0.181  0.4128  0.0422 -0.1945
15800TIP3    H168815   5.822   3.363   0.198  0.5446  0.3468  0.3885
15800TIP3    H268816   5.674   3.370   0.168  0.6643 -0.2711 -0.3979
15801TIP3   OH268817   1.835   6.359  10.886 -0.0478  0.6771 -0.0566
15801TIP3    H168818   1.792   6.277  10.911 -1.1583  1.5567  1.0691
15801TIP3    H268819   1.926   6.347  10.912  0.5316 -1.2750 -2.5860
15802TIP3   OH268820   5.550   2.028   4.471  1.0538 -0.6736  0.0735
15802TIP3    H168821   5.564   2.088   4.545 -1.4073  0.1274 -0.0375
15802TIP3    H268822   5.464   1.990   4.487  0.9285 -1.2847 -1.8505
15803TIP3   OH268823   1.454   5.068  11.475  0.2294  0.5330  0.2571
15803TIP3    H168824   1.397   5.011  11.424  0.7009 -0.5928  0.9421
15803TIP3    H268825   1.540   5.059  11.435  0.1433  1.4576 -0.1626
15804TIP3   OH268826   4.011   0.089  12.408  0.2793  0.8619 -0.3632
15804TIP3    H168827   3.916   0.075  12.416  0.6363 -2.7827 -0.9089
15804TIP3    H268828   4.029   0.078  12.315  1.1939  2.1020 -0.3474
15805TIP3   OH268829   6.480   3.383  12.277 -0.0349 -0.4980  0.5259
15805TIP3    H168830   6.518   3.375  12.190 -0.2732 -0.6754  0.4349
15805TIP3    H268831   6.539   3.441  12.325  0.3070 -0.7087  0.3640
15806TIP3   OH268832   3.955   6.327   2.853  0.5711 -0.4938  0.1704
15806TIP3    H168833   3.891   6.310   2.784  1.4003 -0.8998 -0.5175
15806TIP3    H268834   3.921   6.279   2.929  1.0739 -2.4536 -0.7643
15807TIP3   OH268835   5.626   2.021   0.393  0.1386  0.0243 -0.0217
15807TIP3    H168836   5.541   1.991   0.426  0.4681  0.1869  1.0233
15807TIP3    H268837   5.611   2.043   0.301 -1.5361  2.3305  0.7279
15808TIP3   OH268838   2.471   5.220   4.235  0.2328  0.1885 -0.0728
15808TIP3    H168839   2.445   5.292   4.292  0.7450 -0.6608  1.2893
15808TIP3    H268840   2.565   5.230   4.225  0.9846 -2.1234  2.9883
15809TIP3   OH268841   2.505   3.702   1.221 -0.0377 -0.5479 -0.2278
15809TIP3    H168842   2.446   3.750   1.280  0.6637 -1.2398  1.0908
15809TIP3    H268843   2.485   3.736   1.134 -0.6846  0.9650  0.4734
15810TIP3   OH268844   0.325   2.188   3.152  0.3190 -0.2072  0.1393
15810TIP3    H168845   0.324   2.101   3.192  0.5083 -0.3128 -0.0807
15810TIP3    H268846   0.246   2.231   3.185  0.5091 -0.2634  0.6828
15811TIP3   OH268847   1.581   4.264   4.912 -0.3250 -0.5855  0.0224
15811TIP3    H168848   1.630   4.183   4.894  0.7923  0.3372 -1.2964
15811TIP3    H268849   1.514   4.237   4.975  1.1129 -2.1667  0.9855
15812TIP3   OH268850   1.722   0.125   3.082 -0.1197 -0.0867 -0.3570
15812TIP3    H168851   1.747   0.209   3.121  3.1672 -0.8537 -0.5743
15812TIP3    H268852   1.640   0.102   3.127 -0.4062  2.5663  0.6598
15813TIP3   OH268853   1.431   0.740   1.377 -0.2376 -0.1201  0.2994
15813TIP3    H168854   1.516   0.783   1.386  0.0105 -0.3354 -0.8755
15813TIP3    H268855   1.371   0.796   1.427  0.0118  1.8182 -1.4570
15814TIP3   OH268856   2.219   5.925   3.222 -0.1999 -0.2655  0.0232
15814TIP3    H168857   2.126   5.934   3.201 -0.5468 -1.0377  1.1330
15814TIP3    H268858   2.235   5.990   3.289  0.1611  0.1028 -0.4116
15815TIP3   OH268859   1.115   6.364  12.465  0.3023 -0.3741 -0.1810
15815TIP3    H168860   1.051   6.435  12.459  0.2159 -0.5454 -1.6975
15815TIP3    H268861   1.086   6.311  12.539 -2.1722 -1.2578 -1.6867
15816TIP3   OH268862   3.170   1.940   1.691 -0.0191 -0.3607 -0.2703
15816TIP3    H168863   3.164   1.854   1.733 -0.1474 -1.9704 -3.2311
15816TIP3    H268864   3.086   1.950   1.645  1.1158 -0.1996 -2.4824
15817TIP3   OH268865   1.362   2.518   0.370 -0.3505 -0.0564  0.3194
15817TIP3    H168866   1.337   2.446   0.429 -1.6790 -0.3781 -0.5826
15817TIP3    H268867   1.411   2.475   0.300  0.2317  0.1547  0.5972
15818TIP3   OH268868   3.875   1.883   1.651 -0.3115 -1.0167  0.2527
15818TIP3    H168869   3.856   1.959   1.597  0.0080 -0.6464  0.6623
15818TIP3    H268870   3.794   1.869   1.701 -0.2875 -0.7991  0.3541
15819TIP3   OH268871   6.265   2.023  14.837 -0.0662  0.6233  0.4381
15819TIP3    H168872   6.188   2.051  14.886  0.3736 -0.8792  2.0757
15819TIP3    H268873   6.295   1.944  14.882  1.5442  0.3009 -1.0881
15820TIP3   OH268874   1.722   4.470   1.826 -0.0890 -0.3991  0.0774
15820TIP3    H168875   1.630   4.451   1.808 -0.2824  1.2924 -0.9365
15820TIP3    H268876   1.728   4.469   1.922 -1.3178  0.1312  0.1771
15821TIP3   OH268877   2.191   6.002   2.854  0.1916  0.1261  0.3883
15821TIP3    H168878   2.281   5.980   2.878  0.2505 -0.6190 -0.4790
15821TIP3    H268879   2.143   5.920   2.861 -0.1943  0.2960 -0.1568
15822TIP3   OH268880   5.691   4.411  12.127  0.0581 -0.4271 -0.3084
15822TIP3    H168881   5.740   4.492  12.116 -0.4142  0.0077  0.5987
15822TIP3    H268882   5.757   4.345  12.146  0.3697 -0.0356 -0.0050
15823TIP3   OH268883   6.333   6.322   2.861 -0.2954  0.1871  0.2596
15823TIP3    H168884   6.300   6.313   2.950  1.2747  0.8612  0.9490
15823TIP3    H268885   6.401   6.255   2.853 -1.5133 -0.9731 -1.0257
15824TIP3   OH268886   4.883   0.781   2.661  0.2502 -0.0539 -0.1287
15824TIP3    H168887   4.929   0.759   2.580 -1.8829 -1.5709 -1.0268
15824TIP3    H268888   4.902   0.709   2.720  0.4595  0.2137  0.1341
15825TIP3   OH268889   5.435   3.558  16.870  0.1531  0.1538  0.0375
15825TIP3    H168890   5.434   3.594  16.959 -1.7151 -1.4215  0.7271
15825TIP3    H268891   5.413   3.632  16.814  0.5132  0.9845  0.9603
15826TIP3   OH268892   4.840   1.578   3.618  0.1451 -0.2100 -0.1495
15826TIP3    H168893   4.900   1.552   3.548 -1.2487 -1.7424 -0.8461
15826TIP3    H268894   4.794   1.655   3.583  1.8290  1.1572  0.5073
15827TIP3   OH268895   0.093   6.595  16.443 -0.3146 -0.2467  0.0965
15827TIP3    H168896   0.157   6.554  16.503 -0.4738 -0.9925 -0.2309
15827TIP3    H268897   0.041   6.652  16.500  1.3253  1.2486  0.1950
15828TIP3   OH268898   6.279   5.709   0.395  0.1067  0.2616 -0.4612
15828TIP3    H168899   6.317   5.628   0.361  0.9820  0.2311  0.5526
15828TIP3    H268900   6.198   5.681   0.438  1.1456 -0.3226  1.2004
15829TIP3   OH268901   4.830   2.423  12.604  0.1769 -0.1212  0.1940
15829TIP3    H168902   4.904   2.423  12.544 -0.1129  1.7159 -0.2200
15829TIP3    H268903   4.761   2.377  12.557  0.1876  0.6539 -0.6142
15830TIP3   OH268904   2.313   6.740  14.355  0.2289  0.0912  0.7671
15830TIP3    H168905   2.250   6.769  14.421  3.0422  3.9518  2.1069
15830TIP3    H268906   2.399   6.753  14.395  2.0877  1.1945 -3.0646
15831TIP3   OH268907   6.783   2.355  14.211  0.3653  0.1265 -0.5362
15831TIP3    H168908   6.862   2.364  14.158 -0.7631  2.2660 -1.9651
15831TIP3    H268909   6.781   2.434  14.265 -1.5256  0.8595 -1.6116
15832TIP3   OH268910   1.502   1.503  13.286  0.1046  0.3257 -0.5698
15832TIP3    H168911   1.439   1.456  13.231 -1.3921  1.5253  0.0497
15832TIP3    H268912   1.462   1.503  13.373  0.6176  1.7444 -0.3185
15833TIP3   OH268913   2.460   5.810   5.490 -0.3084  0.3678 -0.0270
15833TIP3    H168914   2.505   5.731   5.461 -3.1006 -1.3631 -0.0411
15833TIP3    H268915   2.449   5.863   5.410  0.7720  0.3869 -0.1810
15834TIP3   OH268916   3.479   0.795  13.347 -0.5844  0.2984 -0.0329
15834TIP3    H168917   3.548   0.734  13.324  0.4619  0.9560  1.2484
15834TIP3    H268918   3.405   0.769  13.292 -0.8381 -3.3360  1.7071
15835TIP3   OH268919   4.975   4.331   3.556  0.1310 -0.1207  0.0133
15835TIP3    H168920   5.015   4.394   3.496  0.6643  0.4844  0.9816
15835TIP3    H268921   4.897   4.376   3.589 -1.6582 -1.4215 -2.1315
15836TIP3   OH268922   5.688   3.502  15.788  0.5743  0.0060  1.0776
15836TIP3    H168923   5.680   3.597  15.797 -0.6660 -0.1484  1.7736
15836TIP3    H268924   5.604   3.473  15.755  0.9856 -0.8525  0.7510
15837TIP3   OH268925   0.266   0.473  14.578  0.4202  0.3112  0.6434
15837TIP3    H168926   0.188   0.528  14.571  0.3968  0.8814  3.7999
15837TIP3    H268927   0.234   0.384  14.569 -0.6485  0.5414  1.9005
15838TIP3   OH268928   6.607   2.772   4.980 -0.0880 -0.0035 -0.4884
15838TIP3    H168929   6.647   2.704   4.925  2.5896  0.1834  1.0435
15838TIP3    H268930   6.531   2.729   5.020  0.1519 -1.3280 -1.3839
15839TIP3   OH268931   2.370   4.425   6.039 -0.2389  0.0606 -0.3478
15839TIP3    H168932   2.453   4.416   6.086 -0.0729  0.8773 -0.4716
15839TIP3    H268933   2.387   4.391   5.952 -0.9375 -2.8335  0.5432
15840TIP3   OH268934   2.057   5.323  15.330 -0.7016 -0.1060 -0.4976
15840TIP3    H168935   2.087   5.292  15.415  1.1064  0.1154 -1.0137
15840TIP3    H268936   1.969   5.357  15.347 -0.2048  0.3758  1.3756
15841TIP3   OH268937   2.986   0.272  12.709 -0.9837  0.2278 -0.0249
15841TIP3    H168938   2.966   0.263  12.616  0.1252 -1.1317 -0.1563
15841TIP3    H268939   2.973   0.184  12.745  1.6241 -0.0482  0.4605
15842TIP3   OH268940   1.564   0.068  17.006 -0.8005 -0.1007 -0.0536
15842TIP3    H168941   1.541   0.110  17.088 -1.3104 -0.6148  0.0787
15842TIP3    H268942   1.545   0.134  16.939  1.3107  0.9850  0.3224
15843TIP3   OH268943   2.387   0.357   2.351  0.7029 -0.4672  0.0346
15843TIP3    H168944   2.335   0.354   2.271 -0.5646  0.7981  0.7681
15843TIP3    H268945   2.330   0.321   2.419 -0.1267  2.7038  1.2455
15844TIP3   OH268946   4.892   0.441   4.393 -0.2832 -0.1173 -0.1099
15844TIP3    H168947   4.824   0.426   4.459 -0.2071  1.0967  0.2741
15844TIP3    H268948   4.870   0.382   4.321 -0.3164 -1.5443  1.0276
15845TIP3   OH268949   5.313   3.888   6.157 -0.2484 -0.2582 -0.0512
15845TIP3    H168950   5.375   3.959   6.169  0.5927 -1.2775  2.0287
15845TIP3    H268951   5.240   3.909   6.216 -0.4764 -0.5965 -0.2086
15846TIP3   OH268952   6.206   3.299  12.128  0.3781 -0.5096  0.1272
15846TIP3    H168953   6.210   3.246  12.049 -0.9828 -0.0614 -0.2578
15846TIP3    H268954   6.288   3.349  12.127  0.9672 -1.4518 -0.3007
15847TIP3   OH268955   6.336   5.117   1.616  0.2544  0.3533 -0.3739
15847TIP3    H168956   6.381   5.201   1.608  1.3977 -0.3335 -1.6388
15847TIP3    H268957   6.259   5.125   1.560  1.5814 -0.1547 -2.4071
15848TIP3   OH268958   2.754   4.309  13.946  0.1396  0.3224 -0.1666
15848TIP3    H168959   2.703   4.330  13.867  0.3495  1.3690 -0.0375
15848TIP3    H268960   2.710   4.357  14.016  0.3205 -0.1119  0.2440
15849TIP3   OH268961   1.861   1.969  11.325  0.0440  0.1251 -0.0337
15849TIP3    H168962   1.917   1.899  11.293 -0.5937 -1.1266  1.4353
15849TIP3    H268963   1.772   1.941  11.300 -0.1719  0.6551  0.1380
15850TIP3   OH268964   1.779   6.510  15.124  0.6961  0.3920 -0.0907
15850TIP3    H168965   1.701   6.552  15.162  0.7989  0.7411 -0.2630
15850TIP3    H268966   1.836   6.494  15.198  1.0890  1.4800 -0.1441
15851TIP3   OH268967   5.221   5.411   3.647  0.3762  0.3598  0.0903
15851TIP3    H168968   5.280   5.469   3.598  0.0961  0.0738 -0.5947
15851TIP3    H268969   5.189   5.465   3.719 -0.2787  1.2347 -0.8326
15852TIP3   OH268970   1.497   1.686   1.503  0.5040  0.3498  0.2818
15852TIP3    H168971   1.474   1.688   1.596  0.7665  0.1521  0.3507
15852TIP3    H268972   1.467   1.601   1.472 -0.8075  0.9392 -0.1345
15853TIP3   OH268973   1.066   6.128   3.371  0.2563 -0.1353 -0.0052
15853TIP3    H168974   1.062   6.149   3.277  0.8707  1.0870  0.2295
15853TIP3    H268975   1.063   6.212   3.415 -0.2681 -0.7097  1.1060
15854TIP3   OH268976   5.349   5.418  14.778 -0.0959 -0.5795  1.0664
15854TIP3    H168977   5.254   5.433  14.776 -0.1405 -0.9044 -0.7073
15854TIP3    H268978   5.366   5.362  14.702  1.9247  2.0401 -0.5905
15855TIP3   OH268979   3.654   5.097   2.833 -0.1195 -0.1544  0.1260
15855TIP3    H168980   3.677   5.051   2.752  0.2369 -1.4163  0.9135
15855TIP3    H268981   3.623   5.183   2.804  0.2081 -0.5013 -1.3283
15856TIP3   OH268982   4.610   6.702   4.205 -0.3992  0.1198  0.0688
15856TIP3    H168983   4.561   6.624   4.231 -0.4354  0.3079  0.5738
15856TIP3    H268984   4.543   6.764   4.176 -0.5599  0.6776  1.5276
15857TIP3   OH268985   6.166   1.365   4.139 -0.8737  0.5041 -0.2213
15857TIP3    H168986   6.228   1.433   4.113  0.1686 -0.4387 -0.2652
15857TIP3    H268987   6.189   1.346   4.230  0.2556 -1.2557 -0.8329
15858TIP3   OH268988   5.242   2.620   6.172 -0.1501  0.7246 -0.2819
15858TIP3    H168989   5.263   2.672   6.250 -0.7235 -0.1165  0.4540
15858TIP3    H268990   5.299   2.543   6.178 -1.7162 -0.4325  0.5064
15859TIP3   OH268991   3.865   4.103   2.568  0.1505 -0.1379  0.1136
15859TIP3    H168992   3.812   4.045   2.515  0.8794 -0.2322 -0.5315
15859TIP3    H268993   3.945   4.116   2.517  0.4621  0.5394  0.7516
15860TIP3   OH268994   0.863   6.271  15.780  0.1008 -0.1457 -0.2860
15860TIP3    H168995   0.770   6.247  15.791 -0.1934  1.0877  0.0867
15860TIP3    H268996   0.861   6.348  15.723  0.8134  0.5252  0.5691
15861TIP3   OH268997   1.564   6.565   0.739 -0.0078 -0.7826 -0.2973
15861TIP3    H168998   1.570   6.476   0.775  1.4319 -1.0300 -1.0721
15861TIP3    H268999   1.498   6.608   0.793  0.8807 -1.6377  1.5622
15862TIP3   OH269000   3.094   4.248   3.378  0.2390 -0.3664  0.2852
15862TIP3    H169001   3.039   4.308   3.328  1.3996 -0.4144 -1.1223
15862TIP3    H269002   3.128   4.300   3.451  0.4553  0.4233 -0.3644
15863TIP3   OH269003   4.838   0.647   0.277 -0.1691 -0.2061  0.2891
15863TIP3    H169004   4.824   0.607   0.363  1.5809  2.2252  1.8273
15863TIP3    H269005   4.919   0.609   0.245  1.9475  2.3990  2.1254
15864TIP3   OH269006   3.313   2.467   5.407  0.2610 -0.4317 -0.2724
15864TIP3    H169007   3.308   2.371   5.407 -0.3150 -0.4473  1.7437
15864TIP3    H269008   3.302   2.492   5.315 -3.7580 -2.1312 -0.4532
15865TIP3   OH269009   1.370   0.553   6.508 -0.4185  0.0217 -0.0973
15865TIP3    H169010   1.451   0.516   6.475 -1.3882 -0.5537 -2.0008
15865TIP3    H269011   1.397   0.632   6.556  1.1871  0.5127 -1.7032
15866TIP3   OH269012   6.146   4.167  13.616  0.3414  0.2138  0.1296
15866TIP3    H169013   6.169   4.259  13.628  0.5671  0.2902 -0.8537
15866TIP3    H269014   6.218   4.119  13.656  1.8917  0.4571 -2.2307
15867TIP3   OH269015   2.498   2.818   0.849 -0.5050  0.1533  0.4527
15867TIP3    H169016   2.516   2.910   0.863 -2.7606  0.8925 -0.8983
15867TIP3    H269017   2.437   2.794   0.920  0.0983 -0.3267  0.8210
15868TIP3   OH269018   5.612   5.538   0.572 -0.2407 -0.0277  0.3074
15868TIP3    H169019   5.686   5.598   0.559  0.1668 -0.8145 -1.2315
15868TIP3    H269020   5.540   5.578   0.523  0.0736 -0.8073 -0.8546
15869TIP3   OH269021   2.989   6.267   0.607  0.8601 -0.1516  0.3274
15869TIP3    H169022   3.038   6.235   0.531  1.0957  1.2393 -0.1194
15869TIP3    H269023   3.044   6.337   0.644  0.7995 -0.8579  1.8535
15870TIP3   OH269024   3.702   3.440  14.041  0.0119 -0.1279 -0.0410
15870TIP3    H169025   3.681   3.361  13.989  2.3140 -1.2201  0.5849
15870TIP3    H269026   3.765   3.488  13.987  1.8192 -0.8755  1.3056
15871TIP3   OH269027   2.966   6.730  16.806 -0.6939 -0.0593  0.4780
15871TIP3    H169028   2.885   6.778  16.786 -0.0823  1.2485  1.0000
15871TIP3    H269029   2.998   6.769  16.887 -0.3985 -1.7086  1.1953
15872TIP3   OH269030   1.259   1.116   2.968 -0.6254  0.1071 -0.1737
15872TIP3    H169031   1.255   1.212   2.964  1.5329  0.2548  0.0941
15872TIP3    H269032   1.325   1.092   2.903 -0.8287 -1.1745  0.0579
15873TIP3   OH269033   6.123   2.754  13.930 -0.0140 -0.2322 -0.1124
15873TIP3    H169034   6.117   2.706  14.012  1.1643  0.0427  0.1592
15873TIP3    H269035   6.072   2.703  13.868  1.3818 -1.9955  0.1034
15874TIP3   OH269036   3.873   5.660   2.403  1.0330  0.1016  0.1060
15874TIP3    H169037   3.896   5.750   2.426  1.6795  0.2810 -1.1702
15874TIP3    H269038   3.778   5.658   2.411  1.1638 -0.0186  3.2080
15875TIP3   OH269039   2.992   4.777  11.181  0.1409 -0.2175  0.2859
15875TIP3    H169040   2.940   4.697  11.179  0.8218 -0.7601  2.0735
15875TIP3    H269041   3.077   4.750  11.216  0.8799  1.0366 -0.4654
15876TIP3   OH269042   6.255   3.102  17.031 -0.8340  0.4809  0.2090
15876TIP3    H169043   6.307   3.040  16.980 -0.2942  2.3878 -1.7441
15876TIP3    H269044   6.320   3.158  17.073 -1.2970  0.6838  0.6562
15877TIP3   OH269045   0.571   2.615   4.482 -0.4267 -0.2182  0.4516
15877TIP3    H169046   0.575   2.611   4.577  0.7674 -1.4827  0.3785
15877TIP3    H269047   0.632   2.686   4.459 -1.0079  0.3486  0.6325
15878TIP3   OH269048   3.080   5.119   5.774 -0.4946  0.5201 -0.5065
15878TIP3    H169049   3.031   5.136   5.854  1.1788 -1.6516  1.1288
15878TIP3    H269050   3.085   5.023   5.769  1.8008  0.6191 -1.6280
15879TIP3   OH269051   0.867   4.112   0.805  0.0929  0.3551  0.4074
15879TIP3    H169052   0.817   4.059   0.866 -0.1551 -0.9135 -0.8581
15879TIP3    H269053   0.808   4.125   0.731  0.9230  0.5551 -0.2277
15880TIP3   OH269054   2.809   4.181   4.367 -0.2003  0.2153 -0.1440
15880TIP3    H169055   2.871   4.166   4.438  0.0846  1.0158 -0.2098
15880TIP3    H269056   2.724   4.156   4.403  0.2758 -2.0488 -0.4366
15881TIP3   OH269057   0.165   1.698  16.002 -0.2166 -0.2539  0.8327
15881TIP3    H169058   0.189   1.745  16.082 -0.2633  0.2991  0.5202
15881TIP3    H269059   0.203   1.610  16.015  1.4384  0.3893  0.6332
15882TIP3   OH269060   4.817   0.186  16.346 -0.1452 -0.0611  0.2187
15882TIP3    H169061   4.858   0.133  16.414  0.0438  0.4989  0.5554
15882TIP3    H269062   4.732   0.211  16.383 -0.9101 -1.4108 -0.5737
15883TIP3   OH269063   2.800   4.842  16.087 -0.3302  0.4844 -0.2063
15883TIP3    H169064   2.850   4.896  16.026 -2.0339  1.6147 -0.6545
15883TIP3    H269065   2.740   4.792  16.031 -0.3731 -0.1494  0.3888
15884TIP3   OH269066   3.967   1.250  12.480 -0.0970 -0.1623  0.0593
15884TIP3    H169067   4.032   1.260  12.549 -0.4296 -2.2057  0.7093
15884TIP3    H269068   3.897   1.310  12.504  0.5419  0.4080  0.5417
15885TIP3   OH269069   2.479   4.165  13.402  0.2797  0.2144  0.2195
15885TIP3    H169070   2.565   4.125  13.412 -0.1422 -0.7165  0.2156
15885TIP3    H269071   2.438   4.156  13.488  0.5588  1.5897  0.5228
15886TIP3   OH269072   1.802   6.156  11.803  1.0924 -0.1826  0.6797
15886TIP3    H169073   1.872   6.101  11.839  1.3447 -0.4780 -0.2294
15886TIP3    H269074   1.796   6.128  11.711 -0.9873 -0.9705  1.0135
15887TIP3   OH269075   3.115   5.089   6.199  0.3635 -0.2554  0.2079
15887TIP3    H169076   3.183   5.155   6.187  1.1484 -0.7596  1.6169
15887TIP3    H269077   3.114   5.073   6.294  1.0422 -3.1087 -0.1748
15888TIP3   OH269078   1.562   2.396  13.631 -0.4428  0.0000 -0.4307
15888TIP3    H169079   1.511   2.471  13.602  0.1481  0.6145  0.0995
15888TIP3    H269080   1.535   2.381  13.721  0.0739  0.1344 -0.2475
15889TIP3   OH269081   5.678   2.383  14.476 -0.5249  0.1035  0.4209
15889TIP3    H169082   5.639   2.295  14.474 -1.7828  0.6500  0.3090
15889TIP3    H269083   5.636   2.426  14.551 -1.0355  1.0943 -0.4079
15890TIP3   OH269084   4.850   0.992  13.210 -0.5366  0.3672 -0.3101
15890TIP3    H169085   4.763   0.986  13.171 -0.9402  1.4156  0.3968
15890TIP3    H269086   4.867   1.086  13.219  1.2214  0.2300 -1.6189
15891TIP3   OH269087   6.574   5.846  15.062 -0.6743 -0.6944 -0.0966
15891TIP3    H169088   6.513   5.789  15.015  0.9288 -0.7415 -2.2336
15891TIP3    H269089   6.563   5.932  15.021  0.3051 -0.5850 -0.1379
15892TIP3   OH269090   5.755   1.763   5.047  0.2170  0.0213  0.5888
15892TIP3    H169091   5.729   1.763   4.955 -0.3461  3.1496  0.6583
15892TIP3    H269092   5.686   1.713   5.092 -0.0429 -0.6358 -0.5117
15893TIP3   OH269093   0.645   0.654  15.519  0.0020 -0.2647 -1.2680
15893TIP3    H169094   0.552   0.643  15.498 -0.7375  1.5207  0.7461
15893TIP3    H269095   0.664   0.744  15.493  0.4178  0.2728  0.7847
15894TIP3   OH269096   5.317   2.739  12.237 -0.0697 -0.4935  0.4001
15894TIP3    H169097   5.229   2.704  12.246 -0.1947 -0.1523  0.5061
15894TIP3    H269098   5.326   2.800  12.310 -0.5151  1.1049 -0.8445
15895TIP3   OH269099   5.534   0.297   0.011 -0.0089  0.2669 -0.4687
15895TIP3    H169100   5.626   0.310  -0.009 -0.1811  0.5984 -1.0706
15895TIP3    H269101   5.531   0.213   0.057  0.7009  0.6838  0.3748
15896TIP3   OH269102   3.479   1.381   6.253 -0.0035  0.2148 -0.1498
15896TIP3    H169103   3.569   1.350   6.259 -0.2236 -0.5217 -0.5171
15896TIP3    H269104   3.430   1.326   6.315 -0.5864 -0.9613 -1.5919
15897TIP3   OH269105   2.821   3.233  14.510  0.1689 -0.3831 -0.5250
15897TIP3    H169106   2.802   3.151  14.557 -1.2755 -0.2619 -0.8590
15897TIP3    H269107   2.784   3.220  14.423  0.6031  0.3432 -0.8235
15898TIP3   OH269108   1.283   3.319   2.125  0.0097 -0.2837  0.2967
15898TIP3    H169109   1.322   3.282   2.205 -3.1091 -2.7899  0.8709
15898TIP3    H269110   1.200   3.356   2.155  0.2981  1.8101 -1.3382
15899TIP3   OH269111   5.006   6.317   0.951 -0.2121 -0.1818 -0.6315
15899TIP3    H169112   4.939   6.384   0.966 -1.5328 -0.9155 -2.7643
15899TIP3    H269113   5.014   6.273   1.036  0.1652  2.1207  0.6202
15900TIP3   OH269114   2.949   5.488  12.543  0.0350  0.0777 -0.6986
15900TIP3    H169115   2.855   5.488  12.528 -0.0334  0.7091 -0.3112
15900TIP3    H269116   2.960   5.452  12.631 -0.1316  3.1020  0.6867
15901TIP3   OH269117   4.170   1.170   5.555 -0.1378  0.1516  0.0774
15901TIP3    H169118   4.135   1.247   5.511  0.9750  1.4075  1.3094
15901TIP3    H269119   4.219   1.123   5.486 -0.8549  0.5011 -0.6865
15902TIP3   OH269120   0.043   6.232   3.782 -0.3080  0.4855 -0.4068
15902TIP3    H169121   0.040   6.137   3.793  2.3441  0.5470  2.1602
15902TIP3    H269122  -0.030   6.265   3.835  0.5109 -0.1021  1.1793
15903TIP3   OH269123   3.997   5.234   5.138  0.2704  0.5102 -0.6404
15903TIP3    H169124   4.083   5.203   5.112  0.4777  1.4545 -1.1361
15903TIP3    H269125   3.944   5.227   5.059 -0.2639 -0.5557 -0.2056
15904TIP3   OH269126   3.213   5.602   2.905  0.0240 -0.1451  0.2241
15904TIP3    H169127   3.258   5.532   2.954 -1.3429 -0.6584  0.7813
15904TIP3    H269128   3.237   5.682   2.952  1.2780 -0.2529 -0.1802
15905TIP3   OH269129   3.522   6.194  14.047 -0.4398 -0.4463  0.1709
15905TIP3    H169130   3.496   6.125  14.109  0.2462  0.4935  1.5336
15905TIP3    H269131   3.528   6.273  14.100  0.1650  0.3933 -1.1127
15906TIP3   OH269132   4.241   3.970   3.713 -0.2266 -0.1621 -0.2710
15906TIP3    H169133   4.225   3.892   3.659 -0.1167 -2.1530  2.3785
15906TIP3    H269134   4.333   3.962   3.739 -0.8126 -0.4782  1.8890
15907TIP3   OH269135   3.890   6.238   4.273 -0.3647 -0.3223  0.6859
15907TIP3    H169136   3.801   6.268   4.289 -0.4643 -0.1648 -0.1038
15907TIP3    H269137   3.938   6.317   4.248  1.0641  0.4389  4.9914
15908TIP3   OH269138   4.019   6.347   5.434 -0.2197  0.6416  0.1984
15908TIP3    H169139   3.962   6.271   5.450  1.8926 -0.5033  3.3806
15908TIP3    H269140   4.056   6.332   5.347 -0.1880 -1.8058  0.5609
15909TIP3   OH269141   5.319   1.390   1.721 -0.0932  0.0596 -0.8014
15909TIP3    H169142   5.236   1.424   1.686 -0.4184  3.2178  2.4601
15909TIP3    H269143   5.385   1.415   1.655 -1.2617  0.7129 -1.7666
15910TIP3   OH269144   3.572   3.279   1.417 -0.8557 -0.5096 -0.3695
15910TIP3    H169145   3.633   3.311   1.484 -0.2136  1.6036 -1.8694
15910TIP3    H269146   3.626   3.225   1.360 -0.7145  0.1322 -0.8497
15911TIP3   OH269147   5.058   2.790   1.665  0.7698  0.2888 -0.0999
15911TIP3    H169148   5.138   2.753   1.701 -0.5103 -1.2407  1.3320
15911TIP3    H269149   5.057   2.760   1.574  0.8758 -1.3632  0.4114
15912TIP3   OH269150   1.224   3.027   4.704  0.9380  0.4248 -0.4486
15912TIP3    H169151   1.187   2.991   4.623 -0.2811  0.6231 -0.0037
15912TIP3    H269152   1.298   3.080   4.675  0.0122  1.1674 -1.5380
15913TIP3   OH269153   2.668   6.570   6.222  1.0137  0.0340  0.4830
15913TIP3    H169154   2.718   6.500   6.264  0.1816 -1.2338 -0.5447
15913TIP3    H269155   2.580   6.534   6.214  0.3603  1.5326  0.6498
15914TIP3   OH269156   6.704   6.047   4.874  0.0939  0.3110 -0.1504
15914TIP3    H169157   6.796   6.031   4.853  0.4432  1.5223  0.3488
15914TIP3    H269158   6.680   5.974   4.931  0.1390 -1.0907 -1.8399
15915TIP3   OH269159   5.723   3.573  10.727  0.0330  0.4977  0.5875
15915TIP3    H169160   5.673   3.617  10.658 -1.0739 -2.0516 -0.3597
15915TIP3    H269161   5.796   3.532  10.681  0.8588  1.0492  1.3897
15916TIP3   OH269162   3.818   2.482  12.658 -0.2671 -0.1880  0.1205
15916TIP3    H169163   3.883   2.462  12.591  0.1476 -1.2488  0.8063
15916TIP3    H269164   3.761   2.548  12.618  0.9117  0.3697 -0.6767
15917TIP3   OH269165   6.687   6.020  10.432 -0.3152  0.2234  0.0157
15917TIP3    H169166   6.736   6.099  10.453 -0.6933  0.4140  0.1839
15917TIP3    H269167   6.751   5.963  10.389  0.9103 -0.7584  2.8842
15918TIP3   OH269168   6.096   4.373   2.746 -0.0219  0.3121  0.2334
15918TIP3    H169169   6.100   4.315   2.671  0.0118 -0.7873  1.0644
15918TIP3    H269170   6.013   4.420   2.736  0.6377  1.2382 -1.2248
15919TIP3   OH269171   0.786   4.203  14.681  0.5060  0.4247 -1.0615
15919TIP3    H169172   0.759   4.135  14.619 -0.6327 -0.5369  0.4132
15919TIP3    H269173   0.779   4.285  14.631 -0.0723 -0.3341 -2.2832
15920TIP3   OH269174   0.321   1.708  17.156 -0.4897 -0.2119 -0.0139
15920TIP3    H169175   0.386   1.645  17.124 -2.1672 -1.4774 -1.1097
15920TIP3    H269176   0.332   1.706  17.251  1.4274  0.0421 -0.1904
15921TIP3   OH269177   4.245   1.467  11.984  0.0017  0.2868 -0.3845
15921TIP3    H169178   4.245   1.552  11.939  1.5153  0.1099 -0.7802
15921TIP3    H269179   4.203   1.407  11.922  2.0154  0.0585 -1.6256
15922TIP3   OH269180   2.133   0.604   5.369  0.1171 -0.1483  0.1487
15922TIP3    H169181   2.118   0.649   5.451 -1.9005  0.8641 -0.6986
15922TIP3    H269182   2.050   0.612   5.321  1.1078 -0.9645 -1.8563
15923TIP3   OH269183   3.584   5.367   3.737 -0.1190  0.1639 -0.5091
15923TIP3    H169184   3.664   5.335   3.696  0.8335 -0.0083  1.4158
15923TIP3    H269185   3.610   5.448   3.780 -1.3254  0.8410 -1.0000
15924TIP3   OH269186   1.375   3.271   6.814  0.2349 -0.6224 -0.4938
15924TIP3    H169187   1.365   3.360   6.847 -0.9785 -0.2993 -1.6502
15924TIP3    H269188   1.286   3.239   6.804  0.6150 -1.4286 -1.5131
15925TIP3   OH269189   3.748   0.447  16.285 -0.2197  0.1630  0.0924
15925TIP3    H169190   3.827   0.397  16.305 -0.6363 -0.2477  0.7792
15925TIP3    H269191   3.694   0.387  16.233  0.1027  0.5970 -0.7486
15926TIP3   OH269192   0.241   4.243  12.198 -0.1632  0.4277 -0.2753
15926TIP3    H169193   0.277   4.161  12.231  0.3306  0.4600 -0.7177
15926TIP3    H269194   0.164   4.217  12.148 -0.6549  0.3408  0.5137
15927TIP3   OH269195   1.138   0.030   1.828 -0.1283  0.0636 -0.1384
15927TIP3    H169196   1.073   0.010   1.760  0.3050 -1.6622 -0.0851
15927TIP3    H269197   1.095   0.004   1.910  0.6611 -1.2616 -0.1219
15928TIP3   OH269198   5.186   4.608   2.721  0.0114 -0.3784  0.1264
15928TIP3    H169199   5.098   4.588   2.689 -0.6524  3.0157 -0.5668
15928TIP3    H269200   5.233   4.642   2.645  0.3940  2.0413  1.3214
15929TIP3   OH269201   4.161   4.649  17.065 -0.2079  0.8465 -0.0494
15929TIP3    H169202   4.250   4.616  17.075  0.0763  1.4684 -0.5214
15929TIP3    H269203   4.137   4.626  16.975 -0.1079  1.6724 -0.2940
15930TIP3   OH269204   6.296   3.471  10.838 -0.3365  0.3344  0.4043
15930TIP3    H169205   6.320   3.379  10.828 -0.0060  0.3170  1.2278
15930TIP3    H269206   6.231   3.487  10.770 -1.5158 -0.9127  1.1810
15931TIP3   OH269207   0.793   0.711   1.097  0.1277  0.0419  0.1142
15931TIP3    H169208   0.761   0.641   1.039  0.1986  1.0801 -1.2315
15931TIP3    H269209   0.829   0.665   1.173 -0.5558 -1.3402 -0.3601
15932TIP3   OH269210   1.121   1.796  15.811 -0.2009 -0.0400 -0.1382
15932TIP3    H169211   1.042   1.837  15.774  0.6871  1.9936  0.0595
15932TIP3    H269212   1.181   1.869  15.825  0.1099 -0.8801  3.8714
15933TIP3   OH269213   1.293   4.225   3.863  0.0429  0.2674 -0.6555
15933TIP3    H169214   1.206   4.217   3.903 -0.1493 -1.6789 -1.3499
15933TIP3    H269215   1.305   4.142   3.817  2.3176  0.4691 -0.4965
15934TIP3   OH269216   1.756   1.713  14.275 -0.2176 -0.0284 -0.0344
15934TIP3    H169217   1.802   1.796  14.262 -2.8191  1.3563 -1.1759
15934TIP3    H269218   1.738   1.710  14.369  1.5356 -0.2808  0.3252
15935TIP3   OH269219   0.591   2.035   6.637 -0.5318 -0.1435  0.5401
15935TIP3    H169220   0.512   2.004   6.592 -0.9959  1.4613  0.2010
15935TIP3    H269221   0.566   2.118   6.677  0.9789  0.4186  0.4119
15936TIP3   OH269222   3.275   2.987  14.009  0.1007 -0.1752 -0.3015
15936TIP3    H169223   3.221   3.044  13.954 -0.3357 -1.9373 -1.7692
15936TIP3    H269224   3.299   2.914  13.952  2.4717 -0.4069  0.8823
15937TIP3   OH269225   5.262   0.030   5.107  0.4301  0.0309  0.3789
15937TIP3    H169226   5.329   0.058   5.044  0.5113 -0.1984  0.3614
15937TIP3    H269227   5.286   0.075   5.188  0.9363 -0.4773  0.5242
15938TIP3   OH269228   6.326   5.797  16.618 -0.3507  0.8318 -0.1983
15938TIP3    H169229   6.320   5.703  16.631  0.3042  0.9096  0.7972
15938TIP3    H269230   6.300   5.811  16.527  0.2529 -0.3785 -0.5764
15939TIP3   OH269231   0.648   5.257  16.055  0.7326 -0.2404 -0.5346
15939TIP3    H169232   0.631   5.313  16.131  1.5413  0.6243 -0.9626
15939TIP3    H269233   0.583   5.188  16.061 -0.8680  1.2206 -0.4655
15940TIP3   OH269234   0.706   5.110   4.185  0.3037 -0.2017 -0.0561
15940TIP3    H169235   0.764   5.145   4.117  0.3918  0.9123  0.5753
15940TIP3    H269236   0.761   5.050   4.234  0.5366 -0.2059 -0.3164
15941TIP3   OH269237   3.307   5.315  15.166  0.3809 -0.3896  0.1590
15941TIP3    H169238   3.241   5.370  15.123  0.7610  0.7814  1.0182
15941TIP3    H269239   3.267   5.228  15.167 -0.9718  0.1928  0.2532
15942TIP3   OH269240   1.442   5.549  13.874 -0.5943  0.0018 -0.6513
15942TIP3    H169241   1.504   5.500  13.821 -0.9276 -2.5207  1.1214
15942TIP3    H269242   1.456   5.517  13.963 -1.8660  2.1395  0.3947
15943TIP3   OH269243   5.228   5.140   5.195  0.1074 -0.2249 -0.5041
15943TIP3    H169244   5.286   5.070   5.165 -0.1245  0.0902 -1.7360
15943TIP3    H269245   5.144   5.097   5.208  0.4960 -0.6136  0.9611
15944TIP3   OH269246   0.002   4.693   4.575  0.2351 -0.9504  0.3604
15944TIP3    H169247   0.057   4.655   4.506  0.3744 -1.2690  0.6412
15944TIP3    H269248  -0.066   4.628   4.591 -1.2460  0.1402 -1.1384
15945TIP3   OH269249   0.152   3.124  12.224 -0.5285  0.2777 -0.2915
15945TIP3    H169250   0.062   3.158  12.216 -0.7044 -0.1532 -0.1793
15945TIP3    H269251   0.190   3.135  12.137 -1.1142 -0.7177 -0.6939
15946TIP3   OH269252   6.414   4.949   6.057 -0.5646  0.5900 -0.6269
15946TIP3    H169253   6.473   4.899   6.114  0.0641 -0.4856 -2.1583
15946TIP3    H269254   6.440   5.040   6.069  0.5711  0.2359 -0.3394
15947TIP3   OH269255   2.755   3.864   3.466  0.1079 -0.5399 -0.2349
15947TIP3    H169256   2.810   3.910   3.402  0.5533 -0.7959 -0.0461
15947TIP3    H269257   2.757   3.920   3.543  0.7614 -0.9254  0.0415
15948TIP3   OH269258   3.566   1.889   5.627  0.0676  0.2495 -0.0967
15948TIP3    H169259   3.647   1.901   5.579  0.1221  0.5400  0.0709
15948TIP3    H269260   3.531   1.806   5.594  0.7817 -0.2389  0.3307
15949TIP3   OH269261   3.875   3.253   4.796 -0.1887 -0.6175  0.7516
15949TIP3    H169262   3.936   3.257   4.723 -0.8927  0.5439  0.1837
15949TIP3    H269263   3.806   3.193   4.767 -0.7162  0.2135  0.2301
15950TIP3   OH269264   0.191   5.242  11.467 -0.4178 -0.0315  0.0271
15950TIP3    H169265   0.140   5.185  11.410 -0.4469  0.0766 -0.0562
15950TIP3    H269266   0.255   5.184  11.509 -1.3183 -0.3844  0.9789
15951TIP3   OH269267   5.832   2.442   2.350  0.4653 -0.4001  0.5936
15951TIP3    H169268   5.768   2.481   2.409 -0.0712  0.0123 -0.2464
15951TIP3    H269269   5.857   2.513   2.290  0.0907 -1.1028 -0.4344
15952TIP3   OH269270   5.375   0.339   4.424 -0.2872 -0.3327  0.4060
15952TIP3    H169271   5.317   0.333   4.500 -1.4125  0.9772 -0.3280
15952TIP3    H269272   5.392   0.247   4.401  1.8312 -0.8800  3.4752
15953TIP3   OH269273   2.795   2.710  11.545 -0.4834 -0.6153  0.3088
15953TIP3    H169274   2.830   2.795  11.516  1.6801 -1.1030  1.2560
15953TIP3    H269275   2.703   2.713  11.521 -0.2553  1.6015 -0.5981
15954TIP3   OH269276   3.964   3.819   4.155 -0.3251  0.0942 -0.1075
15954TIP3    H169277   4.043   3.766   4.142 -0.1309  0.6549 -1.3794
15954TIP3    H269278   3.996   3.910   4.157 -0.9978  0.3936 -1.5246
15955TIP3   OH269279   4.304   2.386  11.637  0.8178  0.0245 -0.6393
15955TIP3    H169280   4.329   2.406  11.546  0.0790  2.7511 -0.3488
15955TIP3    H269281   4.383   2.401  11.688  1.5643 -2.6444 -0.8581
15956TIP3   OH269282   2.814   5.608   3.387 -0.3062  0.0720  0.1211
15956TIP3    H169283   2.852   5.642   3.468  0.6450 -0.9730  0.1354
15956TIP3    H269284   2.763   5.531   3.414 -0.3156 -0.0468 -0.2220
15957TIP3   OH269285   3.646   2.975   4.129  0.0486  0.4173  0.1146
15957TIP3    H169286   3.699   2.897   4.144  0.2999  0.6433  0.4011
15957TIP3    H269287   3.558   2.949   4.155  0.3739  0.6310  1.4834
15958TIP3   OH269288   2.916   0.217  13.681  0.6447  0.2021 -0.8021
15958TIP3    H169289   2.949   0.213  13.771  0.4263  1.8277 -0.6120
15958TIP3    H269290   2.887   0.128  13.662 -0.4994  0.0790  1.2125
15959TIP3   OH269291   1.835   0.457  14.392  0.0806 -0.4499  0.0497
15959TIP3    H169292   1.903   0.482  14.330  0.0205 -1.0422 -0.2620
15959TIP3    H269293   1.840   0.523  14.461  0.4041 -0.0032 -0.3897
15960TIP3   OH269294   2.827   2.933   5.988 -0.4931  0.3628 -0.1675
15960TIP3    H169295   2.842   3.014   5.940 -3.6484  0.7316 -0.7868
15960TIP3    H269296   2.807   2.868   5.920  2.2894 -1.1090  0.2950
15961TIP3   OH269297   2.174   4.936   1.462 -0.0462  0.1379  0.4167
15961TIP3    H169298   2.237   4.915   1.531 -1.2658  1.3076  1.9792
15961TIP3    H269299   2.090   4.906   1.498 -0.4048 -1.7479 -1.7639
15962TIP3   OH269300   4.049   4.339  14.749 -0.5819 -0.1204 -0.1591
15962TIP3    H169301   4.006   4.361  14.666 -1.0201  1.8798  0.5210
15962TIP3    H269302   4.139   4.372  14.739 -0.5866 -0.0300  0.0740
15963TIP3   OH269303   1.705   4.349   0.898 -0.1903  0.8963  0.6088
15963TIP3    H169304   1.694   4.432   0.852 -0.8029  0.6630  0.3281
15963TIP3    H269305   1.784   4.311   0.859 -0.6940  0.7079 -0.2520
15964TIP3   OH269306   4.581   3.033  11.377  0.1340 -0.7164 -0.0472
15964TIP3    H169307   4.541   3.034  11.464 -2.9655 -1.4736 -1.3095
15964TIP3    H269308   4.579   2.941  11.351  2.5785 -0.7468 -0.3474
15965TIP3   OH269309   5.169   2.440  12.162 -0.6812 -0.1843  0.7520
15965TIP3    H169310   5.133   2.477  12.082 -0.2969 -0.4355  0.4569
15965TIP3    H269311   5.108   2.466  12.230 -1.2764 -0.3803  0.3036
15966TIP3   OH269312   4.261   4.962  15.312  0.0616  0.4199 -0.3983
15966TIP3    H169313   4.168   4.982  15.310 -1.0956 -3.8653  0.4023
15966TIP3    H269314   4.286   4.953  15.220 -1.6552 -2.8516 -0.6886
15967TIP3   OH269315   1.385   2.540  14.111 -0.8046 -0.5581 -0.0253
15967TIP3    H169316   1.428   2.623  14.130 -1.7380  0.4786 -2.0884
15967TIP3    H269317   1.318   2.531  14.178 -0.2544  0.0102  0.6125
15968TIP3   OH269318   2.201   3.425   0.914  0.7858 -0.2184 -0.0072
15968TIP3    H169319   2.236   3.399   0.829 -0.3546  0.7234 -0.8018
15968TIP3    H269320   2.153   3.506   0.896  0.0666 -0.2981  1.4378
15969TIP3   OH269321   0.323   4.024   2.629  0.0734  0.1138 -0.6932
15969TIP3    H169322   0.305   4.107   2.674  0.1634 -0.3522  0.2111
15969TIP3    H269323   0.246   3.970   2.646 -0.1800  0.1552 -1.6524
15970TIP3   OH269324   1.501   6.387  13.918  0.2480  0.0523  0.0690
15970TIP3    H169325   1.565   6.412  13.984 -0.3612  0.7696  0.4001
15970TIP3    H269326   1.553   6.363  13.841  0.9366 -0.3163  0.6487
15971TIP3   OH269327   4.186   3.722  15.677 -0.0144 -0.2113 -0.3412
15971TIP3    H169328   4.106   3.751  15.633  0.8056 -0.4882 -2.1062
15971TIP3    H269329   4.167   3.732  15.771 -1.4199  1.5198 -0.7573
15972TIP3   OH269330   0.290   5.070   1.864  0.5176  0.0799  0.3401
15972TIP3    H169331   0.276   4.987   1.819 -0.3475  1.0406 -1.2376
15972TIP3    H269332   0.223   5.073   1.933 -0.6813  0.2781 -0.8062
15973TIP3   OH269333   5.897   0.881  13.677 -0.4187 -0.1102  0.0523
15973TIP3    H169334   5.868   0.842  13.759 -0.2206  1.5278  0.9341
15973TIP3    H269335   5.993   0.878  13.682 -0.4062 -0.0242 -0.1341
15974TIP3   OH269336   0.351   4.246  14.192  0.4893  0.2668  0.4230
15974TIP3    H169337   0.278   4.294  14.153 -1.0715 -0.9702  1.7223
15974TIP3    H269338   0.412   4.314  14.221 -0.8171  1.3769  0.6272
15975TIP3   OH269339   6.764   5.553  12.290 -0.2945 -0.3473  0.1701
15975TIP3    H169340   6.836   5.528  12.233  0.1584 -0.1957  0.6619
15975TIP3    H269341   6.795   5.632  12.334 -1.1880  0.3439 -0.4038
15976TIP3   OH269342   3.137   1.208  16.132  0.0949  0.1578 -0.4563
15976TIP3    H169343   3.157   1.186  16.223  1.2562 -0.2656 -0.7951
15976TIP3    H269344   3.041   1.204  16.127 -0.0539  1.2639  1.0029
15977TIP3   OH269345   2.600   0.488   2.047  0.1255  0.4377 -0.0491
15977TIP3    H169346   2.628   0.509   2.136 -1.9007 -0.6779  0.9120
15977TIP3    H269347   2.674   0.514   1.992  1.4632  1.0840  1.9505
15978TIP3   OH269348   3.125   4.416   5.754  0.1146  0.3239  0.1007
15978TIP3    H169349   3.109   4.510   5.743 -0.6477  0.2508  0.5152
15978TIP3    H269350   3.068   4.375   5.689 -1.0737  0.0802  1.2530
15979TIP3   OH269351   0.556   2.177  15.433 -0.0260  0.0582 -0.2637
15979TIP3    H169352   0.549   2.271  15.449 -4.2694  0.3815 -2.5250
15979TIP3    H269353   0.498   2.137  15.498 -1.3307 -0.5414 -1.7375
15980TIP3   OH269354   6.043   1.383  11.692 -0.0367  0.0214  0.0423
15980TIP3    H169355   6.098   1.407  11.767  0.4340 -0.4306 -0.1650
15980TIP3    H269356   6.096   1.402  11.615 -0.8063  1.2478 -0.2262
15981TIP3   OH269357   5.412   1.842   5.700  0.1758 -0.1534 -0.0732
15981TIP3    H169358   5.360   1.824   5.779 -1.5613 -0.8652 -1.3058
15981TIP3    H269359   5.390   1.932   5.677 -0.2245 -0.3249 -0.3742
15982TIP3   OH269360   2.913   4.617   5.773 -0.1965 -0.4255  0.1858
15982TIP3    H169361   2.956   4.700   5.753  1.7706 -1.4813 -0.2082
15982TIP3    H269362   2.834   4.617   5.720  0.8777  0.2728 -1.4792
15983TIP3   OH269363   5.161   6.156   2.936  0.2777 -0.6762 -0.0215
15983TIP3    H169364   5.089   6.101   2.968  0.4005 -0.9415 -0.1979
15983TIP3    H269365   5.228   6.150   3.004  0.1099 -0.3821  0.1699
15984TIP3   OH269366   0.538   0.562  13.089 -0.5448 -0.6592 -0.5594
15984TIP3    H169367   0.501   0.496  13.031  0.8477 -1.7079 -0.3144
15984TIP3    H269368   0.631   0.567  13.065 -0.2360 -0.1060  0.6413
15985TIP3   OH269369   6.126   3.838   6.685  0.6043 -0.1584 -0.3100
15985TIP3    H169370   6.080   3.833   6.601  0.5947  1.1999 -0.4166
15985TIP3    H269371   6.216   3.811   6.666  0.3794 -0.7232 -0.5658
15986TIP3   OH269372   6.494   4.933  16.986  0.1810 -0.2191 -0.1051
15986TIP3    H169373   6.584   4.951  17.011  0.8939 -2.4337 -0.8504
15986TIP3    H269374   6.495   4.931  16.890 -1.0757  1.5274 -0.1964
15987TIP3   OH269375   1.898   4.671  10.765  0.1730 -0.4908 -0.4119
15987TIP3    H169376   1.837   4.597  10.767 -0.0813 -0.2956  2.0548
15987TIP3    H269377   1.973   4.641  10.816  0.9157  0.2995 -1.0067
15988TIP3   OH269378   0.657   4.694   4.389 -0.9683  0.6223 -0.5511
15988TIP3    H169379   0.641   4.705   4.295  0.8546 -1.5073 -1.1929
15988TIP3    H269380   0.574   4.663   4.424 -1.1380 -0.4762 -1.8586
15989TIP3   OH269381   5.371   5.521  13.291 -0.0816  0.1118  0.2323
15989TIP3    H169382   5.393   5.447  13.347 -0.7493  0.3565  0.8311
15989TIP3    H269383   5.389   5.599  13.344  0.7935  0.3983 -0.4547
15990TIP3   OH269384   1.771   1.088   2.481 -0.2605  0.2887 -0.6663
15990TIP3    H169385   1.860   1.082   2.447  0.4561  1.7259  0.7935
15990TIP3    H269386   1.748   1.181   2.474 -1.1811  0.1360  0.0741
15991TIP3   OH269387   2.129   2.763   3.724  0.4520  0.6972 -0.2738
15991TIP3    H169388   2.166   2.753   3.812  0.7838  1.1845 -0.3487
15991TIP3    H269389   2.130   2.858   3.709 -0.7764  0.7179 -0.3075
15992TIP3   OH269390   4.794   5.256  14.143  0.2891  0.6772 -0.2094
15992TIP3    H169391   4.863   5.317  14.121  0.4729 -0.0541 -1.7691
15992TIP3    H269392   4.713   5.303  14.123  0.4201  0.5661 -1.0371
15993TIP3   OH269393   2.449   4.603  16.304  0.0931  0.3383  0.1512
15993TIP3    H169394   2.406   4.611  16.218 -0.1577 -0.0329  0.2392
15993TIP3    H269395   2.387   4.553  16.357  0.4642  0.1421  0.4013
15994TIP3   OH269396   6.585   6.688   5.923 -0.4726 -0.2395 -0.0761
15994TIP3    H169397   6.601   6.727   5.837  0.2207  0.4284  0.3481
15994TIP3    H269398   6.601   6.594   5.909  1.3865  0.0560 -0.2981
15995TIP3   OH269399   5.104   0.436  11.473 -0.7464 -0.4249  0.0346
15995TIP3    H169400   5.055   0.506  11.516 -1.0437 -0.7836  0.2878
15995TIP3    H269401   5.183   0.427  11.526 -0.6579 -0.2123 -0.0585
15996TIP3   OH269402   5.192   6.707  12.001  0.0483 -0.2343  0.1362
15996TIP3    H169403   5.282   6.704  11.968  0.7152 -0.5357  1.8631
15996TIP3    H269404   5.139   6.726  11.924  1.8174  2.6602 -0.5552
15997TIP3   OH269405   3.686   0.987   5.433 -0.2876  0.0991  0.2885
15997TIP3    H169406   3.778   0.973   5.454  0.0291 -0.6129 -1.3850
15997TIP3    H269407   3.678   0.960   5.341 -1.8300  1.6344 -0.0835
15998TIP3   OH269408   5.531   1.499  13.470 -0.0940 -0.6669 -0.1922
15998TIP3    H169409   5.565   1.462  13.551 -0.4204 -1.5282 -0.4335
15998TIP3    H269410   5.490   1.425  13.425 -1.1979  0.0805 -0.4747
15999TIP3   OH269411   4.883   6.374   3.651  0.1097  0.0194  0.1584
15999TIP3    H169412   4.861   6.357   3.743  2.4215 -0.3123  0.7343
15999TIP3    H269413   4.962   6.429   3.656  0.8009 -0.7380 -1.6009
16000TIP3   OH269414   4.766   5.353  14.712  0.3439 -0.1621  0.0673
16000TIP3    H169415   4.824   5.418  14.752 -0.9683  0.9684  0.2151
16000TIP3    H269416   4.772   5.371  14.618 -0.1133  0.2621  0.1176
16001TIP3   OH269417   0.929   1.915   4.834  0.0925  0.2877  0.1518
16001TIP3    H169418   0.882   1.906   4.917  0.9775 -0.4470  0.5859
16001TIP3    H269419   0.992   1.985   4.851  0.7234 -0.3108  0.3268
16002TIP3   OH269420   6.116   6.674  13.514  0.5438 -0.0269 -0.1197
16002TIP3    H169421   6.052   6.661  13.444  0.2013 -1.7023  0.4733
16002TIP3    H269422   6.125   6.588  13.555  1.1617  0.8019  1.5510
16003TIP3   OH269423   3.024   6.663  13.322 -0.8800  0.1319  0.2099
16003TIP3    H169424   3.035   6.568  13.315  0.3441  0.3608 -1.6454
16003TIP3    H269425   2.958   6.684  13.255  0.0992  0.7425 -0.5973
16004TIP3   OH269426   2.682   2.844   2.940  0.3370 -0.3893 -0.6510
16004TIP3    H169427   2.694   2.835   2.846  0.8912 -1.5923 -0.4813
16004TIP3    H269428   2.723   2.928   2.962  1.3081 -0.6812 -1.3022
16005TIP3   OH269429   3.667   2.546   1.841 -0.1506  0.0849  0.1047
16005TIP3    H169430   3.576   2.526   1.820 -0.0694 -0.4257  0.2282
16005TIP3    H269431   3.703   2.582   1.760 -0.0336 -1.1966 -0.4389
16006TIP3   OH269432   5.458   4.735  15.414 -0.4260  0.5645 -0.9308
16006TIP3    H169433   5.463   4.822  15.453 -2.5713  1.3107 -2.1358
16006TIP3    H269434   5.418   4.749  15.328 -0.4828 -1.5754 -1.3227
16007TIP3   OH269435   5.548   1.702   2.608 -0.0183  0.3115  0.9942
16007TIP3    H169436   5.535   1.786   2.564 -0.3026 -0.2166  0.0402
16007TIP3    H269437   5.479   1.646   2.573  0.4658 -0.4621  1.2634
16008TIP3   OH269438   5.221   6.296   1.709 -0.2426 -0.1708 -0.0355
16008TIP3    H169439   5.151   6.362   1.716 -1.0274 -0.9029 -0.8170
16008TIP3    H269440   5.224   6.256   1.796 -1.0999 -0.4323 -0.1215
16009TIP3   OH269441   2.838   1.357  16.979  0.2704 -0.6593  0.8719
16009TIP3    H169442   2.822   1.427  17.042 -1.5824 -2.7715  2.9310
16009TIP3    H269443   2.763   1.298  16.989  1.1078 -2.3105 -1.6661
16010TIP3   OH269444   1.141   0.818   0.646  0.1505 -0.1258  0.1015
16010TIP3    H169445   1.207   0.811   0.577  1.5885  1.2204  1.2623
16010TIP3    H269446   1.187   0.859   0.719 -2.0492  1.0904  0.8978
16011TIP3   OH269447   5.793   1.618   0.140  0.2421  0.2775 -0.3830
16011TIP3    H169448   5.808   1.583   0.053  3.0599  0.4229 -0.0514
16011TIP3    H269449   5.831   1.553   0.199 -1.6314  0.1738  0.7779
16012TIP3   OH269450   0.317   0.489  11.945 -0.3351 -0.2308  0.6070
16012TIP3    H169451   0.266   0.463  12.021  1.8122  0.0793  2.2623
16012TIP3    H269452   0.309   0.585  11.942  0.8590 -0.0799  1.4746
16013TIP3   OH269453   4.744   5.336  12.667 -0.0244 -0.1725  0.2502
16013TIP3    H169454   4.789   5.268  12.717 -2.4468 -0.8114  1.7375
16013TIP3    H269455   4.706   5.291  12.592 -0.5214 -0.2156  0.5225
16014TIP3   OH269456   4.493   5.534  15.425  0.8355  0.0144  0.2127
16014TIP3    H169457   4.462   5.541  15.515  0.2664  0.1890  0.0075
16014TIP3    H269458   4.554   5.606  15.415 -0.1937  0.8890  0.0319
16015TIP3   OH269459   1.472   6.561  14.294 -0.1004  0.5090  0.1348
16015TIP3    H169460   1.411   6.577  14.367  0.8291  0.0550  1.0398
16015TIP3    H269461   1.438   6.614  14.222 -1.9012 -0.1968  0.4291
16016TIP3   OH269462   0.023   5.914  11.404 -0.3736  0.2138  0.0574
16016TIP3    H169463   0.066   5.836  11.438  0.4727  0.6330 -0.0248
16016TIP3    H269464   0.080   5.987  11.431 -1.9930  0.9978  1.6096
16017TIP3   OH269465   3.733   0.093  12.377  0.3388 -0.4794  0.0393
16017TIP3    H169466   3.739   0.122  12.468 -0.9182  3.6023 -0.9625
16017TIP3    H269467   3.640   0.073  12.365  0.5369 -1.2075 -0.3484
16018TIP3   OH269468   2.485   5.511   0.516  0.2038  0.4388 -1.1836
16018TIP3    H169469   2.576   5.509   0.544  0.2033 -1.9197 -1.2145
16018TIP3    H269470   2.489   5.502   0.421 -0.0678  1.0508 -1.2618
16019TIP3   OH269471   0.745   0.992  14.403  0.6675 -0.7611  0.6028
16019TIP3    H169472   0.806   1.010  14.331  0.2853 -0.9595  0.2276
16019TIP3    H269473   0.766   0.903  14.431 -1.0801 -1.7972 -1.1752
16020TIP3   OH269474   5.030   6.237   4.183  0.0497 -0.6345  0.3431
16020TIP3    H169475   4.955   6.281   4.223 -0.7161 -0.6337 -1.0295
16020TIP3    H269476   5.106   6.279   4.222 -0.6649 -0.0715  1.1671
16021TIP3   OH269477   5.825   1.209  12.402  0.3244 -0.2629 -0.4283
16021TIP3    H169478   5.903   1.169  12.442 -0.5788 -0.7433  0.9383
16021TIP3    H269479   5.841   1.303  12.407  0.5149 -0.3382  0.5003
16022TIP3   OH269480   4.193   1.700   0.429  0.3772 -0.5517 -0.2683
16022TIP3    H169481   4.234   1.648   0.497  1.3123 -1.7359 -1.6772
16022TIP3    H269482   4.256   1.769   0.410 -0.7312  1.0008  1.3867
16023TIP3   OH269483   1.132   3.827  17.087 -0.1836 -0.4258  0.2964
16023TIP3    H169484   1.068   3.840  17.017 -0.5294  0.8054  0.8048
16023TIP3    H269485   1.126   3.907  17.139  1.8088 -0.2467  0.3342
16024TIP3   OH269486   3.104   1.995  15.279  0.1631 -0.9322  0.1110
16024TIP3    H169487   3.190   1.973  15.242  0.2316 -0.1717 -0.1972
16024TIP3    H269488   3.120   2.001  15.373  0.5436 -0.3639  0.0133
16025TIP3   OH269489   6.078   2.745   1.645 -0.1589 -0.1949 -0.3241
16025TIP3    H169490   6.015   2.681   1.679 -0.2607  0.0265 -0.0939
16025TIP3    H269491   6.089   2.808   1.716  0.4400 -0.3148 -0.3080
16026TIP3   OH269492   1.707   4.935  17.045 -0.5149  0.2477  0.0951
16026TIP3    H169493   1.776   4.877  17.079 -0.2081 -0.2103 -1.2632
16026TIP3    H269494   1.752   4.989  16.981 -0.9289  1.6223  0.9304
16027TIP3   OH269495   0.884   4.344  11.467 -0.4257  0.7157 -0.5148
16027TIP3    H169496   0.915   4.434  11.458 -2.5945  1.6454  0.5658
16027TIP3    H269497   0.896   4.306  11.380  0.5388  2.0419 -1.0006
16028TIP3   OH269498   1.984   6.518  13.116 -0.4409 -0.6236  0.0284
16028TIP3    H169499   1.919   6.550  13.054  0.5954 -0.0147 -0.7855
16028TIP3    H269500   2.036   6.455  13.066  1.5577  1.2063 -0.3453
16029TIP3   OH269501   0.480   5.541   2.598 -0.1203 -0.5271  0.5388
16029TIP3    H169502   0.532   5.547   2.677  0.3001  0.9541  0.1723
16029TIP3    H269503   0.519   5.469   2.549  0.4686 -0.5709  1.0598
16030TIP3   OH269504   4.331   0.764  10.687 -0.4524 -0.3795  0.3127
16030TIP3    H169505   4.295   0.732  10.604 -0.4514  1.0876 -0.2836
16030TIP3    H269506   4.382   0.842  10.663  0.4605 -0.5604  1.5588
16031TIP3   OH269507   4.205   0.217  13.527  0.4673  0.0950 -0.6029
16031TIP3    H169508   4.121   0.263  13.534  0.3334 -0.2679  0.4963
16031TIP3    H269509   4.183   0.131  13.491  0.3845  0.0505 -0.4473
16032TIP3   OH269510   3.995   5.830  14.378 -0.1560 -0.2978 -0.0426
16032TIP3    H169511   3.911   5.855  14.340  0.5506  0.9708 -0.8395
16032TIP3    H269512   4.006   5.738  14.354 -0.2737  0.1440 -1.9621
16033TIP3   OH269513   0.786   2.251   6.317 -0.4288 -0.2832 -0.4958
16033TIP3    H169514   0.838   2.223   6.241 -0.3940 -2.4565  0.2700
16033TIP3    H269515   0.696   2.227   6.295 -0.5792  0.0666 -0.2783
16034TIP3   OH269516   0.779   6.547  13.963  0.1660  0.6733 -0.0983
16034TIP3    H169517   0.814   6.620  13.912  1.0813  1.3097  1.3749
16034TIP3    H269518   0.853   6.487  13.973 -0.2668  0.0912 -0.3036
16035TIP3   OH269519   2.685   5.420  13.792 -0.6765 -0.7377 -0.2192
16035TIP3    H169520   2.613   5.482  13.808 -0.1156  0.3842 -1.7747
16035TIP3    H269521   2.650   5.358  13.728 -0.7319 -1.1101  0.1664
16036TIP3   OH269522   5.970   5.802   6.358 -0.1605 -0.8116  0.1168
16036TIP3    H169523   6.030   5.733   6.387  1.3244  0.2280 -0.4130
16036TIP3    H269524   5.962   5.860   6.434  3.1295  1.4946 -1.1067
16037TIP3   OH269525   3.771   2.561   4.911 -0.1972  0.1810  0.2030
16037TIP3    H169526   3.798   2.547   5.002 -0.8586  0.2828  0.4176
16037TIP3    H269527   3.778   2.655   4.898  0.3686  0.1178 -0.0110
16038TIP3   OH269528   2.583   3.398   1.126 -0.1945  0.2856  0.2161
16038TIP3    H169529   2.543   3.478   1.161 -0.0625  0.3325  0.2611
16038TIP3    H269530   2.676   3.408   1.145 -0.2147 -0.0104  0.4789
16039TIP3   OH269531   1.035   2.388  11.218 -0.2799  0.4013  0.6512
16039TIP3    H169532   1.065   2.476  11.240  0.4453  0.1440  0.7204
16039TIP3    H269533   1.076   2.369  11.134 -0.7090  0.2620  0.4728
16040TIP3   OH269534   0.493   1.623  13.837  0.1262 -0.0531  0.6404
16040TIP3    H169535   0.514   1.633  13.745  1.3761  2.4569  1.1233
16040TIP3    H269536   0.578   1.613  13.880 -0.2398  1.3619  1.7508
16041TIP3   OH269537   0.117   6.716  12.564  0.0234  0.4911  0.3711
16041TIP3    H169538   0.068   6.746  12.640  0.8756 -1.5458  1.8415
16041TIP3    H269539   0.145   6.627  12.587  0.7402 -0.0305 -2.1446
16042TIP3   OH269540   0.661   6.139   5.311 -0.2887  0.2438 -0.6580
16042TIP3    H169541   0.688   6.231   5.307 -0.2064  0.2347 -0.3143
16042TIP3    H269542   0.625   6.121   5.224  1.6543 -0.0053 -1.4698
16043TIP3   OH269543   5.659   5.966  13.786 -0.0021 -1.2637  0.2332
16043TIP3    H169544   5.605   5.894  13.755 -1.2862 -0.4121  0.4321
16043TIP3    H269545   5.631   6.041  13.735  1.8177 -1.0214 -0.4793
16044TIP3   OH269546   2.656   1.595  15.518  0.7980  0.0640 -0.2918
16044TIP3    H169547   2.566   1.573  15.542  0.8489  1.7032  1.6417
16044TIP3    H269548   2.710   1.548  15.581  1.3264 -0.8016 -1.3547
16045TIP3   OH269549   0.819   2.399   5.755 -0.4505 -0.4414  0.6712
16045TIP3    H169550   0.782   2.420   5.841  0.2602  0.5040  0.7671
16045TIP3    H269551   0.849   2.309   5.763  0.4960 -0.0460  1.7453
16046TIP3   OH269552   3.797   3.096   0.127 -0.0168  0.1261 -0.1992
16046TIP3    H169553   3.719   3.082   0.180  1.3534  0.7130  2.1051
16046TIP3    H269554   3.824   3.185   0.147  2.0343 -0.5395  0.2427
16047TIP3   OH269555   0.199   4.630   3.327  0.3774 -0.9127  0.1406
16047TIP3    H169556   0.131   4.613   3.393 -0.6631  3.1259  0.3578
16047TIP3    H269557   0.173   4.712   3.286  3.5113 -0.8388 -2.0613
16048TIP3   OH269558   5.146   1.953   0.060 -0.4739 -0.2656  0.5230
16048TIP3    H169559   5.178   1.936  -0.029  0.4933  0.2953  0.7495
16048TIP3    H269560   5.223   1.943   0.116 -0.0948  3.1493  0.8533
16049TIP3   OH269561   1.927   3.851  16.140 -0.2593 -0.5879  0.2282
16049TIP3    H169562   1.955   3.925  16.193 -3.1803  1.3715 -0.7338
16049TIP3    H269563   1.977   3.860  16.058 -1.1580  0.8725 -0.2006
16050TIP3   OH269564   0.786   1.669   0.806  0.6935  0.5961  0.5885
16050TIP3    H169565   0.825   1.633   0.726  0.5365  0.3826  0.6045
16050TIP3    H269566   0.759   1.757   0.782  0.2792  0.3937  0.2807
16051TIP3   OH269567   2.497   6.709  16.020 -0.0469 -0.2868  0.0520
16051TIP3    H169568   2.493   6.640  16.086 -1.1235  0.4157  0.7566
16051TIP3    H269569   2.529   6.786  16.067 -1.2370  0.3343 -0.1034
16052TIP3   OH269570   2.197   1.229   1.449 -0.2390 -0.2295 -0.1287
16052TIP3    H169571   2.178   1.322   1.460  0.3033 -0.0535 -0.6449
16052TIP3    H269572   2.174   1.190   1.533  0.6424  0.5554  0.4975
16053TIP3   OH269573   1.440   0.732  12.581 -0.1828 -0.3279 -0.1959
16053TIP3    H169574   1.411   0.721  12.671 -0.2396 -1.2506 -0.3108
16053TIP3    H269575   1.387   0.803  12.546 -1.7290 -1.4185 -0.1494
16054TIP3   OH269576   1.171   1.716   1.032  0.3800 -0.4942  0.0140
16054TIP3    H169577   1.193   1.635   0.986  0.1548 -0.0889 -0.8047
16054TIP3    H269578   1.189   1.786   0.970  0.9345  0.1285  0.8402
16055TIP3   OH269579   4.303   3.389  11.133  0.0740  0.2783 -0.1381
16055TIP3    H169580   4.342   3.306  11.158  1.0328  0.5602 -0.6340
16055TIP3    H269581   4.237   3.366  11.067 -0.2370 -0.1541  0.3199
16056TIP3   OH269582   5.067   0.707   3.142  0.3772  0.1978 -0.5850
16056TIP3    H169583   5.115   0.770   3.197 -0.5602  0.2043  0.2607
16056TIP3    H269584   5.019   0.653   3.205 -0.4738 -0.0025 -1.3854
16057TIP3   OH269585   0.168   4.174  13.849  0.3097 -0.1384 -0.2097
16057TIP3    H169586   0.230   4.101  13.856  0.4856  0.1448  1.6522
16057TIP3    H269587   0.083   4.133  13.836  0.4729 -0.6580  0.3532
16058TIP3   OH269588   0.074   3.664   1.392 -0.1338 -0.1176  0.2905
16058TIP3    H169589   0.102   3.730   1.455 -2.4370  1.3716 -0.1118
16058TIP3    H269590   0.029   3.714   1.323 -1.9125 -2.0750 -0.0823
16059TIP3   OH269591   5.202   5.607  11.450 -0.4493  0.1908  0.3947
16059TIP3    H169592   5.132   5.546  11.428 -0.2464 -0.4362  1.4318
16059TIP3    H269593   5.249   5.566  11.523 -0.4499  1.6809  1.2912
16060TIP3   OH269594   2.794   1.061  16.925  0.2452 -0.4666  0.2786
16060TIP3    H169595   2.809   0.995  16.992  0.4851  0.3797  1.0796
16060TIP3    H269596   2.862   1.126  16.939 -0.2952  0.2153 -0.1618
16061TIP3   OH269597   4.223   5.597  16.586 -0.7865 -0.0979 -0.2269
16061TIP3    H169598   4.134   5.578  16.556 -0.4876 -1.1929 -0.4534
16061TIP3    H269599   4.220   5.579  16.680 -0.1291 -2.9192 -0.6644
16062TIP3   OH269600   5.034   1.240   0.122  0.4334 -0.1733 -0.5696
16062TIP3    H169601   5.001   1.309   0.064 -1.6037 -0.2502  0.3946
16062TIP3    H269602   4.972   1.168   0.109  1.3886 -1.0859 -0.0987
16063TIP3   OH269603   2.921   4.334   3.101 -0.2639  0.0942 -0.6835
16063TIP3    H169604   2.919   4.244   3.069 -0.3243  0.1376 -0.8057
16063TIP3    H269605   2.829   4.356   3.114 -0.1876 -0.3305  0.6897
16064TIP3   OH269606   4.278   1.727   3.277 -0.6360 -0.2612 -0.8742
16064TIP3    H169607   4.216   1.717   3.205 -0.8481  0.7426 -0.8393
16064TIP3    H269608   4.225   1.721   3.356 -0.5142 -0.5487 -0.8103
16065TIP3   OH269609   0.679   1.037   3.727  0.7396  0.1359  0.9331
16065TIP3    H169610   0.635   0.972   3.783  0.4669  0.4885  1.1298
16065TIP3    H269611   0.632   1.032   3.644  1.1201 -0.3616  0.7452
16066TIP3   OH269612   3.739   3.228   3.995  0.0493  0.0380  0.5069
16066TIP3    H169613   3.797   3.197   3.925 -0.9557 -2.0412  0.5240
16066TIP3    H269614   3.708   3.148   4.037 -0.8834  1.1925  2.1009
16067TIP3   OH269615   3.957   2.772   6.081  0.6613 -0.3926  0.2964
16067TIP3    H169616   4.033   2.785   6.137  1.0868 -1.0268 -0.1293
16067TIP3    H269617   3.962   2.681   6.054 -1.3148 -1.0489  1.8380
16068TIP3   OH269618   1.649   2.075  10.433  0.2094 -0.0396 -0.0995
16068TIP3    H169619   1.636   2.167  10.411  0.6083  0.2164  0.7184
16068TIP3    H269620   1.731   2.073  10.481  0.5440 -0.9216 -0.6757
16069TIP3   OH269621   5.315   5.640   5.763 -0.1399  0.2811 -0.4513
16069TIP3    H169622   5.284   5.553   5.739  0.2017  0.3511 -1.1754
16069TIP3    H269623   5.409   5.639   5.742 -0.1146  0.7930 -0.3772
16070TIP3   OH269624   1.384   4.802  12.980  0.4827 -0.4482 -0.3685
16070TIP3    H169625   1.467   4.792  13.026  1.0370 -0.9176 -1.4497
16070TIP3    H269626   1.384   4.892  12.949 -0.4370  0.2684  1.5281
16071TIP3   OH269627   4.312   3.863   6.532  0.4736 -0.4149  0.4319
16071TIP3    H169628   4.326   3.782   6.484  0.2489  0.3613 -1.0171
16071TIP3    H269629   4.335   3.932   6.469 -2.6167  0.7349  0.3943
16072TIP3   OH269630   5.189   3.705   1.404 -0.3903 -0.1167 -0.1519
16072TIP3    H169631   5.143   3.665   1.478 -0.8769 -1.7759 -1.2862
16072TIP3    H269632   5.258   3.641   1.382  0.4798  0.8902 -0.4189
16073TIP3   OH269633   4.707   4.453  11.336 -0.1588  0.5953  0.0160
16073TIP3    H169634   4.751   4.425  11.416 -0.2650  0.4003  0.0074
16073TIP3    H269635   4.701   4.549  11.344 -0.5339  0.5437  0.4308
16074TIP3   OH269636   1.419   2.837   5.153 -0.4795 -0.1016  0.1060
16074TIP3    H169637   1.376   2.895   5.216  0.9013  0.5343  0.5045
16074TIP3    H269638   1.423   2.752   5.197  0.7550  0.4072  1.0750
16075TIP3   OH269639   2.618   0.753  12.001 -0.3066 -0.0082 -1.2056
16075TIP3    H169640   2.707   0.756  11.967 -0.2949  1.9601 -1.0810
16075TIP3    H269641   2.563   0.746  11.923 -0.0582 -2.5712 -1.2368
16076TIP3   OH269642   1.028   1.304   2.739  0.6490 -0.3541 -0.2580
16076TIP3    H169643   1.071   1.233   2.691 -0.9235 -1.6380  0.1515
16076TIP3    H269644   1.043   1.283   2.831 -0.1127 -0.3423 -0.1308
16077TIP3   OH269645   5.246   2.983  11.750 -0.3510  0.3509 -0.1539
16077TIP3    H169646   5.221   2.896  11.717  1.3010  0.4175 -1.7909
16077TIP3    H269647   5.339   2.991  11.726 -0.3060  2.3187  0.5319
16078TIP3   OH269648   3.906   6.032  11.556  0.1757  0.5706 -0.1318
16078TIP3    H169649   3.978   5.973  11.533 -0.2094 -0.0450  0.2202
16078TIP3    H269650   3.920   6.109  11.501  0.4819  0.0055 -0.8598
16079TIP3   OH269651   0.376   1.391  13.927 -0.0215  0.0837 -0.1596
16079TIP3    H169652   0.456   1.366  13.973  0.5191 -0.2914 -1.2508
16079TIP3    H269653   0.391   1.481  13.899  0.4418 -0.2842 -1.1719
16080TIP3   OH269654   1.723   0.040   4.865 -0.2201  0.2469  0.2952
16080TIP3    H169655   1.660   0.096   4.909 -1.1684 -0.4658 -0.1176
16080TIP3    H269656   1.692  -0.049   4.882 -1.9281 -0.0766 -3.5125
16081TIP3   OH269657   6.626   0.177   1.300 -0.2078  0.1473 -0.4145
16081TIP3    H169658   6.582   0.093   1.287  0.3472 -0.2067 -0.0130
16081TIP3    H269659   6.718   0.160   1.278 -0.1346  0.7136 -0.5704
16082TIP3   OH269660   1.502   6.206  11.222 -0.2651 -0.2449  0.0853
16082TIP3    H169661   1.435   6.153  11.180 -0.1999 -0.2609  0.0009
16082TIP3    H269662   1.473   6.296  11.208 -0.5660 -0.2651  0.5449
16083TIP3   OH269663   1.345   2.785  11.384  0.2388  0.7179  0.0036
16083TIP3    H169664   1.288   2.715  11.352  2.3826 -0.7507 -0.8923
16083TIP3    H269665   1.333   2.785  11.479  0.9724 -1.6840  0.1631
16084TIP3   OH269666   4.371   2.410   2.553 -0.3019 -0.0673 -0.1147
16084TIP3    H169667   4.392   2.316   2.558  1.7053  0.1531 -2.5902
16084TIP3    H269668   4.454   2.454   2.573 -0.9972  1.1814  0.1004
16085TIP3   OH269669   1.101   1.716   4.724  0.5085 -0.3445  0.0057
16085TIP3    H169670   1.036   1.777   4.758 -0.7206 -2.3584  1.5265
16085TIP3    H269671   1.178   1.730   4.779 -0.1207 -0.8110  1.0471
16086TIP3   OH269672   5.898   5.003   0.951 -0.2359  0.0662 -0.1764
16086TIP3    H169673   5.968   4.962   0.899 -0.3229 -1.6181  0.9493
16086TIP3    H269674   5.945   5.056   1.016 -0.0210 -0.4587  0.1017
16087TIP3   OH269675   1.004   4.609   6.026  0.3789 -0.5458  0.1798
16087TIP3    H169676   1.065   4.635   5.958  0.5682 -1.0143  0.1668
16087TIP3    H269677   1.059   4.577   6.097  0.3509  2.4800  1.7182
16088TIP3   OH269678   3.950   0.714  10.861 -0.8364 -0.2730 -0.4952
16088TIP3    H169679   4.023   0.658  10.837 -1.8687 -1.7751 -0.2805
16088TIP3    H269680   3.971   0.799  10.824  0.8032 -0.7863 -0.7903
16089TIP3   OH269681   3.220   0.069  12.123 -0.4971 -0.4059  0.2440
16089TIP3    H169682   3.287   0.119  12.078 -1.8815  1.3371  0.0060
16089TIP3    H269683   3.137   0.108  12.095 -1.6475 -2.5422  0.4244
16090TIP3   OH269684   3.334   4.180  15.511  0.2538 -0.1150  0.6564
16090TIP3    H169685   3.317   4.167  15.418  0.1728  2.8426  0.1697
16090TIP3    H269686   3.299   4.101  15.553  0.8660 -1.8159 -1.8205
16091TIP3   OH269687   5.799   2.896   4.111 -0.3828 -0.1995 -0.0051
16091TIP3    H169688   5.750   2.821   4.077 -0.0179 -2.6310  4.2169
16091TIP3    H269689   5.883   2.859   4.138  0.0669  1.8529  1.6256
16092TIP3   OH269690   3.340   1.766  15.214 -0.1394  0.1420 -0.3031
16092TIP3    H169691   3.415   1.709  15.202 -0.5575  0.0239 -3.0962
16092TIP3    H269692   3.277   1.736  15.148 -1.8859  1.4418  0.6930
16093TIP3   OH269693   1.388   3.312   4.922 -0.5533  0.0571 -0.2514
16093TIP3    H169694   1.465   3.267   4.886 -0.3117 -1.2025  1.6916
16093TIP3    H269695   1.422   3.396   4.954  0.3722 -1.0231  1.7967
16094TIP3   OH269696   1.619   0.240   0.263 -0.0452  0.0169  0.3463
16094TIP3    H169697   1.569   0.211   0.186 -0.6042  2.8478 -0.4640
16094TIP3    H269698   1.710   0.226   0.238 -0.1501  1.9546 -1.4127
16095TIP3   OH269699   4.825   3.029  16.549  0.3605 -0.1163  0.5983
16095TIP3    H169700   4.819   2.969  16.474  1.4514 -1.1645  1.3199
16095TIP3    H269701   4.776   3.106  16.521  0.2682 -0.7037 -0.9841
16096TIP3   OH269702   3.956   5.042   0.432  0.4770 -0.2580 -0.0884
16096TIP3    H169703   3.930   5.123   0.475 -1.0379 -0.4093 -0.6618
16096TIP3    H269704   3.914   5.046   0.346 -0.5013 -2.0897  0.2423
16097TIP3   OH269705   4.945   4.953   5.435 -0.3381  0.3804  0.0613
16097TIP3    H169706   4.856   4.922   5.454 -0.6682  0.4974 -1.2171
16097TIP3    H269707   4.976   4.988   5.519 -0.0475 -3.0239  1.5617
16098TIP3   OH269708   1.149   0.582   6.394  0.5896  0.7393  0.4746
16098TIP3    H169709   1.137   0.510   6.332 -2.2639  1.5200 -0.0199
16098TIP3    H269710   1.207   0.547   6.461 -0.7967 -2.0763  0.3175
16099TIP3   OH269711   0.285   2.724  12.817  0.9376  0.3032  0.3393
16099TIP3    H169712   0.377   2.736  12.795  0.8732  0.7224  0.2922
16099TIP3    H269713   0.283   2.644  12.871  0.9253 -1.5881 -2.2746
16100TIP3   OH269714   6.736   4.647  12.419  0.5186 -0.8366  0.1052
16100TIP3    H169715   6.740   4.565  12.469  1.0499 -0.2068  1.1308
16100TIP3    H269716   6.669   4.699  12.462 -0.5571 -1.1108 -1.1778
16101TIP3   OH269717   6.534   1.290  11.580  0.2908 -0.0608  0.3217
16101TIP3    H169718   6.603   1.239  11.538  0.0997 -1.0047  1.1400
16101TIP3    H269719   6.489   1.333  11.507  1.5930  0.4055 -0.2366
16102TIP3   OH269720   0.972   3.664   2.392 -0.2279 -0.3332  0.0263
16102TIP3    H169721   0.900   3.632   2.448 -2.8361  0.7634 -2.4405
16102TIP3    H269722   0.928   3.707   2.319  2.9750 -1.2427 -2.6802
16103TIP3   OH269723   5.454   3.120  17.172  0.1635  0.1614  0.8547
16103TIP3    H169724   5.506   3.046  17.204 -1.0827 -0.8926  0.5197
16103TIP3    H269725   5.363   3.089  17.175 -0.1541  0.3851 -2.5632
16104TIP3   OH269726   6.476   4.228  14.047  0.3665  0.0409 -0.4172
16104TIP3    H169727   6.385   4.206  14.067  0.4484 -0.3804 -0.4956
16104TIP3    H269728   6.490   4.312  14.088  0.5096 -0.7606  1.2410
16105TIP3   OH269729   2.028   6.293  15.832 -0.0445  0.0907  0.2812
16105TIP3    H169730   2.016   6.198  15.838 -1.4082  0.1580 -0.8675
16105TIP3    H269731   1.942   6.327  15.809  1.0107  1.3193 -2.1963
16106TIP3   OH269732   0.300   4.850  10.602  0.4409  0.1269  0.8216
16106TIP3    H169733   0.334   4.821  10.686 -0.1176 -0.8888  0.7158
16106TIP3    H269734   0.375   4.844  10.542  0.7267  0.4240  1.1469
16107TIP3   OH269735   6.731   4.721  13.521  0.9243 -0.3026  0.6331
16107TIP3    H169736   6.819   4.754  13.540  0.9476 -0.1618  0.2923
16107TIP3    H269737   6.736   4.689  13.431  0.5402  0.0127  0.4952
16108TIP3   OH269738   1.777   6.150  15.697  0.0311  0.7645  0.2352
16108TIP3    H169739   1.770   6.240  15.730 -0.6784  0.5111  0.7941
16108TIP3    H269740   1.740   6.096  15.767 -0.8044  0.1515 -0.6654
16109TIP3   OH269741   3.634   5.953  15.724  0.7763 -0.4252 -0.0593
16109TIP3    H169742   3.550   5.985  15.756  0.9114  0.1543 -0.2692
16109TIP3    H269743   3.674   6.029  15.681  1.3135 -0.7492 -0.1448
16110TIP3   OH269744   5.426   6.340  16.895 -0.4278 -0.2061  0.6604
16110TIP3    H169745   5.514   6.338  16.931 -0.4049  0.9693  0.7370
16110TIP3    H269746   5.418   6.260  16.844  1.2456  0.3819 -0.6301
16111TIP3   OH269747   2.667   0.204  15.344  0.5865  0.6336 -0.3140
16111TIP3    H169748   2.647   0.265  15.415 -1.6336  0.1840 -0.4825
16111TIP3    H269749   2.688   0.122  15.388  0.8231  0.7791 -0.1512
16112TIP3   OH269750   6.142   0.779  13.166  0.1742  0.7269 -0.4873
16112TIP3    H169751   6.149   0.685  13.183  1.5518  0.7349 -0.9100
16112TIP3    H269752   6.048   0.797  13.171 -0.1028 -0.6475 -0.2864
16113TIP3   OH269753   0.406   4.504   4.051 -0.0553  0.2749  0.0999
16113TIP3    H169754   0.350   4.463   4.118  1.2543  0.5439  1.4098
16113TIP3    H269755   0.346   4.560   4.001 -0.9929  0.5079  1.4165
16114TIP3   OH269756   3.719   2.669   0.322 -0.0208 -0.0031 -0.5745
16114TIP3    H169757   3.633   2.634   0.342 -0.3939 -0.7773 -3.2021
16114TIP3    H269758   3.703   2.739   0.259  1.2193  0.3959 -0.4816
16115TIP3   OH269759   1.507   2.856   5.793  0.2656  0.0810 -0.0166
16115TIP3    H169760   1.472   2.844   5.704  0.3196 -0.6889  0.0574
16115TIP3    H269761   1.586   2.801   5.795  1.0072  1.1264  0.0909
16116TIP3   OH269762   6.373   4.246  14.895  0.5003 -0.4565  0.0382
16116TIP3    H169763   6.310   4.308  14.931  0.9106  0.4442 -0.7664
16116TIP3    H269764   6.451   4.257  14.950  0.0747 -1.3595  0.8464
16117TIP3   OH269765   6.389   1.789  16.419  1.2323  0.4885  0.1591
16117TIP3    H169766   6.310   1.736  16.410 -1.4674  4.4161 -3.0201
16117TIP3    H269767   6.391   1.815  16.511 -1.3525  0.4094  0.3068
16118TIP3   OH269768   0.813   2.923   2.844 -0.0672 -0.8239  0.8947
16118TIP3    H169769   0.776   2.897   2.760 -0.5417 -0.0317  0.8435
16118TIP3    H269770   0.736   2.938   2.900 -0.0482  3.2896  0.0797
16119TIP3   OH269771   4.894   3.894  16.389  0.1908 -0.3163  0.5860
16119TIP3    H169772   4.949   3.971  16.388 -1.4375  0.9559  2.2358
16119TIP3    H269773   4.843   3.901  16.470 -1.5557 -1.9972 -0.2677
16120TIP3   OH269774   1.270   2.156  13.627 -0.1482 -0.1443 -0.2634
16120TIP3    H169775   1.348   2.116  13.587  0.2243  0.1995  0.1003
16120TIP3    H269776   1.304   2.234  13.671 -0.7082  0.0169 -0.1151
16121TIP3   OH269777   1.949   2.471   5.912 -0.2020  0.0825  0.0267
16121TIP3    H169778   1.940   2.385   5.871 -2.3359 -0.5597  1.6376
16121TIP3    H269779   2.044   2.485   5.918  0.2030 -2.0230 -0.5606
16122TIP3   OH269780   0.168   2.770  16.674  0.0379 -0.4638  0.0937
16122TIP3    H169781   0.200   2.684  16.701  0.1166 -0.9236 -1.3656
16122TIP3    H269782   0.243   2.828  16.686  0.6006 -0.9944 -0.7249
16123TIP3   OH269783   0.603   2.221   5.479 -0.3005 -0.5053 -0.1562
16123TIP3    H169784   0.682   2.275   5.474  0.5083 -1.6848 -0.3104
16123TIP3    H269785   0.615   2.169   5.559 -2.1714  1.1786  1.3500
16124TIP3   OH269786   5.147   2.171  15.335 -0.1195  0.0617  0.4102
16124TIP3    H169787   5.225   2.169  15.391 -0.0140 -2.9436  0.3316
16124TIP3    H269788   5.182   2.175  15.246 -0.1037  0.2328  0.4249
16125TIP3   OH269789   4.724   1.338   2.571 -0.1232  0.7035  0.9640
16125TIP3    H169790   4.711   1.265   2.511  0.6561 -0.4963  2.2023
16125TIP3    H269791   4.814   1.367   2.554 -0.7554  2.0887 -0.2367
16126TIP3   OH269792   5.310   3.910   1.493  0.1566  0.2526  0.1689
16126TIP3    H169793   5.343   3.981   1.437 -0.9627  0.6150 -0.0576
16126TIP3    H269794   5.294   3.838   1.432  0.5437  0.0694  0.2819
16127TIP3   OH269795   6.035   0.980   3.778 -0.1916  0.2535 -0.5002
16127TIP3    H169796   6.041   0.910   3.843  0.9922  1.6022  0.9237
16127TIP3    H269797   6.010   0.935   3.697 -2.1787 -1.4469  0.9334
16128TIP3   OH269798   2.114   4.313  13.951 -0.4481  0.4078  0.3583
16128TIP3    H169799   2.210   4.322  13.949 -0.6005  2.6520 -0.2427
16128TIP3    H269800   2.098   4.220  13.938  1.6755 -0.3624  2.4539
16129TIP3   OH269801   4.893   1.733  14.138  0.0697 -0.5326  1.1090
16129TIP3    H169802   4.892   1.796  14.066 -1.3104 -0.1333  1.4371
16129TIP3    H269803   4.960   1.669  14.113 -1.6931 -1.5486 -1.5496
16130TIP3   OH269804   4.555   1.543  13.012 -0.0261  0.6610  0.0051
16130TIP3    H169805   4.559   1.560  13.106  1.6407  0.7146 -0.0458
16130TIP3    H269806   4.578   1.627  12.972 -1.4780  0.8422 -0.4752
16131TIP3   OH269807   0.246   1.957  15.440 -0.0340  0.4832 -0.6565
16131TIP3    H169808   0.158   1.964  15.404 -0.1993 -0.9555 -0.5764
16131TIP3    H269809   0.304   1.985  15.369 -0.3588 -2.2151 -2.0717
16132TIP3   OH269810   5.929   6.183   5.321 -0.2792  0.0708 -0.1296
16132TIP3    H169811   5.904   6.175   5.229  1.0286  1.3678 -0.6399
16132TIP3    H269812   5.945   6.277   5.333  1.7394 -0.3330  0.8037
16133TIP3   OH269813   2.822   3.334   2.029 -0.2297  0.3316  0.8181
16133TIP3    H169814   2.910   3.299   2.017 -0.6773 -0.5289 -0.1925
16133TIP3    H269815   2.769   3.288   1.963 -1.0776  2.1200  0.1873
16134TIP3   OH269816   2.008   3.460   4.729 -0.3165 -0.4771  0.0142
16134TIP3    H169817   2.058   3.486   4.807 -0.7756  0.3560  0.0482
16134TIP3    H269818   1.934   3.521   4.727 -0.6177 -0.8546 -0.7623
16135TIP3   OH269819   0.856   5.200   3.662 -0.4603  0.0166 -0.2567
16135TIP3    H169820   0.876   5.293   3.668  0.4369 -0.1220 -0.9190
16135TIP3    H269821   0.913   5.167   3.592 -2.3273 -0.6072 -1.5594
16136TIP3   OH269822   6.742   3.937  16.012  0.0942  0.0995 -0.6343
16136TIP3    H169823   6.782   3.852  16.029  1.0326  0.3425 -1.5376
16136TIP3    H269824   6.713   3.967  16.098  0.8847 -0.5837 -0.1088
16137TIP3   OH269825   5.455   0.153   0.798 -0.5335 -0.0536  0.8638
16137TIP3    H169826   5.459   0.057   0.793  2.8230 -0.0896  1.7327
16137TIP3    H269827   5.510   0.183   0.726 -0.4455  1.1601  1.4168
16138TIP3   OH269828   1.921   0.605  17.069 -0.3337  0.3542  0.0618
16138TIP3    H169829   1.991   0.549  17.104 -0.9398  0.1395  0.9682
16138TIP3    H269830   1.860   0.543  17.028  0.8240  0.6632 -2.2972
16139TIP3   OH269831   4.152   6.195  14.622 -0.3389 -0.4416 -0.0611
16139TIP3    H169832   4.160   6.283  14.657  0.7852 -0.2176 -0.8257
16139TIP3    H269833   4.092   6.204  14.547 -0.4308 -0.3770  0.0197
16140TIP3   OH269834   1.170   2.153  17.203 -0.2363 -0.0503  0.2466
16140TIP3    H169835   1.193   2.132  17.294 -2.5470 -0.0051  0.8863
16140TIP3    H269836   1.179   2.248  17.198 -0.0621 -0.0567  0.3920
16141TIP3   OH269837   2.361   5.990   0.839  0.2418  0.3541  0.0137
16141TIP3    H169838   2.389   5.900   0.822  0.9175  0.2673  1.4394
16141TIP3    H269839   2.433   6.044   0.804  1.9327  0.1576  2.8928
16142TIP3   OH269840   2.160   0.193  15.401 -0.0012 -0.7411  0.0744
16142TIP3    H169841   2.209   0.142  15.337 -0.0897 -1.1862  0.3572
16142TIP3    H269842   2.084   0.226  15.352  0.5438 -0.0928 -0.3499
16143TIP3   OH269843   0.728   2.269   4.831 -0.3054 -0.6187 -0.1171
16143TIP3    H169844   0.697   2.186   4.867 -2.4556  0.3327  0.3337
16143TIP3    H269845   0.685   2.276   4.746  0.1500 -0.1107 -0.3146
16144TIP3   OH269846   3.836   6.530   1.162 -0.2562 -0.8209  0.0950
16144TIP3    H169847   3.921   6.505   1.198  0.5206  2.3701  0.7764
16144TIP3    H269848   3.844   6.624   1.144 -3.0995 -0.7523 -1.4427
16145TIP3   OH269849   3.119   2.117   3.558 -0.2009  0.0646 -0.1056
16145TIP3    H169850   3.140   2.205   3.527  0.3386  0.2456  0.7466
16145TIP3    H269851   3.030   2.101   3.526  0.8776 -0.4365 -3.2152
16146TIP3   OH269852   5.957   2.623  15.558  0.1350 -0.1027 -0.0974
16146TIP3    H169853   5.912   2.672  15.489 -0.9552 -1.4385 -0.3854
16146TIP3    H269854   6.048   2.653  15.554  0.0492 -0.0130 -1.9887
16147TIP3   OH269855   2.510   2.636  16.020 -0.4231 -0.3491 -0.3159
16147TIP3    H169856   2.458   2.703  15.977 -0.3654  2.1459  3.1084
16147TIP3    H269857   2.600   2.669  16.017  0.8261 -3.3904 -3.9147
16148TIP3   OH269858   2.995   6.150   2.775  0.1853  0.3970  0.5094
16148TIP3    H169859   2.918   6.140   2.831 -0.3849  0.9441 -0.1814
16148TIP3    H269860   3.049   6.214   2.821 -0.0311  0.4485  0.6970
16149TIP3   OH269861   0.485   6.711   3.654 -0.3136 -0.2091  0.0330
16149TIP3    H169862   0.554   6.675   3.709 -0.2951 -0.5019 -0.1802
16149TIP3    H269863   0.477   6.802   3.682  0.9029  0.1336 -0.6733
16150TIP3   OH269864   1.990   5.807   1.301 -0.2117  0.4181 -0.4935
16150TIP3    H169865   1.970   5.739   1.236 -0.5857  0.7516 -0.7383
16150TIP3    H269866   2.059   5.770   1.355 -1.1650 -0.5971  0.0690
16151TIP3   OH269867   6.327   5.355  11.933 -0.2662  0.1432 -0.0539
16151TIP3    H169868   6.327   5.296  11.858 -1.0533 -0.3688  0.3345
16151TIP3    H269869   6.405   5.331  11.983  0.3070  0.5480 -0.7466
16152TIP3   OH269870   6.393   6.296   1.395 -0.2365 -0.0947  0.7102
16152TIP3    H169871   6.409   6.208   1.361 -2.1481  0.1013 -0.8701
16152TIP3    H269872   6.310   6.288   1.442 -0.3249  0.8234  0.7141
16153TIP3   OH269873   1.250   6.098   0.865 -0.0949 -0.0421 -0.0314
16153TIP3    H169874   1.237   6.003   0.874  0.6006 -0.1665 -0.2797
16153TIP3    H269875   1.228   6.133   0.951  3.7790 -0.9142  1.4926
16154TIP3   OH269876   4.987   2.209   3.275  0.7569 -0.4436 -0.6296
16154TIP3    H169877   4.923   2.274   3.246  1.6735  1.1277  0.6917
16154TIP3    H269878   5.060   2.261   3.309  2.0225 -2.1861 -0.5672
16155TIP3   OH269879   6.311   5.833   4.501  0.6388  0.0703  0.2739
16155TIP3    H169880   6.335   5.786   4.421  1.9010  0.4408  0.4096
16155TIP3    H269881   6.342   5.778   4.572  0.8563  0.4272  0.4633
16156TIP3   OH269882   1.506   3.413  13.725 -0.0786  0.4921  0.3432
16156TIP3    H169883   1.505   3.336  13.668 -1.5207  0.6281  0.1685
16156TIP3    H269884   1.572   3.471  13.686  1.6724 -0.9693  0.9614
16157TIP3   OH269885   4.226   0.778  11.081 -0.2495  0.2727  0.0400
16157TIP3    H169886   4.257   0.754  11.168 -1.5564  0.2902  0.5350
16157TIP3    H269887   4.137   0.810  11.096 -1.1205 -1.2814 -1.5114
16158TIP3   OH269888   0.465   2.800  15.862 -0.0761  0.0648 -0.3651
16158TIP3    H169889   0.474   2.886  15.903 -1.3402  0.6561 -1.2392
16158TIP3    H269890   0.389   2.810  15.804  1.1096 -0.9553 -2.1819
16159TIP3   OH269891   2.784   2.178   2.509 -0.4808  0.3287 -0.4989
16159TIP3    H169892   2.846   2.178   2.582 -0.5041  1.6769 -0.4469
16159TIP3    H269893   2.830   2.134   2.438 -1.2420 -3.0265  0.8892
16160TIP3   OH269894   0.397   2.847  11.783 -0.9738 -0.5992  0.1099
16160TIP3    H169895   0.302   2.862  11.790 -0.9753 -0.9047  0.9157
16160TIP3    H269896   0.427   2.912  11.720 -1.8506 -1.0559 -0.8165
16161TIP3   OH269897   2.081   3.200  15.526  0.5089  0.5669 -0.1580
16161TIP3    H169898   2.071   3.287  15.564  0.8279  0.6171 -0.1857
16161TIP3    H269899   2.166   3.203  15.482  0.5849  0.1968 -0.0356
16162TIP3   OH269900   5.544   0.401  14.594  0.0409  0.0630  0.2613
16162TIP3    H169901   5.525   0.412  14.687  1.5960  1.9962  0.4314
16162TIP3    H269902   5.606   0.471  14.574  1.4590 -1.6307 -1.7325
16163TIP3   OH269903   0.933   6.777   3.588  0.3324 -0.2736  0.6024
16163TIP3    H169904   0.890   6.856   3.623 -0.5892 -0.2115 -0.6055
16163TIP3    H269905   0.907   6.775   3.496  0.5046 -1.8886  0.5669
16164TIP3   OH269906   1.373   1.150   2.438  0.5020  0.3047  0.5908
16164TIP3    H169907   1.392   1.241   2.419 -1.1524  0.8667  1.4497
16164TIP3    H269908   1.438   1.101   2.387  1.2409  1.9311 -0.1030
16165TIP3   OH269909   5.985   1.527   2.908  0.2950  0.3752  0.1892
16165TIP3    H169910   6.079   1.528   2.890 -0.0206 -0.0212 -1.6208
16165TIP3    H269911   5.944   1.556   2.827 -1.1664  0.3282  0.8787
16166TIP3   OH269912   3.432   2.559   4.458  0.0254  0.2889  0.1304
16166TIP3    H169913   3.415   2.484   4.514  1.4763 -0.1609  0.0109
16166TIP3    H269914   3.413   2.635   4.513 -2.1304 -0.1062  0.0437
16167TIP3   OH269915   4.529   3.666   3.664 -0.0989  0.4017  0.1860
16167TIP3    H169916   4.518   3.658   3.759  0.5050 -1.5808  0.1409
16167TIP3    H269917   4.545   3.576   3.634  0.0062  1.0183 -1.7646
16168TIP3   OH269918   6.616   6.166  15.511 -0.1478  0.2513  0.6206
16168TIP3    H169919   6.525   6.139  15.525  0.1019 -0.2685  1.3047
16168TIP3    H269920   6.651   6.100  15.450  0.0592 -0.1616  1.1772
16169TIP3   OH269921   2.021   1.823   2.721 -0.0490 -0.7094 -0.0502
16169TIP3    H169922   1.944   1.793   2.768  0.3707 -2.9795 -0.7070
16169TIP3    H269923   1.988   1.849   2.635 -0.3123  0.0304  0.2679
16170TIP3   OH269924   4.244   4.188  15.510 -0.0142 -0.5665  0.3521
16170TIP3    H169925   4.279   4.133  15.440  0.0668 -2.1398  1.5771
16170TIP3    H269926   4.318   4.243  15.536  0.1171 -0.3752 -0.3795
16171TIP3   OH269927   0.183   4.978  13.956  0.0917 -0.4345 -0.3581
16171TIP3    H169928   0.186   4.883  13.967  1.4348 -0.5146 -1.2008
16171TIP3    H269929   0.232   4.995  13.876  0.0200  0.9883 -0.1372
16172TIP3   OH269930   4.877   4.785   6.126 -0.0197  0.4688  0.4337
16172TIP3    H169931   4.832   4.842   6.189 -0.1822  0.1264  0.6285
16172TIP3    H269932   4.837   4.699   6.138  1.4971 -0.1370  1.4411
16173TIP3   OH269933   1.412   1.225  11.872 -0.3400 -0.2922 -0.3220
16173TIP3    H169934   1.454   1.264  11.948 -1.8960  2.5215 -0.7755
16173TIP3    H269935   1.437   1.282  11.799 -0.8622 -1.4893 -1.4849
16174TIP3   OH269936   6.131   3.042  12.213 -0.0506  0.1317 -0.4280
16174TIP3    H169937   6.215   2.998  12.201 -0.7101 -1.1472 -0.4375
16174TIP3    H269938   6.149   3.110  12.278  0.8106 -0.6785  0.2047
16175TIP3   OH269939   5.237   1.419  15.037  0.0212  0.0249 -0.1374
16175TIP3    H169940   5.189   1.342  15.066  0.0091  0.3268  0.6789
16175TIP3    H269941   5.302   1.386  14.976 -1.6444 -0.3175 -1.8075
16176TIP3   OH269942   3.960   5.417   3.266 -1.0214 -0.0900  0.0094
16176TIP3    H169943   3.927   5.409   3.177  0.9865  0.9460 -0.8797
16176TIP3    H269944   4.024   5.346   3.274  0.0263  0.8294  0.0174
16177TIP3   OH269945   3.664   6.371  11.507  0.1958  0.0272  0.8548
16177TIP3    H169946   3.685   6.437  11.573  0.9651  0.3529  0.2996
16177TIP3    H269947   3.592   6.409  11.457 -0.7724 -0.4583  1.8326
16178TIP3   OH269948   3.351   1.545   2.252  0.8266  0.3192  0.2453
16178TIP3    H169949   3.352   1.598   2.172 -0.2245  0.8721  0.5886
16178TIP3    H269950   3.425   1.485   2.241  0.7928  0.4796 -1.0788
16179TIP3   OH269951   2.869   3.611   2.069  0.2487  0.2454  0.6306
16179TIP3    H169952   2.793   3.637   2.122  0.0758  1.5194 -0.1934
16179TIP3    H269953   2.847   3.524   2.038 -1.5916  1.1366 -0.7900
16180TIP3   OH269954   0.855   4.593  11.346 -0.2946 -0.0164  0.4826
16180TIP3    H169955   0.904   4.675  11.340  0.3878 -0.4533 -0.1163
16180TIP3    H269956   0.820   4.579  11.259 -0.3775 -0.3766  0.5697
16181TIP3   OH269957   5.102   5.158   4.176 -0.3169 -0.5380  0.0784
16181TIP3    H169958   5.116   5.191   4.087  0.0149  0.3897  0.4532
16181TIP3    H269959   5.180   5.105   4.194  0.3568  0.5039  0.3413
16182TIP3   OH269960   3.011   4.603   2.511  0.0433 -0.1367  0.4459
16182TIP3    H169961   3.016   4.596   2.606 -0.9056  0.1836  0.5347
16182TIP3    H269962   3.081   4.547   2.478 -0.1544 -0.9047  1.3137
16183TIP3   OH269963   0.987   5.266   4.384 -0.0464 -0.6566  0.5127
16183TIP3    H169964   0.914   5.218   4.422 -1.6694  2.9101  2.3572
16183TIP3    H269965   0.946   5.337   4.334  2.1086  0.8663  0.7685
16184TIP3   OH269966   5.532   0.308   2.578  0.2091 -0.4811  0.5682
16184TIP3    H169967   5.595   0.379   2.574 -0.7950  0.3938 -2.8925
16184TIP3    H269968   5.448   0.352   2.594 -0.3086 -0.9206 -0.8288
16185TIP3   OH269969   1.178   3.409  13.219  0.0042 -0.2280  0.0830
16185TIP3    H169970   1.248   3.345  13.209  2.0957  2.0472 -0.9735
16185TIP3    H269971   1.158   3.437  13.129  0.1315  1.5661  0.5811
16186TIP3   OH269972   3.088   4.531  15.671  0.0195  0.3030  0.4936
16186TIP3    H169973   3.165   4.503  15.622  1.3816  0.9114  2.1918
16186TIP3    H269974   3.118   4.604  15.724 -2.2362  1.8642 -0.2035
16187TIP3   OH269975   5.132   5.470   4.177 -0.4490  0.0823  0.2598
16187TIP3    H169976   5.221   5.496   4.201 -1.3150  3.0571  0.7025
16187TIP3    H269977   5.111   5.397   4.235  0.7323  1.1653  2.1236
16188TIP3   OH269978   3.402   5.434  14.087  0.0440 -0.6230 -0.6426
16188TIP3    H169979   3.458   5.401  14.157  0.0044 -1.2701 -0.9049
16188TIP3    H269980   3.316   5.394  14.105 -0.3911  0.5185 -0.1264
16189TIP3   OH269981   5.096   4.360  15.650 -0.0365 -0.1253  0.3596
16189TIP3    H169982   5.066   4.427  15.712 -1.0871 -1.0200  0.8383
16189TIP3    H269983   5.128   4.289  15.705  0.4746 -0.2898 -0.1423
16190TIP3   OH269984   4.890   2.173   5.010  0.2348  0.4443 -0.4268
16190TIP3    H169985   4.796   2.163   5.025  0.2274  2.1034  0.8780
16190TIP3    H269986   4.901   2.265   4.985  1.6101  0.5491  0.4449
16191TIP3   OH269987   2.417   5.288   3.632  0.8475 -0.0632  0.6532
16191TIP3    H169988   2.367   5.349   3.579  0.3828 -0.7215  0.3223
16191TIP3    H269989   2.497   5.335   3.654  3.0838 -1.0369 -4.0737
16192TIP3   OH269990   3.992   2.622  15.472 -0.0252  0.3613 -0.1193
16192TIP3    H169991   3.997   2.653  15.381 -0.9217 -0.5913 -0.5115
16192TIP3    H269992   3.899   2.625  15.493  0.2154  1.0399  0.9597
16193TIP3   OH269993   1.380   6.456  11.210  0.0779  0.5412  0.2563
16193TIP3    H169994   1.370   6.525  11.144  1.0347  0.4425 -0.0104
16193TIP3    H269995   1.367   6.501  11.294  3.0738  1.6479  0.2579
16194TIP3   OH269996   2.248   1.164   5.947  0.7196 -0.1103  0.3918
16194TIP3    H169997   2.234   1.073   5.922  1.6246 -0.0635 -0.3537
16194TIP3    H269998   2.342   1.170   5.965  0.7992  0.8203 -0.2412
16195TIP3   OH269999   6.337   4.361  11.274 -0.5608  0.2147 -0.1466
16195TIP3    H170000   6.304   4.295  11.335  1.5683 -0.4803  0.3428
16195TIP3    H270001   6.414   4.321  11.234 -0.0045  1.8826 -0.8544
16196TIP3   OH270002   6.337   4.659   1.111  0.2739  0.2928 -0.1888
16196TIP3    H170003   6.290   4.578   1.131  2.8170 -1.5492 -1.1326
16196TIP3    H270004   6.338   4.662   1.015  1.6688  0.4849 -0.1800
16197TIP3   OH270005   1.613   4.453  12.848  0.3875  0.3931 -0.4170
16197TIP3    H170006   1.642   4.540  12.877  2.1569 -0.0716 -0.6749
16197TIP3    H270007   1.694   4.406  12.827 -0.5142 -1.3576 -0.2010
16198TIP3   OH270008   3.169   4.786  12.115 -0.6021 -0.3821  0.6333
16198TIP3    H170009   3.175   4.727  12.190 -1.5811 -0.2785  0.8157
16198TIP3    H270010   3.088   4.760  12.071 -0.1370 -0.3183 -0.2837
16199TIP3   OH270011   2.126   2.143  13.654 -0.0091  0.3622  0.6030
16199TIP3    H170012   2.192   2.084  13.616  0.5730  2.0498 -1.2201
16199TIP3    H270013   2.155   2.156  13.744  0.9184 -0.6445  0.4795
16200TIP3   OH270014   5.096   4.276   1.909 -0.0846 -0.0549  0.2524
16200TIP3    H170015   5.156   4.208   1.879  0.1672  0.8040 -1.2533
16200TIP3    H270016   5.152   4.337   1.957 -0.2354 -0.6482  1.2088
16201TIP3   OH270017   5.846   4.175  13.523  0.1596  0.3978  0.2754
16201TIP3    H170018   5.831   4.084  13.548  1.1337 -0.0095 -0.5239
16201TIP3    H270019   5.939   4.178  13.498 -0.5260  0.8975 -2.5766
16202TIP3   OH270020   0.529   1.764  15.081 -0.0455 -0.0525 -0.0194
16202TIP3    H170021   0.490   1.846  15.109 -0.2161  0.3314 -1.3258
16202TIP3    H270022   0.561   1.781  14.993  0.0064 -1.3594 -0.2743
16203TIP3   OH270023   3.418   6.039  12.220  0.5682 -0.2197  0.4297
16203TIP3    H170024   3.488   6.013  12.160  0.2845 -0.3926  0.1688
16203TIP3    H270025   3.400   5.959  12.271 -2.5584 -1.6922 -2.5656
16204TIP3   OH270026   5.436   5.284   1.086  0.0632  0.0408  0.3305
16204TIP3    H170027   5.368   5.224   1.119  0.3598 -0.0641  0.7666
16204TIP3    H270028   5.395   5.329   1.012 -0.0252 -1.0102 -0.2804
16205TIP3   OH270029   1.517   5.372   5.816  0.3233  0.3058 -0.1271
16205TIP3    H170030   1.609   5.369   5.790  0.4005  1.0879  0.0212
16205TIP3    H270031   1.468   5.376   5.734  0.5018  1.4845 -0.1828
16206TIP3   OH270032   4.064   0.760  12.442 -0.1135  0.0865 -0.0244
16206TIP3    H170033   4.063   0.671  12.476  1.2318  0.1201  0.1692
16206TIP3    H270034   4.019   0.812  12.508 -1.1616 -0.4795 -0.2764
16207TIP3   OH270035   5.344   4.917   6.120  0.1044  0.0763  0.2941
16207TIP3    H170036   5.432   4.946   6.147  0.5958 -0.8073 -0.3053
16207TIP3    H270037   5.357   4.828   6.089 -0.9567  0.0601 -0.1366
16208TIP3   OH270038   4.409   1.059   1.924  0.4155  0.1358 -0.2300
16208TIP3    H170039   4.424   0.965   1.914 -2.1987 -0.3720 -0.0957
16208TIP3    H270040   4.456   1.099   1.851  1.8163 -1.2170 -0.1133
16209TIP3   OH270041   5.875   1.394  13.135 -0.2148 -0.4214 -0.5150
16209TIP3    H170042   5.835   1.310  13.112 -2.2668 -0.4830  2.7359
16209TIP3    H270043   5.802   1.449  13.161  1.4195  0.9666  1.4197
16210TIP3   OH270044   2.448   2.390   0.256 -0.0846 -0.2361 -0.2111
16210TIP3    H170045   2.425   2.332   0.330  0.5623 -0.3856 -0.1207
16210TIP3    H270046   2.441   2.478   0.292 -0.5117 -0.2794 -0.1848
16211TIP3   OH270047   0.050   3.456  16.744 -0.7268 -0.1821  0.6546
16211TIP3    H170048   0.098   3.373  16.740  1.3311  1.0173 -1.4622
16211TIP3    H270049   0.067   3.499  16.661  0.8668  3.7495  2.7381
16212TIP3   OH270050   3.576   6.481   0.757  0.1773  0.1568 -0.3655
16212TIP3    H170051   3.581   6.537   0.835 -1.6515 -1.3951  0.9569
16212TIP3    H270052   3.600   6.394   0.787 -2.3915 -0.8732 -0.9989
16213TIP3   OH270053   5.009   0.007  14.697  0.5828 -0.2053  0.5716
16213TIP3    H170054   5.071  -0.055  14.658 -0.4812 -0.8596 -0.1154
16213TIP3    H270055   5.053   0.092  14.692  0.4001 -0.1923 -2.3153
16214TIP3   OH270056   3.561   0.355  13.872 -0.1229  0.0883 -0.3268
16214TIP3    H170057   3.649   0.372  13.905  0.5056  0.5286 -2.1254
16214TIP3    H270058   3.574   0.315  13.787 -1.6778  0.1935 -0.6508
16215TIP3   OH270059   1.139   4.161   3.437  0.0689 -0.4587  0.2161
16215TIP3    H170060   1.108   4.152   3.527 -0.7820  0.6209  0.0508
16215TIP3    H270061   1.070   4.209   3.392  0.1447 -1.6218 -1.2155
16216TIP3   OH270062   0.710   5.875   0.783  0.0108 -0.3255  0.0166
16216TIP3    H170063   0.743   5.953   0.828 -1.3180  0.7842 -0.8771
16216TIP3    H270064   0.788   5.824   0.763  0.8162  0.2159  1.5932
16217TIP3   OH270065   3.601   1.527  12.226 -0.4412 -0.2352  0.2101
16217TIP3    H170066   3.563   1.463  12.166  0.2723 -0.7303  0.2725
16217TIP3    H270067   3.685   1.550  12.187 -1.2536  1.7273 -0.5273
16218TIP3   OH270068   1.097   2.897  11.650 -0.1379  0.6246 -0.3216
16218TIP3    H170069   1.166   2.831  11.643  2.6216  3.3449 -1.2178
16218TIP3    H270070   1.085   2.928  11.561 -2.0935  0.6995 -0.0628
16219TIP3   OH270071   0.734   2.783   3.096 -0.5669 -0.1326  0.9550
16219TIP3    H170072   0.774   2.718   3.154  0.6245  0.4490  0.8216
16219TIP3    H270073   0.704   2.853   3.155 -0.4414 -0.0989  0.9811
16220TIP3   OH270074   0.303   1.056  11.840 -0.1124 -0.3294 -0.5906
16220TIP3    H170075   0.394   1.085  11.836  0.3152 -1.7390 -3.4947
16220TIP3    H270076   0.265   1.107  11.912  3.1157 -0.2830  1.3020
16221TIP3   OH270077   4.828   6.723  16.022  0.4078  0.4286 -0.0136
16221TIP3    H170078   4.835   6.776  15.943 -0.4444 -0.1240 -0.4741
16221TIP3    H270079   4.816   6.787  16.092 -0.4344  0.8743 -0.5371
16222TIP3   OH270080   1.631   3.387  10.524 -0.0143  0.0155  0.1382
16222TIP3    H170081   1.606   3.348  10.440 -0.9448  0.7874  0.0331
16222TIP3    H270082   1.640   3.312  10.583  2.6332 -0.7284 -1.0751
16223TIP3   OH270083   0.790   1.400  14.573  0.6741  0.8590  0.1652
16223TIP3    H170084   0.757   1.320  14.615 -0.0811  1.5918  1.0052
16223TIP3    H270085   0.823   1.453  14.645 -0.8388  2.2387 -0.1063
16224TIP3   OH270086   4.014   1.292  11.663 -0.4130 -0.4875 -0.8233
16224TIP3    H170087   4.075   1.362  11.686 -2.5501  0.9382  0.9340
16224TIP3    H270088   4.070   1.217  11.642  1.9703  0.2158  2.3199
16225TIP3   OH270089   4.033   2.753   5.533  0.2934 -0.2518  0.1996
16225TIP3    H170090   3.984   2.834   5.538  0.4611 -0.0907 -0.5299
16225TIP3    H270091   4.074   2.756   5.446 -0.3206 -1.4636 -0.1529
16226TIP3   OH270092   5.727   3.051   5.794  0.4059 -0.0026 -0.1118
16226TIP3    H170093   5.654   3.037   5.854  0.9364  0.6308  0.6997
16226TIP3    H270094   5.795   3.092   5.847  0.6229  1.2676 -1.3061
16227TIP3   OH270095   4.277   0.495   1.529 -0.2953  0.3121 -0.2181
16227TIP3    H170096   4.231   0.523   1.608 -0.6119 -0.5973 -0.0760
16227TIP3    H270097   4.302   0.404   1.546  0.4103  0.3839 -0.8151
16228TIP3   OH270098   1.415   1.017  13.601 -0.0282 -0.2386  0.5781
16228TIP3    H170099   1.510   1.012  13.592  0.0497  0.9345  0.5653
16228TIP3    H270100   1.400   1.090  13.661 -0.9101 -0.6635  0.8910
16229TIP3   OH270101   3.167   5.338   6.596 -0.1305  0.0927  0.2537
16229TIP3    H170102   3.145   5.393   6.521 -1.9476 -1.8618 -0.7455
16229TIP3    H270103   3.227   5.391   6.648 -2.2412  3.2643 -0.2820
16230TIP3   OH270104   2.245   3.719   4.344  0.2548  0.5703  0.8043
16230TIP3    H170105   2.190   3.659   4.294 -0.6900  1.8836  0.2009
16230TIP3    H270106   2.217   3.806   4.315  0.2419  1.3607  3.0279
16231TIP3   OH270107   2.536   0.294  10.971  0.1786  0.1913  0.4349
16231TIP3    H170108   2.506   0.290  10.880  0.0843 -1.6340  0.5062
16231TIP3    H270109   2.457   0.310  11.022  0.2074  1.0553  0.2221
16232TIP3   OH270110   6.739   4.225   0.433  0.8097 -0.6545  0.3591
16232TIP3    H170111   6.807   4.158   0.427  0.7280 -1.0077  2.4357
16232TIP3    H270112   6.672   4.186   0.490 -1.1194 -0.2708 -1.5102
16233TIP3   OH270113   0.974   2.188  12.470  0.0787 -0.1231  0.3497
16233TIP3    H170114   0.903   2.143  12.516 -1.6048  1.6076 -0.4036
16233TIP3    H270115   0.938   2.274  12.449  2.7563  1.1741  0.7191
16234TIP3   OH270116   4.823   5.020  12.431  0.3186 -0.0067 -0.2015
16234TIP3    H170117   4.746   5.073  12.411  1.1757  1.8923  1.1704
16234TIP3    H270118   4.850   5.048  12.519  3.0286  0.0834 -0.9457
16235TIP3   OH270119   6.705   6.267  14.687 -0.2733 -0.8661 -0.1408
16235TIP3    H170120   6.614   6.290  14.704 -0.0544 -0.5405  0.6147
16235TIP3    H270121   6.742   6.344  14.644 -0.1682 -0.7339  0.1906
16236TIP3   OH270122   4.995   0.316  15.715  0.3297  0.4261  0.0739
16236TIP3    H170123   4.975   0.341  15.624 -0.3651  1.1813  0.4221
16236TIP3    H270124   4.947   0.235  15.729 -0.1003  0.6586 -0.0344
16237TIP3   OH270125   5.099   3.289  10.572 -0.3401  0.6722  0.0338
16237TIP3    H170126   5.074   3.263  10.483  0.2740  2.0785 -0.5846
16237TIP3    H270127   5.016   3.310  10.615 -0.5977  0.5098 -0.3780
16238TIP3   OH270128   0.495   1.035  15.324  0.8245  0.1529 -0.4662
16238TIP3    H170129   0.475   0.987  15.405 -1.6473 -1.6667 -2.0008
16238TIP3    H270130   0.484   1.127  15.347 -3.7091 -0.3893  0.5367
16239TIP3   OH270131   4.986   6.213  11.910 -0.4013 -0.2876  0.4306
16239TIP3    H170132   5.036   6.294  11.913 -0.9949  0.0669  1.6658
16239TIP3    H270133   5.033   6.157  11.849 -0.5717  1.3680 -1.3029
16240TIP3   OH270134   0.776   1.681  11.630  0.1551 -0.0938  0.2038
16240TIP3    H170135   0.739   1.679  11.718  0.1357 -0.6002  0.1864
16240TIP3    H270136   0.856   1.731  11.638 -2.0038  3.8596 -0.3304
16241TIP3   OH270137   0.960   4.239  12.841 -0.2731  0.5905  0.5828
16241TIP3    H170138   0.874   4.243  12.799  0.0903 -0.3221 -0.2804
16241TIP3    H270139   1.010   4.308  12.799 -0.1435  0.1788  0.0611
16242TIP3   OH270140   6.428   1.476   2.109 -0.4489  0.2890  0.1374
16242TIP3    H170141   6.507   1.440   2.148 -0.5435 -0.8350 -0.6869
16242TIP3    H270142   6.373   1.499   2.185 -0.3032 -1.1244  0.6925
16243TIP3   OH270143   1.412   1.798   4.070 -0.1953 -0.0476 -0.2087
16243TIP3    H170144   1.454   1.715   4.093 -0.0677  0.1237  0.1767
16243TIP3    H270145   1.319   1.777   4.064 -0.3386  0.0924  1.3195
16244TIP3   OH270146   4.081   1.064  12.124 -0.1424 -0.0694 -0.2167
16244TIP3    H170147   4.095   1.155  12.149 -2.1711  0.2878 -0.2255
16244TIP3    H270148   4.102   1.014  12.203 -0.5588  0.5454  0.2933
16245TIP3   OH270149   2.124   2.480   2.060 -0.1835  0.2582  0.0837
16245TIP3    H170150   2.208   2.477   2.013 -0.2502 -1.5368  0.0056
16245TIP3    H270151   2.148   2.485   2.152  0.1138 -2.1205  0.1978
16246TIP3   OH270152   6.406   6.715   3.880 -0.1285 -0.1232 -0.6200
16246TIP3    H170153   6.337   6.649   3.893  0.0961  0.0236  1.8543
16246TIP3    H270154   6.389   6.780   3.947  2.3289 -0.0036 -0.0134
16247TIP3   OH270155   3.776   6.066   2.242  0.0381 -0.4655  0.1608
16247TIP3    H170156   3.705   6.070   2.306  0.8955  0.7615  1.0819
16247TIP3    H270157   3.850   6.030   2.290  1.0783  1.6947  0.2878
16248TIP3   OH270158   0.711   5.893  14.736 -0.1786 -0.2767  0.0241
16248TIP3    H170159   0.710   5.896  14.831 -0.2899  0.5240  0.0066
16248TIP3    H270160   0.622   5.916  14.710 -0.3743 -1.3259 -0.2670
16249TIP3   OH270161   0.853   1.713  16.943 -0.6662 -0.4736 -0.7099
16249TIP3    H170162   0.871   1.619  16.950 -0.6844 -0.5003 -1.0006
16249TIP3    H270163   0.930   1.749  16.900 -0.4870 -0.2925 -0.2366
16250TIP3   OH270164   3.084   1.876  12.145  0.3589 -0.0002  0.3155
16250TIP3    H170165   3.130   1.868  12.229 -0.7175  1.0911  1.0534
16250TIP3    H270166   2.999   1.915  12.168  0.0378  0.3181 -1.2812
16251TIP3   OH270167   5.123   3.133  16.008 -0.3284 -0.1092 -0.1817
16251TIP3    H170168   5.165   3.121  15.923  1.4554  1.0503  0.4821
16251TIP3    H270169   5.033   3.158  15.987  0.3388  1.1050 -1.7575
16252TIP3   OH270170   1.789   1.993   3.853  0.0422 -0.1876 -0.1300
16252TIP3    H170171   1.832   2.023   3.773 -0.3398 -1.4404 -0.8307
16252TIP3    H270172   1.837   1.913   3.877  0.8516  0.7378  1.5189
16253TIP3   OH270173   3.229   6.243  12.203  0.1246  0.2536 -1.3599
16253TIP3    H170174   3.283   6.164  12.209 -1.1707 -0.7751 -2.4255
16253TIP3    H270175   3.170   6.237  12.278  0.7337  0.7837 -0.8337
16254TIP3   OH270176   5.957   5.182   5.842  0.2341  0.3919 -0.1555
16254TIP3    H170177   6.019   5.171   5.770  0.2099  0.3261 -0.1662
16254TIP3    H270178   6.005   5.231   5.908  0.5729 -0.3789  0.1823
16255TIP3   OH270179   0.867   0.325  16.150  0.1767 -0.3932 -0.6646
16255TIP3    H170180   0.901   0.320  16.061 -0.7549 -0.8471 -1.0089
16255TIP3    H270181   0.819   0.408  16.153  0.0845 -0.4472 -0.6335
16256TIP3   OH270182   4.721   5.173   0.757 -0.1554 -0.2737  0.4561
16256TIP3    H170183   4.661   5.196   0.828 -0.4793 -0.3907  0.2192
16256TIP3    H270184   4.751   5.258   0.724 -0.4840 -0.2086  0.3228
16257TIP3   OH270185   3.708   3.142  15.096  0.7382  0.1249  0.4687
16257TIP3    H170186   3.714   3.057  15.140  0.6437  0.9120  2.0650
16257TIP3    H270187   3.721   3.121  15.003  0.1647 -1.6927  0.7512
16258TIP3   OH270188   3.704   3.435  11.102 -0.1567 -0.0743  0.0329
16258TIP3    H170189   3.717   3.416  11.009 -1.3207 -1.3606  0.0962
16258TIP3    H270190   3.789   3.418  11.142  0.6576  1.5268 -0.9227
16259TIP3   OH270191   4.476   3.227   5.566  0.0075  0.3057  0.2388
16259TIP3    H170192   4.537   3.288   5.524  1.9595 -2.1571 -0.7874
16259TIP3    H270193   4.499   3.230   5.659  1.4459 -0.2473 -0.0740
16260TIP3   OH270194   0.933   6.661  14.555  0.5964  0.2344  0.6120
16260TIP3    H170195   0.946   6.609  14.635 -1.3638  1.0399  1.5196
16260TIP3    H270196   0.877   6.733  14.582  1.0651  1.3486 -1.2095
16261TIP3   OH270197   4.099   6.428  15.097 -0.1435  0.1794  0.1898
16261TIP3    H170198   4.085   6.368  15.025  1.0974 -1.3566  1.1648
16261TIP3    H270199   4.011   6.450  15.127 -0.6366 -0.8923 -0.4056
16262TIP3   OH270200   4.039   3.816  15.189 -0.1041 -0.1386  0.0938
16262TIP3    H170201   4.054   3.765  15.269 -0.1696  0.7918  0.7165
16262TIP3    H270202   4.067   3.904  15.212 -0.5223  0.2268 -0.7834
16263TIP3   OH270203   4.973   4.174  14.427  0.3838 -0.3378 -0.3353
16263TIP3    H170204   5.065   4.199  14.418  0.1574  0.6378 -0.1097
16263TIP3    H270205   4.953   4.127  14.346  1.2759 -1.2192 -0.0478
16264TIP3   OH270206   6.328   6.609  16.950 -0.7644 -0.0525 -0.2260
16264TIP3    H170207   6.274   6.686  16.935 -0.0879  0.6983  1.0971
16264TIP3    H270208   6.416   6.643  16.965 -0.0747 -1.2012 -1.3720
16265TIP3   OH270209   2.438   4.692  15.189  0.4199 -0.2429  0.5535
16265TIP3    H170210   2.410   4.613  15.142  2.5185 -0.2713 -0.7704
16265TIP3    H270211   2.508   4.662  15.247  0.7031  0.5273  0.6215
16266TIP3   OH270212   4.395   5.193   1.759 -0.3992  0.4770  0.2385
16266TIP3    H170213   4.463   5.198   1.693 -1.3093 -0.0755 -0.7705
16266TIP3    H270214   4.393   5.100   1.784 -0.9834  0.4289  0.0261
16267TIP3   OH270215   4.779   5.836  12.571  0.8245  0.5880 -0.5415
16267TIP3    H170216   4.818   5.839  12.484  2.2349 -1.1516 -0.0170
16267TIP3    H270217   4.839   5.886  12.626  1.0721 -0.1030 -0.1768
16268TIP3   OH270218   3.760   6.503   3.046  0.7156 -0.0433  0.5430
16268TIP3    H170219   3.761   6.419   3.091  0.5096 -0.6708 -0.5697
16268TIP3    H270220   3.699   6.491   2.973  0.6515  1.0821  0.3897
16269TIP3   OH270221   0.082   4.684   1.254 -0.4103  0.3862 -0.0788
16269TIP3    H170222   0.037   4.630   1.319  0.9644 -2.1645 -1.0891
16269TIP3    H270223   0.017   4.700   1.186 -0.7323 -0.4162  0.0339
16270TIP3   OH270224   4.296   5.641  12.187  0.0256  0.0853  0.3480
16270TIP3    H170225   4.303   5.736  12.187 -0.2079  0.1017  0.2134
16270TIP3    H270226   4.384   5.610  12.165  0.5888  0.2409  2.1685
16271TIP3   OH270227   4.337   6.230  12.590 -0.3019 -0.1709 -0.2344
16271TIP3    H170228   4.260   6.213  12.536 -1.4604  0.1065  1.2520
16271TIP3    H270229   4.399   6.161  12.566 -1.4752 -1.1196 -0.6365
16272TIP3   OH270230   1.747   1.261   5.403 -0.3859  0.0636 -0.4191
16272TIP3    H170231   1.766   1.354   5.416  1.1223 -0.1357 -0.9984
16272TIP3    H270232   1.769   1.220   5.487 -0.7715  0.1883 -0.2564
16273TIP3   OH270233   3.569   4.649  13.492  0.2628  0.5756  0.4908
16273TIP3    H170234   3.535   4.602  13.416  1.1625 -0.1358  0.5152
16273TIP3    H270235   3.618   4.583  13.541  1.0966  1.4131  0.8089
16274TIP3   OH270236   2.437   4.230   1.772  0.5487 -0.2108 -0.2499
16274TIP3    H170237   2.426   4.223   1.866 -0.4007  1.7224 -0.1724
16274TIP3    H270238   2.349   4.220   1.736  0.6964  0.4383 -0.8211
16275TIP3   OH270239   1.948   3.766  11.755  0.2177 -0.7081 -0.4696
16275TIP3    H170240   1.894   3.711  11.811 -0.6500  1.4499  0.9035
16275TIP3    H270241   2.028   3.781  11.806 -0.2186  0.5744 -0.1434
16276TIP3   OH270242   2.180   4.360   3.637 -0.6178 -0.0766 -0.2980
16276TIP3    H170243   2.153   4.420   3.707  1.5933  0.2649  0.3384
16276TIP3    H270244   2.161   4.408   3.556 -0.6237  0.6953  0.1456
16277TIP3   OH270245   5.881   3.116   4.879 -0.6068 -0.1356  0.2063
16277TIP3    H170246   5.971   3.125   4.910 -0.3386  2.0739 -1.0504
16277TIP3    H270247   5.879   3.165   4.797 -2.4307 -1.9757 -0.9434
16278TIP3   OH270248   6.469   2.805   5.506 -0.3214 -0.6412 -0.5556
16278TIP3    H170249   6.504   2.751   5.577 -0.2668  3.4350  2.8954
16278TIP3    H270250   6.375   2.789   5.509 -0.1092 -2.2597 -1.3090
16279TIP3   OH270251   4.336   2.351   3.354 -0.0381 -0.6896 -0.0370
16279TIP3    H170252   4.299   2.291   3.419 -2.0844  0.3122 -0.2120
16279TIP3    H270253   4.267   2.415   3.337  1.1256  0.1975 -1.7998
16280TIP3   OH270254   5.813   2.097   4.280 -0.3282 -0.4076 -0.0961
16280TIP3    H170255   5.784   2.016   4.238 -2.2607  1.0482 -1.7802
16280TIP3    H270256   5.821   2.160   4.208 -0.7762  1.3944  1.3509
16281TIP3   OH270257   0.124   0.564   3.140 -0.1454  0.2329  0.1655
16281TIP3    H170258   0.112   0.590   3.048 -0.9060  0.4456  0.3189
16281TIP3    H270259   0.043   0.591   3.183 -0.2250 -0.8038  0.6943
16282TIP3   OH270260   6.159   5.026  14.818  0.4195  0.0997  0.0823
16282TIP3    H170261   6.185   4.936  14.796  1.0164  0.0675  0.8783
16282TIP3    H270262   6.238   5.078  14.801 -0.0091  0.5224 -0.6396
16283TIP3   OH270263   4.637   5.705   6.657 -0.2576 -0.3443 -0.3887
16283TIP3    H170264   4.704   5.763   6.619 -1.1578  1.0819  0.1386
16283TIP3    H270265   4.680   5.665   6.732  0.1515  0.2353 -0.3054
16284TIP3   OH270266   0.539   0.783  11.025  0.0467  0.0824  0.0402
16284TIP3    H170267   0.590   0.789  10.945  1.2379 -0.4139  0.7294
16284TIP3    H270268   0.449   0.769  10.996  0.3461  0.6163 -1.2038
16285TIP3   OH270269   1.970   4.601   0.916  0.0138  0.2844 -0.3142
16285TIP3    H170270   2.039   4.613   0.981  1.5604  0.3448 -1.9202
16285TIP3    H270271   1.971   4.681   0.864  0.2355 -0.6172 -1.7269
16286TIP3   OH270272   2.421   5.980   3.446  0.0524 -0.2031 -0.2682
16286TIP3    H170273   2.498   5.946   3.401 -0.3736 -0.1148 -1.0756
16286TIP3    H270274   2.414   6.071   3.418 -2.0530 -0.9750 -2.6528
16287TIP3   OH270275   5.601   3.394   2.235  0.2292 -0.3921  0.2616
16287TIP3    H170276   5.542   3.324   2.260  1.4245 -1.3107  0.5918
16287TIP3    H270277   5.595   3.399   2.140  0.0166 -0.8306  0.2538
16288TIP3   OH270278   5.389   5.702   0.494  0.0668 -0.4132  0.5248
16288TIP3    H170279   5.361   5.791   0.514  0.1863 -0.2185 -0.1359
16288TIP3    H270280   5.397   5.700   0.398 -1.4168 -1.5650  0.3714
16289TIP3   OH270281   5.619   5.330   2.514 -0.0169  0.4707  0.1862
16289TIP3    H170282   5.675   5.313   2.589 -0.8646  2.0311  1.2422
16289TIP3    H270283   5.673   5.310   2.437  0.6767 -1.7213  1.1779
16290TIP3   OH270284   1.376   6.217   1.112 -0.4888 -0.6844  0.6519
16290TIP3    H170285   1.286   6.196   1.137 -0.3772  1.2177  3.1467
16290TIP3    H270286   1.429   6.187   1.187  0.6141  0.4727  0.3800
16291TIP3   OH270287   4.750   6.155   1.128  0.1045 -0.4822 -0.3547
16291TIP3    H170288   4.842   6.154   1.155  0.1996  2.6888 -0.1278
16291TIP3    H270289   4.702   6.129   1.206  0.7208  1.0786  0.5975
16292TIP3   OH270290   2.200   5.810   2.114  0.0267 -0.6657  0.0888
16292TIP3    H170291   2.157   5.845   2.192 -0.3114  0.3351 -0.5164
16292TIP3    H270292   2.247   5.885   2.078  1.7415 -1.5796  0.3561
16293TIP3   OH270293   2.370   0.353   4.510  0.2498  0.2778  0.1180
16293TIP3    H170294   2.289   0.400   4.490 -0.5844 -1.0911  0.1442
16293TIP3    H270295   2.358   0.323   4.600  0.9216  0.3135  0.2219
16294TIP3   OH270296   2.026   2.694   4.909  0.1618 -0.5823  0.7355
16294TIP3    H170297   2.117   2.702   4.937  0.1711 -0.7032  0.7406
16294TIP3    H270298   2.027   2.623   4.844 -0.3802 -2.5486  2.7510
16295TIP3   OH270299   1.337   2.897  15.329 -0.3471 -0.4588  0.2525
16295TIP3    H170300   1.401   2.861  15.266 -0.3493 -2.5763  1.3756
16295TIP3    H270301   1.259   2.915  15.276  0.1034 -0.9235 -0.5936
16296TIP3   OH270302   1.676   3.428   3.053  0.3867  0.1906 -0.4124
16296TIP3    H170303   1.709   3.403   3.140 -0.0079  1.6265  0.1851
16296TIP3    H270304   1.678   3.347   3.003  0.8247 -0.6384  0.8752
16297TIP3   OH270305   2.014   2.713  16.969 -0.2721 -0.6252 -0.2322
16297TIP3    H170306   2.041   2.772  17.039 -0.4423  0.3924 -1.0034
16297TIP3    H270307   1.966   2.769  16.908 -0.9390 -1.6814 -0.6986
16298TIP3   OH270308   4.198   6.007   1.060 -0.1027  0.9513 -0.4303
16298TIP3    H170309   4.242   6.081   1.102  0.8177 -0.0731  0.4512
16298TIP3    H270310   4.265   5.965   1.006 -1.1926  2.0790 -2.8187
16299TIP3   OH270311   2.394   0.375  12.840  0.2616 -0.6977 -0.3967
16299TIP3    H170312   2.311   0.409  12.806  0.3553 -1.7906 -1.8349
16299TIP3    H270313   2.386   0.382  12.935 -1.0465  0.1811 -0.5455
16300TIP3   OH270314   1.089   0.098   3.921 -0.1581  0.3916 -0.0073
16300TIP3    H170315   1.137   0.063   3.846  0.1025 -0.9327  0.7393
16300TIP3    H270316   1.037   0.024   3.953 -0.5274  1.0258  0.9071
16301TIP3   OH270317   1.880   6.750   5.282 -0.6443 -0.2231  0.4423
16301TIP3    H170318   1.973   6.732   5.264 -0.6214  0.3957 -0.0996
16301TIP3    H270319   1.863   6.833   5.239 -1.7458 -0.8633 -0.4231
16302TIP3   OH270320   1.255   3.287  14.311 -0.2723  0.2335  0.6079
16302TIP3    H170321   1.245   3.364  14.368  0.7003  0.5872  0.3286
16302TIP3    H270322   1.328   3.310  14.253  1.1837 -1.5561  1.6126
16303TIP3   OH270323   4.808   1.145  12.521  0.4426 -0.0864 -0.0599
16303TIP3    H170324   4.759   1.063  12.520 -0.4341  0.4097 -1.6754
16303TIP3    H270325   4.748   1.209  12.560  0.3739  0.1945 -0.6132
16304TIP3   OH270326   5.372   1.815  16.163 -0.1736  0.1391 -0.4336
16304TIP3    H170327   5.444   1.763  16.128 -1.5244 -0.4769 -2.4521
16304TIP3    H270328   5.297   1.756  16.161 -0.6025  0.3798  2.7065
16305TIP3   OH270329   3.203   4.317   4.012 -0.6030 -0.1425 -0.2014
16305TIP3    H170330   3.243   4.396   3.975 -1.6647  1.2815  1.5683
16305TIP3    H270331   3.256   4.246   3.976  1.3700  1.4358 -0.6482
16306TIP3   OH270332   5.606   6.597   2.256 -0.0571 -0.0304  0.2397
16306TIP3    H170333   5.556   6.675   2.279 -1.2979 -0.9582  0.7898
16306TIP3    H270334   5.572   6.529   2.313  0.6460 -1.1082 -0.5903
16307TIP3   OH270335   3.039   6.168   4.138 -0.1613 -0.2506  0.2962
16307TIP3    H170336   2.971   6.153   4.071 -0.1260  0.8290 -0.0064
16307TIP3    H270337   3.117   6.127   4.102 -0.3073 -0.2573 -0.0171
16308TIP3   OH270338   2.846   2.243  11.964  0.2807 -0.1024 -0.0754
16308TIP3    H170339   2.807   2.157  11.948 -0.3827  0.3082 -0.7338
16308TIP3    H270340   2.939   2.231  11.947  0.2546 -0.7773  0.2074
16309TIP3   OH270341   4.638   4.891   3.038 -0.1803  0.6079 -0.5183
16309TIP3    H170342   4.712   4.843   3.076 -0.9048 -1.3642 -1.4611
16309TIP3    H270343   4.574   4.896   3.108  0.0682  0.5704 -0.2855
16310TIP3   OH270344   1.628   1.760  13.252  0.7515  0.0284 -0.6343
16310TIP3    H170345   1.718   1.731  13.237  0.2693 -2.6422  0.9633
16310TIP3    H270346   1.581   1.680  13.275 -1.8287  1.5083 -0.3868
16311TIP3   OH270347   0.274   5.781   1.816 -0.2202  0.3140  0.5682
16311TIP3    H170348   0.258   5.723   1.742 -1.4184  2.2835 -0.8174
16311TIP3    H270349   0.198   5.771   1.872 -1.5245  2.0508 -0.7794
16312TIP3   OH270350   0.791   2.603   1.518 -0.2730  0.3184 -0.3961
16312TIP3    H170351   0.743   2.662   1.459 -0.3512  0.0136 -0.6383
16312TIP3    H270352   0.723   2.562   1.571 -0.3646 -0.7210 -1.2881
16313TIP3   OH270353   2.176   0.863   1.797  0.0415 -0.2583 -0.2907
16313TIP3    H170354   2.156   0.775   1.764  0.8066 -0.0634 -1.2822
16313TIP3    H270355   2.271   0.865   1.805 -0.0851 -0.2915  1.9664
16314TIP3   OH270356   4.204   2.985  14.175 -0.4613 -0.3576 -0.3802
16314TIP3    H170357   4.280   3.035  14.206 -1.2215 -0.1454  1.2701
16314TIP3    H270358   4.199   3.004  14.082  1.8146 -0.7864 -0.6583
16315TIP3   OH270359   2.800   4.898  11.655 -0.2525 -0.3670  0.4206
16315TIP3    H170360   2.713   4.918  11.689 -1.1141  0.1809 -1.8924
16315TIP3    H270361   2.788   4.815  11.608 -0.1591  0.7847 -1.7839
16316TIP3   OH270362   0.726   3.812  12.028  0.0472 -0.4370  0.6771
16316TIP3    H170363   0.805   3.773  11.990  0.3938 -0.2768  1.2240
16316TIP3    H270364   0.713   3.764  12.110 -1.1314 -1.3025  0.0286
16317TIP3   OH270365   4.658   2.063  12.182 -0.1300  0.6417  0.3473
16317TIP3    H170366   4.622   2.028  12.100  1.4407  0.6163 -0.3723
16317TIP3    H270367   4.683   1.985  12.232 -0.3297  0.6752  0.5017
16318TIP3   OH270368   3.537   2.336  11.705  0.1970 -0.0399 -0.0858
16318TIP3    H170369   3.522   2.420  11.748 -0.5614  0.5867 -1.4988
16318TIP3    H270370   3.626   2.343  11.670  0.9650 -0.6967  1.5996
16319TIP3   OH270371   0.957   1.391   2.501  0.1032  0.1028  0.4830
16319TIP3    H170372   0.942   1.482   2.526  1.4320  0.8441 -1.1931
16319TIP3    H270373   0.993   1.349   2.579  1.0945  1.4614  0.7779
16320TIP3   OH270374   0.623   3.417   0.835  0.3289 -0.1537 -0.0350
16320TIP3    H170375   0.595   3.437   0.925 -2.8207  0.9409 -1.1380
16320TIP3    H270376   0.639   3.323   0.835 -0.7754 -0.3745  1.4140
16321TIP3   OH270377   6.101   5.593   4.296 -0.4006 -0.0501 -0.6937
16321TIP3    H170378   6.027   5.642   4.260  0.2168 -0.8780 -3.3718
16321TIP3    H270379   6.066   5.507   4.318 -0.4194 -0.1666 -1.1691
16322TIP3   OH270380   1.769   0.767   0.009  0.4743  0.0439 -0.3210
16322TIP3    H170381   1.689   0.715   0.005  0.2101  0.3822  0.4646
16322TIP3    H270382   1.839   0.702   0.011  0.1302 -0.3021  1.0646
16323TIP3   OH270383   0.845   0.565  15.349 -0.1118  0.0106  0.0619
16323TIP3    H170384   0.780   0.590  15.284  0.5210  1.1201 -0.1613
16323TIP3    H270385   0.793   0.544  15.427 -0.8179 -0.5261 -0.5348
16324TIP3   OH270386   5.969   0.061   0.123 -0.6260  0.1879  0.6568
16324TIP3    H170387   6.018   0.143   0.113 -2.4743  1.1383 -1.4810
16324TIP3    H270388   6.016  -0.002   0.068 -0.0851  0.2197  1.0728
16325TIP3   OH270389   1.075   1.679   2.154  0.0866  0.0584  0.5690
16325TIP3    H170390   1.069   1.774   2.147  0.0268 -0.0690 -1.8894
16325TIP3    H270391   0.990   1.647   2.123 -0.0783 -0.8130  1.8429
16326TIP3   OH270392   2.571   4.167   3.326  0.1995 -0.9065 -0.4029
16326TIP3    H170393   2.492   4.218   3.342  0.8658 -0.3328  1.2662
16326TIP3    H270394   2.596   4.134   3.412  2.9745  0.7341 -0.4662
16327TIP3   OH270395   2.163   5.501   4.894  0.5649 -0.0963  0.0138
16327TIP3    H170396   2.094   5.561   4.866  1.0229  0.3254 -0.2446
16327TIP3    H270397   2.144   5.482   4.985 -0.2475 -0.4871 -0.2331
16328TIP3   OH270398   0.078   4.308  13.027  0.0259  0.5790 -0.6937
16328TIP3    H170399   0.048   4.229  12.983  2.8034 -0.3888 -1.0725
16328TIP3    H270400   0.062   4.292  13.120 -1.8837  0.7690 -0.9623
16329TIP3   OH270401   0.335   3.622  10.748 -0.3309  0.2072  0.2635
16329TIP3    H170402   0.369   3.588  10.830  2.4489  1.1496 -0.3919
16329TIP3    H270403   0.342   3.549  10.687 -2.2624 -0.4483  0.7388
16330TIP3   OH270404   1.697   5.058   0.450  0.3994  0.4128  0.5715
16330TIP3    H170405   1.727   4.967   0.450 -0.2612  0.1823  0.3392
16330TIP3    H270406   1.628   5.061   0.517  1.1558  1.0093  1.3374
16331TIP3   OH270407   3.189   6.590   1.726  0.2485 -1.2283 -0.0068
16331TIP3    H170408   3.239   6.516   1.691  0.6436 -0.9571 -0.0230
16331TIP3    H270409   3.103   6.583   1.684  0.6671 -0.9833 -0.9289
16332TIP3   OH270410   4.373   3.806  16.919  0.3019 -0.3940  0.0461
16332TIP3    H170411   4.366   3.795  16.824  3.6939  0.3036 -0.4268
16332TIP3    H270412   4.398   3.720  16.952  2.4752  0.0558 -0.2542
16333TIP3   OH270413   1.382   5.377   4.768  0.4605 -0.5792  0.6043
16333TIP3    H170414   1.418   5.289   4.782 -0.1531 -0.4175  4.1961
16333TIP3    H270415   1.379   5.416   4.856 -2.7418  1.6782 -0.3099
16334TIP3   OH270416   2.159   6.164  14.620  0.3964 -0.2027  0.3506
16334TIP3    H170417   2.146   6.154  14.715 -0.5548 -3.2135  0.0228
16334TIP3    H270418   2.219   6.093  14.598  0.3016  0.2260 -1.3663
16335TIP3   OH270419   0.852   5.207   0.179 -0.1604 -0.0373  0.6343
16335TIP3    H170420   0.924   5.216   0.241  2.5549  2.9911 -2.4963
16335TIP3    H270421   0.852   5.115   0.154  0.9853 -0.5814  2.5042
16336TIP3   OH270422   4.221   6.615   5.314 -0.2271  0.6097 -0.3270
16336TIP3    H170423   4.250   6.700   5.346  2.5091 -0.1575 -0.5258
16336TIP3    H270424   4.243   6.616   5.221 -1.2904  0.0991 -0.6038
16337TIP3   OH270425   4.568   4.791   5.643 -0.1396  0.1552  0.3014
16337TIP3    H170426   4.610   4.805   5.728  1.9706 -2.4979 -0.1818
16337TIP3    H270427   4.621   4.841   5.581 -1.1819  1.4079  0.3749
16338TIP3   OH270428   2.201   1.588   3.997  0.9730 -0.3407 -0.1396
16338TIP3    H170429   2.226   1.589   3.905  1.3072 -1.3071 -0.0722
16338TIP3    H270430   2.265   1.644   4.040  0.2241  0.9198 -0.6246
16339TIP3   OH270431   4.917   3.023   2.146 -0.1598 -0.7640  0.2018
16339TIP3    H170432   5.007   2.995   2.163 -0.1431 -0.6724  0.2669
16339TIP3    H270433   4.890   3.067   2.226 -0.1968 -0.6223  0.1121
16340TIP3   OH270434   4.010   5.696   4.181 -0.3641 -0.6387 -0.4238
16340TIP3    H170435   4.081   5.745   4.139 -0.4351 -0.0373  0.1521
16340TIP3    H270436   4.038   5.604   4.174  1.9381 -0.2919  2.3047
16341TIP3   OH270437   6.649   0.477   6.400  0.1236  0.4705  0.7971
16341TIP3    H170438   6.682   0.513   6.482  1.0259  1.9765 -0.1648
16341TIP3    H270439   6.648   0.552   6.340  1.6772 -1.0058 -1.2127
16342TIP3   OH270440   5.454   1.951   2.520  0.7434 -0.1057  0.0335
16342TIP3    H170441   5.466   1.948   2.425 -1.5709  0.8149 -0.3499
16342TIP3    H270442   5.363   1.979   2.532  1.4203  1.3243  2.5303
16343TIP3   OH270443   1.776   5.110  15.199  0.4881  0.0539  0.5000
16343TIP3    H170444   1.809   5.067  15.121  0.4908 -3.5952  2.3108
16343TIP3    H270445   1.834   5.080  15.269 -1.8135 -0.0496  2.5020
16344TIP3   OH270446   4.832   2.348  15.924  0.6107  0.3730  0.2852
16344TIP3    H170447   4.877   2.285  15.869  0.9119  1.5244 -0.8318
16344TIP3    H270448   4.826   2.305  16.010  0.8050 -1.1450 -0.4324
16345TIP3   OH270449   5.482   6.221  16.085 -0.1789 -0.3897 -0.6528
16345TIP3    H170450   5.534   6.278  16.142 -1.6523  0.8831 -0.5347
16345TIP3    H270451   5.533   6.217  16.004  1.5631 -1.6016  0.4317
16346TIP3   OH270452   2.251   6.516   3.455 -0.1807  0.0999 -0.2804
16346TIP3    H170453   2.206   6.449   3.507 -0.0305 -0.2526 -0.6017
16346TIP3    H270454   2.196   6.526   3.377 -0.0307  0.1147 -0.3842
16347TIP3   OH270455   5.788   2.149   2.207 -0.0770 -0.2949  0.3758
16347TIP3    H170456   5.852   2.210   2.170 -0.9476  0.9070  0.8072
16347TIP3    H270457   5.729   2.203   2.259 -1.9681 -1.2227 -0.6771
16348TIP3   OH270458   5.665   5.799  12.319 -0.2902  0.1408  0.1369
16348TIP3    H170459   5.665   5.730  12.253 -0.1768  0.4520 -0.1891
16348TIP3    H270460   5.754   5.836  12.316  0.5274 -1.4833  2.1931
16349TIP3   OH270461   2.497   0.622  12.194 -0.2066 -0.3653  0.2901
16349TIP3    H170462   2.506   0.715  12.213  0.9602 -0.1601 -1.1308
16349TIP3    H270463   2.535   0.611  12.107 -2.6563 -1.7343 -0.7322
16350TIP3   OH270464   1.815   1.697  11.042  0.2263 -0.4734  0.4526
16350TIP3    H170465   1.733   1.715  10.997 -0.3426 -1.6187  1.0018
16350TIP3    H270466   1.880   1.748  10.994 -0.5744 -0.6356 -0.8565
16351TIP3   OH270467   3.443   4.934   2.438 -0.2862 -0.0936  0.1938
16351TIP3    H170468   3.441   5.026   2.462  2.4890 -0.2011  1.1734
16351TIP3    H270469   3.441   4.887   2.521  1.7246 -0.7436 -0.0638
16352TIP3   OH270470   0.931   3.067  15.977 -0.6237  0.5761  0.5785
16352TIP3    H170471   0.933   2.973  15.960  0.1273  0.9458 -1.8083
16352TIP3    H270472   0.871   3.101  15.910 -2.6201  1.6209  2.7691
16353TIP3   OH270473   1.705   4.917   3.865 -0.5146 -0.1948 -0.0898
16353TIP3    H170474   1.701   4.829   3.903 -0.3989 -0.3274 -0.3829
16353TIP3    H270475   1.764   4.908   3.790  0.4594  0.4008  0.5856
16354TIP3   OH270476   0.870   1.455  15.085 -1.2325 -0.0691  0.3897
16354TIP3    H170477   0.808   1.487  15.019 -0.8385  1.7747  0.8549
16354TIP3    H270478   0.929   1.397  15.036 -1.1126  1.0378 -0.8465
16355TIP3   OH270479   5.134   6.034  15.189 -0.2463 -0.0273 -0.4006
16355TIP3    H170480   5.214   5.999  15.150 -0.2144 -0.5640  0.1172
16355TIP3    H270481   5.084   6.069  15.115  1.0060  1.4435 -0.5831
16356TIP3   OH270482   2.035   4.569   2.605 -0.1804 -0.1085 -0.0261
16356TIP3    H170483   1.956   4.598   2.559  0.4099  1.4555 -0.0850
16356TIP3    H270484   2.043   4.629   2.679  1.3982  0.2743 -0.4732
16357TIP3   OH270485   5.083   3.186  11.867  0.5183  0.0825 -0.1344
16357TIP3    H170486   5.150   3.119  11.856 -0.3572 -0.8727  0.1819
16357TIP3    H270487   5.046   3.197  11.779  0.7185  0.2162 -0.2032
16358TIP3   OH270488   5.485   4.396   5.956  0.4892 -0.4529  0.0978
16358TIP3    H170489   5.534   4.367   6.033  0.2198 -1.1619  0.0044
16358TIP3    H270490   5.430   4.321   5.933 -1.2247  0.5599  0.6798
16359TIP3   OH270491   6.636   0.692   6.210  0.5319  0.5792  0.3331
16359TIP3    H170492   6.613   0.771   6.161 -0.0248  0.1068 -0.1925
16359TIP3    H270493   6.697   0.645   6.153  1.9267  1.2526  1.2145
16360TIP3   OH270494   1.599   6.583   2.374 -0.1809 -0.0911  0.0357
16360TIP3    H170495   1.665   6.539   2.320 -0.8378 -0.0421 -0.8346
16360TIP3    H270496   1.646   6.656   2.415  0.2375  0.1549 -0.8491
16361TIP3   OH270497   1.479   0.614  12.345 -0.1821 -0.3419  0.1258
16361TIP3    H170498   1.463   0.625  12.438 -1.2481  2.5018 -0.3099
16361TIP3    H270499   1.573   0.629  12.335 -0.4882  2.1228  0.4747
16362TIP3   OH270500   2.552   6.397  16.694 -0.0289 -0.0210  0.1971
16362TIP3    H170501   2.499   6.317  16.704 -1.4955  0.9129  0.3000
16362TIP3    H270502   2.574   6.400  16.601  1.7627 -1.5542  0.5218
16363TIP3   OH270503   2.336   0.207  17.216  0.3037 -0.0317 -0.5133
16363TIP3    H170504   2.391   0.243  17.147  0.9551 -0.7347 -0.3687
16363TIP3    H270505   2.390   0.140  17.257 -0.6527 -0.7092 -0.3426
16364TIP3   OH270506   4.539   3.941   2.716  0.1049 -0.4222 -0.7796
16364TIP3    H170507   4.589   3.984   2.786  0.6172 -2.2415  0.0371
16364TIP3    H270508   4.455   3.921   2.756 -0.1349 -0.1543 -1.1531
16365TIP3   OH270509   1.502   2.681   2.335  0.5724  0.4292  0.2845
16365TIP3    H170510   1.495   2.766   2.378  0.4980  0.8314 -0.5049
16365TIP3    H270511   1.596   2.661   2.337  0.6766  0.8758 -0.1878
16366TIP3   OH270512   2.059   1.865  16.517  0.5400  0.4364 -0.0295
16366TIP3    H170513   2.032   1.912  16.439 -0.8845  2.4351  1.5582
16366TIP3    H270514   2.147   1.898  16.537 -0.4597  2.6112  1.0935
16367TIP3   OH270515   1.494   2.731  12.783  0.2564  0.1269 -0.5335
16367TIP3    H170516   1.560   2.716  12.850  0.8649  0.4417 -1.0511
16367TIP3    H270517   1.430   2.788  12.825  1.9011  2.4076 -0.9369
16368TIP3   OH270518   3.837   0.596  15.508  0.7218  0.1554  0.1328
16368TIP3    H170519   3.896   0.587  15.433 -0.0774  0.4682 -0.5429
16368TIP3    H270520   3.789   0.514  15.512  0.0168  0.5387 -0.3492
16369TIP3   OH270521   2.604   3.661  12.539 -0.0088  0.6671 -0.4648
16369TIP3    H170522   2.535   3.664  12.606  0.8418 -1.2649  0.5643
16369TIP3    H270523   2.618   3.753  12.515 -0.9980  1.3254  1.3163
16370TIP3   OH270524   5.423   1.868   0.506  0.0392  0.2784  0.1002
16370TIP3    H170525   5.404   1.894   0.596  1.1309 -1.5605  0.9029
16370TIP3    H270526   5.447   1.776   0.512  1.4209  0.4569 -1.9147
16371TIP3   OH270527   6.269   1.998  14.373 -0.2131  0.4197  0.2510
16371TIP3    H170528   6.343   1.950  14.410  0.9530  0.6247 -1.6531
16371TIP3    H270529   6.280   2.088  14.403 -0.8546  0.0673  1.5998
16372TIP3   OH270530   1.749   5.099   1.214  0.1857 -0.1310 -0.1035
16372TIP3    H170531   1.795   5.089   1.297  1.6805  0.3357 -0.8363
16372TIP3    H270532   1.691   5.023   1.210 -0.0635 -0.0632  1.4305
16373TIP3   OH270533   2.958   4.876   3.604 -0.2895  0.0792 -0.4417
16373TIP3    H170534   2.997   4.832   3.528  0.1752 -0.7094  0.2405
16373TIP3    H270535   3.033   4.915   3.650 -0.2926 -1.2079  0.7227
16374TIP3   OH270536   0.389   3.649   4.540  0.0820 -0.3964  0.4696
16374TIP3    H170537   0.454   3.618   4.604 -0.5984 -1.9134  0.4509
16374TIP3    H270538   0.353   3.570   4.501 -1.0826  0.4522 -0.2505
16375TIP3   OH270539   0.393   5.894   5.227 -0.7422  0.3727  0.3353
16375TIP3    H170540   0.330   5.885   5.298 -0.7736  1.9638  0.5480
16375TIP3    H270541   0.387   5.986   5.201 -0.7945 -0.1754 -1.7959
16376TIP3   OH270542   0.807   0.653  14.246  0.1300  0.2955  0.2707
16376TIP3    H170543   0.795   0.670  14.339 -2.5042  0.9565 -0.0900
16376TIP3    H270544   0.869   0.720  14.217  2.1418 -0.8296  1.7470
16377TIP3   OH270545   6.753   3.099   2.789  0.5989  0.3772 -0.0111
16377TIP3    H170546   6.742   3.137   2.702  0.9105 -0.7309 -0.5571
16377TIP3    H270547   6.669   3.058   2.809  1.6000 -2.6980 -1.4997
16378TIP3   OH270548   1.379   3.244   3.986 -0.4292  0.2727 -0.2279
16378TIP3    H170549   1.316   3.313   3.968 -0.1842  0.7152  0.5816
16378TIP3    H270550   1.441   3.249   3.912 -0.3662  0.9723 -0.1317
16379TIP3   OH270551   0.258   3.240  17.070  0.2231  0.3027  0.7505
16379TIP3    H170552   0.226   3.328  17.090 -1.0653 -0.0383  0.2840
16379TIP3    H270553   0.341   3.255  17.024 -0.7850  1.3748 -0.8286
16380TIP3   OH270554   6.082   1.374   5.522  0.1267 -0.7221  0.0981
16380TIP3    H170555   5.990   1.391   5.503  0.0595  0.5502  1.3569
16380TIP3    H270556   6.091   1.392   5.616  2.3336  2.5712 -0.5840
16381TIP3   OH270557   2.827   2.285  14.871  0.1288 -0.5363 -0.5383
16381TIP3    H170558   2.914   2.303  14.907  0.4271  0.0300 -1.5084
16381TIP3    H270559   2.813   2.192  14.886  1.1900 -0.7709 -0.9515
16382TIP3   OH270560   0.852   5.034  16.628  0.5374 -0.1622 -0.3175
16382TIP3    H170561   0.928   5.068  16.676 -1.1238  2.4450  0.6893
16382TIP3    H270562   0.778   5.051  16.687 -1.1541 -0.1434 -2.3538
16383TIP3   OH270563   2.312   1.940  13.836 -0.0550 -0.0828 -0.0367
16383TIP3    H170564   2.305   1.881  13.761  1.1832 -0.4998  0.1586
16383TIP3    H270565   2.261   1.897  13.905 -1.0226  0.1981 -0.5477
16384TIP3   OH270566   1.671   1.636   3.539  0.1809  0.0209  0.0495
16384TIP3    H170567   1.741   1.693   3.506  0.1751  1.4104  2.2125
16384TIP3    H270568   1.593   1.691   3.537 -0.2296 -0.5493  0.3764
16385TIP3   OH270569   1.081   0.685   5.542  0.4786 -0.1103 -0.0840
16385TIP3    H170570   1.108   0.754   5.603 -0.5604 -0.9931  1.4291
16385TIP3    H270571   1.073   0.607   5.596 -0.4586 -0.9419 -1.3754
16386TIP3   OH270572   4.921   4.163  15.506  0.2030 -1.1231 -0.5048
16386TIP3    H170573   4.990   4.210  15.553 -1.3712 -0.8611  1.7296
16386TIP3    H270574   4.920   4.203  15.419  1.3719  0.4220  0.1298
16387TIP3   OH270575   1.474   3.814   3.988 -0.7960  0.6935 -0.2120
16387TIP3    H170576   1.476   3.720   3.973 -1.6272 -0.3272  4.5188
16387TIP3    H270577   1.384   3.840   3.966 -0.9331  0.1389 -0.3283
16388TIP3   OH270578   0.834   5.150   2.905  0.6665 -0.0775 -0.1847
16388TIP3    H170579   0.791   5.159   2.819  1.8992  1.5642 -0.6753
16388TIP3    H270580   0.800   5.068   2.940 -1.0480 -0.0210 -1.5740
16389TIP3   OH270581   4.384   6.695   3.593 -0.1258  0.6669  0.4930
16389TIP3    H170582   4.379   6.643   3.513 -0.3780  1.1002  0.2255
16389TIP3    H270583   4.337   6.642   3.659 -0.6832  0.7088  0.1375
16390TIP3   OH270584   1.344   5.968  12.937 -0.7098  0.1043  0.3547
16390TIP3    H170585   1.350   6.063  12.928 -2.2762  0.1717 -0.3083
16390TIP3    H270586   1.344   5.935  12.847  2.2228 -0.7666  0.5759
16391TIP3   OH270587   3.335   3.431   0.948  0.0669 -0.3167 -0.0136
16391TIP3    H170588   3.411   3.445   1.004  0.3272 -0.3363 -0.3590
16391TIP3    H270589   3.347   3.492   0.875 -2.7268  3.4573  2.2912
16392TIP3   OH270590   6.113   0.567   0.663 -0.2570 -0.3046 -0.4192
16392TIP3    H170591   6.182   0.546   0.600  0.1615  0.3510 -0.1877
16392TIP3    H270592   6.137   0.520   0.742  0.3528  0.5370 -0.0925
16393TIP3   OH270593   4.767   2.650  15.040  0.1250 -0.5078  0.6767
16393TIP3    H170594   4.756   2.589  14.968 -1.9361 -0.1288  0.6181
16393TIP3    H270595   4.690   2.706  15.037  2.8451  3.6919 -0.6903
16394TIP3   OH270596   3.188   0.541  11.485 -0.4545 -0.4159  0.2656
16394TIP3    H170597   3.152   0.506  11.566 -0.8254  1.5747  1.0042
16394TIP3    H270598   3.128   0.510  11.417 -0.1918 -2.0147  0.7172
16395TIP3   OH270599   5.655   6.359   2.083  0.2279  0.3382 -0.5241
16395TIP3    H170600   5.644   6.287   2.145 -0.8332 -0.9042 -2.0699
16395TIP3    H270601   5.613   6.434   2.125 -0.1085 -0.3626  0.4233
16396TIP3   OH270602   3.020   6.700   1.980  0.1791 -0.0034 -0.2565
16396TIP3    H170603   3.001   6.618   2.025 -2.0479 -0.4690 -1.9108
16396TIP3    H270604   3.089   6.678   1.917  0.2406 -0.3750 -0.0626
16397TIP3   OH270605   2.251   1.246  16.208 -0.2721  0.1823 -0.2135
16397TIP3    H170606   2.240   1.219  16.299 -0.8147  0.0453 -0.3125
16397TIP3    H270607   2.279   1.337  16.213  1.7525 -0.4237  0.1301
16398TIP3   OH270608   2.406   3.054  16.468 -0.7150 -0.3950 -0.5519
16398TIP3    H170609   2.361   2.975  16.496 -1.5501  0.7285  1.5750
16398TIP3    H270610   2.340   3.123  16.477  0.1189  0.6277 -1.8884
16399TIP3   OH270611   5.188   1.185   5.836 -0.0491 -0.0577  0.3258
16399TIP3    H170612   5.191   1.231   5.751 -1.3734 -0.6637 -0.0648
16399TIP3    H270613   5.137   1.106   5.819 -1.2132  0.3082  1.9176
16400TIP3   OH270614   4.588   5.686  11.660 -0.4148 -0.1848  0.4800
16400TIP3    H170615   4.523   5.623  11.691  0.3947 -0.1092  2.4896
16400TIP3    H270616   4.664   5.632  11.637  0.4666 -0.0087  2.6926
16401TIP3   OH270617   2.981   2.117  14.057 -0.0993  0.0185 -0.0445
16401TIP3    H170618   3.002   2.112  13.964  0.9260 -0.2793  0.1852
16401TIP3    H270619   3.059   2.081  14.101 -1.2241 -1.4173  0.8604
16402TIP3   OH270620   2.175   3.787   2.451  0.4762 -0.5619  0.1269
16402TIP3    H170621   2.108   3.846   2.486 -1.0934 -1.2726 -1.5089
16402TIP3    H270622   2.126   3.720   2.405  2.3149 -1.7111 -0.2638
16403TIP3   OH270623   5.139   2.519  15.305 -0.9266  0.3276 -0.4559
16403TIP3    H170624   5.072   2.563  15.356  0.5878  2.1772  0.0542
16403TIP3    H270625   5.172   2.450  15.363 -2.7151 -0.9825 -0.9293
16404TIP3   OH270626   6.477   4.886   2.283 -0.4323 -0.3031  0.4674
16404TIP3    H170627   6.554   4.889   2.226  0.5444  1.5094  1.8054
16404TIP3    H270628   6.404   4.908   2.225  0.2921 -0.2162 -0.4342
16405TIP3   OH270629   2.790   1.610  12.763 -0.1187  0.3163  0.3281
16405TIP3    H170630   2.875   1.569  12.776  0.6831  1.0592 -2.0122
16405TIP3    H270631   2.729   1.536  12.755  0.7187 -0.3240 -0.3324
16406TIP3   OH270632   5.999   1.087   5.722  0.1824  0.4792 -0.0978
16406TIP3    H170633   6.034   1.170   5.754 -0.0559  0.6598 -0.2999
16406TIP3    H270634   6.076   1.034   5.703  0.3246  0.2479  1.0768
16407TIP3   OH270635   1.926   5.842   3.879  0.6012 -0.2313  0.3408
16407TIP3    H170636   1.864   5.914   3.873  1.4996  0.4418 -3.6743
16407TIP3    H270637   1.896   5.779   3.813  4.1646  0.2541 -1.9769
16408TIP3   OH270638   5.266   5.901  11.165  0.3130  0.5172 -0.1655
16408TIP3    H170639   5.315   5.983  11.161  0.3259  0.5238  0.1247
16408TIP3    H270640   5.186   5.923  11.213  1.3307 -0.1359  1.9476
16409TIP3   OH270641   6.441   5.634  16.899 -0.6851 -0.0301 -0.6180
16409TIP3    H170642   6.371   5.696  16.879 -1.0166 -0.6657 -1.5028
16409TIP3    H270643   6.396   5.555  16.931 -0.2355  0.3909  1.1775
16410TIP3   OH270644   2.633   4.098  16.705 -0.4990  0.1967  0.0393
16410TIP3    H170645   2.620   4.142  16.620 -1.2920 -2.0952 -1.1221
16410TIP3    H270646   2.567   4.136  16.762 -0.2496  1.4659 -0.4821
16411TIP3   OH270647   0.452   5.478   6.305  0.6652 -0.5651  0.0694
16411TIP3    H170648   0.450   5.493   6.400  1.2497 -1.4874  0.2383
16411TIP3    H270649   0.393   5.544   6.269 -1.3671 -1.6436  1.2628
16412TIP3   OH270650   2.420   6.613  17.011  0.0502  0.4173  0.1015
16412TIP3    H170651   2.419   6.613  16.915 -1.0520 -2.0807  0.0469
16412TIP3    H270652   2.507   6.579  17.034 -0.2479 -0.4727 -0.0622
16413TIP3   OH270653   5.223   2.584   1.899  0.3753  0.2377 -0.1038
16413TIP3    H170654   5.185   2.498   1.882 -0.1451  0.2854  0.7569
16413TIP3    H270655   5.296   2.590   1.838 -0.9495  0.1238 -1.7845
16414TIP3   OH270656   0.476   4.341  16.939  0.7030 -0.0382 -0.1788
16414TIP3    H170657   0.541   4.338  17.010  1.4172 -0.3921 -0.8267
16414TIP3    H270658   0.527   4.328  16.859  0.0884  1.6332 -0.8878
16415TIP3   OH270659   3.779   5.195  11.886 -0.7741  0.4359 -0.1749
16415TIP3    H170660   3.786   5.103  11.911  0.3357  0.4817 -0.2941
16415TIP3    H270661   3.825   5.201  11.802 -1.5276  0.9556 -0.5668
16416TIP3   OH270662   5.167   2.517   4.753 -0.2282  0.0069 -0.1162
16416TIP3    H170663   5.082   2.515   4.708 -0.5934 -1.2586  0.5837
16416TIP3    H270664   5.199   2.605   4.738 -1.6314  0.4951 -0.4729
16417TIP3   OH270665   4.014   5.700   5.775  0.1394 -0.4819  0.1319
16417TIP3    H170666   4.037   5.652   5.855  1.1497  2.0651  1.5022
16417TIP3    H270667   3.935   5.749   5.799  1.3848  1.5933  0.2104
16418TIP3   OH270668   4.239   1.492  11.655 -0.2767 -0.2667  0.1559
16418TIP3    H170669   4.243   1.540  11.573  0.9647 -0.5679  0.0231
16418TIP3    H270670   4.324   1.448  11.662 -1.0526 -1.7694  0.6737
16419TIP3   OH270671   0.536   2.830  12.759  0.0658 -0.1224  0.2173
16419TIP3    H170672   0.618   2.869  12.726 -0.4570  0.0840 -0.8717
16419TIP3    H270673   0.531   2.860  12.850  1.6804 -0.9186  0.6187
16420TIP3   OH270674   5.578   0.525   3.778  0.1378  0.2366 -0.2237
16420TIP3    H170675   5.650   0.528   3.841 -0.0045  0.3786 -0.0663
16420TIP3    H270676   5.533   0.443   3.799 -0.4143  0.6971  0.4253
16421TIP3   OH270677   6.619   2.060   3.822  0.2044  0.3428 -0.5886
16421TIP3    H170678   6.548   2.072   3.886 -0.2209  0.3662 -1.0622
16421TIP3    H270679   6.627   2.145   3.779 -0.3380 -0.0169 -1.4121
16422TIP3   OH270680   5.186   0.552   3.771 -0.0672  0.2496 -0.0229
16422TIP3    H170681   5.239   0.606   3.830  0.8603 -0.5429 -0.1106
16422TIP3    H270682   5.096   0.571   3.796  0.2890  0.5756  1.0692
16423TIP3   OH270683   0.318   4.425   3.215  0.1909  0.7474  0.0815
16423TIP3    H170684   0.272   4.502   3.248 -0.4295  1.6747 -2.6168
16423TIP3    H270685   0.333   4.445   3.122  1.9079 -1.5173 -0.2078
16424TIP3   OH270686   2.298   4.904  13.556  0.1895  0.0715  0.1845
16424TIP3    H170687   2.215   4.879  13.596  0.2708  0.7072  0.7734
16424TIP3    H270688   2.292   4.871  13.466  1.3456 -4.3371  1.4859
16425TIP3   OH270689   2.140   5.860  13.959  0.0684  0.2498 -0.4080
16425TIP3    H170690   2.176   5.878  13.873 -1.2754  0.8856 -0.8610
16425TIP3    H270691   2.066   5.920  13.968  0.7448  0.8808  1.5844
16426TIP3   OH270692   1.918   2.359  17.079 -0.0103 -0.0508 -0.0658
16426TIP3    H170693   1.905   2.269  17.052  0.9578 -0.2087 -0.0354
16426TIP3    H270694   1.891   2.360  17.171  0.4278 -0.4180  0.0694
16427TIP3   OH270695   1.509   3.414   5.335  0.6944  0.3142  0.2315
16427TIP3    H170696   1.487   3.406   5.428  0.3892 -0.3315  0.1119
16427TIP3    H270697   1.427   3.440   5.294  1.0798  1.6395  0.2727
16428TIP3   OH270698   3.913   4.855  16.618 -0.7709 -0.3190  0.2554
16428TIP3    H170699   3.838   4.807  16.653 -1.9286  2.0129  1.1322
16428TIP3    H270700   3.877   4.911  16.549  0.1938  0.6612  0.5219
16429TIP3   OH270701   6.541   4.068  14.703 -0.3566 -0.0738  0.0835
16429TIP3    H170702   6.473   4.073  14.636 -0.4940 -0.0756  0.2214
16429TIP3    H270703   6.507   4.121  14.776 -0.0905  0.1432  0.0503
16430TIP3   OH270704   0.927   0.899  12.248 -0.0457 -0.9268 -0.5596
16430TIP3    H170705   0.896   0.916  12.337  0.1742 -1.3636 -0.3981
16430TIP3    H270706   0.860   0.843  12.210 -0.4747 -0.1996 -0.8957
16431TIP3   OH270707   1.566   6.283   5.154 -0.3958  0.3762 -0.2363
16431TIP3    H170708   1.614   6.357   5.191  1.9661 -0.9312 -0.5043
16431TIP3    H270709   1.622   6.250   5.085 -2.0633 -0.8244 -1.0848
16432TIP3   OH270710   5.796   6.123  11.552 -0.0534  0.2686  0.1292
16432TIP3    H170711   5.735   6.068  11.504 -1.9078  1.3974  1.0593
16432TIP3    H270712   5.827   6.067  11.624  0.5612 -0.5267 -0.7347
16433TIP3   OH270713   1.878   2.605  15.946 -0.3356  0.1660  0.6573
16433TIP3    H170714   1.934   2.548  15.998 -0.4132 -0.3064  0.2248
16433TIP3    H270715   1.900   2.693  15.977 -1.5942 -0.1773  2.6954
16434TIP3   OH270716   0.300   4.317  10.597 -0.8041 -0.3516  0.6822
16434TIP3    H170717   0.223   4.293  10.647 -1.1121 -0.4287  0.1796
16434TIP3    H270718   0.281   4.403  10.561  0.0033  0.3525  1.8665
16435TIP3   OH270719   2.497   2.327   3.571 -0.4121  0.1030 -0.2308
16435TIP3    H170720   2.519   2.330   3.478 -1.6314  1.7550 -0.5194
16435TIP3    H270721   2.538   2.247   3.603 -1.4277 -1.4804 -2.5749
16436TIP3   OH270722   4.447   5.504  13.613  0.5852  0.3013 -0.1194
16436TIP3    H170723   4.534   5.465  13.606 -0.2695 -1.5313 -1.1721
16436TIP3    H270724   4.418   5.512  13.522 -0.1754  1.3262  0.1992
16437TIP3   OH270725   6.770   5.260  14.369  0.3628  0.2964 -0.3337
16437TIP3    H170726   6.702   5.313  14.410  1.5654  1.0006  0.8112
16437TIP3    H270727   6.819   5.321  14.315 -0.3729 -0.3701 -1.8234
16438TIP3   OH270728   4.692   1.217  12.066  0.2242 -0.1743 -0.1034
16438TIP3    H170729   4.725   1.128  12.067 -0.5453 -0.4758 -0.2335
16438TIP3    H270730   4.606   1.211  12.108  0.7347  0.7536  1.1272
16439TIP3   OH270731   2.942   5.263  15.200 -1.1932  0.1514  0.5506
16439TIP3    H170732   2.902   5.275  15.286 -2.3882 -0.7357  0.1509
16439TIP3    H270733   2.886   5.313  15.141 -1.8466 -1.2270 -0.0425
16440TIP3   OH270734   0.434   0.428   1.681 -0.0628 -0.8497 -0.2031
16440TIP3    H170735   0.386   0.401   1.759 -0.4059 -0.5639 -0.3152
16440TIP3    H270736   0.367   0.436   1.613  0.3441 -1.9987 -0.7750
16441TIP3   OH270737   6.499   2.931  13.679 -0.1450  0.3466  0.3373
16441TIP3    H170738   6.587   2.917  13.712 -0.1275 -0.6358 -0.0823
16441TIP3    H270739   6.462   2.999  13.736  0.4156 -0.1861  1.3675
16442TIP3   OH270740   4.546   0.217  15.687  0.6142  0.6895 -0.3711
16442TIP3    H170741   4.580   0.164  15.614  0.1087 -0.7599  0.4141
16442TIP3    H270742   4.482   0.161  15.730 -0.1614  2.0634  0.3407
16443TIP3   OH270743   2.944   0.835   0.049  0.1315 -0.5245  0.4527
16443TIP3    H170744   3.036   0.813   0.041  0.3491  0.7562 -1.4051
16443TIP3    H270745   2.901   0.789  -0.024 -0.9321 -2.0583  1.9832
16444TIP3   OH270746   0.518   2.796   0.710 -0.3096  0.6312  0.0886
16444TIP3    H170747   0.613   2.795   0.697 -0.1909  0.6546  0.9400
16444TIP3    H270748   0.506   2.817   0.802 -1.1552  0.9170 -0.0771
16445TIP3   OH270749   3.865   3.184   2.741  0.4311 -0.3101 -0.5865
16445TIP3    H170750   3.851   3.256   2.803 -0.4114 -2.3684  1.7917
16445TIP3    H270751   3.935   3.214   2.684  0.8672  1.9525  1.0199
16446TIP3   OH270752   5.472   5.181   0.769  0.3280 -0.3899  0.0054
16446TIP3    H170753   5.564   5.177   0.793  0.2662  1.1008  0.5890
16446TIP3    H270754   5.438   5.258   0.814 -1.1930 -0.8576 -0.2601
16447TIP3   OH270755   4.135   6.664  10.912  0.3807  0.6963  0.4429
16447TIP3    H170756   4.116   6.712  10.831 -0.5106 -0.3698 -0.0098
16447TIP3    H270757   4.214   6.614  10.891 -0.7990 -0.9018 -0.4037
16448TIP3   OH270758   3.913   3.411   2.911 -0.1751  0.3918 -0.0439
16448TIP3    H170759   3.905   3.502   2.939  0.1948  0.2424  0.5544
16448TIP3    H270760   3.866   3.361   2.977  2.8495 -0.2019  1.8495
16449TIP3   OH270761   0.508   4.162   4.824 -0.8043 -0.6486  0.8089
16449TIP3    H170762   0.568   4.090   4.845 -1.9183 -1.1756  2.3514
16449TIP3    H270763   0.423   4.133   4.858 -1.4820  0.9960  0.5899
16450TIP3   OH270764   2.201   1.534  15.986 -0.2645  0.0764 -0.0493
16450TIP3    H170765   2.214   1.621  15.949  0.5591 -0.2649 -0.6045
16450TIP3    H270766   2.213   1.546  16.080 -2.1604  0.9111  0.1216
16451TIP3   OH270767   2.025   5.255   4.473 -0.6106 -0.3058 -0.2035
16451TIP3    H170768   1.941   5.211   4.488 -1.0578  0.6859  0.2939
16451TIP3    H270769   2.064   5.264   4.559 -0.1065 -0.5163 -0.4037
16452TIP3   OH270770   5.519   5.088  12.212 -0.3542 -0.3966  0.1441
16452TIP3    H170771   5.591   5.065  12.154 -0.3860  0.4147 -0.2267
16452TIP3    H270772   5.513   5.015  12.273  0.0967 -0.9619 -0.4754
16453TIP3   OH270773   4.851   4.486   1.162 -0.6853 -0.6225  0.5033
16453TIP3    H170774   4.846   4.444   1.076  2.1196 -0.0581 -0.0279
16453TIP3    H270775   4.919   4.438   1.208  0.4499  1.3849  1.0113
16454TIP3   OH270776   5.924   4.530   1.137  0.2403 -0.2221  0.0594
16454TIP3    H170777   6.008   4.498   1.171  0.2086 -0.8129 -0.4075
16454TIP3    H270778   5.949   4.593   1.069  0.2995 -0.1726  0.1254
16455TIP3   OH270779   1.258   3.284  11.610 -0.1508 -0.1428 -0.4816
16455TIP3    H170780   1.232   3.361  11.661  0.3857 -1.1819  1.4673
16455TIP3    H270781   1.197   3.282  11.536 -0.1218  2.1618 -0.6162
16456TIP3   OH270782   2.137   0.742  15.746 -0.1092 -0.6172  0.2702
16456TIP3    H170783   2.048   0.747  15.712 -0.4484 -0.0787  1.1969
16456TIP3    H270784   2.190   0.790  15.682 -0.2261 -2.1504 -1.0328
16457TIP3   OH270785   1.276   2.501  13.127 -0.1888  0.0085  0.3639
16457TIP3    H170786   1.366   2.529  13.143 -0.0694  0.8232 -1.4906
16457TIP3    H270787   1.248   2.462  13.210  1.3865  1.0151  1.4273
16458TIP3   OH270788   2.832   4.519   3.680  0.5660 -0.2674 -0.1748
16458TIP3    H170789   2.853   4.468   3.757 -0.3765 -0.6180 -0.1314
16458TIP3    H270790   2.804   4.604   3.714  2.5966  0.4767 -0.2698
16459TIP3   OH270791   4.689   0.611  10.723 -0.5700  0.2015  0.4427
16459TIP3    H170792   4.723   0.600  10.634  0.0750  0.4831  0.6460
16459TIP3    H270793   4.761   0.583  10.779 -0.0768  2.2754  0.9095
16460TIP3   OH270794   2.814   1.321   3.079  0.1240  0.1188  0.0066
16460TIP3    H170795   2.885   1.263   3.108 -0.7353 -1.0882 -0.2099
16460TIP3    H270796   2.747   1.313   3.147 -0.7659 -0.6059 -0.9269
16461TIP3   OH270797   2.257   2.407  16.912  0.2929 -0.0035  0.4069
16461TIP3    H170798   2.320   2.335  16.906  0.8167  0.2853  1.9672
16461TIP3    H270799   2.308   2.480  16.947 -0.3676  0.9667 -0.5885
16462TIP3   OH270800   3.200   0.352  12.876 -0.2769 -0.2463  0.0856
16462TIP3    H170801   3.126   0.319  12.825 -1.3018 -1.2202  2.0776
16462TIP3    H270802   3.193   0.447  12.870 -2.1043 -0.3004  0.7292
16463TIP3   OH270803   3.925   6.328  13.312 -0.3460 -0.2581  0.1914
16463TIP3    H170804   4.016   6.355  13.325  0.0980 -0.9018 -1.4062
16463TIP3    H270805   3.881   6.351  13.394  0.9864  1.1429  0.5399
16464TIP3   OH270806   3.250   3.109   0.158 -0.1368 -0.3802 -0.0511
16464TIP3    H170807   3.171   3.149   0.194 -1.3127  0.6490 -3.4096
16464TIP3    H270808   3.221   3.024   0.124  0.7350 -0.9696  0.6222
16465TIP3   OH270809   6.216   5.234  16.464  0.7998  0.0854 -0.0695
16465TIP3    H170810   6.274   5.226  16.539  0.4455  0.2577  0.2253
16465TIP3    H270811   6.266   5.197  16.391  1.2727  0.2255  0.1810
16466TIP3   OH270812   6.132   2.550   4.916  0.3896 -0.2074  0.9338
16466TIP3    H170813   6.057   2.500   4.882 -0.6236 -0.8165  3.7999
16466TIP3    H270814   6.092   2.627   4.957  1.4073 -0.1327  1.8072
16467TIP3   OH270815   6.415   6.339   1.708  0.1065 -0.1950 -0.3333
16467TIP3    H170816   6.450   6.329   1.797  0.2823  2.5511 -0.0154
16467TIP3    H270817   6.492   6.352   1.653 -0.1096 -0.0806 -0.6093
16468TIP3   OH270818   5.670   6.420  16.217 -0.3131  0.5295 -1.4207
16468TIP3    H170819   5.741   6.405  16.154  1.1460 -1.9853  0.6373
16468TIP3    H270820   5.697   6.373  16.295 -2.3376  2.9928  0.9590
16469TIP3   OH270821   0.425   0.374   4.312 -0.5039 -0.8263 -0.8109
16469TIP3    H170822   0.372   0.416   4.379  0.5281 -0.7452 -0.0136
16469TIP3    H270823   0.444   0.444   4.249  1.3579  0.0324  0.6021
16470TIP3   OH270824   2.050   3.954  16.786 -0.1142 -0.4516 -0.3951
16470TIP3    H170825   1.980   3.978  16.726 -0.8258 -0.0260  0.5817
16470TIP3    H270826   2.055   4.027  16.848  0.8329 -0.7232 -0.1327
16471TIP3   OH270827   6.094   1.565  13.680  0.1539  0.1798  0.2646
16471TIP3    H170828   6.037   1.593  13.752 -1.2838  1.4850 -1.2983
16471TIP3    H270829   6.101   1.642  13.624  2.2659 -0.4204 -0.3857
16472TIP3   OH270830   4.960   5.192  13.220 -0.2354  0.2493 -0.1760
16472TIP3    H170831   5.001   5.129  13.160  0.1400 -0.1579  0.4913
16472TIP3    H270832   5.023   5.264  13.226  0.0705 -0.0490  0.2921
16473TIP3   OH270833   1.415   1.872  13.061 -0.2206 -0.4770  0.7760
16473TIP3    H170834   1.393   1.959  13.095 -2.6644 -0.8873  0.4685
16473TIP3    H270835   1.473   1.834  13.127 -0.7680  0.6385  1.9494
16474TIP3   OH270836   6.007   4.746   4.688 -0.2074 -0.2336  0.7820
16474TIP3    H170837   6.017   4.659   4.650 -0.6145 -1.1253  2.6022
16474TIP3    H270838   6.084   4.794   4.657  0.4371 -1.4766  0.3538
16475TIP3   OH270839   1.547   1.541  14.625 -0.0396 -0.3910 -0.0508
16475TIP3    H170840   1.525   1.483  14.552  0.2257  0.3975 -0.7711
16475TIP3    H270841   1.600   1.610  14.586  0.3462 -0.1072  0.9466
16476TIP3   OH270842   5.350   0.058  16.174 -0.1444  0.2998  0.1202
16476TIP3    H170843   5.255   0.058  16.167 -0.1497 -0.3096  0.1453
16476TIP3    H270844   5.379  -0.005  16.108  0.2315  0.3306  0.2539
16477TIP3   OH270845   0.098   0.189  14.731  0.2529 -0.3008 -0.4310
16477TIP3    H170846   0.140   0.262  14.777 -0.4075 -0.2360  0.1033
16477TIP3    H270847   0.052   0.141  14.801  0.2800 -0.9447 -0.8493
16478TIP3   OH270848   1.503   1.490  10.821 -0.1135 -0.1279  0.3588
16478TIP3    H170849   1.448   1.459  10.749  0.3107  0.3256 -0.1666
16478TIP3    H270850   1.456   1.566  10.856 -0.3869 -0.4287  0.6564
16479TIP3   OH270851   1.887   6.086   3.607  0.3902 -0.0557 -0.1289
16479TIP3    H170852   1.920   6.159   3.554  0.1300  1.4169  1.6520
16479TIP3    H270853   1.964   6.053   3.654  0.4083 -0.6123 -0.5337
16480TIP3   OH270854   3.320   0.221   4.545 -0.0786  0.3736  0.0052
16480TIP3    H170855   3.301   0.153   4.609 -0.4926 -1.7740 -2.2138
16480TIP3    H270856   3.234   0.251   4.516  0.0834  2.7073  1.6959
16481TIP3   OH270857   2.914   5.822   2.404 -0.0756 -0.2349 -0.1363
16481TIP3    H170858   2.984   5.819   2.469 -0.3571  2.1913  0.3862
16481TIP3    H270859   2.883   5.913   2.406 -2.5567 -0.9630 -1.0669
16482TIP3   OH270860   5.174   4.333  16.458 -0.3047 -0.5908  0.0700
16482TIP3    H170861   5.198   4.377  16.377  0.6209 -0.8141  0.2078
16482TIP3    H270862   5.201   4.393  16.528  0.3161 -1.0534  0.2408
16483TIP3   OH270863   1.182   0.591  11.198 -0.8304 -0.0091 -0.4231
16483TIP3    H170864   1.164   0.658  11.132 -1.4953 -1.3191 -1.6317
16483TIP3    H270865   1.188   0.639  11.281  0.4784  1.7403 -1.4772
16484TIP3   OH270866   4.733   3.290   5.464  0.4719 -0.4586 -0.6009
16484TIP3    H170867   4.774   3.345   5.530  1.6870 -1.3471 -0.5939
16484TIP3    H270868   4.677   3.350   5.414  2.6245  1.0621 -1.3388
16485TIP3   OH270869   6.126   5.240  14.059 -0.2682  0.6106  0.0719
16485TIP3    H170870   6.053   5.258  14.119 -0.1156  2.4637 -0.2258
16485TIP3    H270871   6.201   5.226  14.115 -0.4909  0.4891  0.3423
16486TIP3   OH270872   3.980   5.214   4.276 -0.2885 -0.3312 -0.0450
16486TIP3    H170873   3.960   5.305   4.298  0.2975 -0.0019 -0.7923
16486TIP3    H270874   3.975   5.212   4.180 -1.2585 -1.3291  0.0076
16487TIP3   OH270875   4.770   1.212   4.440  0.0544  0.0705 -0.2353
16487TIP3    H170876   4.815   1.278   4.492  1.4855 -0.9848 -0.0618
16487TIP3    H270877   4.741   1.147   4.504 -3.1918  1.4392 -0.1399
16488TIP3   OH270878   4.626   0.862   6.414  0.0178  0.5598  0.2615
16488TIP3    H170879   4.678   0.943   6.414  0.1380  0.4830  0.9565
16488TIP3    H270880   4.540   0.889   6.447 -0.3782  0.6687 -0.8011
16489TIP3   OH270881   4.579   2.074   5.141  0.1685 -0.0177 -0.1439
16489TIP3    H170882   4.571   2.148   5.082 -1.7542  1.2227  1.5504
16489TIP3    H270883   4.665   2.085   5.182  0.1063  1.0081 -0.2608
16490TIP3   OH270884   4.296   0.158   0.891 -0.2538 -0.3070 -0.8304
16490TIP3    H170885   4.332   0.122   0.973 -1.2999 -1.8024 -0.9676
16490TIP3    H270886   4.371   0.165   0.833  0.5241  0.8380  0.2573
16491TIP3   OH270887   5.282   0.005   1.754  0.4243 -0.1676 -0.7070
16491TIP3    H170888   5.351  -0.052   1.721 -0.3827 -1.5498 -0.1158
16491TIP3    H270889   5.307   0.093   1.725  1.0737 -0.9554 -2.7364
16492TIP3   OH270890   1.272   1.100   5.797 -0.3301 -0.1792  0.1889
16492TIP3    H170891   1.240   1.011   5.807 -1.2448  0.0855 -0.2847
16492TIP3    H270892   1.257   1.141   5.883 -0.9524 -0.1564  0.0693
16493TIP3   OH270893   6.364   0.854   4.715 -0.5631 -0.1240 -0.2439
16493TIP3    H170894   6.362   0.865   4.810  0.0462  1.1168 -0.3505
16493TIP3    H270895   6.379   0.760   4.701  2.0347  0.0440  0.9339
16494TIP3   OH270896   6.335   6.697  13.861 -0.1484  0.5549 -0.0365
16494TIP3    H170897   6.367   6.727  13.776  2.4722 -0.5778  0.4465
16494TIP3    H270898   6.409   6.649  13.899 -1.6183  0.0366  2.4042
16495TIP3   OH270899   5.905   0.761  13.927  0.1337  0.5030 -0.3645
16495TIP3    H170900   5.926   0.806  14.009  0.4407  0.5798 -0.4850
16495TIP3    H270901   5.823   0.716  13.945  0.4589  0.1023  0.1544
16496TIP3   OH270902   1.667   6.417  16.896 -0.0648 -0.5697 -0.1649
16496TIP3    H170903   1.702   6.505  16.911 -0.0876 -0.7407  0.9161
16496TIP3    H270904   1.648   6.416  16.802  2.5850 -0.3934 -0.7834
16497TIP3   OH270905   2.572   3.350   3.054 -0.1666  0.4307  0.4512
16497TIP3    H170906   2.648   3.304   3.020 -0.6643  0.8404 -1.3072
16497TIP3    H270907   2.580   3.342   3.149  0.1642 -2.6327  0.2699
16498TIP3   OH270908   6.639   3.484   5.623 -0.5236  0.3746  0.0121
16498TIP3    H170909   6.653   3.410   5.683 -0.1174  1.5037  1.3643
16498TIP3    H270910   6.545   3.482   5.605 -0.4887 -0.5848 -0.1398
16499TIP3   OH270911   3.702   5.839   2.110  0.0939  0.1300 -0.1537
16499TIP3    H170912   3.700   5.919   2.163 -2.4277  0.3340 -0.4335
16499TIP3    H270913   3.766   5.858   2.041  0.3137  1.4855  0.3773
16500TIP3   OH270914   2.828   5.021  11.183  1.1207  0.5078 -0.7671
16500TIP3    H170915   2.854   4.933  11.156 -1.3332 -0.0342 -1.6447
16500TIP3    H270916   2.827   5.072  11.103 -1.1057  0.2776 -0.9594
16501TIP3   OH270917   1.587   0.771  11.702 -0.4676 -0.0808 -0.2138
16501TIP3    H170918   1.553   0.860  11.694 -0.5885 -0.0688  0.4097
16501TIP3    H270919   1.667   0.770  11.649  0.2967  0.7835  0.8957
16502TIP3   OH270920   4.782   2.610  16.106  0.6483  0.0874  0.0882
16502TIP3    H170921   4.776   2.623  16.201 -0.1941 -0.4726  0.1276
16502TIP3    H270922   4.862   2.559  16.093  1.8366  1.8185  0.2967
16503TIP3   OH270923   0.991   4.694  14.199  0.2522  0.0652  0.4094
16503TIP3    H170924   0.915   4.723  14.250  0.2009  2.0375 -0.6855
16503TIP3    H270925   1.030   4.625  14.252 -1.6923 -0.2890  1.5032
16504TIP3   OH270926   0.400   6.164   3.094 -0.1331 -0.2844 -0.6899
16504TIP3    H170927   0.325   6.161   3.035 -1.2108  0.0282  0.6094
16504TIP3    H270928   0.421   6.073   3.110  0.3284 -0.3682 -1.7462
16505TIP3   OH270929   0.369   2.735  13.887  0.2113  0.1625  0.5684
16505TIP3    H170930   0.464   2.729  13.900  0.0872  1.1564  2.3254
16505TIP3    H270931   0.347   2.825  13.913 -1.5577 -0.8750  3.1034
16506TIP3   OH270932   4.298   2.029  14.619 -0.1085  0.5555  0.1389
16506TIP3    H170933   4.272   2.032  14.527 -0.9980  1.5257  0.3922
16506TIP3    H270934   4.222   2.064  14.666  0.0744 -0.5533  1.3095
16507TIP3   OH270935   5.013   0.014   5.216 -0.5987  0.2011  0.0327
16507TIP3    H170936   5.085  -0.041   5.187  0.8102  1.4186  1.0944
16507TIP3    H270937   4.965  -0.040   5.278 -0.5516 -0.5784 -0.5945
16508TIP3   OH270938   1.885   2.592  12.416  0.6246  0.5978  0.3293
16508TIP3    H170939   1.959   2.535  12.394 -1.3285 -1.2997 -1.8110
16508TIP3    H270940   1.860   2.566  12.505  0.1532 -1.5878 -0.3781
16509TIP3   OH270941   5.462   0.318  14.170  0.2025 -0.0653 -0.4262
16509TIP3    H170942   5.511   0.294  14.092  0.6156 -0.9329  0.0876
16509TIP3    H270943   5.375   0.339  14.139  0.6345  0.5677 -1.2401
16510TIP3   OH270944   3.859   5.095   5.732 -0.0566  0.4590 -0.0176
16510TIP3    H170945   3.916   5.085   5.808  0.2455 -1.3841 -0.4412
16510TIP3    H270946   3.781   5.139   5.765  0.3126  0.1950  1.2388
16511TIP3   OH270947   0.612   3.776   1.663 -0.1977  0.0209 -0.3324
16511TIP3    H170948   0.646   3.715   1.729  0.1330  1.4024  0.8059
16511TIP3    H270949   0.579   3.850   1.713 -3.0021 -0.3102 -1.5170
16512TIP3   OH270950   6.481   0.349  15.669  0.0426  0.4716 -0.0188
16512TIP3    H170951   6.415   0.336  15.737  0.3623 -0.8798  0.0680
16512TIP3    H270952   6.565   0.341  15.715  0.4179 -4.2641 -0.9361
16513TIP3   OH270953   0.389   3.563  11.012  0.0590 -0.5498 -0.3563
16513TIP3    H170954   0.437   3.640  11.041 -0.2473 -1.0812  1.7526
16513TIP3    H270955   0.451   3.491  11.024 -0.1072 -0.8050 -1.0136
16514TIP3   OH270956   6.173   4.119   5.184 -0.0187 -0.0956  0.3381
16514TIP3    H170957   6.257   4.080   5.162  1.5243  2.3079  1.5969
16514TIP3    H270958   6.193   4.209   5.208 -2.9496  0.5406  0.8049
16515TIP3   OH270959   4.251   0.446   0.267 -0.0677  0.4320 -0.5583
16515TIP3    H170960   4.230   0.506   0.339  0.6525 -0.6164  0.5761
16515TIP3    H270961   4.346   0.433   0.274 -0.1373 -0.4232 -1.1163
16516TIP3   OH270962   0.020   2.504   2.279 -0.4912 -0.5002  0.1823
16516TIP3    H170963   0.099   2.506   2.334  0.3164  3.3828 -0.8198
16516TIP3    H270964   0.050   2.533   2.193 -3.0246  1.9153 -0.0426
16517TIP3   OH270965   0.249   4.124   4.101 -0.8067  0.1673  0.8733
16517TIP3    H170966   0.332   4.161   4.073 -1.6560  0.0083 -2.1813
16517TIP3    H270967   0.254   4.031   4.079 -2.1419  0.3512 -0.3564
16518TIP3   OH270968   2.984   3.065   0.457  0.6672 -0.3611  0.3720
16518TIP3    H170969   2.890   3.062   0.476  0.6040  0.3172  0.2066
16518TIP3    H270970   2.989   3.108   0.371  1.1722  0.2950  0.7255
16519TIP3   OH270971   0.926   1.873  15.633  0.3753 -0.2947 -0.8365
16519TIP3    H170972   0.853   1.825  15.595 -1.9474  0.9181  1.8046
16519TIP3    H270973   0.896   1.964  15.637  0.8449 -0.1515  2.6677
16520TIP3   OH270974   1.028   5.508  12.975 -0.2627  0.1050 -0.3826
16520TIP3    H170975   1.015   5.596  13.012 -2.5524 -0.3061 -0.0666
16520TIP3    H270976   1.108   5.516  12.923 -0.0642  2.2016  0.1381
16521TIP3   OH270977   1.619   0.735  11.994 -0.3689  0.1320 -0.1630
16521TIP3    H170978   1.612   0.772  11.906 -2.1973 -0.0795 -0.1406
16521TIP3    H270979   1.651   0.808  12.048 -0.8123  0.7299 -0.7028
16522TIP3   OH270980   2.168   1.256  16.464 -0.3396  0.0654 -0.4854
16522TIP3    H170981   2.074   1.239  16.468 -0.1969 -0.6118  2.0730
16522TIP3    H270982   2.208   1.171  16.485  0.9766 -0.2147 -3.6582
16523TIP3   OH270983   1.450   0.333  11.522 -0.2670  0.5679 -0.5334
16523TIP3    H170984   1.457   0.413  11.574  0.0132  0.0615  0.2201
16523TIP3    H270985   1.383   0.353  11.457 -1.8845  0.6500  1.0796
16524TIP3   OH270986   5.972   5.126   2.914  0.1267  0.4303 -0.0413
16524TIP3    H170987   6.000   5.115   3.004  0.1735  0.2276 -0.0807
16524TIP3    H270988   6.047   5.164   2.869 -0.6534  2.7892  0.5137
16525TIP3   OH270989   6.626   3.421   1.080  0.4770 -0.3837  0.1813
16525TIP3    H170990   6.645   3.332   1.108 -0.6783 -1.5404 -2.3405
16525TIP3    H270991   6.530   3.424   1.072  0.4107  1.3973  1.0768
16526TIP3   OH270992   0.760   4.349   5.723  0.2454  0.5987 -0.4931
16526TIP3    H170993   0.797   4.437   5.736 -2.2354  1.6176  0.3502
16526TIP3    H270994   0.706   4.358   5.644 -0.0116 -0.1513 -0.4063
16527TIP3   OH270995   6.207   1.170   0.533 -0.7726  0.0740  0.3070
16527TIP3    H170996   6.227   1.083   0.569  2.5017  0.1046 -1.1095
16527TIP3    H270997   6.286   1.222   0.549 -2.0993  2.3816 -0.1768
16528TIP3   OH270998   4.949   3.811  15.558  0.8551  0.1042  0.3227
16528TIP3    H170999   5.036   3.772  15.558  0.2384 -1.3214  0.0802
16528TIP3    H271000   4.941   3.853  15.644  1.0888 -1.3695  1.0844
16529TIP3   OH271001   1.189   2.312   0.520 -0.7116 -0.0047  0.2330
16529TIP3    H171002   1.230   2.227   0.535 -0.8538 -0.1720 -0.3023
16529TIP3    H271003   1.103   2.291   0.484  0.2567  0.3661 -2.5128
16530TIP3   OH271004   2.812   3.882  12.562 -0.2381  0.2947  0.0468
16530TIP3    H171005   2.775   3.842  12.641 -0.2074 -0.6752 -0.4079
16530TIP3    H271006   2.902   3.904  12.586 -0.0053 -0.6423  0.0879
16531TIP3   OH271007   1.555   6.737  11.468  0.4511  0.4796  0.2269
16531TIP3    H171008   1.596   6.688  11.397  0.2847  0.1244  0.3728
16531TIP3    H271009   1.521   6.816  11.426  0.5820  0.3961 -0.0415
16532TIP3   OH271010   5.319   5.720   3.162  0.1018 -0.4942 -0.5462
16532TIP3    H171011   5.318   5.814   3.145  0.7226 -0.7344 -2.1559
16532TIP3    H271012   5.251   5.685   3.104  0.3386 -1.1092 -0.4558
16533TIP3   OH271013   5.694   5.561  11.652  0.2278 -0.1894  0.2044
16533TIP3    H171014   5.707   5.477  11.696  0.6153 -0.0860  0.2865
16533TIP3    H271015   5.774   5.610  11.669 -0.7277  0.9128  1.7377
16534TIP3   OH271016   5.935   4.694  14.513  0.2908 -0.4080  0.1996
16534TIP3    H171017   5.965   4.672  14.425  0.2828  0.0593  0.0724
16534TIP3    H271018   5.865   4.632  14.532 -1.1997  0.8052 -0.9977
16535TIP3   OH271019   1.306   4.681  16.530  0.1271 -0.2043  0.5620
16535TIP3    H171020   1.271   4.716  16.612 -0.3884 -0.1238  0.3139
16535TIP3    H271021   1.279   4.589  16.530 -0.0385 -0.1564  0.3962
16536TIP3   OH271022   3.846   4.591  13.669  0.2420 -0.1476  0.3687
16536TIP3    H171023   3.787   4.587  13.744 -0.1896 -0.8469  0.0030
16536TIP3    H271024   3.850   4.684  13.647 -1.0430 -0.1193  0.1543
16537TIP3   OH271025   4.218   1.124  10.729 -0.0635  0.5385  0.2050
16537TIP3    H171026   4.232   1.089  10.641  0.6438  1.3915 -0.0369
16537TIP3    H271027   4.304   1.120  10.771 -0.0211  1.6979  0.2653
16538TIP3   OH271028   4.345   6.260   0.453 -0.1384  0.3107 -0.0674
16538TIP3    H171029   4.427   6.211   0.460 -0.3673 -0.4198 -1.8219
16538TIP3    H271030   4.342   6.314   0.532  1.7589 -0.0408  0.3003
16539TIP3   OH271031   0.167   3.493  12.591  0.1341 -0.2333  0.3423
16539TIP3    H171032   0.202   3.408  12.564 -1.3959 -0.5568 -0.7934
16539TIP3    H271033   0.122   3.476  12.673 -1.3499 -0.8769 -0.5611
16540TIP3   OH271034   2.527   6.779  15.475 -0.0954  0.0007  0.3219
16540TIP3    H171035   2.462   6.812  15.413  0.7633  0.0646 -0.5565
16540TIP3    H271036   2.490   6.801  15.561 -0.4074  1.6573 -0.1881
16541TIP3   OH271037   2.969   6.581  11.582 -0.3253 -0.0332  0.6280
16541TIP3    H171038   2.929   6.557  11.498 -0.9749  3.7737 -0.3138
16541TIP3    H271039   3.058   6.547  11.577 -1.0686 -1.9790 -0.5153
16542TIP3   OH271040   3.579   3.613  14.729 -0.6918 -0.1489  0.3152
16542TIP3    H171041   3.675   3.617  14.724 -0.7378  0.5239 -0.1731
16542TIP3    H271042   3.560   3.605  14.822 -0.1901  0.5998  0.4890
16543TIP3   OH271043   5.280   5.462  15.066  0.1846 -0.0687  0.7101
16543TIP3    H171044   5.332   5.449  14.986  0.2309  2.4255  0.2441
16543TIP3    H271045   5.191   5.476  15.034 -0.3634 -1.8109  1.3443
16544TIP3   OH271046   6.035   5.097  11.087 -0.0182 -1.0339 -0.5827
16544TIP3    H171047   6.074   5.067  11.004 -0.8611  1.4631 -1.9722
16544TIP3    H271048   5.940   5.092  11.072 -0.1818 -0.5306  0.2418
16545TIP3   OH271049   1.087   2.801  13.466 -0.2674 -0.4907 -0.3444
16545TIP3    H171050   1.078   2.711  13.437 -1.7167 -0.1387 -1.0788
16545TIP3    H271051   1.063   2.799  13.559  1.6118 -1.1490  0.1692
16546TIP3   OH271052   4.489   3.604   3.933  0.8210 -0.0485 -0.6980
16546TIP3    H171053   4.427   3.533   3.917 -0.9783  0.7026  2.2089
16546TIP3    H271054   4.560   3.563   3.982  0.0765  0.0042  0.4540
16547TIP3   OH271055   0.661   3.941   4.894 -0.5821 -0.0895  0.3701
16547TIP3    H171056   0.710   3.878   4.842  0.3796  0.4115  0.6380
16547TIP3    H271057   0.681   3.918   4.985  0.3766  1.0229  0.4673
16548TIP3   OH271058   3.883   4.101   6.241  0.1032 -0.4677 -0.4741
16548TIP3    H171059   3.817   4.039   6.272  0.7619 -1.0286 -0.1656
16548TIP3    H271060   3.922   4.137   6.320  0.2611 -0.2462 -0.6505
16549TIP3   OH271061   2.550   5.907   1.926 -0.1370  0.1657 -0.6358
16549TIP3    H171062   2.617   5.840   1.910  0.6536  0.8420 -0.2494
16549TIP3    H271063   2.591   5.966   1.990 -1.9094 -0.6276  1.3386
16550TIP3   OH271064   0.869   2.734   4.439  0.2439 -0.1140  0.0183
16550TIP3    H171065   0.937   2.676   4.473  0.8219  0.6335  0.1584
16550TIP3    H271066   0.856   2.706   4.349 -1.6985 -2.4965  0.9342
16551TIP3   OH271067   1.562   2.458   0.129  0.2130 -0.0439 -0.0226
16551TIP3    H171068   1.569   2.363   0.128 -1.5110 -0.2580  1.8789
16551TIP3    H271069   1.476   2.476   0.089  0.1134  0.6525  0.4848
16552TIP3   OH271070   1.887   0.544  12.577  0.5478  0.6071  0.0273
16552TIP3    H171071   1.981   0.554  12.562  0.9880  0.1002  2.2089
16552TIP3    H271072   1.862   0.471  12.521  1.1990  1.4062 -1.3797
16553TIP3   OH271073   0.318   3.400  11.666  0.1300  0.3635 -0.5349
16553TIP3    H171074   0.388   3.441  11.615  0.4882  0.8777  0.3552
16553TIP3    H271075   0.312   3.451  11.746 -0.7401 -0.1541 -0.2438
16554TIP3   OH271076   6.606   6.315  13.967 -0.2163  0.5606  0.3049
16554TIP3    H171077   6.517   6.283  13.984 -0.5993  1.5124  0.1760
16554TIP3    H271078   6.594   6.409  13.952  0.9121  0.8451  1.1052
16555TIP3   OH271079   4.009   0.675   5.172 -0.1271  0.3448  0.0185
16555TIP3    H171080   3.951   0.647   5.243 -0.1483 -1.2164 -0.5717
16555TIP3    H271081   4.021   0.769   5.186 -0.4308  0.1358  1.8500
16556TIP3   OH271082   5.232   6.590   0.092  0.4975 -0.6270  0.1663
16556TIP3    H171083   5.143   6.599   0.059  0.6851 -2.1491 -0.8315
16556TIP3    H271084   5.288   6.593   0.014  1.3202  0.0011  0.7483
16557TIP3   OH271085   4.394   4.555   6.067  0.2048 -0.6482  0.6311
16557TIP3    H171086   4.425   4.614   5.999  0.1548 -1.8378 -0.4630
16557TIP3    H271087   4.359   4.612   6.135  3.1921  0.7214  1.1616
16558TIP3   OH271088   3.377   2.963  11.526  0.0473 -0.2252  0.3141
16558TIP3    H171089   3.406   2.969  11.435 -0.5392 -1.0435  0.0664
16558TIP3    H271090   3.458   2.956  11.576  0.3584 -0.3271 -0.1946
16559TIP3   OH271091   3.830   5.936   1.899 -0.1922  0.2885 -0.3500
16559TIP3    H171092   3.923   5.913   1.904  0.2600  1.4425 -2.4145
16559TIP3    H271093   3.809   5.934   1.806 -2.8592 -2.0787  0.1712
16560TIP3   OH271094   5.107   2.693  14.232 -0.5850 -0.1644 -0.0455
16560TIP3    H171095   5.202   2.689  14.230 -0.4494  0.5254  2.1206
16560TIP3    H271096   5.085   2.776  14.190 -0.2949 -0.6284 -1.1412
16561TIP3   OH271097   0.366   3.964  15.008 -0.2028 -0.3697  1.0744
16561TIP3    H171098   0.443   3.911  14.987  0.1749  0.0618  1.3448
16561TIP3    H271099   0.351   4.017  14.930  1.6117  1.7282  2.0695
16562TIP3   OH271100   5.156   3.031  12.880 -0.3956  0.5333  0.2164
16562TIP3    H171101   5.203   2.994  12.955 -1.6794 -0.3201  0.6331
16562TIP3    H271102   5.124   3.116  12.912  1.8574  1.7432 -0.4822
16563TIP3   OH271103   3.533   1.297  14.135  0.5239 -0.2968  0.4426
16563TIP3    H171104   3.438   1.303  14.122  0.6927  0.6625 -0.4423
16563TIP3    H271105   3.542   1.270  14.227 -0.5954 -0.3192  0.5706
16564TIP3   OH271106   4.267   5.678   0.892  0.1338 -0.5323 -0.9633
16564TIP3    H171107   4.327   5.629   0.836  1.1118  0.3131 -0.6955
16564TIP3    H271108   4.316   5.757   0.915 -0.5913 -0.4340  0.3256
16565TIP3   OH271109   5.899   0.244  16.350  0.5811  0.0022  0.0042
16565TIP3    H171110   5.866   0.275  16.435 -1.1034 -0.3863 -0.4716
16565TIP3    H271111   5.968   0.307  16.327 -1.3569  2.2738 -0.0046
16566TIP3   OH271112   3.532   3.427   0.521 -0.3497 -0.1771  0.2726
16566TIP3    H171113   3.544   3.368   0.447 -2.4896 -1.8752  1.1545
16566TIP3    H271114   3.438   3.423   0.539  0.0520  0.3765  2.9028
16567TIP3   OH271115   5.272   0.042  11.170 -0.3289 -0.2541  0.2234
16567TIP3    H171116   5.363   0.068  11.159 -0.8497  1.2123 -1.0058
16567TIP3    H271117   5.222   0.113  11.131 -2.0361 -0.7229  1.4340
16568TIP3   OH271118   5.683   2.325  14.835 -0.1679  0.8804 -0.1722
16568TIP3    H171119   5.633   2.254  14.874  1.2550 -0.7366 -1.1731
16568TIP3    H271120   5.733   2.363  14.908 -0.0159  0.0413  0.1631
16569TIP3   OH271121   4.327   1.727   6.050 -0.0504 -0.2280  1.0038
16569TIP3    H171122   4.417   1.727   6.017 -1.0861  1.3615 -2.2071
16569TIP3    H271123   4.298   1.637   6.040  0.9643 -0.6258  1.4906
16570TIP3   OH271124   2.651   6.034   1.648  0.1638 -0.0605 -0.1087
16570TIP3    H171125   2.726   5.977   1.665 -0.0795 -0.1296  0.7745
16570TIP3    H271126   2.588   6.013   1.716 -0.7156 -0.0753 -0.8989
16571TIP3   OH271127   0.081   3.102   0.356  0.2204 -0.0008 -0.6366
16571TIP3    H171128  -0.011   3.104   0.331  0.0018 -0.2823  0.0881
16571TIP3    H271129   0.107   3.010   0.347  0.2977 -0.0044 -0.3923
16572TIP3   OH271130   5.123   1.211   3.822 -0.3259  0.5675 -0.0868
16572TIP3    H171131   5.039   1.203   3.777  0.2050  0.6481 -1.1229
16572TIP3    H271132   5.100   1.242   3.910 -1.4699 -0.6280  0.0721
16573TIP3   OH271133   6.329   3.036  12.821  0.2108 -0.0096  0.2489
16573TIP3    H171134   6.324   2.969  12.889  1.0033 -0.1271  0.1971
16573TIP3    H271135   6.363   2.990  12.745  0.7793  0.4517  0.2180
16574TIP3   OH271136   0.513   1.272  16.348 -0.9157 -0.2854 -0.1272
16574TIP3    H171137   0.460   1.313  16.415 -1.5817 -1.2487 -0.0402
16574TIP3    H271138   0.454   1.264  16.272 -1.1986 -2.0979  0.2294
16575TIP3   OH271139   2.500   5.217  14.122 -0.2836  0.0704  0.3300
16575TIP3    H171140   2.415   5.179  14.101  0.3800 -1.2018 -0.1398
16575TIP3    H271141   2.479   5.305  14.153 -1.7994 -0.3647  0.6491
16576TIP3   OH271142   2.752   6.481   0.776 -0.0288  0.6956  0.4627
16576TIP3    H171143   2.832   6.512   0.734 -0.2648 -0.3944 -0.8689
16576TIP3    H271144   2.780   6.409   0.832  0.1074  1.2900  1.1728
16577TIP3   OH271145   1.035   5.118  13.906 -0.0014 -0.4093 -0.7427
16577TIP3    H171146   0.945   5.089  13.896 -1.8587  4.2463 -0.0955
16577TIP3    H271147   1.062   5.145  13.819  0.3672 -0.6856 -0.7186
16578TIP3   OH271148   6.226   3.837   4.507 -0.4157  0.4282  0.1744
16578TIP3    H171149   6.204   3.930   4.494  0.7072  0.5972 -0.7271
16578TIP3    H271150   6.273   3.835   4.590 -1.4222  0.4688  0.7674
16579TIP3   OH271151   0.442   6.550  11.132  0.0050 -0.0696  0.1859
16579TIP3    H171152   0.500   6.603  11.188 -0.1245  2.0307 -1.5534
16579TIP3    H271153   0.501   6.490  11.086  0.3287 -0.4981  1.1337
16580TIP3   OH271154   3.193   4.330   0.840  0.1833 -0.5958 -0.0807
16580TIP3    H171155   3.275   4.356   0.881 -0.2792  0.2783  0.3147
16580TIP3    H271156   3.132   4.320   0.914 -0.3448 -0.1776 -0.4580
16581TIP3   OH271157   4.240   4.757  13.497 -0.2718  0.5116  0.1026
16581TIP3    H171158   4.183   4.798  13.563  0.7524  1.3810  0.4785
16581TIP3    H271159   4.319   4.732  13.546  0.5633  1.2956 -0.8134
16582TIP3   OH271160   1.615   3.474   4.667  0.3690 -0.2964  0.0538
16582TIP3    H171161   1.571   3.550   4.704  1.1889 -0.6780  1.9213
16582TIP3    H271162   1.666   3.509   4.593 -0.9073  0.5706 -0.4561
16583TIP3   OH271163   1.693   0.410  12.892  0.3403 -0.0007 -0.2269
16583TIP3    H171164   1.664   0.454  12.812  0.6688  0.0864 -0.2979
16583TIP3    H271165   1.749   0.339  12.860  1.4932  0.8002 -0.0192
16584TIP3   OH271166   0.758   5.842   5.486 -0.6678 -0.5270  0.2974
16584TIP3    H171167   0.708   5.810   5.411  1.0858 -2.0659 -0.2929
16584TIP3    H271168   0.728   5.789   5.560 -0.1278 -1.2723 -0.0041
16585TIP3   OH271169   4.291   0.989   0.629 -0.0144 -0.4934 -0.3954
16585TIP3    H171170   4.250   1.033   0.555  1.0701  0.4099 -0.4886
16585TIP3    H271171   4.369   1.042   0.648 -1.2951  0.5207  2.6717
16586TIP3   OH271172   4.542   3.256   6.107  0.2860  0.0661  0.5029
16586TIP3    H171173   4.538   3.225   6.198 -1.1030 -0.2852  0.3518
16586TIP3    H271174   4.545   3.352   6.115  2.5047  0.0115  0.9318
16587TIP3   OH271175   6.687   0.747   0.700  0.1441  0.3409 -0.4546
16587TIP3    H171176   6.632   0.679   0.737  1.3887  0.4908  1.8599
16587TIP3    H271177   6.641   0.775   0.621 -1.0275 -2.2651 -0.7998
16588TIP3   OH271178   3.699   6.604  17.198  0.4971 -0.4931  0.1113
16588TIP3    H171179   3.792   6.620  17.214  0.9203 -0.4557 -2.0766
16588TIP3    H271180   3.654   6.660  17.261  1.9632  2.4435 -1.2485
16589TIP3   OH271181   1.019   2.704   2.552  0.1661  0.3728 -0.1750
16589TIP3    H171182   0.988   2.721   2.641 -0.1017 -0.3688 -0.1246
16589TIP3    H271183   1.104   2.663   2.564  0.1929  0.3994 -0.2704
16590TIP3   OH271184   5.627   1.325  16.986  0.1562  0.2844  0.4205
16590TIP3    H171185   5.682   1.262  16.941 -0.2479  1.7158 -2.2940
16590TIP3    H271186   5.541   1.317  16.944  0.5680  3.8533 -1.4427
16591TIP3   OH271187   1.376   5.501  13.105 -0.0181 -0.6681  0.4621
16591TIP3    H171188   1.317   5.428  13.122  1.4773 -2.0854 -0.1457
16591TIP3    H271189   1.418   5.518  13.190  1.6260 -2.3980  0.0476
16592TIP3   OH271190   2.453   1.274   0.645 -0.4868 -0.5776  0.4058
16592TIP3    H171191   2.523   1.324   0.604 -0.9545 -0.1798  0.0869
16592TIP3    H271192   2.499   1.203   0.691  0.0753 -0.7779 -0.4382
16593TIP3   OH271193   5.932   1.116   5.059  0.2327  0.2204  0.2804
16593TIP3    H171194   6.018   1.136   5.021  0.2136 -0.4898 -0.1623
16593TIP3    H271195   5.886   1.068   4.990 -0.1348 -0.3219  0.8918
16594TIP3   OH271196   5.513   0.654  15.929  0.6635 -0.4125 -0.3012
16594TIP3    H171197   5.597   0.645  15.884 -0.5362 -1.8331 -2.4738
16594TIP3    H271198   5.467   0.722  15.879  0.7357  0.8195  1.2652
16595TIP3   OH271199   5.387   4.170   2.197 -0.1724  0.2200  0.7959
16595TIP3    H171200   5.363   4.242   2.140  0.1307  1.2099  1.8939
16595TIP3    H271201   5.436   4.110   2.140 -1.3457  0.3338 -0.3759
16596TIP3   OH271202   1.315   1.460   2.660 -0.1842 -0.0304  0.5638
16596TIP3    H171203   1.307   1.555   2.656 -0.0028  0.1060  2.4256
16596TIP3    H271204   1.260   1.428   2.588 -0.4224  1.4610  0.0460
16597TIP3   OH271205   5.020   5.888   6.083  0.0952 -1.1293  0.0747
16597TIP3    H171206   5.092   5.840   6.125  0.8961  0.1631  0.2089
16597TIP3    H271207   4.982   5.940   6.153 -0.8008 -1.5707 -0.0667
16598TIP3   OH271208   3.655   3.716  11.903  0.2684 -0.4916  0.4653
16598TIP3    H171209   3.689   3.745  11.987  1.3014 -1.6247  0.4684
16598TIP3    H271210   3.725   3.734  11.841  0.5753 -2.0264  0.3155
16599TIP3   OH271211   2.096   2.984   0.561 -0.0522  0.1884  0.1284
16599TIP3    H171212   2.175   2.932   0.578  0.2308  1.2214  2.4098
16599TIP3    H271213   2.041   2.928   0.506  0.9758 -1.7955  1.0248
16600TIP3   OH271214   4.109   1.828   2.086  0.4113 -0.1884 -0.2441
16600TIP3    H171215   4.068   1.910   2.113  1.0989  0.5779 -1.4235
16600TIP3    H271216   4.163   1.802   2.161  0.1700  0.4214  0.1532
16601TIP3   OH271217   1.452   0.511   6.874  0.1980 -0.0984  0.0976
16601TIP3    H171218   1.546   0.527   6.862  0.2152  0.2060  0.6228
16601TIP3    H271219   1.414   0.523   6.787  0.6102  0.0331 -0.0647
16602TIP3   OH271220   3.484   0.451  14.466 -0.2559 -0.6520 -0.0431
16602TIP3    H171221   3.411   0.513  14.465 -0.9527 -1.4152  1.1030
16602TIP3    H271222   3.514   0.451  14.557  0.5300 -1.0953 -0.2944
16603TIP3   OH271223   2.211   4.932  15.848 -0.7167 -0.3358 -0.1314
16603TIP3    H171224   2.282   4.990  15.819  0.5650 -2.0256 -0.5488
16603TIP3    H271225   2.207   4.864  15.782 -2.6938 -0.3754 -0.0388
16604TIP3   OH271226   3.614   4.676   0.421  0.1753 -0.5133 -0.1864
16604TIP3    H171227   3.577   4.608   0.365 -1.6353  0.6760 -0.5171
16604TIP3    H271228   3.708   4.673   0.404 -0.2235 -0.7041 -2.6995
16605TIP3   OH271229   2.067   4.950  14.832 -0.1263  0.4040 -0.5311
16605TIP3    H171230   1.999   4.899  14.875 -0.2833 -0.1483 -1.4023
16605TIP3    H271231   2.103   5.006  14.901  0.5662 -1.4052  0.6391
16606TIP3   OH271232   3.463   6.040   3.070 -0.1001  0.2820 -0.6470
16606TIP3    H171233   3.553   6.033   3.101 -0.1702  0.1023 -0.4824
16606TIP3    H271234   3.414   5.979   3.126  0.1357 -1.8579 -2.6416
16607TIP3   OH271235   4.371   4.156   4.594  0.5551 -0.4256  0.2068
16607TIP3    H171236   4.309   4.174   4.665  0.4531  0.4275 -0.0824
16607TIP3    H271237   4.449   4.205   4.619  1.5071 -2.3212  1.0893
16608TIP3   OH271238   5.513   6.254  14.870 -0.2961 -0.6424  0.1837
16608TIP3    H171239   5.493   6.347  14.869  0.6122 -0.4022  1.4646
16608TIP3    H271240   5.428   6.210  14.877 -0.6392  0.1389  0.9745
16609TIP3   OH271241   4.776   4.509   5.293  0.5003 -0.1259 -0.8444
16609TIP3    H171242   4.824   4.562   5.357 -1.5539 -1.4173  1.9870
16609TIP3    H271243   4.698   4.561   5.273 -1.0533 -1.4676  1.2284
16610TIP3   OH271244   3.137   1.631   5.487 -0.4069  0.1783 -0.0672
16610TIP3    H171245   3.212   1.667   5.534  0.5100 -2.9739  1.1536
16610TIP3    H271246   3.172   1.558   5.436 -2.3975 -0.3834 -0.7468
16611TIP3   OH271247   6.444   5.316  17.204 -0.1797  0.0094  0.1987
16611TIP3    H171248   6.537   5.305  17.221  0.1746 -0.4123 -1.7279
16611TIP3    H271249   6.421   5.400  17.244  0.4383 -0.9190  2.7047
16612TIP3   OH271250   6.225   4.671  15.414  0.0887  0.3517 -0.0159
16612TIP3    H171251   6.256   4.681  15.504  2.3778  0.6297 -0.7733
16612TIP3    H271252   6.301   4.690  15.360 -0.2430 -2.9922 -1.9731
16613TIP3   OH271253   2.631   0.482  16.054 -0.0640  0.2038  0.1700
16613TIP3    H171254   2.557   0.421  16.042 -1.6952  1.7302  1.7559
16613TIP3    H271255   2.669   0.490  15.967 -2.1758 -0.1865 -0.8732
16614TIP3   OH271256   4.313   3.187  15.219  0.6741 -0.1787 -0.2131
16614TIP3    H171257   4.388   3.147  15.264  0.6886  0.2517  0.1571
16614TIP3    H271258   4.240   3.174  15.280  0.9638  1.6004  0.5932
16615TIP3   OH271259   2.849   0.293  16.123 -0.1471  0.6308 -0.0301
16615TIP3    H171260   2.924   0.349  16.144  0.7872 -0.0773 -1.2726
16615TIP3    H271261   2.772   0.346  16.142  0.6372  1.1082  2.0348
16616TIP3   OH271262   5.963   6.769   1.901 -0.0493  0.1367  0.4416
16616TIP3    H171263   5.931   6.772   1.991  0.1881 -1.8351  0.6445
16616TIP3    H271264   5.934   6.852   1.862 -1.3847  0.4090  1.9109
16617TIP3   OH271265   0.098   5.201   2.984  0.0186  0.3220 -0.3456
16617TIP3    H171266   0.136   5.234   3.065 -1.7928 -3.2720  2.2108
16617TIP3    H271267   0.164   5.142   2.948 -0.5452 -0.9702  0.6448
16618TIP3   OH271268   3.224   4.273   2.681  0.2164  0.0202  0.4011
16618TIP3    H171269   3.179   4.352   2.712 -0.5978 -0.5391  0.6652
16618TIP3    H271270   3.227   4.282   2.586 -2.8327 -1.1277  0.0806
16619TIP3   OH271271   1.259   5.375  14.666 -1.2599  0.4248 -0.1481
16619TIP3    H171272   1.245   5.468  14.649  2.4758  1.3333  0.9800
16619TIP3    H271273   1.252   5.334  14.579 -0.8444  2.0896 -1.0112
16620TIP3   OH271274   0.010   0.432   0.171  0.3773  0.3975  0.6164
16620TIP3    H171275   0.072   0.498   0.139  1.4034 -0.3612  0.9536
16620TIP3    H271276   0.065   0.356   0.190 -0.8053 -0.7068 -0.1546
16621TIP3   OH271277   2.477   6.307   0.334 -0.0803 -0.1459  0.2876
16621TIP3    H171278   2.401   6.300   0.392 -0.5042  0.9524 -0.1175
16621TIP3    H271279   2.546   6.345   0.389  0.2513 -1.2656  0.6924
16622TIP3   OH271280   3.574   2.023   3.528  1.1695 -0.0803  0.0809
16622TIP3    H171281   3.617   1.942   3.553  1.8706  0.3128  0.1910
16622TIP3    H271282   3.585   2.028   3.433 -0.7550 -1.1581 -0.2327
16623TIP3   OH271283   1.205   0.270   2.044  0.2216  0.3556  0.6065
16623TIP3    H171284   1.283   0.214   2.048  0.2350  0.3996  0.9491
16623TIP3    H271285   1.133   0.212   2.070 -0.1667 -0.2284 -1.5090
16624TIP3   OH271286   1.177   0.115  15.771  0.5316 -0.2122  0.0366
16624TIP3    H171287   1.128   0.148  15.696 -1.2985  1.0993  1.7102
16624TIP3    H271288   1.215   0.192  15.811  1.9589 -0.9595  0.1885
16625TIP3   OH271289   4.869   2.731   5.280 -0.6286 -0.5406 -0.1217
16625TIP3    H171290   4.903   2.818   5.259 -2.2600  0.0401 -0.4630
16625TIP3    H271291   4.836   2.697   5.197 -1.7178 -0.6853  0.3541
16626TIP3   OH271292   3.839   0.597   2.955 -0.7261  0.1887  0.2356
16626TIP3    H171293   3.876   0.513   2.985 -2.5513 -1.3471 -1.5817
16626TIP3    H271294   3.899   0.626   2.886 -0.9276 -0.4413 -0.2116
16627TIP3   OH271295   0.126   6.198   6.478 -0.4656 -0.3080 -0.6971
16627TIP3    H171296   0.040   6.235   6.495 -0.4167 -1.4481  2.8643
16627TIP3    H271297   0.186   6.273   6.481 -1.0966  0.2476 -1.4547
16628TIP3   OH271298   4.000   1.614   4.096 -0.1733 -0.3944  0.2353
16628TIP3    H171299   4.076   1.557   4.081  0.8038  1.1232 -0.9315
16628TIP3    H271300   3.955   1.575   4.171  0.9723 -2.1374  0.0799
16629TIP3   OH271301   5.231   4.996  11.056 -0.2157 -0.0463  0.5003
16629TIP3    H171302   5.263   5.012  11.145  0.3321 -1.0402  0.4981
16629TIP3    H271303   5.307   4.961  11.009 -0.4916  0.4794 -0.3732
16630TIP3   OH271304   4.011   4.456  12.705  0.6507 -0.4275 -0.4648
16630TIP3    H171305   4.059   4.487  12.782 -0.0507 -0.2601 -0.0807
16630TIP3    H271306   3.975   4.371  12.732  0.6157 -0.4850 -0.6925
16631TIP3   OH271307   5.854   0.807   3.560  0.0045  0.3632  0.5939
16631TIP3    H171308   5.794   0.779   3.491  2.0462  0.9145 -1.5613
16631TIP3    H271309   5.904   0.728   3.582 -0.1078  0.3721  0.8886
16632TIP3   OH271310   0.643   6.373  15.059  0.2185 -0.2093  0.0247
16632TIP3    H171311   0.635   6.444  14.995  0.3161 -0.8849 -0.7490
16632TIP3    H271312   0.589   6.302  15.024  0.3897 -0.6394  0.6122
16633TIP3   OH271313   0.290   1.852   5.041  0.4649  0.3340  0.2623
16633TIP3    H171314   0.248   1.937   5.037  2.1949  1.3335  1.8075
16633TIP3    H271315   0.258   1.813   5.123  1.4412  0.5142  0.7396
16634TIP3   OH271316   1.372   2.481   3.853 -0.1929  0.4399 -0.0806
16634TIP3    H171317   1.298   2.517   3.902 -0.6803 -1.3755  0.5580
16634TIP3    H271318   1.445   2.539   3.874 -0.9966  1.1927  0.7200
16635TIP3   OH271319   3.349   4.202  12.531 -0.5128  0.0281  0.0628
16635TIP3    H171320   3.361   4.251  12.613  1.0240  2.3143 -1.4201
16635TIP3    H271321   3.277   4.248  12.486  0.3367  0.3980 -0.9488
16636TIP3   OH271322   4.520   0.535   3.922 -0.0588  0.3014  0.0546
16636TIP3    H171323   4.479   0.449   3.911 -1.2687  0.9091 -0.4048
16636TIP3    H271324   4.522   0.550   4.016  0.7804 -0.5079  0.1748
16637TIP3   OH271325   0.570   4.169  11.868 -0.4274  0.3669 -0.1778
16637TIP3    H171326   0.514   4.245  11.881  1.4742  1.5478  1.7696
16637TIP3    H271327   0.607   4.181  11.780 -2.1822  0.2059 -0.9792
16638TIP3   OH271328   4.185   3.357   1.980 -0.1031  0.6348 -0.0661
16638TIP3    H171329   4.147   3.331   1.896  0.1863 -1.4067  0.3699
16638TIP3    H271330   4.110   3.374   2.036 -0.3486 -0.1250 -0.1501
16639TIP3   OH271331   4.681   1.846  17.134  0.2851  0.1276  0.4427
16639TIP3    H171332   4.592   1.873  17.114  0.6132  0.4432 -0.6574
16639TIP3    H271333   4.697   1.878  17.223 -1.2681 -1.4391  1.3680
16640TIP3   OH271334   3.163   0.298   3.307  0.2906 -0.1472  0.0864
16640TIP3    H171335   3.201   0.290   3.220  0.6144 -0.7029  0.2711
16640TIP3    H271336   3.178   0.388   3.333  0.1473  0.0331 -0.4548
16641TIP3   OH271337   5.670   2.636   2.475  0.0985 -0.1116 -0.3084
16641TIP3    H171338   5.684   2.714   2.421 -2.3574  0.3060 -0.4366
16641TIP3    H271339   5.695   2.664   2.563 -0.7421  0.8283 -0.3512
16642TIP3   OH271340   4.342   1.464  12.341 -0.3521  0.3074 -0.7558
16642TIP3    H171341   4.270   1.431  12.288 -1.1610  0.6052  0.1227
16642TIP3    H271342   4.374   1.387  12.388 -1.8460  0.6011  0.8380
16643TIP3   OH271343   2.024   3.340  11.856 -0.0808  0.0470 -0.3037
16643TIP3    H171344   2.102   3.287  11.874 -1.1638 -1.0745  1.3444
16643TIP3    H271345   1.961   3.315  11.924 -1.4286  1.8868 -0.7907
16644TIP3   OH271346   1.514   1.517  16.595  0.2917  0.0066 -0.4476
16644TIP3    H171347   1.604   1.485  16.609  0.5177  0.5292 -0.6776
16644TIP3    H271348   1.514   1.549  16.505  0.4607  1.8631  0.1636
16645TIP3   OH271349   5.723   3.381  16.557  0.1945  0.1529 -0.3906
16645TIP3    H171350   5.636   3.412  16.581 -0.3196 -1.3291 -0.2223
16645TIP3    H271351   5.781   3.422  16.621 -0.5193  0.3471  0.1503
16646TIP3   OH271352   2.463   3.944  10.577 -0.4635 -0.2052 -0.3973
16646TIP3    H171353   2.459   4.017  10.639  1.7390 -1.2869  1.1605
16646TIP3    H271354   2.385   3.893  10.595  0.4210 -0.8193  2.0013
16647TIP3   OH271355   1.260   6.491   2.021 -0.0170 -0.3614  0.3899
16647TIP3    H171356   1.265   6.522   2.111  0.7411 -0.3555  0.3477
16647TIP3    H271357   1.191   6.545   1.982  0.2826  0.2715  0.7161
16648TIP3   OH271358   5.888   2.886  12.225 -0.6127 -0.0831  0.4406
16648TIP3    H171359   5.868   2.909  12.134  0.1062 -3.3121 -0.6719
16648TIP3    H271360   5.979   2.913  12.238  0.3075 -2.2605 -0.9177
16649TIP3   OH271361   5.127   0.804  15.374 -0.3369 -0.0854  0.1451
16649TIP3    H171362   5.147   0.719  15.334  0.7394  0.9021 -1.5326
16649TIP3    H271363   5.209   0.831  15.416 -0.4709  0.4395  0.0720
16650TIP3   OH271364   2.409   1.905  16.890  0.0180  0.0179 -0.0447
16650TIP3    H171365   2.475   1.974  16.885 -0.7185  0.7648  0.1780
16650TIP3    H271366   2.430   1.857  16.970  0.4388  0.0904 -0.1125
16651TIP3   OH271367   3.783   5.291  14.588  0.5481 -0.6537  0.0585
16651TIP3    H171368   3.811   5.212  14.541 -1.2837 -0.9964 -0.5717
16651TIP3    H271369   3.798   5.362  14.526 -0.4178 -0.9055 -0.4939
16652TIP3   OH271370   3.848   3.352   5.041 -0.4488  0.2089 -0.1940
16652TIP3    H171371   3.762   3.315   5.056 -0.1714 -0.4766 -0.2693
16652TIP3    H271372   3.865   3.338   4.948  0.5173 -1.3722  0.1879
16653TIP3   OH271373   3.876   1.051  13.266  0.0724  0.4417 -0.2315
16653TIP3    H171374   3.884   1.057  13.361 -4.0584 -0.7803  0.3992
16653TIP3    H271375   3.804   0.989  13.252  0.5319  0.5532 -4.1808
16654TIP3   OH271376   2.772   1.332   2.422 -0.0003 -0.0628 -0.3385
16654TIP3    H171377   2.825   1.410   2.440  0.2120 -0.2641 -0.0840
16654TIP3    H271378   2.812   1.294   2.344  0.7108 -0.6375  0.2979
16655TIP3   OH271379   4.504   1.567   3.312 -0.1350  0.7695  0.1246
16655TIP3    H171380   4.435   1.632   3.329  0.2568  1.2230  0.0095
16655TIP3    H271381   4.575   1.618   3.272 -0.3274  0.0604 -1.1923
16656TIP3   OH271382   5.731   1.574   3.327  0.1250 -0.2435  0.2651
16656TIP3    H171383   5.778   1.616   3.256  0.4335 -1.1636 -0.0955
16656TIP3    H271384   5.671   1.513   3.284  1.5698 -2.1431  0.7565
16657TIP3   OH271385   6.637   0.668  13.143 -0.2553 -0.8450 -0.1861
16657TIP3    H171386   6.721   0.713  13.153 -0.5963 -0.2698  0.1768
16657TIP3    H271387   6.640   0.598  13.208 -0.3264 -0.3910  0.3245
16658TIP3   OH271388   5.397   4.304  14.099 -0.3034 -0.2244  0.2963
16658TIP3    H171389   5.414   4.288  14.191 -1.4818 -1.3640  0.3370
16658TIP3    H271390   5.336   4.235  14.073 -0.0999  0.1582 -1.2978
16659TIP3   OH271391   3.122   2.167  11.996 -0.0978  0.7536  0.2220
16659TIP3    H171392   3.072   2.101  12.045  0.6042  1.2886  1.7172
16659TIP3    H271393   3.211   2.132  11.992  0.0839  1.2085  0.2685
16660TIP3   OH271394   4.833   1.666   2.162  0.3064 -0.2155  0.2908
16660TIP3    H171395   4.815   1.760   2.165  1.1913  0.0075 -0.9019
16660TIP3    H271396   4.748   1.626   2.180 -0.5555  0.8218 -1.1839
16661TIP3   OH271397   2.250   0.686  16.507  0.6339  0.2111 -0.1810
16661TIP3    H171398   2.168   0.691  16.557  0.7294  3.3350 -0.1716
16661TIP3    H271399   2.233   0.737  16.428  2.1356 -0.3004 -0.8705
16662TIP3   OH271400   1.733   3.662  17.077 -0.1347  0.1594  0.1906
16662TIP3    H171401   1.798   3.687  17.144  0.2111 -0.0519 -0.0627
16662TIP3    H271402   1.703   3.576  17.105  0.2889 -0.0947 -0.1312
16663TIP3   OH271403   5.432   3.747   1.225  0.2442  0.0416  0.1757
16663TIP3    H171404   5.428   3.700   1.308  0.7967 -1.6190 -0.6852
16663TIP3    H271405   5.423   3.679   1.158 -1.3551  1.4512 -1.1424
16664TIP3   OH271406   0.963   2.483  11.602 -0.1736 -0.1196 -0.0958
16664TIP3    H171407   0.908   2.406  11.611 -1.2045  0.3292 -1.9709
16664TIP3    H271408   0.933   2.525  11.521 -0.0411  2.5594  1.1306
16665TIP3   OH271409   0.941   5.478   3.006  0.2810 -0.0878  0.2190
16665TIP3    H171410   0.968   5.426   2.930 -0.9365 -0.2465 -0.1229
16665TIP3    H271411   1.003   5.551   3.009 -0.1955  0.4311 -1.4936
16666TIP3   OH271412   0.515   1.834   1.336  0.4910 -0.4602  0.0129
16666TIP3    H171413   0.497   1.782   1.415 -1.9270 -0.2042 -0.2770
16666TIP3    H271414   0.463   1.792   1.268  0.4071  0.9116 -0.8038
16667TIP3   OH271415   3.639   4.223  10.914 -0.2558  0.5495 -0.0802
16667TIP3    H171416   3.545   4.226  10.929 -0.0045  1.7393  1.4649
16667TIP3    H271417   3.671   4.309  10.941  1.0341  0.9576 -2.5438
16668TIP3   OH271418   1.940   2.047  11.592  0.4237  0.0815 -0.0961
16668TIP3    H171419   1.880   1.983  11.630  0.5462 -0.5968 -0.9945
16668TIP3    H271420   1.903   2.065  11.505  1.0511  0.2958 -0.3277
16669TIP3   OH271421   0.320   2.566  11.801  0.1217 -0.3508  0.3333
16669TIP3    H171422   0.275   2.546  11.718 -0.2027  2.0800 -0.1443
16669TIP3    H271423   0.372   2.644  11.782  1.7660 -1.0097  1.8703
16670TIP3   OH271424   3.529   5.092  11.470  0.1048 -0.0985  0.2526
16670TIP3    H171425   3.539   5.139  11.387  2.1756 -1.0953 -0.1240
16670TIP3    H271426   3.471   5.148  11.522 -1.2489  0.5691 -1.8148
16671TIP3   OH271427   0.360   3.342  12.439  0.0769  0.0027  0.5332
16671TIP3    H171428   0.391   3.351  12.349  0.6611 -1.5683  0.5465
16671TIP3    H271429   0.336   3.250  12.447 -0.3641  0.2128  1.8695
16672TIP3   OH271430   1.367   3.579  13.868 -0.8880 -0.0344  0.4041
16672TIP3    H171431   1.382   3.664  13.824 -0.0040  0.3409  1.4042
16672TIP3    H271432   1.417   3.517  13.816 -1.6906 -0.0041 -0.4500
16673TIP3   OH271433   4.728   6.105   6.677 -0.1650 -0.2039  0.0245
16673TIP3    H171434   4.674   6.092   6.755  1.2233 -0.1060  1.0270
16673TIP3    H271435   4.737   6.200   6.670 -0.3846 -0.2075 -0.3365
16674TIP3   OH271436   2.259   2.572  11.368 -0.4222  0.2736  0.0479
16674TIP3    H171437   2.345   2.531  11.370 -1.2402 -1.5574  2.4964
16674TIP3    H271438   2.209   2.527  11.437 -2.1779  3.8353  1.3250
16675TIP3   OH271439   3.804   0.111   5.721 -0.3833 -0.6180 -0.7438
16675TIP3    H171440   3.732   0.098   5.784 -0.5006  0.0027 -0.7493
16675TIP3    H271441   3.760   0.134   5.639 -0.1380  1.3307 -0.3691
16676TIP3   OH271442   3.959   4.392  17.032 -0.3866 -0.7281 -0.2444
16676TIP3    H171443   3.910   4.311  17.048 -0.0333 -0.6900  1.1611
16676TIP3    H271444   4.041   4.379  17.079 -0.0633  0.2136 -0.5320
16677TIP3   OH271445   3.795   6.525   0.590 -0.1020 -0.1044  0.1427
16677TIP3    H171446   3.862   6.528   0.659 -0.4276  0.6275  0.4374
16677TIP3    H271447   3.713   6.543   0.636 -0.0798  2.6729 -0.7283
16678TIP3   OH271448   3.220   6.610  15.868  0.2230  0.6139 -0.3907
16678TIP3    H171449   3.146   6.671  15.877  1.8841  2.5115  1.5158
16678TIP3    H271450   3.223   6.590  15.774 -1.4969  2.0705 -0.8104
16679TIP3   OH271451   3.419   5.779  14.803  0.4988 -0.1877 -0.8573
16679TIP3    H171452   3.407   5.747  14.892  1.2265  0.2829 -0.5837
16679TIP3    H271453   3.462   5.707  14.757 -0.3177 -0.6166 -0.9672
16680TIP3   OH271454   2.933   2.529   0.546  0.0519  0.1250 -0.6537
16680TIP3    H171455   2.957   2.618   0.519  1.0856  0.0916  0.1073
16680TIP3    H271456   2.926   2.480   0.464  1.1251  0.5177 -1.0002
16681TIP3   OH271457   5.727   4.519  16.378  0.2112  0.0531 -0.1633
16681TIP3    H171458   5.730   4.423  16.374 -0.7193  0.0662 -2.4036
16681TIP3    H271459   5.643   4.539  16.418  0.8284 -0.0323  1.2344
16682TIP3   OH271460   2.354   0.206   3.585 -0.2163 -0.2762 -0.3152
16682TIP3    H171461   2.428   0.169   3.536 -0.1068  0.4624 -0.7275
16682TIP3    H271462   2.382   0.296   3.606 -1.1038  0.1126 -0.7317
16683TIP3   OH271463   6.003   5.048  10.804 -0.3845  0.0225  0.4248
16683TIP3    H171464   5.990   5.059  10.710 -0.3566  1.5098  0.5716
16683TIP3    H271465   6.097   5.039  10.815 -0.3603  0.1932  0.3478
16684TIP3   OH271466   4.919   4.836  16.589  0.3281 -0.5713 -0.1030
16684TIP3    H171467   4.978   4.912  16.588 -1.5807  1.0464 -2.6690
16684TIP3    H271468   4.888   4.832  16.680  1.3771  0.9587  0.3732
16685TIP3   OH271469   5.090   6.713  12.264  0.5641  0.2547 -0.4242
16685TIP3    H171470   5.104   6.713  12.169 -1.0719 -0.6713 -0.7047
16685TIP3    H271471   5.050   6.797  12.282 -0.2745 -0.0572 -0.7735
16686TIP3   OH271472   5.937   1.288   0.574  0.7654 -0.4261 -0.0539
16686TIP3    H171473   5.875   1.220   0.601  0.3069 -0.4072 -1.0206
16686TIP3    H271474   6.020   1.241   0.562  0.2523 -1.0336 -1.5939
16687TIP3   OH271475   2.719   3.262   2.558 -0.1306  0.6213  0.1389
16687TIP3    H171476   2.679   3.329   2.503 -0.9402  0.5915  0.6714
16687TIP3    H271477   2.651   3.239   2.621  1.0225  1.2066  1.6623
16688TIP3   OH271478   6.737   3.629   2.453 -0.5637 -0.1965 -0.4797
16688TIP3    H171479   6.819   3.600   2.413 -0.8677  1.0465 -2.0788
16688TIP3    H271480   6.755   3.626   2.547  1.0052 -0.8062 -0.7629
16689TIP3   OH271481   5.157   0.936   4.768  1.0360  0.0108  0.5770
16689TIP3    H171482   5.158   0.843   4.743  1.5870  0.1480  0.0741
16689TIP3    H271483   5.093   0.941   4.839  0.8518 -0.7200  0.4670
16690TIP3   OH271484   1.554   4.344   3.865  0.6307 -0.1398  0.1578
16690TIP3    H171485   1.464   4.314   3.854  0.3766  0.8155 -0.4325
16690TIP3    H271486   1.573   4.326   3.957 -0.1169 -0.4680  0.2583
16691TIP3   OH271487   6.316   1.102   2.903  0.1984 -0.2620  0.5297
16691TIP3    H171488   6.384   1.158   2.941  0.4236 -1.2622  1.6607
16691TIP3    H271489   6.304   1.031   2.967 -1.1817 -0.6686 -0.1259
16692TIP3   OH271490   5.136   0.669   0.149 -0.7745 -0.5913 -0.1252
16692TIP3    H171491   5.164   0.703   0.234 -1.7149  0.6851 -0.2882
16692TIP3    H271492   5.211   0.618   0.118  0.5150  0.8787  0.4195
16693TIP3   OH271493   4.435   4.549  12.548  0.0428  0.1255 -0.3812
16693TIP3    H171494   4.394   4.494  12.615  0.8042  0.6915  0.5748
16693TIP3    H271495   4.396   4.636  12.560  0.2645  0.2578 -0.6039
16694TIP3   OH271496   0.863   0.763  16.658 -0.5987 -0.1594  0.4499
16694TIP3    H171497   0.917   0.711  16.599  0.9481  0.8569  0.8966
16694TIP3    H271498   0.893   0.739  16.746 -0.2793  0.9962  0.6758
16695TIP3   OH271499   2.142   3.919  13.339  0.7506  0.5746  0.0972
16695TIP3    H171500   2.107   3.980  13.275  0.5282  0.2329 -0.1148
16695TIP3    H271501   2.236   3.933  13.338  0.9026 -0.4209 -1.3516
16696TIP3   OH271502   0.203   3.978   4.552  0.0764 -0.3489  0.4052
16696TIP3    H171503   0.166   3.924   4.483 -0.2913  0.1700  0.1918
16696TIP3    H271504   0.258   3.918   4.603 -1.3977 -1.2290  1.0017
16697TIP3   OH271505   4.278   2.363  17.157 -0.1278 -0.7391 -0.5515
16697TIP3    H171506   4.346   2.420  17.192 -0.7684 -0.3975  0.1548
16697TIP3    H271507   4.233   2.418  17.092 -0.2948 -0.6708 -0.3796
16698TIP3   OH271508   1.492   4.322  16.803  0.3266 -0.0076  0.2165
16698TIP3    H171509   1.434   4.368  16.864 -3.0841 -0.1725 -2.5434
16698TIP3    H271510   1.460   4.231  16.804 -0.6536  0.2088 -2.4732
16699TIP3   OH271511   3.058   1.123  11.649 -0.4610 -0.3034  0.1226
16699TIP3    H171512   3.027   1.055  11.588 -0.7378 -0.0265 -0.0498
16699TIP3    H271513   3.071   1.200  11.593  1.0519 -0.5461  0.0876
16700TIP3   OH271514   0.325   1.274   1.527  0.3415 -0.0926 -0.0520
16700TIP3    H171515   0.359   1.236   1.446  0.2229  2.3635 -1.3441
16700TIP3    H271516   0.239   1.308   1.503 -0.5327 -0.9993  1.6393
16701TIP3   OH271517   2.059   4.332  16.787  0.0201 -0.0685  0.1673
16701TIP3    H171518   1.995   4.377  16.841 -0.4186  1.2459 -1.3857
16701TIP3    H271519   2.141   4.337  16.837 -0.8739 -1.1470  1.8447
16702TIP3   OH271520   1.191   4.426   1.185  0.3796 -0.2657  0.1451
16702TIP3    H171521   1.190   4.332   1.204 -2.4593 -0.3617 -0.0985
16702TIP3    H271522   1.256   4.435   1.115  0.5357 -2.1014  0.0061
16703TIP3   OH271523   4.471   6.087  15.748  0.4290 -0.0862  0.5365
16703TIP3    H171524   4.455   6.092  15.654  2.7527  0.0496  0.0917
16703TIP3    H271525   4.564   6.069  15.756  0.3562  0.2000  2.8407
16704TIP3   OH271526   1.640   0.322   1.580 -0.2761  0.3741 -0.3665
16704TIP3    H171527   1.674   0.282   1.500  1.8949 -0.4515  0.8646
16704TIP3    H271528   1.710   0.381   1.609  0.9389 -2.3673  2.9977
16705TIP3   OH271529   0.456   3.417  13.584 -0.0382 -0.4594  0.3355
16705TIP3    H171530   0.398   3.353  13.625  0.6849 -0.8030  0.8269
16705TIP3    H271531   0.399   3.491  13.565 -1.3245 -1.8831 -1.8873
16706TIP3   OH271532   3.064   6.163  16.868  0.1147  0.6147 -0.1604
16706TIP3    H171533   3.038   6.254  16.853  1.5355  1.1565  0.4737
16706TIP3    H271534   3.072   6.126  16.779  1.5639  1.7445 -0.5466
16707TIP3   OH271535   4.699   0.197  12.497 -0.2334 -0.0761  0.3361
16707TIP3    H171536   4.785   0.217  12.534  0.2819 -1.4730 -0.0408
16707TIP3    H271537   4.716   0.175  12.406 -1.2720  1.6091 -0.3075
16708TIP3   OH271538   1.741   3.573   4.966  0.2504  0.1631 -0.2694
16708TIP3    H171539   1.781   3.492   4.935 -0.3264 -0.9984  1.8157
16708TIP3    H271540   1.792   3.597   5.043 -1.0698  0.4251  0.5472
16709TIP3   OH271541   0.221   3.388   1.993 -0.5098  0.1573  0.4087
16709TIP3    H171542   0.241   3.362   1.903  0.6555 -0.4384  0.8196
16709TIP3    H271543   0.256   3.317   2.047 -0.1024  1.0856  1.3979
16710TIP3   OH271544   4.522   4.222  12.385 -0.3897 -0.1527 -0.0651
16710TIP3    H171545   4.544   4.279  12.458  1.0021 -1.0647  0.2734
16710TIP3    H271546   4.601   4.219  12.332 -0.2887 -2.0207  0.1183
16711TIP3   OH271547   2.006   1.670   4.142  0.0806 -0.3872 -0.0494
16711TIP3    H171548   1.936   1.611   4.113  0.5220 -2.1261  2.1021
16711TIP3    H271549   2.083   1.642   4.092 -0.3794  0.5494 -1.3415
16712TIP3   OH271550   4.677   3.800  14.301  0.3031  0.8911 -0.3043
16712TIP3    H171551   4.586   3.815  14.274  0.1415  0.2139 -0.1582
16712TIP3    H271552   4.711   3.888  14.321 -1.2527  0.9594  2.6592
16713TIP3   OH271553   1.223   4.599   1.902 -0.3274  0.0214 -0.2663
16713TIP3    H171554   1.173   4.574   1.824 -0.5302  2.2467 -0.9095
16713TIP3    H271555   1.208   4.527   1.964 -0.2003 -1.7820 -2.2170
16714TIP3   OH271556   5.753   2.094  11.579  0.0194  0.0754 -0.3848
16714TIP3    H171557   5.693   2.020  11.586  0.0240  0.0744 -0.3539
16714TIP3    H271558   5.742   2.141  11.661 -0.3734  0.4070 -0.6253
16715TIP3   OH271559   1.384   4.497   1.601 -0.4292 -0.1634 -0.9038
16715TIP3    H171560   1.333   4.555   1.545 -0.1751  2.2745  1.1569
16715TIP3    H271561   1.472   4.497   1.563 -0.8866 -0.8309 -2.0068
16716TIP3   OH271562   4.370   5.127  15.596  0.0425 -0.1792 -0.0270
16716TIP3    H171563   4.298   5.082  15.641  0.0514 -0.2918 -0.1261
16716TIP3    H271564   4.330   5.163  15.517 -0.1791  0.7947  0.5103
16717TIP3   OH271565   2.150   3.316  17.222 -0.2178 -0.0010  0.8309
16717TIP3    H171566   2.100   3.373  17.163  0.1224 -0.2742  0.2698
16717TIP3    H271567   2.084   3.264  17.267 -0.4455 -0.5064 -0.0548
16718TIP3   OH271568   4.573   5.576   5.534 -0.1098 -0.3446  0.3068
16718TIP3    H171569   4.581   5.659   5.487 -2.5754  0.0924  0.4903
16718TIP3    H271570   4.644   5.522   5.500  1.0495  1.5446 -0.4326
16719TIP3   OH271571   0.351   4.248   4.487 -0.1805  0.3850 -0.3462
16719TIP3    H171572   0.322   4.165   4.524  0.8866  0.3916  0.5505
16719TIP3    H271573   0.427   4.226   4.434 -0.8186  0.5915 -1.3790
16720TIP3   OH271574   0.823   3.958   5.634 -0.0815 -0.5139  0.1375
16720TIP3    H171575   0.811   4.015   5.710 -0.1076  0.0732 -0.3030
16720TIP3    H271576   0.743   3.967   5.584 -0.2594 -1.2709  0.2749
16721TIP3   OH271577   5.496   1.100   0.239 -0.2685  0.5050 -0.4512
16721TIP3    H171578   5.530   1.062   0.320  2.1359  1.7884 -0.7749
16721TIP3    H271579   5.407   1.127   0.262 -0.7008 -1.7630  0.8716
16722TIP3   OH271580   0.056   3.705   0.396  0.1316 -0.2172  1.2043
16722TIP3    H171581  -0.008   3.662   0.340 -1.2581  1.3003  1.5639
16722TIP3    H271582   0.006   3.769   0.446  2.0931  1.9583  0.5588
16723TIP3   OH271583   1.415   1.550  11.791 -0.2421  0.4321  0.6424
16723TIP3    H171584   1.322   1.568  11.779 -0.5667 -1.0454  0.7623
16723TIP3    H271585   1.435   1.485  11.724  0.5574  0.2981  1.0036
16724TIP3   OH271586   3.824   0.150   4.114  0.0644  0.2295 -0.2716
16724TIP3    H171587   3.836   0.088   4.186  1.1091  0.7981  0.0598
16724TIP3    H271588   3.824   0.236   4.155  2.2920  0.6737 -1.0912
16725TIP3   OH271589   6.645   3.505  12.435 -0.4578 -0.1154 -0.5393
16725TIP3    H171590   6.658   3.439  12.503  1.5709  0.8477  0.1060
16725TIP3    H271591   6.607   3.579  12.482  1.4659  0.7581 -0.2495
16726TIP3   OH271592   3.251   4.034   3.393  0.3957  0.0966  0.8557
16726TIP3    H171593   3.237   3.969   3.324  0.9457 -1.1070  1.8332
16726TIP3    H271594   3.190   4.105   3.372  1.8260  0.6459 -1.8935
16727TIP3   OH271595   5.069   2.016  16.394 -0.6737  0.2317  0.2707
16727TIP3    H171596   4.976   1.996  16.403 -0.4360 -0.2364  2.3668
16727TIP3    H271597   5.113   1.931  16.397 -0.1378  0.4943  0.1198
16728TIP3   OH271598   4.090   3.246   1.007 -0.0213 -0.0912  0.5062
16728TIP3    H171599   4.045   3.298   1.073 -1.3078 -1.2346  0.5821
16728TIP3    H271600   4.020   3.199   0.962  0.9971 -0.8757 -0.3048
16729TIP3   OH271601   2.376   2.011   2.816 -0.3602 -0.0161  0.4321
16729TIP3    H171602   2.301   2.055   2.777  0.9421  2.2988  0.3952
16729TIP3    H271603   2.379   2.043   2.906  0.2082 -0.6057  0.6351
16730TIP3   OH271604   0.344   0.420  13.818  0.1504  0.3451 -0.5892
16730TIP3    H171605   0.366   0.501  13.863  1.6195  0.4250 -1.4015
16730TIP3    H271606   0.252   0.404  13.840  0.4408  1.0966  1.2692
16731TIP3   OH271607   6.057   6.334  16.993 -0.5382  0.0244  0.1136
16731TIP3    H171608   6.019   6.267  16.937  0.3983 -0.2779 -0.1615
16731TIP3    H271609   5.993   6.406  16.991 -1.3455 -0.6769  0.0810
16732TIP3   OH271610   5.974   2.023   4.946  0.0736  0.0722 -0.2043
16732TIP3    H171611   6.008   2.048   5.032  0.3990 -0.5389 -0.1490
16732TIP3    H271612   5.928   2.101   4.915 -0.6489  0.0771  0.8195
16733TIP3   OH271613   2.525   2.734  11.496 -0.1953  0.2988 -0.2164
16733TIP3    H171614   2.481   2.677  11.559 -1.4423  2.4155  0.9453
16733TIP3    H271615   2.456   2.758  11.434  0.2488  0.7043 -0.5617
16734TIP3   OH271616   4.573   5.280  15.203  0.4093  0.2248 -0.0327
16734TIP3    H171617   4.668   5.277  15.218  0.2549 -0.4025  0.8935
16734TIP3    H271618   4.558   5.218  15.132  0.8198  1.1574 -0.9579
16735TIP3   OH271619   0.696   1.689  16.652  0.4333 -0.4371 -0.0211
16735TIP3    H171620   0.666   1.635  16.725 -2.3189 -2.6261 -2.5332
16735TIP3    H271621   0.616   1.726  16.614  1.6355 -0.0445 -2.3928
16736TIP3   OH271622   4.851   5.598   3.005  0.0805 -0.4868 -0.6790
16736TIP3    H171623   4.848   5.551   2.922  0.4751 -1.5542 -0.1064
16736TIP3    H271624   4.799   5.676   2.990  0.2348 -0.6084 -1.9640
16737TIP3   OH271625   4.532   3.450  11.637  0.2015  0.2048  0.7277
16737TIP3    H171626   4.485   3.372  11.608  0.0380  0.3004  0.7318
16737TIP3    H271627   4.561   3.492  11.555  3.6210 -1.8210  0.7125
16738TIP3   OH271628   5.019   2.066  13.670 -0.4393 -0.1289  0.1437
16738TIP3    H171629   5.056   1.980  13.651 -0.3259  0.1699 -1.0327
16738TIP3    H271630   4.997   2.103  13.585 -0.1396  1.1672  0.6035
16739TIP3   OH271631   3.666   5.548  15.380 -0.2013 -0.1769  0.4899
16739TIP3    H171632   3.668   5.558  15.285  1.3264  0.1204  0.5243
16739TIP3    H271633   3.589   5.598  15.409  0.3793  1.3113 -0.4316
16740TIP3   OH271634   0.472   6.427   2.971 -0.5745  0.2572  0.3966
16740TIP3    H171635   0.518   6.511   2.966 -0.3418  0.0563 -1.6736
16740TIP3    H271636   0.438   6.413   2.883 -1.9996 -1.0737  1.1129
16741TIP3   OH271637   2.351   2.911  11.691 -0.2472  0.3707 -0.5041
16741TIP3    H171638   2.260   2.918  11.661 -0.1410  0.9175 -0.7198
16741TIP3    H271639   2.395   2.859  11.623 -0.6279 -0.8329  0.1417
16742TIP3   OH271640   2.935   5.796   4.625  0.5296 -0.6335  0.1530
16742TIP3    H171641   2.912   5.712   4.665  0.1564 -1.4412 -1.6532
16742TIP3    H271642   2.954   5.775   4.533 -2.1517  1.5640 -1.0649
16743TIP3   OH271643   0.202   4.098  12.551  0.2098  0.3093 -0.2042
16743TIP3    H171644   0.188   4.144  12.468 -0.1329 -0.5264 -0.6169
16743TIP3    H271645   0.225   4.009  12.526 -0.8415 -0.2128  0.6054
16744TIP3   OH271646   4.101   0.042   5.726 -0.3245 -0.6558  0.0113
16744TIP3    H171647   4.014   0.059   5.762  0.1884  0.2527  0.9051
16744TIP3    H271648   4.112   0.107   5.656 -1.2752 -2.3452 -1.7797
16745TIP3   OH271649   6.561   0.099  12.652 -0.2200  0.0025 -0.0562
16745TIP3    H171650   6.597   0.144  12.729 -0.6648  1.2349 -0.5511
16745TIP3    H271651   6.473   0.073  12.678 -0.1818 -0.0532  0.0202
16746TIP3   OH271652   6.385   1.212  17.161  0.1721 -0.3153  0.6573
16746TIP3    H171653   6.302   1.196  17.117 -0.0868  1.1784  0.5479
16746TIP3    H271654   6.363   1.214  17.254  0.4562 -1.9201  0.7873
16747TIP3   OH271655   1.326   2.968  13.232 -0.3609  0.3077 -0.2011
16747TIP3    H171656   1.345   3.061  13.222 -0.8339  0.3981 -0.2505
16747TIP3    H271657   1.386   2.938  13.300  1.8843  0.0204 -2.1705
16748TIP3   OH271658   3.046   0.012   0.393  0.3558  0.4479 -0.0789
16748TIP3    H171659   3.100   0.034   0.317  1.6718 -0.4082  0.5888
16748TIP3    H271660   3.105   0.018   0.468 -0.7486  0.5826  0.8149
16749TIP3   OH271661   0.743   2.053  11.532  0.0694 -0.4361  0.3697
16749TIP3    H171662   0.789   1.981  11.487  0.1414  0.5629 -1.2111
16749TIP3    H271663   0.800   2.129  11.520 -1.2362  0.4682 -0.2367
16750TIP3   OH271664   3.311   2.829   2.892 -0.5908  0.2724 -0.4010
16750TIP3    H171665   3.225   2.852   2.857 -1.6889 -1.0970  1.2421
16750TIP3    H271666   3.361   2.911   2.890 -1.9768  1.1309 -1.2148
16751TIP3   OH271667   0.490   0.845  12.054  0.2104  0.3641  0.3388
16751TIP3    H171668   0.447   0.883  11.977  0.7364  0.3850  0.0549
16751TIP3    H271669   0.554   0.784  12.018 -1.0031 -1.2394  0.7811
16752TIP3   OH271670   0.046   1.708  11.066 -0.0909 -0.1188 -0.7978
16752TIP3    H171671   0.016   1.619  11.044  0.0172 -0.4336  0.2416
16752TIP3    H271672   0.093   1.738  10.989  0.6442 -1.3259 -0.8404
16753TIP3   OH271673   4.016   5.881  15.894 -0.4966  0.2455 -0.7029
16753TIP3    H171674   4.010   5.909  15.803 -0.1690 -0.5179 -0.9668
16753TIP3    H271675   3.943   5.819  15.905 -0.9983  0.9032 -0.2276
16754TIP3   OH271676   3.191   0.780  11.297 -0.1316 -0.8997  0.0425
16754TIP3    H171677   3.183   0.734  11.381 -0.7506 -0.6426  0.1298
16754TIP3    H271678   3.220   0.869  11.320 -1.9414 -0.3035  0.1418
16755TIP3   OH271679   3.880   5.492   5.682 -0.6588  0.0360  0.0743
16755TIP3    H171680   3.903   5.582   5.701  0.1462  0.1395 -1.2384
16755TIP3    H271681   3.867   5.451   5.767 -0.6116  1.2713  0.6927
16756TIP3   OH271682   6.230   2.097  15.864  0.2667 -0.2525 -0.1613
16756TIP3    H171683   6.266   2.010  15.843  1.9315  0.4058 -0.2296
16756TIP3    H271684   6.298   2.158  15.835 -0.9257  1.0917 -0.2124
16757TIP3   OH271685   1.397   4.311  11.983  0.6612  0.6038 -0.9057
16757TIP3    H171686   1.362   4.268  11.905  1.2773  1.1791 -1.5169
16757TIP3    H271687   1.492   4.299  11.976  0.6634 -0.0844  0.2109
16758TIP3   OH271688   5.241   1.630   5.570 -0.2910  0.1425 -0.5074
16758TIP3    H171689   5.204   1.645   5.483 -2.1678  0.0435  0.2187
16758TIP3    H271690   5.271   1.716   5.599  2.4441 -0.1638 -2.0720
16759TIP3   OH271691   2.437   3.083  11.400  0.4857 -0.2651 -0.1172
16759TIP3    H171692   2.390   3.000  11.396 -1.7500  0.8244  1.7275
16759TIP3    H271693   2.526   3.061  11.373  0.1086 -3.3692  0.8221
16760TIP3   OH271694   3.550   5.755  16.587 -0.5029 -0.0212  0.0246
16760TIP3    H171695   3.508   5.815  16.525  0.2102  0.4183 -0.0497
16760TIP3    H271696   3.519   5.784  16.673  0.9390  1.4387  0.1242
16761TIP3   OH271697   1.907   1.125  13.144  0.0449 -0.2985  1.1075
16761TIP3    H171698   1.904   1.163  13.056  0.0661  1.4434  1.8164
16761TIP3    H271699   1.981   1.065  13.142  0.0008 -0.3346 -0.0774
16762TIP3   OH271700   5.130   3.790   5.297 -0.7557  0.4492  0.3466
16762TIP3    H171701   5.169   3.877   5.298 -1.9857  1.0505  2.2411
16762TIP3    H271702   5.203   3.730   5.281  0.2594  1.7619 -0.0522
16763TIP3   OH271703   0.052   5.833   2.125 -0.3617 -0.2013 -0.0021
16763TIP3    H171704   0.096   5.753   2.096 -1.1405 -0.3367 -0.8698
16763TIP3    H271705   0.097   5.857   2.206  0.3991 -1.0785 -0.1412
16764TIP3   OH271706   2.165   0.487  11.316 -0.1994  0.3719 -0.0790
16764TIP3    H171707   2.080   0.458  11.350  0.3861 -1.1954  0.1429
16764TIP3    H271708   2.197   0.413  11.265  1.7540  0.2579  1.2013
16765TIP3   OH271709   1.266   4.935  13.645 -0.2922 -0.4798  0.5523
16765TIP3    H171710   1.248   4.909  13.555 -0.5409 -2.9348  1.2464
16765TIP3    H271711   1.183   4.926  13.690  0.0380 -0.1676  1.2390
16766TIP3   OH271712   5.708   1.800   2.267 -0.2122  1.0374  0.3638
16766TIP3    H171713   5.791   1.837   2.299  1.1634 -1.1040 -0.5425
16766TIP3    H271714   5.730   1.711   2.241 -2.2374  1.2165 -2.3544
16767TIP3   OH271715   2.182   2.815   5.766  0.3046 -0.1431 -0.5248
16767TIP3    H171716   2.226   2.768   5.836 -1.6739  0.8562  1.5530
16767TIP3    H271717   2.124   2.751   5.726  0.5857 -0.4475 -0.4437
16768TIP3   OH271718   1.779   1.436  11.117  0.2216  0.1615  0.3947
16768TIP3    H171719   1.686   1.440  11.096 -0.0016 -0.2118  1.2462
16768TIP3    H271720   1.817   1.513  11.075  0.1223 -1.3206 -2.6879
16769TIP3   OH271721   4.171   0.528  10.823 -0.1076  0.2964 -0.1999
16769TIP3    H171722   4.187   0.468  10.896  2.1688  1.4040  0.3231
16769TIP3    H271723   4.146   0.472  10.750  1.0426 -1.2120  0.5194
16770TIP3   OH271724   5.662   0.050   5.465  0.5009  0.4045  0.1396
16770TIP3    H171725   5.608   0.113   5.514 -0.0635 -0.3681  0.5399
16770TIP3    H271726   5.751   0.067   5.494  0.5019  1.7735 -0.6066
16771TIP3   OH271727   0.467   3.073   5.204  0.0100  0.0173 -0.1894
16771TIP3    H171728   0.435   3.071   5.294  0.7671  0.9164  0.1159
16771TIP3    H271729   0.423   3.000   5.161 -0.5175 -0.2949  0.8557
16772TIP3   OH271730   1.653   1.980   5.335  0.1149  0.4554 -0.2653
16772TIP3    H171731   1.637   1.997   5.428  1.2295 -0.6106  0.1509
16772TIP3    H271732   1.713   2.050   5.308  2.0809 -0.7958  0.5971
16773TIP3   OH271733   0.659   4.898  16.431  0.2149 -0.2485 -0.5565
16773TIP3    H171734   0.617   4.976  16.395 -0.1858  0.0654  0.5498
16773TIP3    H271735   0.723   4.933  16.494 -2.8879 -0.7401  3.2521
16774TIP3   OH271736   1.549   1.138   4.121  0.4003 -0.6740 -0.8333
16774TIP3    H171737   1.514   1.148   4.033 -1.9119  0.4257  0.1383
16774TIP3    H271738   1.480   1.093   4.170  0.5382  0.9968  1.0281
16775TIP3   OH271739   6.664   6.395  12.069  0.6004 -0.0629  0.6779
16775TIP3    H171740   6.615   6.334  12.124  2.2165 -0.2705  1.9659
16775TIP3    H271741   6.601   6.463  12.047 -0.4382 -0.6401  1.7279
16776TIP3   OH271742   6.455   4.607   1.550  0.4166 -0.3631  0.0527
16776TIP3    H171743   6.438   4.572   1.638  0.3639 -1.4500 -0.3742
16776TIP3    H271744   6.439   4.701   1.558 -3.4631 -0.8701  0.3235
16777TIP3   OH271745   4.217   1.371   4.245  1.0440 -0.2773 -0.4987
16777TIP3    H171746   4.279   1.392   4.175 -0.7880  0.8769 -1.8610
16777TIP3    H271747   4.214   1.451   4.298  0.4067 -0.1551 -0.7110
16778TIP3   OH271748   1.015   6.255   3.692  1.1215  0.1243 -0.6195
16778TIP3    H171749   1.110   6.259   3.700  1.0136  0.4266  0.8595
16778TIP3    H271750   0.987   6.346   3.700  0.6335 -0.0958  0.2260
16779TIP3   OH271751   1.786   2.141   4.942  0.0391 -0.3253 -0.1552
16779TIP3    H171752   1.803   2.103   5.027 -0.0078 -0.1308 -0.0572
16779TIP3    H271753   1.721   2.210   4.959  0.5650  0.2029 -0.2317
16780TIP3   OH271754   6.523   2.893   0.897  0.6252  0.2568 -0.1199
16780TIP3    H171755   6.592   2.874   0.961  0.6190 -1.0027 -0.4657
16780TIP3    H271756   6.488   2.978   0.925 -0.5814 -1.0125  2.6147
16781TIP3   OH271757   0.311   4.064   3.738  0.1927 -0.8627 -0.0019
16781TIP3    H171758   0.285   4.058   3.646 -1.6638 -0.0505  0.4346
16781TIP3    H271759   0.229   4.074   3.786  0.7424 -4.9096  2.1820
16782TIP3   OH271760   6.769   4.357   5.712  0.5366 -0.2473 -0.1561
16782TIP3    H171761   6.808   4.278   5.749  1.3557  0.4606  0.5204
16782TIP3    H271762   6.806   4.429   5.763 -1.0169  0.5177 -0.0268
16783TIP3   OH271763   5.940   0.974   0.384 -0.1448 -0.1431  0.1710
16783TIP3    H171764   6.022   0.927   0.396  0.6029  0.9277 -0.5662
16783TIP3    H271765   5.910   0.994   0.473  1.3690  1.0719  0.4487
16784TIP3   OH271766   4.109   6.300  16.942 -0.4512  0.0196  0.5258
16784TIP3    H171767   4.041   6.233  16.933 -1.7185  1.3994 -0.7153
16784TIP3    H271768   4.063   6.377  16.977  0.8765  0.3952  1.5117
16785TIP3   OH271769   0.574   0.135  15.894 -0.4075  0.8780  0.2793
16785TIP3    H171770   0.503   0.197  15.911  0.8645  2.0733  1.4961
16785TIP3    H271771   0.611   0.117  15.980  1.0631  0.6428 -0.3801
16786TIP3   OH271772   4.924   2.771   2.344  0.1218 -0.0357  0.0175
16786TIP3    H171773   4.838   2.740   2.316 -0.8851  2.1521  0.5175
16786TIP3    H271774   4.943   2.845   2.287  1.0578  0.3711  0.8265
16787TIP3   OH271775   5.147   6.455   3.713  0.6670 -0.0674 -0.3064
16787TIP3    H171776   5.177   6.365   3.706 -0.4361 -0.5463  0.7859
16787TIP3    H271777   5.225   6.504   3.742  1.0914 -0.7923 -0.2106
16788TIP3   OH271778   1.031   3.938   4.477  0.1462  0.6010 -0.3366
16788TIP3    H171779   1.080   4.009   4.517  0.1548  1.8067 -2.3223
16788TIP3    H271780   0.956   3.981   4.436 -0.4072 -0.6748 -0.7164
16789TIP3   OH271781   5.612   4.572  11.816  0.7071  0.0302  0.2697
16789TIP3    H171782   5.663   4.504  11.772  0.3901 -0.2511  0.3289
16789TIP3    H271783   5.529   4.530  11.837  1.3239 -0.2511  2.3267
16790TIP3   OH271784   4.968   2.324   6.369 -0.0804  0.5933 -0.2893
16790TIP3    H171785   4.910   2.249   6.383 -0.4270  0.3297 -2.6548
16790TIP3    H271786   4.932   2.394   6.423 -1.5047 -0.1085 -0.2795
16791TIP3   OH271787   2.477   3.348   5.871  0.9316  0.8396  1.2410
16791TIP3    H171788   2.472   3.354   5.967  1.7447  0.4292  1.3153
16791TIP3    H271789   2.463   3.437   5.841  0.7792  0.9922  1.7493
16792TIP3   OH271790   4.878   3.881  15.110 -0.3214 -0.0053  0.2780
16792TIP3    H171791   4.949   3.942  15.093  1.3526 -1.3653  2.0362
16792TIP3    H271792   4.848   3.902  15.198  0.3135 -1.7051  0.9363
16793TIP3   OH271793   2.013   0.783   4.179  0.0651 -0.3092  0.3182
16793TIP3    H171794   2.040   0.692   4.170  2.1430  0.4356 -2.4008
16793TIP3    H271795   1.971   0.804   4.096  0.6557  1.5025  0.4297
16794TIP3   OH271796   2.330   2.386  15.497  0.3019  0.2699 -0.5075
16794TIP3    H171797   2.309   2.425  15.582 -0.6017  0.2234 -0.6981
16794TIP3    H271798   2.280   2.305  15.494  2.7634 -1.3804  0.1968
16795TIP3   OH271799   1.249   3.056  12.360 -0.4605 -0.1654 -0.4114
16795TIP3    H171800   1.188   2.985  12.339  1.1796 -2.3668  1.7662
16795TIP3    H271801   1.209   3.099  12.436 -0.5038 -0.0142 -0.5202
16796TIP3   OH271802   1.328   5.658  15.600  0.6395  0.4620 -0.2640
16796TIP3    H171803   1.371   5.682  15.518  0.4219  0.3909 -0.4009
16796TIP3    H271804   1.400   5.640  15.661  0.8214 -0.7136 -0.7959
16797TIP3   OH271805   4.124   2.569  16.363 -0.4906  0.4043  0.2535
16797TIP3    H171806   4.046   2.622  16.351 -0.7456  0.6450  2.6554
16797TIP3    H271807   4.193   2.631  16.386 -0.1405 -0.0366  0.4187
16798TIP3   OH271808   3.845   0.758   2.121  0.4325  0.5429 -0.0923
16798TIP3    H171809   3.885   0.759   2.208 -1.1794  0.8883  0.6954
16798TIP3    H271810   3.905   0.707   2.068  2.2059  1.5401  0.8332
16799TIP3   OH271811   2.769   6.040  11.815  0.3277 -0.3306  0.5266
16799TIP3    H171812   2.855   6.023  11.776  0.0424  1.7271 -1.2083
16799TIP3    H271813   2.738   6.118  11.769 -2.7285 -1.3513  0.6677
16800TIP3   OH271814   3.396   2.902   4.196  0.5702 -0.1782 -0.1721
16800TIP3    H171815   3.326   2.863   4.143  1.4020 -1.3555 -0.4374
16800TIP3    H271816   3.368   2.888   4.286  0.3259 -0.3732 -0.2753
16801TIP3   OH271817   4.217   6.699  15.458 -0.3041  0.2110 -0.4255
16801TIP3    H171818   4.277   6.699  15.532  0.1827 -2.6447 -0.7269
16801TIP3    H271819   4.130   6.696  15.497 -0.0424 -1.5284  0.0948
16802TIP3   OH271820   0.338   0.573  15.879 -0.0557  0.1086  0.3589
16802TIP3    H171821   0.432   0.572  15.894 -0.1548 -1.1082  1.0044
16802TIP3    H271822   0.328   0.556  15.785  0.3659  0.1512  0.3056
16803TIP3   OH271823   0.443   6.530  16.011 -0.2249  0.1706 -0.0948
16803TIP3    H171824   0.533   6.498  16.006 -0.4596 -0.4721 -0.2065
16803TIP3    H271825   0.440   6.579  16.093 -0.2623 -1.3483  0.8401
16804TIP3   OH271826   4.743   3.432  12.394 -0.1768 -0.2263  0.3659
16804TIP3    H171827   4.678   3.430  12.465  1.4736  0.4879  1.9777
16804TIP3    H271828   4.816   3.380  12.427  0.5015 -0.1450 -0.9670
16805TIP3   OH271829   3.706   3.634   0.499 -0.1316 -0.1487  0.2516
16805TIP3    H171830   3.776   3.612   0.560 -0.0072 -1.6832 -0.3989
16805TIP3    H271831   3.641   3.564   0.510  0.1052 -0.7201 -1.6726
16806TIP3   OH271832   1.736   4.962  15.471  0.1363 -0.3497 -0.3384
16806TIP3    H171833   1.660   5.000  15.516  0.3702 -2.2544  1.8541
16806TIP3    H271834   1.699   4.922  15.393 -0.2804  3.1133 -2.1148
16807TIP3   OH271835   1.689   3.657  16.796 -0.6288 -0.0632  0.2857
16807TIP3    H171836   1.594   3.667  16.796 -0.7381 -0.6035  2.3413
16807TIP3    H271837   1.717   3.697  16.879  0.7533 -1.2191  0.4178
16808TIP3   OH271838   5.377   1.373  13.080  0.2865 -0.7675  0.2236
16808TIP3    H171839   5.319   1.310  13.038  0.4026 -0.9040  0.2647
16808TIP3    H271840   5.379   1.447  13.020 -0.7982 -0.2933  0.7504
16809TIP3   OH271841   4.508   6.214   3.697 -0.5185 -0.4777  0.3064
16809TIP3    H171842   4.523   6.142   3.758  0.6590 -0.0437  0.5597
16809TIP3    H271843   4.458   6.278   3.747 -1.5464 -1.0873  0.0879
16810TIP3   OH271844   0.784   0.961   6.573  0.0135  0.5182 -0.2000
16810TIP3    H171845   0.818   1.000   6.492 -0.8515  0.9355 -0.3697
16810TIP3    H271846   0.808   0.868   6.567 -0.1275  0.5248 -0.9853
16811TIP3   OH271847   2.911   2.630  15.184 -0.1903  0.3204 -0.0499
16811TIP3    H171848   2.979   2.671  15.238 -2.2739  2.4837  1.0757
16811TIP3    H271849   2.913   2.679  15.102  0.6368 -0.6881 -0.6604
16812TIP3   OH271850   5.639   6.726   4.005  0.5648 -0.4111 -0.6253
16812TIP3    H171851   5.671   6.645   3.965  0.0292  0.0904 -2.1560
16812TIP3    H271852   5.547   6.730   3.979  0.5469  0.6113 -0.4410
16813TIP3   OH271853   3.357   4.264  16.947 -0.4716 -0.2825 -0.1723
16813TIP3    H171854   3.324   4.354  16.948 -1.3566 -0.5758 -0.8731
16813TIP3    H271855   3.426   4.262  17.013  0.7293  1.3380 -1.3101
16814TIP3   OH271856   2.917   4.852   1.028  0.3631  0.4709 -0.5137
16814TIP3    H171857   2.954   4.936   1.054 -2.0804  1.5078 -0.0924
16814TIP3    H271858   2.952   4.789   1.091  2.0856  1.1619 -0.7212
16815TIP3   OH271859   1.605   0.797  13.364  0.0423  0.3491  0.3252
16815TIP3    H171860   1.687   0.760  13.334  0.3804  1.0609  0.3494
16815TIP3    H271861   1.630   0.870  13.421 -0.5618  2.0528 -1.4556
16816TIP3   OH271862   2.186   5.844  13.651 -0.3393 -0.3429 -0.7442
16816TIP3    H171863   2.220   5.932  13.665 -0.4109 -0.4053 -0.1349
16816TIP3    H271864   2.258   5.797  13.609  0.3433 -0.4643  0.5002
16817TIP3   OH271865   0.966   2.331  13.996  0.2001 -0.4308  0.0391
16817TIP3    H171866   1.024   2.316  13.921  2.4828 -1.8985  1.9511
16817TIP3    H271867   0.909   2.255  13.998  0.0249 -0.3096 -0.2906
16818TIP3   OH271868   0.681   0.914  10.448  0.2393  0.1350  0.2549
16818TIP3    H171869   0.586   0.923  10.438 -0.1613  0.1136  3.2823
16818TIP3    H271870   0.694   0.821  10.467  0.7735  0.3196  0.7930
16819TIP3   OH271871   6.052   2.763  15.850 -0.2689  0.2198  0.6106
16819TIP3    H171872   5.976   2.714  15.882 -0.3712  0.7504  1.1987
16819TIP3    H271873   6.078   2.817  15.924 -0.1951  1.0957 -0.0423
16820TIP3   OH271874   1.916   1.960   2.966 -0.2132  0.4858 -0.5407
16820TIP3    H171875   1.931   1.867   2.976  0.1167  0.5501 -0.4468
16820TIP3    H271876   2.002   1.998   2.948  0.6194  1.3875  4.0126
16821TIP3   OH271877   1.790   1.068  16.603 -0.2219  0.0038  0.4172
16821TIP3    H171878   1.824   0.980  16.622 -0.0131 -0.5513 -2.0745
16821TIP3    H271879   1.695   1.059  16.611 -0.1485 -0.1487  1.2085
16822TIP3   OH271880   3.011   0.021   5.409 -0.2525 -0.3975 -0.3720
16822TIP3    H171881   2.998  -0.055   5.466  0.2722  0.2725  0.6657
16822TIP3    H271882   3.021   0.095   5.469 -1.0983  0.5664 -1.3682
16823TIP3   OH271883   0.027   1.832   1.494  0.3219 -1.0136  0.0811
16823TIP3    H171884   0.060   1.890   1.426 -0.2340  0.4321  0.9937
16823TIP3    H271885   0.105   1.802   1.540  0.5554  1.3012  1.3696
16824TIP3   OH271886   1.581   5.588   3.669  0.4015  0.5636 -0.0590
16824TIP3    H171887   1.506   5.637   3.701  0.7330  0.5672  0.7354
16824TIP3    H271888   1.587   5.511   3.726 -0.5118 -0.7975 -1.6948
16825TIP3   OH271889   0.948   5.743  16.717 -0.2210  0.2695  0.1284
16825TIP3    H171890   0.877   5.805  16.733  0.2904  1.3293 -1.4455
16825TIP3    H271891   0.904   5.659  16.703 -1.3578  1.1601 -2.2451
16826TIP3   OH271892   6.004   1.952   1.791 -0.1439  0.3157 -0.4746
16826TIP3    H171893   6.050   1.869   1.796 -0.0691  0.4381  1.3945
16826TIP3    H271894   6.073   2.018   1.780 -0.0692  0.2812 -0.2102
16827TIP3   OH271895   1.133   1.335  15.143  0.3595 -0.2325  0.3482
16827TIP3    H171896   1.126   1.240  15.153  0.2614 -0.2647 -0.0059
16827TIP3    H271897   1.116   1.369  15.231  1.5674 -0.5931  0.7316
16828TIP3   OH271898   3.931   5.603  16.519 -0.0119 -0.1110  0.1526
16828TIP3    H171899   3.965   5.525  16.475 -1.2481 -0.1339 -0.8271
16828TIP3    H271900   3.920   5.668  16.449  0.9368  0.9305  0.9445
16829TIP3   OH271901   4.395   1.673  11.134 -0.6368 -0.3957 -0.5525
16829TIP3    H171902   4.482   1.711  11.125  0.1806 -2.1442 -0.2049
16829TIP3    H271903   4.387   1.652  11.227 -1.6129  0.1408 -0.5002
16830TIP3   OH271904   6.083   2.482  16.439 -0.2477  0.5331  0.9478
16830TIP3    H171905   6.042   2.556  16.394 -1.0895  0.1360  1.0269
16830TIP3    H271906   6.036   2.476  16.522 -0.1797 -0.0733  0.9502
16831TIP3   OH271907   0.530   5.667  16.227  0.7309  0.6604  0.5822
16831TIP3    H171908   0.581   5.696  16.303 -0.8328  3.0942  0.8066
16831TIP3    H271909   0.449   5.717  16.231 -1.4800 -2.5350 -0.1583
16832TIP3   OH271910   2.562   2.800   2.258  0.3454 -0.2494 -0.4197
16832TIP3    H171911   2.500   2.731   2.283  0.9753 -0.4859  0.5683
16832TIP3    H271912   2.646   2.770   2.294  1.1337 -0.1473 -2.1030
16833TIP3   OH271913   5.251   4.838  12.242 -0.8088 -0.1785  0.0726
16833TIP3    H171914   5.278   4.897  12.171 -1.6902  0.3107  0.1387
16833TIP3    H271915   5.193   4.890  12.296 -0.0055 -0.4948  1.2705
16834TIP3   OH271916   4.926   0.112   6.253 -0.0506 -0.0094 -0.6093
16834TIP3    H171917   4.940   0.164   6.333  0.4393 -1.1564  0.0750
16834TIP3    H271918   4.867   0.042   6.281  0.0707 -0.3811 -1.2712
16835TIP3   OH271919   0.132   1.134   2.872 -0.0083 -0.2810  0.0670
16835TIP3    H171920   0.073   1.188   2.924 -0.4825 -0.4414 -0.3034
16835TIP3    H271921   0.219   1.150   2.910 -0.4467 -1.0452  1.4785
16836TIP3   OH271922   0.040   0.512   1.527 -0.2060 -0.7926 -0.3192
16836TIP3    H171923   0.089   0.466   1.459 -1.2558 -2.3065 -0.0958
16836TIP3    H271924   0.032   0.448   1.598 -0.0594  0.3965  0.8042
16837TIP3   OH271925   4.704   0.901   4.457 -0.1915  0.2376 -0.1196
16837TIP3    H171926   4.750   0.826   4.493 -1.6701 -1.2955 -1.2854
16837TIP3    H271927   4.762   0.934   4.388  0.7161  0.5625  0.7688
16838TIP3   OH271928   3.327   0.901  12.631 -0.0653  0.9565  0.6294
16838TIP3    H171929   3.256   0.856  12.586 -1.9980  2.8152  1.6228
16838TIP3    H271930   3.397   0.909  12.565 -0.9272 -0.5140 -0.5189
16839TIP3   OH271931   1.724   3.936  13.634 -0.0706 -0.1606 -0.1215
16839TIP3    H171932   1.727   4.032  13.638 -1.4981 -0.0266 -1.2716
16839TIP3    H271933   1.674   3.917  13.554  0.1958 -1.8683  0.0784
16840TIP3   OH271934   0.724   4.106  14.035  0.6924  0.0996  0.6601
16840TIP3    H171935   0.779   4.045  14.084  0.6230  0.2075  0.8768
16840TIP3    H271936   0.635   4.074  14.048  0.5254  0.9169  1.7869
16841TIP3   OH271937   3.198   1.943   6.054  0.0016 -0.1358 -0.2568
16841TIP3    H171938   3.255   1.867   6.066  0.4295  0.2400  0.1576
16841TIP3    H271939   3.179   1.972   6.143 -1.5520 -0.7649 -0.3489
16842TIP3   OH271940   2.433   2.028  16.255 -0.0037 -0.2191 -0.5728
16842TIP3    H171941   2.527   2.011  16.254 -0.1662 -1.1655 -1.0370
16842TIP3    H271942   2.424   2.115  16.294  0.8972 -1.0595  1.6249
16843TIP3   OH271943   5.619   3.306  10.752 -0.1327  0.0837  0.0731
16843TIP3    H171944   5.659   3.310  10.665  1.5590 -0.4896  0.7885
16843TIP3    H271945   5.652   3.383  10.798 -0.9954  0.3684  0.2412
16844TIP3   OH271946   3.728   4.821  12.065  0.1071 -0.3216  0.4240
16844TIP3    H171947   3.808   4.867  12.040  1.0441 -0.5115  2.7989
16844TIP3    H271948   3.692   4.788  11.982  0.4665  2.8564 -1.1458
16845TIP3   OH271949   5.050   2.011   3.092  0.3942  0.2640 -0.4171
16845TIP3    H171950   5.127   1.977   3.137  1.9344  2.7013 -1.0120
16845TIP3    H271951   4.998   2.053   3.162 -0.0971 -0.7717 -0.1303
16846TIP3   OH271952   2.837   4.301   4.125  0.3478  0.3610 -0.2893
16846TIP3    H171953   2.842   4.223   4.069 -0.9012  0.2759 -0.3107
16846TIP3    H271954   2.844   4.267   4.214  0.8772  0.3383 -0.3387
16847TIP3   OH271955   1.418   4.081   0.586  0.1121 -0.1135  0.2361
16847TIP3    H171956   1.506   4.058   0.613  1.0580  2.6805 -0.1515
16847TIP3    H271957   1.394   4.155   0.642 -0.5191  1.4822 -1.9914
16848TIP3   OH271958   3.729   2.996   4.975  0.9849  0.2230 -0.7545
16848TIP3    H171959   3.707   2.944   5.053 -0.1881 -1.0329 -1.8849
16848TIP3    H271960   3.707   3.086   5.000  0.3638 -0.1890  0.2714
16849TIP3   OH271961   3.669   1.007   0.010  1.1584  0.5093  0.8097
16849TIP3    H171962   3.685   1.098  -0.012  0.8409 -0.0592 -2.2946
16849TIP3    H271963   3.739   0.959  -0.034 -0.4505 -0.9132 -0.3264
16850TIP3   OH271964   0.580   4.691  13.831  0.4114 -0.0736  0.1783
16850TIP3    H171965   0.628   4.616  13.794 -0.5893 -0.3854 -0.5420
16850TIP3    H271966   0.644   4.762  13.833  0.7525 -0.3101 -1.3043
16851TIP3   OH271967   5.610   4.692   0.096  0.6312 -0.1305  0.0113
16851TIP3    H171968   5.593   4.613   0.046  0.0910  0.0024 -0.0194
16851TIP3    H271969   5.529   4.743   0.090  0.6252 -0.0215  0.8486
16852TIP3   OH271970   2.334   6.204   6.179 -0.2470 -0.1454 -0.3281
16852TIP3    H171971   2.358   6.293   6.207 -0.8511  0.4365 -1.5610
16852TIP3    H271972   2.389   6.147   6.231 -0.9222  0.8763  1.6290
16853TIP3   OH271973   3.442   3.448   5.077  0.8221  0.0943  0.1700
16853TIP3    H171974   3.425   3.542   5.072 -0.0408  0.0732  1.7706
16853TIP3    H271975   3.442   3.418   4.987 -0.2091  1.4208 -0.2972
16854TIP3   OH271976   4.036   4.027   2.824  0.1866 -0.8943  0.4946
16854TIP3    H171977   4.032   4.014   2.919 -2.3314 -0.4280  0.5460
16854TIP3    H271978   4.059   4.119   2.814 -1.2023 -0.4870  0.7606
16855TIP3   OH271979   1.845   4.318  15.976  0.3279  0.0254 -0.2338
16855TIP3    H171980   1.831   4.301  15.883  2.2309  0.9703 -0.7592
16855TIP3    H271981   1.785   4.259  16.021  0.1150 -1.2291 -2.0446
16856TIP3   OH271982   1.003   2.828   5.414  0.3239  0.2540  0.5975
16856TIP3    H171983   0.960   2.773   5.478  1.2226 -0.6508  0.4339
16856TIP3    H271984   0.980   2.789   5.329  1.9199 -0.6170  0.5264
16857TIP3   OH271985   0.684   3.837  15.367  0.4276  0.5003 -0.3183
16857TIP3    H171986   0.607   3.866  15.416  0.3105 -2.3883  1.4393
16857TIP3    H271987   0.758   3.876  15.414  0.1659  0.6482 -0.0223
16858TIP3   OH271988   1.146   5.209   1.431  0.0496  0.0941 -0.0010
16858TIP3    H171989   1.096   5.290   1.445  2.5829  1.5260  1.4275
16858TIP3    H271990   1.131   5.158   1.511  1.1829  0.7553  0.6623
16859TIP3   OH271991   2.177   0.249  15.792  0.2706 -0.9488 -0.6674
16859TIP3    H171992   2.109   0.188  15.821  0.5888 -0.4728  1.2204
16859TIP3    H271993   2.136   0.335  15.798  0.7677 -0.7318 -0.3366
16860TIP3   OH271994   1.887   0.195  12.701 -0.7435 -0.1654 -0.0739
16860TIP3    H171995   1.817   0.238  12.652  1.3610  1.7854 -1.5728
16860TIP3    H271996   1.908   0.117  12.650 -0.0127  0.7161 -1.1662
16861TIP3   OH271997   6.715   4.934   4.444 -0.2456 -0.1314  0.0304
16861TIP3    H171998   6.762   4.851   4.453  0.9211  0.3332 -1.3757
16861TIP3    H271999   6.762   4.995   4.500  0.2914  0.1119 -0.6729
16862TIP3   OH272000   5.543   0.784  14.186  0.4059  0.5438 -0.1524
16862TIP3    H172001   5.607   0.756  14.121  2.2032  2.2606  0.7552
16862TIP3    H272002   5.477   0.831  14.136  0.8512  0.3541 -0.9266
16863TIP3   OH272003   3.477   6.207   4.382  0.2858  0.5750  0.3098
16863TIP3    H172004   3.546   6.155   4.422  0.9571  1.2347  0.0319
16863TIP3    H272005   3.523   6.266   4.322 -0.6136  0.2124 -0.7781
16864TIP3   OH272006   6.439   3.009   3.856  0.6243 -0.4521  0.0127
16864TIP3    H172007   6.356   3.054   3.865 -0.0194 -1.5277 -0.2986
16864TIP3    H272008   6.463   2.984   3.945  1.7299  1.7083  0.3921
16865TIP3   OH272009   4.436   3.766   1.078 -0.0429  0.1618  0.2132
16865TIP3    H172010   4.503   3.759   1.146  0.2682  1.2904  0.0548
16865TIP3    H272011   4.365   3.813   1.120  1.5399  4.1919 -1.0909
16866TIP3   OH272012   5.892   3.692   3.859 -0.6985 -0.4027 -0.2682
16866TIP3    H172013   5.883   3.693   3.764 -1.0133 -0.1360 -0.2373
16866TIP3    H272014   5.802   3.703   3.892 -0.4721  0.4874  0.0607
16867TIP3   OH272015   6.197   6.405  15.621 -0.8521  0.4148  0.1480
16867TIP3    H172016   6.263   6.421  15.553 -0.6070 -0.5737  0.1300
16867TIP3    H272017   6.217   6.468  15.689  0.3482 -0.0801  0.2901
16868TIP3   OH272018   4.065   4.704  11.224 -0.0833  0.1160 -0.5664
16868TIP3    H172019   4.023   4.649  11.159  0.3398 -0.0779 -0.6815
16868TIP3    H272020   4.159   4.697  11.205 -0.0764  1.7458 -1.2757
16869TIP3   OH272021   4.597   6.485  13.961 -0.2808 -0.3243 -0.4310
16869TIP3    H172022   4.621   6.433  14.037 -1.3514 -0.4708 -0.1828
16869TIP3    H272023   4.681   6.518  13.927  0.3076 -1.2761  0.0646
16870TIP3   OH272024   1.732   4.729   6.190  0.5983 -0.3715 -0.5467
16870TIP3    H172025   1.771   4.809   6.154 -0.8069  0.0757 -1.1222
16870TIP3    H272026   1.653   4.759   6.235  1.3551 -1.1481  1.3930
16871TIP3   OH272027   1.579   6.016  14.714 -0.1693 -0.0265  0.5673
16871TIP3    H172028   1.610   5.949  14.653  0.2806 -0.5549  1.3543
16871TIP3    H272029   1.566   6.094  14.660 -3.7876 -1.4841 -1.0584
16872TIP3   OH272030   5.616   4.108  16.857 -0.3868 -0.1916 -0.5464
16872TIP3    H172031   5.677   4.094  16.930 -1.3160  0.9942  0.5057
16872TIP3    H272032   5.535   4.066  16.886 -0.6907  0.0698 -1.0124
16873TIP3   OH272033   1.565   4.429  14.146 -0.4368  0.1023 -0.4781
16873TIP3    H172034   1.549   4.438  14.240  0.4009  0.4546 -0.3640
16873TIP3    H272035   1.479   4.407  14.110 -0.4270 -1.8704  0.5829
16874TIP3   OH272036   3.502   0.109  16.408 -0.2376 -0.8236 -0.6230
16874TIP3    H172037   3.472   0.018  16.412 -1.2657 -0.5836 -1.8499
16874TIP3    H272038   3.597   0.103  16.398 -0.4485 -1.8574 -2.4685
16875TIP3   OH272039   4.220   0.147  15.321  0.5400  0.1726  0.0953
16875TIP3    H172040   4.255   0.059  15.334  1.4395  0.6647  1.2549
16875TIP3    H272041   4.268   0.181  15.245 -0.7491 -0.7749 -1.1844
16876TIP3   OH272042   1.143   4.089  14.662  0.3903 -0.0520 -0.1067
16876TIP3    H172043   1.227   4.096  14.708  0.5155  0.7239 -0.4369
16876TIP3    H272044   1.112   4.000  14.681  0.8515 -0.0328  0.7613
16877TIP3   OH272045   4.080   4.723  16.807 -0.6745 -0.6245  0.7524
16877TIP3    H172046   4.053   4.780  16.736 -3.0591 -0.9036  1.3243
16877TIP3    H272047   4.070   4.776  16.886 -1.2991 -1.2899  1.1408
16878TIP3   OH272048   4.769   6.296   0.641  0.3501 -0.0666  0.2736
16878TIP3    H172049   4.841   6.312   0.580  0.8168 -1.6346  0.3746
16878TIP3    H272050   4.805   6.235   0.705 -0.9454 -0.5525  0.5648
16879TIP3   OH272051   0.220   2.709  11.184  0.4139  0.0676  0.6306
16879TIP3    H172052   0.242   2.634  11.129 -1.3910  0.0296 -0.0900
16879TIP3    H272053   0.304   2.737  11.221  1.6574 -0.0833 -1.8834
16880TIP3   OH272054   5.069   2.206  17.079  0.4474 -0.2899  0.3563
16880TIP3    H172055   5.150   2.188  17.031 -0.0914 -0.8177 -0.3676
16880TIP3    H272056   5.053   2.126  17.129  0.1961 -0.3082  0.2475
16881TIP3   OH272057   3.928   6.718  13.823 -0.0879  0.4389  0.2842
16881TIP3    H172058   3.832   6.717  13.818 -0.0386 -0.7046 -1.3087
16881TIP3    H272059   3.949   6.803  13.861 -1.7531  0.3895  1.4272
16882TIP3   OH272060   4.026   4.991   3.304  0.0889 -0.3477 -0.3020
16882TIP3    H172061   4.049   5.016   3.214  0.3782 -1.6943 -0.6185
16882TIP3    H272062   3.956   4.927   3.294  0.0447 -0.4216  0.4428
16883TIP3   OH272063   6.192   3.214  15.147 -0.2475  0.1739 -0.0298
16883TIP3    H172064   6.164   3.299  15.112  0.8364  0.4254 -0.3107
16883TIP3    H272065   6.119   3.186  15.202 -0.4740  1.4575  0.3541
16884TIP3   OH272066   0.858   1.164  17.226 -0.0351  0.3901 -0.3168
16884TIP3    H172067   0.954   1.167  17.227  0.0951 -1.3660  2.2048
16884TIP3    H272068   0.837   1.107  17.152  0.9278 -0.0464 -0.2739
16885TIP3   OH272069   2.562   3.259   1.482  0.4687  0.1318  0.4965
16885TIP3    H172070   2.516   3.175   1.481  1.6055 -0.5015 -0.4710
16885TIP3    H272071   2.622   3.255   1.408 -0.2560  2.2739 -0.2852
16886TIP3   OH272072   3.079   1.242  12.821 -0.0765 -0.1902  0.5895
16886TIP3    H172073   3.142   1.230  12.892  0.2586 -0.5808  0.2371
16886TIP3    H272074   3.048   1.153  12.803  0.4621 -0.2125 -0.3024
16887TIP3   OH272075   1.064   0.403   1.241 -0.1397 -0.2007  0.3071
16887TIP3    H172076   0.976   0.374   1.263 -1.6502  2.5293 -1.5108
16887TIP3    H272077   1.070   0.390   1.146  2.3774 -2.4504  0.6497
16888TIP3   OH272078   1.017   4.835  12.399  0.1889  0.0902 -0.5496
16888TIP3    H172079   1.112   4.820  12.403 -0.0883 -1.5314  0.9848
16888TIP3    H272080   0.993   4.808  12.310  1.2467  1.2684 -1.2248
16889TIP3   OH272081   4.472   5.031   0.194 -0.1401 -0.7939 -0.7347
16889TIP3    H172082   4.508   4.943   0.178  0.2331 -1.2906  2.2790
16889TIP3    H272083   4.389   5.015   0.239  0.1991  0.3937  0.3408
16890TIP3   OH272084   2.155   3.506  15.877 -0.1117 -0.1827  0.1242
16890TIP3    H172085   2.204   3.588  15.869 -1.3043  0.5075 -0.4055
16890TIP3    H272086   2.223   3.439  15.883  0.9010  0.7710 -0.1350
16891TIP3   OH272087   2.354   2.404   5.008 -0.1765 -0.5188 -0.1351
16891TIP3    H172088   2.371   2.319   5.050 -0.0305 -0.2253  0.4147
16891TIP3    H272089   2.287   2.385   4.943 -1.7708 -0.6945  1.4694
16892TIP3   OH272090   4.302   4.895  17.217 -0.4552  0.0642  0.4667
16892TIP3    H172091   4.326   4.803  17.207  0.0967  0.2715 -0.1997
16892TIP3    H272092   4.341   4.939  17.141  0.9275  1.1633  1.7449
16893TIP3   OH272093   6.219   2.729  14.680 -0.6057 -0.2113  0.4772
16893TIP3    H172094   6.162   2.684  14.617  0.1494  0.0807 -0.4279
16893TIP3    H272095   6.238   2.814  14.640  0.7521 -0.4370  0.6061
16894TIP3   OH272096   0.025   0.912   3.058 -0.8943  0.1238  0.0118
16894TIP3    H172097  -0.005   0.889   2.970 -0.5979  1.3566 -0.4319
16894TIP3    H272098  -0.055   0.936   3.105 -1.0480 -0.4995  0.0751
16895TIP3   OH272099   3.341   1.721   1.955 -0.8777 -0.2701  0.5242
16895TIP3    H172100   3.255   1.715   1.914  0.4704 -0.1696 -2.5747
16895TIP3    H272101   3.354   1.815   1.970 -0.2519  0.0333 -1.6270
16896TIP3   OH272102   6.212   3.714  15.532 -0.0950  0.4599 -0.3931
16896TIP3    H172103   6.280   3.761  15.582 -0.4018 -0.1999  0.6798
16896TIP3    H272104   6.132   3.764  15.547 -0.0297  0.7333 -0.9283
16897TIP3   OH272105   2.081   5.147   5.821  0.6803  0.1361  0.3115
16897TIP3    H172106   2.030   5.109   5.749  1.0063  0.8190 -0.2914
16897TIP3    H272107   2.151   5.196   5.778  1.3973 -0.1563  1.1160
16898TIP3   OH272108   5.259   4.838  11.600  0.0587  0.0906  0.3469
16898TIP3    H172109   5.223   4.750  11.594 -3.6906  1.4839 -0.0102
16898TIP3    H272110   5.285   4.859  11.510  0.0135 -0.2574  0.2501
16899TIP3   OH272111   2.551   2.983  16.750  0.6446 -0.4759  0.5609
16899TIP3    H172112   2.634   2.937  16.749  2.2374  2.1539  1.5549
16899TIP3    H272113   2.543   3.020  16.662  1.8477  1.3119  1.1472
16900TIP3   OH272114   1.045   4.979   2.215  0.0347  0.5513  0.1358
16900TIP3    H172115   1.051   5.035   2.137  0.6068 -2.0761 -1.8530
16900TIP3    H272116   0.952   4.979   2.237 -0.2481  0.8696 -0.9603
16901TIP3   OH272117   6.179   3.346  11.637 -0.2959  0.2907  0.2768
16901TIP3    H172118   6.131   3.398  11.701 -1.5326 -1.7654  1.1205
16901TIP3    H272119   6.112   3.295  11.591  0.8338 -0.5773 -0.4879
16902TIP3   OH272120   5.141   0.910   1.787  0.0096 -0.2345  0.3430
16902TIP3    H172121   5.093   0.975   1.736  1.2285 -0.7959 -1.6711
16902TIP3    H272122   5.143   0.833   1.731 -1.8417 -2.2958  2.8571
16903TIP3   OH272123   0.732   4.816  17.069 -0.3576  0.3299  0.0150
16903TIP3    H172124   0.818   4.775  17.075 -0.0821  1.0040  0.8830
16903TIP3    H272125   0.728   4.852  16.980 -0.6364 -1.5819 -0.7956
16904TIP3   OH272126   3.931   0.150  15.874 -0.1560  0.5162 -0.6109
16904TIP3    H172127   3.887   0.232  15.894  0.7005  1.1334 -1.1796
16904TIP3    H272128   3.860   0.088  15.859 -0.8167  1.1472 -0.1839
16905TIP3   OH272129   5.807   2.768  11.728  0.0552 -0.2829 -0.3507
16905TIP3    H172130   5.788   2.828  11.800 -1.4923  1.2301 -1.9315
16905TIP3    H272131   5.879   2.808  11.680 -0.0531 -0.3968 -0.6128
16906TIP3   OH272132   3.091   2.384   3.431  0.1635 -0.2643 -0.2018
16906TIP3    H172133   3.141   2.464   3.414  1.0131 -0.9149 -0.9482
16906TIP3    H272134   3.008   2.413   3.467  0.3490  0.9658 -0.7390
16907TIP3   OH272135   4.769   6.069  11.797  0.1076 -0.5609 -0.3000
16907TIP3    H172136   4.815   6.106  11.872 -0.7648 -1.0406  0.4937
16907TIP3    H272137   4.824   5.996  11.769  1.8148  1.2164 -1.8460
16908TIP3   OH272138   5.725   6.358  15.283 -0.4673  0.1768 -0.0542
16908TIP3    H172139   5.809   6.382  15.244  0.2566 -2.9412 -0.6748
16908TIP3    H272140   5.661   6.380  15.215  0.1325  0.2580 -0.6109
16909TIP3   OH272141   0.486   4.154   4.268 -0.4196  0.5685  0.0799
16909TIP3    H172142   0.499   4.181   4.177 -0.4286 -0.0100 -0.0938
16909TIP3    H272143   0.435   4.074   4.262  1.4648 -0.7180  0.4910
16910TIP3   OH272144   6.349   2.936  14.291  0.1965 -0.3078 -0.5086
16910TIP3    H172145   6.268   2.981  14.269  0.8078  1.3137  0.3962
16910TIP3    H272146   6.321   2.856  14.336 -0.9153  0.6575  0.5767
16911TIP3   OH272147   5.728   5.102  12.032 -0.2961 -0.0041 -0.1257
16911TIP3    H172148   5.760   5.070  11.948 -1.1127 -0.2027 -0.3699
16911TIP3    H272149   5.769   5.044  12.097 -0.1624 -0.2514 -0.4266
16912TIP3   OH272150   5.045   2.041  13.143  0.5769 -0.0721 -0.1127
16912TIP3    H172151   5.050   2.073  13.053  2.4199 -0.3027 -0.1213
16912TIP3    H272152   4.971   1.980  13.143 -0.8264  1.5359 -0.9130
16913TIP3   OH272153   2.841   3.709  12.202  0.5860 -0.5083  0.1636
16913TIP3    H172154   2.797   3.642  12.255 -0.8462 -0.8859 -1.4139
16913TIP3    H272155   2.816   3.792  12.243  0.6235 -0.8355  0.8744
16914TIP3   OH272156   4.882   4.586  13.018 -0.2140 -0.2042  0.8324
16914TIP3    H172157   4.848   4.498  13.036 -0.3799 -0.1545  0.7572
16914TIP3    H272158   4.947   4.600  13.087  1.7438 -1.4466 -0.6570
16915TIP3   OH272159   0.716   5.054   5.112 -0.3211 -0.2016 -0.2463
16915TIP3    H172160   0.807   5.070   5.137 -0.3330  1.2772 -1.0543
16915TIP3    H272161   0.675   5.140   5.112 -1.8679 -0.8964  0.5614
16916TIP3   OH272162   6.360   1.858  16.721 -0.4270 -0.8575  0.1055
16916TIP3    H172163   6.270   1.862  16.755  0.1105  0.3012  1.5126
16916TIP3    H272164   6.385   1.767  16.732 -1.2575 -1.0825  0.2138
16917TIP3   OH272165   4.095   1.456   5.774 -0.2445 -0.2055  0.0392
16917TIP3    H172166   4.030   1.469   5.843 -2.1073  2.1064 -1.9993
16917TIP3    H272167   4.097   1.361   5.762 -2.6319 -0.4341  0.7832
16918TIP3   OH272168   6.056   0.283   3.448 -0.0222 -0.1488  0.0242
16918TIP3    H172169   5.975   0.278   3.499  0.3262 -0.6444  0.5428
16918TIP3    H272170   6.036   0.236   3.366  0.0655 -1.2362  0.6053
16919TIP3   OH272171   1.399   4.872   4.713  0.0463  0.6347 -1.1410
16919TIP3    H172172   1.414   4.788   4.755  0.1577 -0.2018 -2.7954
16919TIP3    H272173   1.315   4.902   4.748  0.1185 -0.0455 -0.3717
16920TIP3   OH272174   5.828   3.407  13.183 -0.0909 -0.0221 -0.5795
16920TIP3    H172175   5.804   3.455  13.104 -1.7177  1.0046  0.4737
16920TIP3    H272176   5.897   3.459  13.224 -1.2830  1.0466  0.1390
16921TIP3   OH272177   4.061   2.984  15.529  0.0394 -0.4808 -0.0979
16921TIP3    H172178   4.107   2.922  15.584  1.0904  0.7783  0.4928
16921TIP3    H272179   4.128   3.046  15.500 -0.9055  0.1989 -0.9352
16922TIP3   OH272180   1.185   5.309  11.953 -0.4049 -0.2407 -0.2362
16922TIP3    H172181   1.170   5.225  11.996 -0.2359 -0.3999 -0.4888
16922TIP3    H272182   1.234   5.360  12.017 -1.9357  0.2715  0.5921
16923TIP3   OH272183   4.091   1.365  11.358 -0.3097  0.2786 -0.2447
16923TIP3    H172184   4.048   1.446  11.386  1.1041  0.8718  0.3075
16923TIP3    H272185   4.105   1.376  11.264 -0.0672  0.7002 -0.1590
16924TIP3   OH272186   1.183   5.036   6.079 -0.1366 -0.0144 -0.1234
16924TIP3    H172187   1.120   5.064   6.145  1.3705 -0.5928  1.6222
16924TIP3    H272188   1.269   5.058   6.115  0.8084 -1.5443 -1.2729
16925TIP3   OH272189   4.933   5.468   2.435  0.5906  0.1767  0.3579
16925TIP3    H172190   4.937   5.515   2.351  0.6161 -1.0980 -0.3834
16925TIP3    H272191   4.840   5.467   2.457  0.5480  0.2576  0.1902
16926TIP3   OH272192   6.448   0.846  11.033 -0.1726 -0.1920  0.0929
16926TIP3    H172193   6.363   0.815  11.001  0.4618 -0.2164 -1.6135
16926TIP3    H272194   6.480   0.904  10.964  1.0106  0.1703  0.9239
16927TIP3   OH272195   0.199   5.420  11.827 -0.3793 -0.4308 -0.0521
16927TIP3    H172196   0.106   5.402  11.809 -0.7433  0.0826  1.1772
16927TIP3    H272197   0.245   5.384  11.752 -1.8340  2.6733 -2.7156
16928TIP3   OH272198   3.673   3.393   0.137  0.5821  0.1920 -0.3585
16928TIP3    H172199   3.652   3.385   0.230 -1.3442  0.6753 -0.7140
16928TIP3    H272200   3.614   3.331   0.094  1.7685 -0.3527 -1.2452
16929TIP3   OH272201   1.565   1.112   3.056 -0.4565  0.1062 -0.2451
16929TIP3    H172202   1.569   1.206   3.077 -0.5189 -0.5106  2.8572
16929TIP3    H272203   1.473   1.097   3.033 -0.0759  1.0949 -2.7692
16930TIP3   OH272204   4.940   2.119   1.628 -0.5971  0.0534  0.5683
16930TIP3    H172205   4.908   2.208   1.644  0.0563  0.2729  0.6613
16930TIP3    H272206   4.978   2.123   1.540  0.3504  0.1307  0.9720
16931TIP3   OH272207   3.416   2.156  16.906  0.0926  0.3990  0.2675
16931TIP3    H172208   3.498   2.160  16.857  0.7026  0.6998  1.2814
16931TIP3    H272209   3.433   2.094  16.977 -1.2270 -1.1240 -0.6862
16932TIP3   OH272210   6.749   2.827  13.751 -0.1896 -0.5168 -0.4379
16932TIP3    H172211   6.715   2.741  13.775 -1.1309  0.2733  1.2847
16932TIP3    H272212   6.844   2.815  13.746 -0.0909 -1.2346  1.9325
16933TIP3   OH272213   1.361   0.323  13.534 -0.3519 -0.3627 -0.5783
16933TIP3    H172214   1.398   0.268  13.602 -1.8045 -2.6576 -1.5147
16933TIP3    H272215   1.402   0.292  13.453 -2.0661 -0.9764 -1.2648
16934TIP3   OH272216   1.488   0.982   4.819  0.2734 -0.0093 -0.5365
16934TIP3    H172217   1.476   0.919   4.747 -0.6633  0.1077 -0.4961
16934TIP3    H272218   1.484   1.067   4.776 -0.9828  0.0831 -0.2746
16935TIP3   OH272219   3.010   2.146   1.889 -0.1966  0.1959  0.2806
16935TIP3    H172220   3.040   2.214   1.949  0.5004 -0.6791  0.9493
16935TIP3    H272221   3.061   2.161   1.809 -1.6996  1.8619 -0.4416
16936TIP3   OH272222   2.927   0.008   3.144 -0.2474 -0.0080  0.0347
16936TIP3    H172223   2.846   0.058   3.133  1.0334  2.0468 -0.5602
16936TIP3    H272224   2.898  -0.077   3.178 -2.5643  1.0016  0.7968
16937TIP3   OH272225   1.384   3.803   5.761  0.2811 -0.1044 -0.0348
16937TIP3    H172226   1.391   3.878   5.820 -0.8635  0.1480 -0.2095
16937TIP3    H272227   1.418   3.730   5.813  0.5200  0.3548  0.4717
16938TIP3   OH272228   2.072   1.085  16.968  0.1848  0.5030  0.1544
16938TIP3    H172229   2.022   1.058  16.891 -1.4317  1.8467  0.6844
16938TIP3    H272230   2.059   1.014  17.031 -1.5514  1.0500  0.4660
16939TIP3   OH272231   6.329   6.177  13.271 -0.1653  0.0947 -0.4990
16939TIP3    H172232   6.304   6.230  13.347 -0.4276  1.5443 -1.5577
16939TIP3    H272233   6.303   6.088  13.295 -0.5093  0.5552  0.9824
16940TIP3   OH272234   1.740   5.136  14.169 -0.5040 -0.1164 -0.3775
16940TIP3    H172235   1.675   5.159  14.102 -1.1241 -0.7349 -0.0073
16940TIP3    H272236   1.776   5.219  14.198 -1.3708  0.2668 -0.3726
16941TIP3   OH272237   1.528   1.303   6.012 -0.1833  0.6083  0.5298
16941TIP3    H172238   1.571   1.225   5.975  1.5513  1.4599  0.7063
16941TIP3    H272239   1.442   1.271   6.040 -0.2140 -0.8455 -1.0508
16942TIP3   OH272240   3.352   1.588   3.919 -0.2599  0.3247 -0.5462
16942TIP3    H172241   3.320   1.507   3.882  1.3901 -0.3105 -0.6572
16942TIP3    H272242   3.273   1.638   3.940 -1.2806 -1.0226 -1.0712
16943TIP3   OH272243   3.427   4.486   0.301  0.1427 -0.8607  0.4109
16943TIP3    H172244   3.338   4.464   0.272 -0.2663  0.4266  0.6372
16943TIP3    H272245   3.484   4.435   0.243 -0.7285 -3.6791  1.8760
16944TIP3   OH272246   0.623   2.056  13.352 -0.0383  0.4273  0.3311
16944TIP3    H172247   0.649   2.127  13.293 -0.7493  1.2807  1.0023
16944TIP3    H272248   0.703   2.031  13.397  0.5956 -0.4951 -1.2336
16945TIP3   OH272249   0.441   6.368   4.037 -0.1774 -0.0691 -0.3857
16945TIP3    H172250   0.533   6.365   4.014 -0.0332 -0.6350  0.2555
16945TIP3    H272251   0.439   6.401   4.127 -0.6653  0.9142 -0.7288
16946TIP3   OH272252   0.679   3.412  13.442 -0.1467  0.0553 -0.0786
16946TIP3    H172253   0.599   3.420  13.493  0.1445  0.6159  0.3049
16946TIP3    H272254   0.716   3.328  13.468 -0.9506 -0.5387 -0.7728
16947TIP3   OH272255   0.012   2.538  14.425  0.5139  1.2554 -0.6330
16947TIP3    H172256  -0.052   2.605  14.403 -1.5237 -0.3381  0.1468
16947TIP3    H272257  -0.032   2.482  14.490  3.1878  0.8403  0.9720
16948TIP3   OH272258   3.551   4.568  12.604  0.6335  0.0077  0.3897
16948TIP3    H172259   3.483   4.565  12.537 -0.2325  2.2192  1.0579
16948TIP3    H272260   3.632   4.544  12.558 -0.2799 -0.6944 -0.8907
16949TIP3   OH272261   6.368   3.007   1.795  0.3951 -0.5505  0.3489
16949TIP3    H172262   6.280   3.028   1.762  0.6541 -1.4023 -0.9347
16949TIP3    H272263   6.368   3.042   1.884 -0.2753  2.0421 -0.5697
16950TIP3   OH272264   3.579   3.303  13.620  0.8104  0.1581 -0.2437
16950TIP3    H172265   3.519   3.244  13.666 -1.2200  0.5451 -2.2635
16950TIP3    H272266   3.546   3.391  13.639  1.2892  0.4319 -0.6559
16951TIP3   OH272267   4.350   5.773   2.687  0.1871  0.0458 -0.0861
16951TIP3    H172268   4.352   5.694   2.633 -0.8742  0.7858 -1.2756
16951TIP3    H272269   4.417   5.830   2.648 -2.6260  1.8284 -2.7748
16952TIP3   OH272270   6.313   0.728   0.302 -0.5294 -0.3481 -0.1560
16952TIP3    H172271   6.365   0.767   0.232  2.5094 -1.0948  1.5154
16952TIP3    H272272   6.350   0.640   0.313 -2.4347 -1.0831  0.9200
16953TIP3   OH272273   0.253   6.661  14.345 -0.3397 -0.2139  0.0621
16953TIP3    H172274   0.236   6.654  14.251  1.4024 -0.4996 -0.2711
16953TIP3    H272275   0.166   6.660  14.386 -1.1791  0.9353 -1.5905
16954TIP3   OH272276   3.401   5.254  15.416  0.0306  0.1204 -0.0103
16954TIP3    H172277   3.460   5.181  15.432  1.8059  1.4983  0.0748
16954TIP3    H272278   3.394   5.259  15.320  3.9451  2.7142 -0.3946
16955TIP3   OH272279   2.388   5.112   0.331  0.5195 -0.5390  0.2593
16955TIP3    H172280   2.397   5.083   0.240 -0.3691 -0.8213  0.2546
16955TIP3    H272281   2.302   5.152   0.335  0.6709 -0.2723  0.9134
16956TIP3   OH272282   1.957   2.309  15.477 -0.5255  0.5612  0.7648
16956TIP3    H172283   1.976   2.401  15.461 -0.7883  0.6653  1.0419
16956TIP3    H272284   2.001   2.263  15.406 -3.0546  1.1209 -1.3221
16957TIP3   OH272285   5.327   1.215  15.419 -0.6155  0.2056 -0.3701
16957TIP3    H172286   5.363   1.291  15.373 -3.0990  0.6253 -1.7825
16957TIP3    H272287   5.282   1.253  15.495  0.0954 -0.0945  0.2047
16958TIP3   OH272288   0.952   2.231  11.458  0.1147  0.0762  0.2025
16958TIP3    H172289   0.929   2.302  11.398  1.0766  0.7432  0.5952
16958TIP3    H272290   1.042   2.250  11.485  0.5265 -1.4841  0.0501
16959TIP3   OH272291   2.353   4.917   2.716 -0.4913  0.4798  0.3101
16959TIP3    H172292   2.390   4.845   2.767 -0.0496  0.2881 -0.2768
16959TIP3    H272293   2.419   4.986   2.720 -1.9167  1.8719  2.9572
16960TIP3   OH272294   2.062   4.044  15.934  0.2763 -0.4614 -0.5937
16960TIP3    H172295   2.039   4.105  16.004 -0.2511 -0.5020 -0.7298
16960TIP3    H272296   2.061   4.097  15.854 -1.0802 -0.8179 -0.8408
16961TIP3   OH272297   5.899   6.698   3.068 -0.3219 -0.2850  0.2227
16961TIP3    H172298   5.888   6.785   3.029 -0.1189  0.0485  0.8869
16961TIP3    H272299   5.964   6.712   3.138 -0.1703 -1.0026  0.2283
16962TIP3   OH272300   6.345   5.564   3.543  0.5802 -0.0015 -0.0381
16962TIP3    H172301   6.328   5.543   3.634 -0.5537 -1.6704 -0.5986
16962TIP3    H272302   6.402   5.641   3.547  0.0079  0.3798  2.0431
16963TIP3   OH272303   5.700   5.257   4.500  0.1121 -0.5332  0.6357
16963TIP3    H172304   5.632   5.274   4.565 -2.9588 -0.5168 -2.2494
16963TIP3    H272305   5.708   5.162   4.497 -0.0879 -0.5530  0.7280
16964TIP3   OH272306   4.267   4.349  13.746 -0.2743 -0.2399  0.0567
16964TIP3    H172307   4.188   4.296  13.756 -0.4876  0.1268  0.3112
16964TIP3    H272308   4.327   4.293  13.696  0.4133 -1.7203  2.3774
16965TIP3   OH272309   1.345   3.783  13.556 -0.2657 -0.0769  0.5681
16965TIP3    H172310   1.375   3.735  13.479  1.1060  2.9614 -0.9600
16965TIP3    H272311   1.253   3.802  13.538 -0.0105  0.4315 -0.2742
16966TIP3   OH272312   3.043   3.879  16.512  0.9443 -0.2059 -0.0004
16966TIP3    H172313   3.134   3.881  16.541  1.1359  1.4520 -0.6016
16966TIP3    H272314   3.046   3.917  16.424 -0.3710  0.1921  0.1147
16967TIP3   OH272315   1.740   2.856  15.036 -0.6433 -0.5776  0.1532
16967TIP3    H172316   1.773   2.775  15.075 -2.4435 -0.7171  1.4859
16967TIP3    H272317   1.806   2.878  14.969  1.3440 -1.5783  1.6641
16968TIP3   OH272318   2.816   2.920  16.121  0.3482 -0.1577  0.4137
16968TIP3    H172319   2.805   2.985  16.051 -0.1838 -1.6954 -1.0023
16968TIP3    H272320   2.908   2.924  16.144  0.7656 -0.2891 -1.1095
16969TIP3   OH272321   1.290   3.541   2.457  0.0854  0.5391 -0.0587
16969TIP3    H172322   1.356   3.605   2.428  1.6329 -0.5872  0.8096
16969TIP3    H272323   1.339   3.460   2.468 -1.3517 -0.2033  1.1802
16970TIP3   OH272324   5.573   4.733   1.800 -0.0973 -0.7232 -0.1714
16970TIP3    H172325   5.615   4.698   1.722  1.1498  0.3235  0.0111
16970TIP3    H272326   5.579   4.662   1.864  1.7969 -0.4704 -0.0162
16971TIP3   OH272327   4.292   1.924   1.001 -0.2731 -0.1458  0.4021
16971TIP3    H172328   4.331   1.983   0.936 -2.1564  1.2450  0.4704
16971TIP3    H272329   4.270   1.845   0.951  0.8907 -0.2362 -0.0058
16972TIP3   OH272330   2.109   4.252  15.758  0.3876  0.0451  0.5658
16972TIP3    H172331   2.016   4.250  15.738  0.7089 -0.5305 -1.0257
16972TIP3    H272332   2.135   4.344  15.745  0.3733 -0.1194 -0.7653
16973TIP3   OH272333   4.370   3.402  16.833  0.1365 -0.2938 -0.4411
16973TIP3    H172334   4.409   3.326  16.789  0.6808 -1.3307  1.7069
16973TIP3    H272335   4.300   3.365  16.887  0.8225  0.6067  1.1253
16974TIP3   OH272336   6.617   3.219   0.320 -0.0995 -0.0364  0.2036
16974TIP3    H172337   6.572   3.295   0.355 -0.0174 -0.3275  0.9699
16974TIP3    H272338   6.578   3.205   0.234 -0.8994  0.1982  0.5215
16975TIP3   OH272339   6.355   6.162   5.543  0.6458 -0.5841  0.4566
16975TIP3    H172340   6.354   6.213   5.462 -0.6530 -1.6769 -0.2662
16975TIP3    H272341   6.402   6.081   5.520  0.6227 -0.7294  0.9083
16976TIP3   OH272342   4.649   3.250   4.274 -0.3456 -0.4980 -0.1932
16976TIP3    H172343   4.653   3.294   4.359 -0.9891  1.2424 -1.0073
16976TIP3    H272344   4.688   3.164   4.289  0.6877  0.2283  1.5631
16977TIP3   OH272345   5.609   5.297  16.520 -0.3247 -0.3765  0.2460
16977TIP3    H172346   5.571   5.316  16.434  0.7124  5.3953  0.6612
16977TIP3    H272347   5.697   5.266  16.501  0.0811  1.3252 -0.9330
16978TIP3   OH272348   0.851   3.800   3.232  0.3542 -0.2290 -0.2346
16978TIP3    H172349   0.790   3.872   3.252  2.6896  1.5793  0.7750
16978TIP3    H272350   0.857   3.801   3.136  0.7133  1.2945 -0.2274
16979TIP3   OH272351   0.153   5.292   0.897 -0.1606 -0.3362  0.3674
16979TIP3    H172352   0.161   5.344   0.817 -0.2652 -0.0530  0.5417
16979TIP3    H272353   0.201   5.342   0.963  1.8691 -1.6310 -0.0082
16980TIP3   OH272354   4.611   0.617  15.318  0.2440  0.5132 -0.2364
16980TIP3    H172355   4.702   0.644  15.305  0.3257 -0.3656 -1.6211
16980TIP3    H272356   4.586   0.573  15.237  0.0079 -3.1848  1.5832
16981TIP3   OH272357   6.027   1.509  11.375 -0.1035 -0.0289  0.1944
16981TIP3    H172358   6.001   1.512  11.282  3.5137 -0.1089 -0.9793
16981TIP3    H272359   6.077   1.589  11.389  0.7574 -0.7664  1.6030
16982TIP3   OH272360   3.488   0.667  11.898 -0.4050  0.1976  0.3668
16982TIP3    H172361   3.423   0.720  11.943  0.6716 -0.1751  2.4967
16982TIP3    H272362   3.565   0.671  11.954  0.9988 -0.4394 -1.4037
16983TIP3   OH272363   1.683   1.409   1.850  0.5056 -0.0077 -0.1397
16983TIP3    H172364   1.690   1.403   1.945 -0.2564 -1.3879 -0.1402
16983TIP3    H272365   1.589   1.406   1.833  0.6821 -1.9324 -1.0147
16984TIP3   OH272366   2.157   2.455   2.589  0.1262  0.5804 -0.1316
16984TIP3    H172367   2.080   2.407   2.619 -1.2050  2.4933 -0.2748
16984TIP3    H272368   2.190   2.498   2.668 -0.3696  1.5926 -0.4512
16985TIP3   OH272369   5.122   2.218   4.081  1.2013  0.1004  0.2989
16985TIP3    H172370   5.120   2.226   4.176  1.1716 -1.0586  0.4065
16985TIP3    H272371   5.178   2.142   4.064 -1.4087 -1.7598 -0.4632
16986TIP3   OH272372   2.569   0.746  15.056 -0.1698  0.3955  0.3434
16986TIP3    H172373   2.651   0.750  15.106  0.4857  0.8283 -0.7401
16986TIP3    H272374   2.503   0.725  15.122  0.8519 -0.3121  1.1858
16987TIP3   OH272375   1.413   2.771   6.238  0.2253 -0.2905 -0.1426
16987TIP3    H172376   1.342   2.831   6.260 -0.9294 -0.8364 -2.1591
16987TIP3    H272377   1.487   2.829   6.215 -0.3982  0.3327 -0.6140
16988TIP3   OH272378   3.382   3.386   2.142  0.2813 -0.0793  0.0928
16988TIP3    H172379   3.333   3.418   2.218  2.5918  3.2196  0.4091
16988TIP3    H272380   3.472   3.412   2.159  1.2218 -0.9615 -2.9296
16989TIP3   OH272381   0.553   3.895   4.551 -0.8850 -0.3937 -0.5654
16989TIP3    H172382   0.572   3.988   4.538 -0.2454 -0.4126  0.1423
16989TIP3    H272383   0.494   3.892   4.626  0.6578 -0.6403  0.7107
16990TIP3   OH272384   1.343   5.891   2.135  0.0335 -0.3389 -0.6559
16990TIP3    H172385   1.380   5.939   2.061 -1.7977  0.9686 -0.7709
16990TIP3    H272386   1.363   5.944   2.211 -0.7203 -0.1221 -0.6012
16991TIP3   OH272387   6.232   4.779  17.023 -0.0232  0.1565  0.5994
16991TIP3    H172388   6.196   4.720  17.088 -2.0889  0.4555 -0.1973
16991TIP3    H272389   6.312   4.813  17.063  0.9463 -2.6956  1.2881
16992TIP3   OH272390   3.446   5.146   1.509  0.1454  0.1560 -0.3989
16992TIP3    H172391   3.523   5.099   1.542  0.8855  1.5224 -0.1056
16992TIP3    H272392   3.413   5.194   1.585  0.2379  1.1863 -0.9839
16993TIP3   OH272393   6.696   5.779  15.302 -0.1539 -0.1486 -0.4718
16993TIP3    H172394   6.673   5.687  15.292 -0.7996  0.0993 -1.3155
16993TIP3    H272395   6.695   5.814  15.213 -0.7538  0.8718 -0.0816
16994TIP3   OH272396   6.540   6.258   3.452 -0.1372 -0.0186 -0.5958
16994TIP3    H172397   6.528   6.173   3.410  0.6561 -0.8360  0.7499
16994TIP3    H272398   6.452   6.294   3.460 -0.5512 -0.9866 -0.6767
16995TIP3   OH272399   4.844   6.627   0.786 -0.2037  0.3175  0.7041
16995TIP3    H172400   4.780   6.629   0.715 -0.5470  1.8331  1.0263
16995TIP3    H272401   4.816   6.554   0.841  1.1316 -2.1159 -1.6094
16996TIP3   OH272402   2.932   1.784   5.385  0.2125  0.0214 -0.4863
16996TIP3    H172403   2.982   1.858   5.351  0.2342 -0.4988 -1.6229
16996TIP3    H272404   2.998   1.723   5.416  0.2536 -0.1983 -0.9980
16997TIP3   OH272405   0.412   1.448   4.914  0.8367  0.0875  0.3806
16997TIP3    H172406   0.464   1.518   4.956  0.7318 -0.6766  1.8326
16997TIP3    H272407   0.451   1.367   4.946  0.3965 -0.5314 -0.6087
16998TIP3   OH272408   1.455   6.256   1.678  0.4893 -0.0328 -0.7926
16998TIP3    H172409   1.373   6.271   1.726  1.1159 -1.3976  0.8276
16998TIP3    H272410   1.439   6.293   1.591 -1.3384  0.9853 -0.0938
16999TIP3   OH272411   3.663   5.183   3.374  0.2964 -0.4144  0.3895
16999TIP3    H172412   3.658   5.208   3.282  2.2241  0.1108  0.3802
16999TIP3    H272413   3.602   5.243   3.418 -0.4648 -0.5151 -0.5011
17000TIP3   OH272414   5.461   1.763  12.347 -0.5406 -0.0112  0.2109
17000TIP3    H172415   5.378   1.806  12.324 -0.1989  0.3922 -0.2628
17000TIP3    H272416   5.484   1.711  12.270 -0.7587 -0.7645  0.6409
17001TIP3   OH272417   4.144   5.980  16.773 -0.0428  0.2229 -0.4147
17001TIP3    H172418   4.175   5.987  16.683 -1.9034 -1.5717 -1.2456
17001TIP3    H272419   4.070   6.041  16.778  0.3624  0.6879  0.0714
17002TIP3   OH272420   5.135   2.722   5.749 -0.3425 -0.1589  0.6524
17002TIP3    H172421   5.120   2.769   5.667  0.0969 -2.0062 -0.5442
17002TIP3    H272422   5.069   2.653   5.749  1.7850 -2.3585  0.0522
17003TIP3   OH272423   3.050   1.725   2.278  0.4732  0.2440  0.0987
17003TIP3    H172424   3.064   1.776   2.198  0.3661 -0.5474 -0.4414
17003TIP3    H272425   2.961   1.747   2.305 -0.4320 -1.3062 -1.3945
17004TIP3   OH272426   4.472   6.120   4.879  0.4603  0.1179  0.4282
17004TIP3    H172427   4.400   6.140   4.939 -1.9521 -2.7348 -1.2184
17004TIP3    H272428   4.537   6.077   4.934 -1.4721 -1.9941  1.2480
17005TIP3   OH272429   3.801   2.993   2.413  0.0184  0.8091 -0.2849
17005TIP3    H172430   3.747   3.060   2.372 -1.3095 -0.8491 -1.3961
17005TIP3    H272431   3.891   3.020   2.395 -0.4589  2.5782 -0.1516
17006TIP3   OH272432   5.267   0.874  16.967 -0.2184 -0.2204  0.4340
17006TIP3    H172433   5.337   0.902  16.908  0.9194 -0.3828  1.6514
17006TIP3    H272434   5.192   0.857  16.909  1.2001 -1.6133 -1.1294
17007TIP3   OH272435   1.508   2.302   1.864 -0.3334 -0.0102  0.0541
17007TIP3    H172436   1.545   2.377   1.911  1.6014 -0.9320  0.0784
17007TIP3    H272437   1.495   2.235   1.931 -0.2858 -0.3414 -0.2646
17008TIP3   OH272438   0.763   5.125   1.160  0.0436 -0.2383 -0.4173
17008TIP3    H172439   0.701   5.061   1.194 -0.6422  0.5792 -0.0734
17008TIP3    H272440   0.746   5.128   1.066 -0.5313  0.0704 -0.3051
17009TIP3   OH272441   5.057   3.391   2.236  0.2213  0.2366 -0.1213
17009TIP3    H172442   5.025   3.400   2.146 -0.9745  1.2372  0.3873
17009TIP3    H272443   5.048   3.297   2.255  1.2605 -0.1287 -1.3019
17010TIP3   OH272444   4.223   2.267  15.361  0.4034  0.4308 -0.0292
17010TIP3    H172445   4.134   2.243  15.339  0.8731 -1.5635  0.0445
17010TIP3    H272446   4.278   2.220  15.297  1.4236  0.7240  0.5960
17011TIP3   OH272447   1.013   1.540   3.701 -0.2186 -0.3387 -0.0809
17011TIP3    H172448   1.083   1.478   3.719 -0.5505 -0.4887  0.7171
17011TIP3    H272449   0.942   1.514   3.759 -0.5445  0.4836 -0.0964
17012TIP3   OH272450   5.313   1.546   2.516  0.5475 -0.2419  0.4499
17012TIP3    H172451   5.275   1.614   2.460  1.6669 -1.2882 -1.6877
17012TIP3    H272452   5.254   1.542   2.592 -1.3154  0.9282 -0.8518
17013TIP3   OH272453   4.862   2.183   1.113 -0.3291  0.5159  0.1070
17013TIP3    H172454   4.914   2.137   1.047 -2.0570 -1.5938  0.1133
17013TIP3    H272455   4.777   2.197   1.071 -0.9969  0.4121  1.3774
17014TIP3   OH272456   5.803   3.918  13.565  0.0117  0.1207 -0.3575
17014TIP3    H172457   5.852   3.896  13.486  1.2585  3.8412 -0.8308
17014TIP3    H272458   5.728   3.859  13.565  0.1625 -0.2913 -4.1468
17015TIP3   OH272459   2.358   5.358   2.248 -0.0889 -0.3427  0.5874
17015TIP3    H172460   2.411   5.279   2.255  0.3591  0.0607  2.0998
17015TIP3    H272461   2.417   5.425   2.215 -0.0125 -0.2288  0.9505
17016TIP3   OH272462   4.414   2.439  12.432 -0.0192 -0.2464 -0.1347
17016TIP3    H172463   4.373   2.474  12.353  0.9473 -0.5049 -0.7746
17016TIP3    H272464   4.359   2.365  12.457 -0.8593  0.4107 -0.0168
17017TIP3   OH272465   5.678   3.358   4.122  0.4280  0.2481 -0.0604
17017TIP3    H172466   5.691   3.404   4.205 -0.6901 -1.5861  1.1834
17017TIP3    H272467   5.689   3.426   4.056  2.6485  1.5308  1.4691
17018TIP3   OH272468   3.865   5.397  13.969 -0.2249  0.4627  0.1959
17018TIP3    H172469   3.952   5.398  13.931 -0.8123 -0.8602 -1.3042
17018TIP3    H272470   3.879   5.372  14.061  1.0382  1.4259  0.2878
17019TIP3   OH272471   1.907   1.330  10.810 -0.3055  0.1462 -0.2229
17019TIP3    H172472   1.902   1.399  10.876 -1.7160  0.7387 -0.9048
17019TIP3    H272473   1.971   1.362  10.746 -0.8803  0.7876 -0.4849
17020TIP3   OH272474   1.569   0.172  14.202  0.9714  0.0274  0.1385
17020TIP3    H172475   1.628   0.198  14.132  0.4258 -1.0220 -0.7406
17020TIP3    H272476   1.488   0.148  14.157  0.1034  0.7278  1.2522
17021TIP3   OH272477   2.275   3.148  11.854 -0.4699 -0.3114 -0.2184
17021TIP3    H172478   2.259   3.058  11.827 -2.3975  0.8499 -3.5342
17021TIP3    H272479   2.311   3.191  11.776 -0.6378  2.0166  0.8968
17022TIP3   OH272480   1.913   1.734   6.426  1.4893 -0.4559 -0.6365
17022TIP3    H172481   1.917   1.803   6.492 -0.1067 -0.8439 -0.0667
17022TIP3    H272482   1.982   1.755   6.364  0.2670  2.3695 -1.1824
17023TIP3   OH272483   1.712   6.376   4.661 -0.3227  0.4760 -0.0894
17023TIP3    H172484   1.678   6.292   4.629  1.9660 -1.4468  2.0123
17023TIP3    H272485   1.794   6.388   4.613 -0.2489  1.0958  0.1870
17024TIP3   OH272486   1.776   6.160   0.049  0.0560 -1.2923 -0.3538
17024TIP3    H172487   1.712   6.189  -0.017  1.5865  1.8389 -0.6237
17024TIP3    H272488   1.852   6.134  -0.002  1.2890  1.2476  0.0440
17025TIP3   OH272489   0.230   2.238   4.367 -0.2761 -0.6954  0.3402
17025TIP3    H172490   0.299   2.261   4.306 -1.4996  0.1587 -0.7919
17025TIP3    H272491   0.192   2.157   4.332 -0.5099 -0.5986  0.3643
17026TIP3   OH272492   6.646   1.144   3.466  0.0736  0.2864 -0.3852
17026TIP3    H172493   6.703   1.173   3.395  0.4098  0.9279  0.1390
17026TIP3    H272494   6.680   1.188   3.544 -0.9540  0.4322 -0.0072
17027TIP3   OH272495   1.494   0.607   1.904 -0.1059 -0.0315 -0.2301
17027TIP3    H172496   1.570   0.599   1.963 -0.4724  0.8162  0.3850
17027TIP3    H272497   1.465   0.517   1.890  0.7207 -0.3306 -0.0790
17028TIP3   OH272498   6.176   4.281  12.327 -0.3279  0.1820 -0.3097
17028TIP3    H172499   6.202   4.367  12.358 -0.1648  0.6241 -1.6159
17028TIP3    H272500   6.241   4.259  12.261 -0.5758 -0.7950 -0.2481
17029TIP3   OH272501   0.495   3.945  11.623 -0.5225 -0.0598  0.4626
17029TIP3    H172502   0.512   3.872  11.562 -2.8803 -0.0699 -0.2790
17029TIP3    H272503   0.482   3.903  11.708  1.2009 -0.1833  0.7045
17030TIP3   OH272504   3.629   2.233  15.500 -0.1503  0.4212  0.7549
17030TIP3    H172505   3.618   2.263  15.410 -1.0039  1.6314  1.2387
17030TIP3    H272506   3.657   2.142  15.491  0.1239  0.6223 -0.7297
17031TIP3   OH272507   0.071   1.744   2.623 -0.3678  0.7102  0.3418
17031TIP3    H172508   0.155   1.713   2.656  0.9381  1.2216 -2.1970
17031TIP3    H272509   0.055   1.826   2.669  1.5087  1.5473 -0.3740
17032TIP3   OH272510   5.545   0.482  13.057 -0.4354 -0.1499 -0.1489
17032TIP3    H172511   5.527   0.404  13.110 -0.5372  1.0736  1.7201
17032TIP3    H272512   5.570   0.448  12.971  1.0855 -2.2779  1.0585
17033TIP3   OH272513   0.391   0.569  16.274 -0.3611  0.1742  0.1461
17033TIP3    H172514   0.326   0.548  16.341  0.0638 -1.2408  0.1469
17033TIP3    H272515   0.412   0.661  16.289 -0.8880  0.1056  1.4216
17034TIP3   OH272516   2.460   4.586  13.935  0.1505  0.4790 -0.7449
17034TIP3    H172517   2.407   4.509  13.956  0.2023  1.1608  2.3439
17034TIP3    H272518   2.402   4.661  13.952  1.1994  1.1774 -0.0813
17035TIP3   OH272519   5.822   2.310   5.724  0.0722 -0.1693 -0.0765
17035TIP3    H172520   5.870   2.383   5.764  0.8994 -0.7599  0.0455
17035TIP3    H272521   5.783   2.263   5.798 -2.0984  1.2162 -0.2631
17036TIP3   OH272522   5.787   5.679   0.892  0.3108  0.4547  0.1978
17036TIP3    H172523   5.791   5.696   0.986  1.7888  1.2557  0.0164
17036TIP3    H272524   5.703   5.716   0.865 -0.9023 -1.2285  1.4413
17037TIP3   OH272525   1.006   4.811   5.008  0.1579 -0.0382  0.6176
17037TIP3    H172526   1.054   4.873   4.954 -0.1711 -0.4813 -0.1991
17037TIP3    H272527   0.916   4.813   4.974  0.4416 -2.0208 -0.4032
17038TIP3   OH272528   6.227   1.206   0.834  0.0238  0.6815 -0.5690
17038TIP3    H172529   6.226   1.266   0.759 -0.5644  1.4111  0.0073
17038TIP3    H272530   6.290   1.139   0.810  0.5099  1.3943 -1.3440
17039TIP3   OH272531   6.769   4.077  12.925 -0.0417 -0.6208  0.0474
17039TIP3    H172532   6.742   4.000  12.975  0.2998 -1.7644 -1.4467
17039TIP3    H272533   6.722   4.068  12.841 -0.8856  1.4184  0.2381
17040TIP3   OH272534   5.621   2.603  10.851 -0.0769  0.6883  0.6549
17040TIP3    H172535   5.595   2.615  10.760  1.7734  2.8162  0.3350
17040TIP3    H272536   5.634   2.508  10.860  0.1462  0.4901 -1.4015
17041TIP3   OH272537   3.933   2.564  14.707 -0.2033 -0.5946 -0.2611
17041TIP3    H172538   3.945   2.659  14.702 -0.9586 -0.5025 -0.5391
17041TIP3    H272539   3.967   2.530  14.624  1.0288 -0.6867  0.2690
17042TIP3   OH272540   1.270   2.815   2.703 -0.1641  1.1569 -0.4591
17042TIP3    H172541   1.199   2.771   2.750  0.3145 -0.0901 -0.8444
17042TIP3    H272542   1.262   2.907   2.726 -0.4420  0.6962  1.4155
17043TIP3   OH272543   4.019   2.795  11.761 -0.0685 -0.1646 -0.2980
17043TIP3    H172544   4.045   2.739  11.688 -0.3440 -0.8608  0.1358
17043TIP3    H272545   4.004   2.881  11.721  0.5129 -0.3571 -0.9353
17044TIP3   OH272546   0.118   4.186  10.775  0.1516  0.3979  0.9321
17044TIP3    H172547   0.114   4.092  10.762  1.9833  0.3550  0.5375
17044TIP3    H272548   0.059   4.202  10.849 -0.9033 -0.9021  0.4181
17045TIP3   OH272549   4.581   6.021  15.992  0.6688  0.3890 -0.2162
17045TIP3    H172550   4.521   6.032  15.918  2.0476 -1.9728 -1.8043
17045TIP3    H272551   4.654   6.080  15.972  1.0707 -0.2934 -0.8346
17046TIP3   OH272552   6.245   2.164   5.741 -0.4180 -0.0254 -0.3790
17046TIP3    H172553   6.242   2.230   5.672 -0.8571 -0.3670 -0.6902
17046TIP3    H272554   6.290   2.089   5.702 -3.0465 -1.2685 -1.2454
17047TIP3   OH272555   3.603   0.911  16.624 -0.2414 -0.0213 -0.0726
17047TIP3    H172556   3.629   0.902  16.716  2.7265 -0.6136 -0.8633
17047TIP3    H272557   3.511   0.935  16.628 -0.2021  0.0802  3.0572
17048TIP3   OH272558   2.453   4.583  11.832  0.3523 -0.3642 -0.0681
17048TIP3    H172559   2.388   4.621  11.891  2.3609  0.2706  1.9179
17048TIP3    H272560   2.498   4.518  11.886  1.3114 -0.8146 -1.3677
17049TIP3   OH272561   3.211   3.749   3.910  0.0628 -0.1105  0.4897
17049TIP3    H172562   3.141   3.684   3.907  0.5178 -0.6012  0.3975
17049TIP3    H272563   3.166   3.834   3.904 -0.4636 -0.4425 -0.2784
17050TIP3   OH272564   6.141   5.208  15.270 -0.1491  0.1151  0.0829
17050TIP3    H172565   6.195   5.263  15.214 -1.1888  1.0448 -0.0487
17050TIP3    H272566   6.072   5.266  15.301  0.3973 -0.3598  2.3695
17051TIP3   OH272567   1.259   1.977   2.780 -0.3302 -0.1589  0.2353
17051TIP3    H172568   1.325   2.042   2.758  0.9695 -1.6821 -0.4846
17051TIP3    H272569   1.179   2.028   2.793  0.6640  1.5802 -0.2117
17052TIP3   OH272570   2.769   2.489   5.708 -0.7117  0.0751 -0.5642
17052TIP3    H172571   2.808   2.402   5.697 -0.5275  0.3340 -2.2279
17052TIP3    H272572   2.681   2.482   5.671 -0.4407  0.7719 -1.3734
17053TIP3   OH272573   4.372   5.679  15.717 -0.9558 -0.6568  0.3031
17053TIP3    H172574   4.352   5.716  15.631  0.5869  0.7884  0.5117
17053TIP3    H272575   4.458   5.714  15.738 -0.7396 -2.0418  1.8778
17054TIP3   OH272576   5.353   3.717  17.085  0.1225  0.2099 -0.4472
17054TIP3    H172577   5.264   3.753  17.080  0.3213  0.9156  0.6399
17054TIP3    H272578   5.410   3.792  17.067  0.5096 -0.1432 -0.7051
17055TIP3   OH272579   2.317   5.920  14.516 -0.8344 -0.0640  0.3134
17055TIP3    H172580   2.284   5.848  14.569  1.1246 -1.1106  0.2174
17055TIP3    H272581   2.326   5.883  14.428 -0.6299  0.5586  0.0651
17056TIP3   OH272582   1.494   6.239  13.470 -0.7511 -0.4495 -0.1370
17056TIP3    H172583   1.589   6.246  13.460 -0.7396  0.8670  0.7282
17056TIP3    H272584   1.470   6.169  13.410  0.6616 -0.2373 -1.0143
17057TIP3   OH272585   2.135   2.006   1.953  0.4047  0.4685 -0.3790
17057TIP3    H172586   2.116   2.076   1.891  0.1523  1.0280  0.3060
17057TIP3    H272587   2.080   1.933   1.924  1.0185  0.3872 -1.3728
17058TIP3   OH272588   1.732   0.195   5.236 -0.3607  0.6410 -0.1895
17058TIP3    H172589   1.661   0.251   5.204 -0.6822  0.5388  0.3416
17058TIP3    H272590   1.735   0.211   5.330  1.3736  1.8554 -0.3932
17059TIP3   OH272591   1.241   5.190  14.474 -0.3338  0.4560  0.6148
17059TIP3    H172592   1.147   5.180  14.464 -0.5148  1.2021  1.4206
17059TIP3    H272593   1.278   5.159  14.391 -1.2942  0.3484  0.2176
17060TIP3   OH272594   5.627   0.459   4.814  0.3836  0.4804 -0.0647
17060TIP3    H172595   5.599   0.475   4.724  1.4830  2.7565 -0.0618
17060TIP3    H272596   5.566   0.510   4.867  0.9700  0.7787  0.3249
17061TIP3   OH272597   2.901   2.724   5.156 -0.4637  0.1938 -0.1559
17061TIP3    H172598   2.940   2.811   5.168 -1.3593  0.4346  1.2454
17061TIP3    H272599   2.863   2.727   5.068 -1.3527  1.6029  0.2376
17062TIP3   OH272600   5.155   5.905  12.670 -0.1505 -0.2851 -0.1597
17062TIP3    H172601   5.238   5.887  12.713  0.3112  0.3675 -0.7624
17062TIP3    H272602   5.168   5.988  12.624 -0.4835 -1.1442 -1.8989
17063TIP3   OH272603   5.307   4.579  12.333 -0.0817  0.2807  0.0927
17063TIP3    H172604   5.329   4.672  12.323 -0.3704  0.5586  1.6412
17063TIP3    H272605   5.230   4.580  12.390  0.0445 -0.9222  0.3002
17064TIP3   OH272606   4.788   6.232   1.534  0.5960 -0.1572  0.3688
17064TIP3    H172607   4.868   6.270   1.572  0.3845 -1.0455  1.7588
17064TIP3    H272608   4.717   6.282   1.574  0.4302  0.5363 -0.7590
17065TIP3   OH272609   5.987   5.875  13.740  0.0645 -0.3861 -0.4065
17065TIP3    H172610   5.926   5.889  13.668 -0.7555  1.8583  0.6263
17065TIP3    H272611   5.982   5.781  13.758 -1.9869 -0.4988 -1.2986
17066TIP3   OH272612   5.519   0.855   2.013 -0.2782 -0.0284  0.1911
17066TIP3    H172613   5.485   0.773   1.976 -1.5200 -0.2221  1.6740
17066TIP3    H272614   5.558   0.829   2.096 -0.4230  0.8422  0.5344
17067TIP3   OH272615   4.103   2.332  15.674 -0.6230 -0.2047 -0.0826
17067TIP3    H172616   4.127   2.338  15.581 -2.3588 -0.4052 -0.5882
17067TIP3    H272617   4.072   2.419  15.696  0.1964 -0.0389  0.4599
17068TIP3   OH272618   2.927   5.258  16.862 -0.4877  0.3574  0.5215
17068TIP3    H172619   2.950   5.165  16.866  0.0115  0.4050 -0.6449
17068TIP3    H272620   2.873   5.273  16.939 -3.2212 -1.6108 -0.8221
17069TIP3   OH272621   2.621   1.106   0.829  0.3220 -0.0747 -0.0804
17069TIP3    H172622   2.580   1.020   0.844  0.5682 -0.1603  0.1016
17069TIP3    H272623   2.680   1.092   0.755  1.7809 -0.5420  1.1181
17070TIP3   OH272624   2.047   0.940   2.755  0.5834 -0.0887  0.8098
17070TIP3    H172625   1.980   0.881   2.721  0.2381  0.9131 -0.3098
17070TIP3    H272626   2.130   0.895   2.736  0.3864  0.2186 -1.0410
17071TIP3   OH272627   0.089   1.914  17.189 -0.3977  0.1851  0.0865
17071TIP3    H172628   0.144   1.842  17.160 -0.0509  0.0243  1.0886
17071TIP3    H272629   0.015   1.914  17.129  1.0387  0.8915 -1.7880
17072TIP3   OH272630   3.401   6.181   3.737 -0.3255 -0.4093 -0.1770
17072TIP3    H172631   3.462   6.166   3.664 -0.6210 -0.0734 -0.4977
17072TIP3    H272632   3.318   6.143   3.707 -0.2584 -0.9178  0.2839
17073TIP3   OH272633   5.589   0.409   6.279  0.2266  0.3717  0.4103
17073TIP3    H172634   5.498   0.380   6.275  0.4578 -0.4958  1.0390
17073TIP3    H272635   5.599   0.469   6.205 -1.3486  1.9285  1.3587
17074TIP3   OH272636   2.013   6.130  10.821  0.2421 -0.5397 -0.3976
17074TIP3    H172637   2.043   6.190  10.889 -0.6337  0.5951 -0.9682
17074TIP3    H272638   1.919   6.123  10.835 -0.3630  1.3909 -2.6692
17075TIP3   OH272639   0.843   5.253  15.830  0.3806  0.1642 -0.5701
17075TIP3    H172640   0.782   5.195  15.785 -1.8204  3.0407 -1.5914
17075TIP3    H272641   0.799   5.276  15.912 -0.3651  2.7639 -1.5940
17076TIP3   OH272642   0.287   0.015   1.605  0.0232 -0.7387  0.2382
17076TIP3    H172643   0.372   0.012   1.561 -0.3276  1.0246 -0.6690
17076TIP3    H272644   0.236   0.077   1.553 -0.4660  1.3821  2.9867
17077TIP3   OH272645   1.292   4.196  12.265 -0.4786 -0.3199 -0.3361
17077TIP3    H172646   1.357   4.148  12.316 -0.0788 -0.5308 -1.0234
17077TIP3    H272647   1.333   4.208  12.179 -1.2386 -0.2156 -0.6971
17078TIP3   OH272648   0.614   3.666   2.073  0.4502  0.3259  0.2871
17078TIP3    H172649   0.543   3.688   2.013  1.2000  2.2798  0.0397
17078TIP3    H272650   0.629   3.746   2.123  2.6044  0.0419  0.1971
17079TIP3   OH272651   0.751   1.309   3.399 -0.3919  0.5146  0.2104
17079TIP3    H172652   0.790   1.366   3.333 -2.5430 -0.9007 -2.5461
17079TIP3    H272653   0.802   1.228   3.393 -1.2956 -0.0169 -0.6416
17080TIP3   OH272654   6.556   6.771  16.998 -0.0240 -0.0116  0.3761
17080TIP3    H172655   6.633   6.728  16.961 -1.3540 -2.0050 -0.2458
17080TIP3    H272656   6.585   6.804  17.083  1.8887  0.6637 -0.4788
17081TIP3   OH272657   0.287   6.523   2.009  0.2629 -0.2687 -0.3359
17081TIP3    H172658   0.226   6.514   2.082 -0.8258 -0.7460 -1.2639
17081TIP3    H272659   0.272   6.444   1.956  0.3587  0.5075 -1.5470
17082TIP3   OH272660   3.160   2.349  11.527 -0.1246 -0.0800  0.0308
17082TIP3    H172661   3.218   2.273  11.533  1.5714  1.0091 -1.6030
17082TIP3    H272662   3.093   2.322  11.464  0.5861 -0.1571 -0.7012
17083TIP3   OH272663   1.473   3.566   0.603 -0.1818  0.5831  0.2555
17083TIP3    H172664   1.430   3.647   0.631  0.3210  0.8958  0.1470
17083TIP3    H272665   1.412   3.497   0.626  0.1660  0.8370  2.0344
17084TIP3   OH272666   0.875   5.935  14.452 -0.3151  0.1774 -0.0034
17084TIP3    H172667   0.846   5.962  14.540 -0.0286 -0.1909  0.2064
17084TIP3    H272668   0.808   5.969  14.393 -1.6553 -1.3817  0.5468
17085TIP3   OH272669   3.217   0.566   0.647 -0.7504  0.5303 -0.2601
17085TIP3    H172670   3.203   0.659   0.663  1.1378  0.8900 -0.4703
17085TIP3    H272671   3.286   0.563   0.580 -2.3377 -1.0193 -1.9384
17086TIP3   OH272672   0.606   5.987   4.152 -0.0063  0.4352 -0.6485
17086TIP3    H172673   0.652   6.048   4.210  1.7553 -1.5910  0.1949
17086TIP3    H272674   0.602   6.032   4.068  0.0085  2.2392  0.2636
17087TIP3   OH272675   6.187   1.176   4.971  0.3038  0.0928 -0.1802
17087TIP3    H172676   6.240   1.196   5.047 -0.7402  0.3824  0.4967
17087TIP3    H272677   6.195   1.254   4.915  0.1145  0.3804  0.1929
17088TIP3   OH272678   2.819   1.636   0.503  0.5342 -0.3526  0.2880
17088TIP3    H172679   2.783   1.717   0.469  2.5492  0.0159 -1.1627
17088TIP3    H272680   2.835   1.582   0.425  1.7286 -1.0469  0.9861
17089TIP3   OH272681   1.267   2.000   4.309  0.3574  0.9230 -0.1764
17089TIP3    H172682   1.298   1.960   4.390  0.2303  0.3895 -0.3885
17089TIP3    H272683   1.281   1.933   4.242 -0.3998  1.0118 -0.4361
17090TIP3   OH272684   5.402   2.739  15.935  0.5014 -0.1716  0.0937
17090TIP3    H172685   5.401   2.797  16.012 -2.7777 -1.2119  0.9982
17090TIP3    H272686   5.395   2.799  15.860 -1.4279  0.7615  0.9361
17091TIP3   OH272687   1.722   6.572  10.417 -0.3269 -0.0932  0.1352
17091TIP3    H172688   1.725   6.532  10.330 -0.2214 -2.3818  1.1124
17091TIP3    H272689   1.809   6.558  10.453 -0.3389  0.9276  0.5982
17092TIP3   OH272690   4.171   2.194   0.116 -0.2714  0.3148 -0.1988
17092TIP3    H172691   4.155   2.243   0.197  0.8006  0.8064 -0.2742
17092TIP3    H272692   4.230   2.250   0.065 -0.3845 -0.3039 -1.0198
17093TIP3   OH272693   6.691   2.222   5.873  0.0003  0.4728  0.1486
17093TIP3    H172694   6.659   2.189   5.789  1.2316  0.1402 -0.2106
17093TIP3    H272695   6.688   2.146   5.931  0.3297  0.3882  0.0562
17094TIP3   OH272696   0.445   0.961  12.867 -0.5790  0.8157  0.4793
17094TIP3    H172697   0.381   0.941  12.935 -1.3133 -0.4898 -0.5465
17094TIP3    H272698   0.524   0.915  12.894 -0.1783  2.0500  1.5107
17095TIP3   OH272699   1.981   5.595   2.721 -0.5489 -0.4735  1.0139
17095TIP3    H172700   1.903   5.608   2.667 -0.2221  0.9791  0.8494
17095TIP3    H272701   1.971   5.506   2.756 -1.2945 -1.0583 -0.5639
17096TIP3   OH272702   6.191   1.467   2.612  0.1501  0.3011 -0.2833
17096TIP3    H172703   6.205   1.471   2.706 -2.2497  1.8633  0.0945
17096TIP3    H272704   6.265   1.416   2.579  2.2325  1.5534  2.1393
17097TIP3   OH272705   4.164   4.385   0.951  0.0699 -0.1780  0.0539
17097TIP3    H172706   4.237   4.410   1.006  0.3903  1.8115 -1.1618
17097TIP3    H272707   4.097   4.451   0.968 -0.1458 -0.0231 -1.2601
17098TIP3   OH272708   5.494   1.051   2.363  0.8975  0.2310  0.0611
17098TIP3    H172709   5.560   1.120   2.372 -0.2113  1.4662 -0.7651
17098TIP3    H272710   5.428   1.072   2.428  1.1038 -0.7787  0.6229
17099TIP3   OH272711   4.036   6.555   3.046 -0.6622 -0.0830  0.0389
17099TIP3    H172712   3.955   6.508   3.062 -0.2856 -0.6051  0.4305
17099TIP3    H272713   4.073   6.514   2.968 -0.9511  0.3969 -0.3556
17100TIP3   OH272714   2.421   2.947  15.269  0.1217 -0.1615 -0.3603
17100TIP3    H172715   2.366   2.921  15.343  0.1409 -0.7760 -0.5644
17100TIP3    H272716   2.502   2.896  15.280  0.0475 -0.4036 -0.9149
17101TIP3   OH272717   4.527   6.353  14.522  0.3877 -0.0886  0.2712
17101TIP3    H172718   4.454   6.384  14.468  1.6661 -0.9675 -2.1033
17101TIP3    H272719   4.572   6.433  14.549  0.1487  0.3632 -0.6141
17102TIP3   OH272720   1.000   1.191  16.331  0.1913  0.4146  0.0912
17102TIP3    H172721   0.975   1.216  16.420  0.4566  0.9891  0.0074
17102TIP3    H272722   0.924   1.212  16.277 -0.7134 -1.6763  0.4374
17103TIP3   OH272723   0.232   5.704  15.246 -0.0443  0.0343  0.3310
17103TIP3    H172724   0.322   5.673  15.233 -0.0225  0.4837 -0.6634
17103TIP3    H272725   0.193   5.703  15.159 -0.5598  1.2227  0.5323
17104TIP3   OH272726   0.961   6.487   0.311 -0.6316 -0.3607  0.1804
17104TIP3    H172727   0.958   6.395   0.338 -1.4724 -0.5967 -0.6665
17104TIP3    H272728   0.877   6.523   0.340 -1.2840 -0.4551 -1.4508
17105TIP3   OH272729   5.130   6.462  10.855  0.0574 -0.6378  0.3292
17105TIP3    H172730   5.082   6.397  10.803 -0.4268  0.6124 -0.8507
17105TIP3    H272731   5.126   6.429  10.944 -1.1207 -1.6758 -0.0814
17106TIP3   OH272732   3.236   4.318   0.064  0.2980  0.1732 -0.0554
17106TIP3    H172733   3.188   4.293  -0.014  0.2919 -2.2262  0.6170
17106TIP3    H272734   3.316   4.359   0.032 -0.3783  0.5601 -1.2687
17107TIP3   OH272735   5.811   5.714   3.170 -0.0129  0.7788 -0.1567
17107TIP3    H172736   5.774   5.654   3.234 -1.6560  1.6436 -0.2408
17107TIP3    H272737   5.735   5.754   3.128  1.0145  0.8433 -2.0784
17108TIP3   OH272738   4.972   3.712  13.412  0.5206 -0.2536 -0.6183
17108TIP3    H172739   4.976   3.776  13.483 -0.7674 -1.2419  0.3866
17108TIP3    H272740   5.050   3.657  13.424  1.7950  1.2248 -1.6586
17109TIP3   OH272741   4.432   3.782   5.514 -0.0860  0.4836  0.4695
17109TIP3    H172742   4.374   3.810   5.443 -2.6788  0.3057  2.3921
17109TIP3    H272743   4.465   3.697   5.485 -1.6084  0.1091 -0.3004
17110TIP3   OH272744   1.621   3.305   5.653  0.6678 -0.2573  0.2945
17110TIP3    H172745   1.663   3.252   5.585  0.7839 -1.6537  1.4143
17110TIP3    H272746   1.692   3.326   5.714  0.2999 -0.2086  0.7085
17111TIP3   OH272747   5.019   1.832   0.775 -0.3956 -0.0633 -0.1840
17111TIP3    H172748   5.049   1.861   0.689  0.4269 -1.4700 -0.3913
17111TIP3    H272749   4.989   1.742   0.762  1.8436 -1.1376  1.3930
17112TIP3   OH272750   1.806   6.735  14.507 -0.0948 -0.2556 -0.4850
17112TIP3    H172751   1.815   6.803  14.440 -1.0522  0.2774 -0.0985
17112TIP3    H272752   1.729   6.762  14.558 -0.0662 -1.2574  0.1137
17113TIP3   OH272753   0.118   4.625   6.215 -0.3356 -0.3837  0.2659
17113TIP3    H172754   0.081   4.565   6.280  0.9716 -2.5282 -0.8647
17113TIP3    H272755   0.063   4.613   6.137 -0.3126  0.2093  0.1528
17114TIP3   OH272756   3.513   3.317  13.079  0.1280  0.0400 -0.7189
17114TIP3    H172757   3.548   3.338  13.165  0.9257 -0.3737 -0.9298
17114TIP3    H272758   3.468   3.234  13.091  1.6957 -0.8907 -1.0397
17115TIP3   OH272759   0.204   5.040  15.376 -0.5316  0.1392  0.7091
17115TIP3    H172760   0.213   5.132  15.351 -0.1287 -0.4482 -1.4513
17115TIP3    H272761   0.283   5.022  15.428 -0.4779  0.9133  0.9056
17116TIP3   OH272762   0.028   6.459   2.705  0.0732  0.5069 -0.5518
17116TIP3    H172763   0.027   6.370   2.668 -0.5461  1.4222 -2.8988
17116TIP3    H272764   0.005   6.446   2.797  1.0444 -1.8587 -0.5514
17117TIP3   OH272765   1.363   6.225  12.546 -0.6211  0.0552  0.2693
17117TIP3    H172766   1.292   6.272  12.504 -0.9588 -1.5550 -1.0658
17117TIP3    H272767   1.371   6.266  12.633 -3.5352 -0.0486  0.6828
17118TIP3   OH272768   4.058   2.759   0.639 -0.1375 -0.3860 -0.6741
17118TIP3    H172769   4.099   2.673   0.629  2.3196  0.6763 -0.4566
17118TIP3    H272770   4.000   2.749   0.715  0.4352 -1.7400 -0.3845
17119TIP3   OH272771   3.124   2.954   2.739  0.1810 -0.0137 -0.3270
17119TIP3    H172772   3.114   2.911   2.654 -0.8468  0.7826 -0.6262
17119TIP3    H272773   3.056   3.021   2.740  2.2166  2.1699 -0.2015
17120TIP3   OH272774   3.563   1.063   3.165 -0.0907  0.0763  0.6713
17120TIP3    H172775   3.498   1.029   3.103 -1.6295  1.0982  1.6481
17120TIP3    H272776   3.584   0.988   3.221 -2.7891  0.4117  2.2650
17121TIP3   OH272777   0.166   5.939  13.487  0.4218 -0.0418  0.0343
17121TIP3    H172778   0.080   5.902  13.504  0.4758 -0.1483  0.0766
17121TIP3    H272779   0.199   5.890  13.411  0.0970  0.5659 -0.5111
17122TIP3   OH272780   1.945   2.101   3.669  0.3223  0.2986 -0.4129
17122TIP3    H172781   1.984   2.091   3.582 -2.3305  1.5254 -1.8779
17122TIP3    H272782   1.977   2.186   3.700  1.7431 -0.4041  0.1337
17123TIP3   OH272783   3.904   1.774  15.570  0.3548 -0.3811 -0.1648
17123TIP3    H172784   3.936   1.769  15.660 -1.8984 -1.1584  0.6588
17123TIP3    H272785   3.875   1.685  15.549  1.3221 -0.3302 -1.8688
17124TIP3   OH272786   4.813   5.200  17.048 -0.4110 -0.3824  0.0398
17124TIP3    H172787   4.880   5.159  17.102 -3.0876 -2.7953  1.8113
17124TIP3    H272788   4.731   5.180  17.092 -2.3581  2.8889 -1.6796
17125TIP3   OH272789   3.305   6.137  11.594 -0.9541 -0.7622  0.6150
17125TIP3    H172790   3.356   6.160  11.672 -0.1310 -0.3999 -0.0108
17125TIP3    H272791   3.356   6.068  11.551 -0.8468 -0.2292 -0.1466
17126TIP3   OH272792   4.587   4.057   5.799 -0.0032 -1.0104  0.0814
17126TIP3    H172793   4.649   3.996   5.839 -0.6361 -1.9163 -0.2784
17126TIP3    H272794   4.510   4.003   5.778 -0.8118  0.0305  0.2841
17127TIP3   OH272795   0.436   6.408  11.553 -0.4599  0.0617  0.0437
17127TIP3    H172796   0.519   6.449  11.575 -0.3035  1.0028 -2.0837
17127TIP3    H272797   0.377   6.481  11.533 -1.0442 -0.6328 -0.8927
17128TIP3   OH272798   1.128   2.938  15.155 -0.0749 -0.1555  0.4482
17128TIP3    H172799   1.066   2.981  15.213  0.4257 -0.8942  1.5531
17128TIP3    H272800   1.157   3.007  15.095 -1.2829  0.3973  0.4745
17129TIP3   OH272801   1.421   3.706   2.020 -0.4265  0.4688  0.3246
17129TIP3    H172802   1.484   3.635   2.033 -0.0935  0.8197  0.6199
17129TIP3    H272803   1.474   3.782   1.999 -0.8316  0.4209 -0.9610
17130TIP3   OH272804   6.083   2.837   5.788  0.0070  0.0748 -0.4546
17130TIP3    H172805   6.174   2.810   5.774  0.7423  2.2424 -0.2482
17130TIP3    H272806   6.089   2.919   5.836 -2.1826 -1.5226  2.9515
17131TIP3   OH272807   0.031   2.175  15.309 -0.3635 -0.2122 -0.1879
17131TIP3    H172808  -0.020   2.201  15.232  0.2767 -0.6666 -0.7799
17131TIP3    H272809   0.022   2.080  15.313  0.8409 -0.3681 -0.6222
17132TIP3   OH272810   4.175   1.270  14.384  0.0315 -0.2874  0.2381
17132TIP3    H172811   4.265   1.256  14.354  1.0500  1.7407  2.1308
17132TIP3    H272812   4.123   1.272  14.303  1.7929 -0.5909 -0.9588
17133TIP3   OH272813   3.259   6.399   4.870 -0.0431  0.2899 -0.4325
17133TIP3    H172814   3.223   6.313   4.848  1.2011 -0.4751  0.3484
17133TIP3    H272815   3.200   6.461   4.829 -2.4203 -0.8559  1.0155
17134TIP3   OH272816   1.701   1.723  12.904  0.1220  0.3040 -0.1442
17134TIP3    H172817   1.617   1.678  12.907 -0.3141  1.0928 -0.0582
17134TIP3    H272818   1.682   1.804  12.856  0.3007  1.5546  1.7745
17135TIP3   OH272819   3.258   1.653  12.451  0.0894 -0.1270 -0.2881
17135TIP3    H172820   3.223   1.564  12.450 -0.8095  0.2107 -0.3129
17135TIP3    H272821   3.318   1.656  12.376  0.2317 -0.7491 -0.2057
17136TIP3   OH272822   1.583   1.855   0.367 -0.7041  0.6935  0.3726
17136TIP3    H172823   1.670   1.853   0.327 -1.1757 -1.3268 -0.6758
17136TIP3    H272824   1.523   1.873   0.294 -1.1562  2.9127  1.2132
17137TIP3   OH272825   2.962   3.456  11.275 -0.3761 -0.3404  0.3998
17137TIP3    H172826   2.917   3.371  11.275 -0.6964 -0.1728 -0.0542
17137TIP3    H272827   2.975   3.476  11.182  1.3312 -0.7515  0.5258
17138TIP3   OH272828   4.838   3.180   2.916 -0.3218  0.2897  0.2952
17138TIP3    H172829   4.802   3.091   2.905  0.4172  0.0890 -0.6757
17138TIP3    H272830   4.772   3.237   2.877 -1.0731  0.2401  1.4482
17139TIP3   OH272831   2.010   1.370   5.307 -0.3751  0.7784 -0.4056
17139TIP3    H172832   2.088   1.337   5.263  0.8104  1.5807  0.9876
17139TIP3    H272833   1.944   1.374   5.239  0.3860 -1.2427 -1.3266
17140TIP3   OH272834   5.553   2.373  16.133 -0.0431 -0.0279  0.1656
17140TIP3    H172835   5.458   2.383  16.123 -0.1923 -1.3914  0.0622
17140TIP3    H272836   5.590   2.433  16.069 -0.8183  0.9024  0.5548
17141TIP3   OH272837   2.536   2.824  17.010 -0.4975  0.7646 -0.2980
17141TIP3    H172838   2.610   2.863  16.965  1.0966 -0.4109  1.1788
17141TIP3    H272839   2.516   2.885  17.081  0.5350  0.0245  0.6520
17142TIP3   OH272840   2.354   4.007  16.021 -0.0708  0.4242 -0.3145
17142TIP3    H172841   2.434   4.046  15.984  0.3033 -0.9273 -0.9647
17142TIP3    H272842   2.289   4.016  15.952  0.2308 -0.7794 -0.7758
17143TIP3   OH272843   3.313   2.079   1.307 -0.2385  0.0718 -0.0379
17143TIP3    H172844   3.342   2.097   1.397 -3.1712  1.0390  0.8265
17143TIP3    H272845   3.321   1.984   1.298  0.3567 -0.0119  1.1519
17144TIP3   OH272846   6.076   5.358  13.351 -0.2044  0.0466  0.3748
17144TIP3    H172847   6.116   5.381  13.435  0.2626 -1.2449  0.5379
17144TIP3    H272848   6.036   5.439  13.320 -0.1909  0.6070  1.7389
17145TIP3   OH272849   2.599   6.220  14.308 -0.4017 -0.1009  0.6373
17145TIP3    H172850   2.581   6.148  14.369 -0.4645 -0.2913  0.3937
17145TIP3    H272851   2.558   6.192  14.226 -1.0151  0.5117  0.7231
17146TIP3   OH272852   5.666   5.490  13.217  0.3521 -0.5247 -0.1299
17146TIP3    H172853   5.572   5.498  13.202 -0.4528 -1.4846  3.3102
17146TIP3    H272854   5.686   5.399  13.194  0.3644 -0.4142 -0.5552
17147TIP3   OH272855   1.868   4.092  11.907  0.1136 -0.4531  0.5318
17147TIP3    H172856   1.930   4.049  11.966  0.3798 -2.2334 -0.9675
17147TIP3    H272857   1.909   4.086  11.821 -0.5846  1.4628  0.0153
17148TIP3   OH272858   3.766   1.379  12.601  0.0202  0.3396  0.1176
17148TIP3    H172859   3.711   1.452  12.630 -0.1318  0.2003  0.1767
17148TIP3    H272860   3.781   1.326  12.679 -0.4983 -0.1054 -0.0819
17149TIP3   OH272861   3.728   3.228  11.954 -0.0486 -0.7857  0.4519
17149TIP3    H172862   3.687   3.314  11.964  0.7428 -0.2842 -0.5422
17149TIP3    H272863   3.655   3.170  11.933 -0.2674  0.1573 -1.6380
17150TIP3   OH272864   5.924   2.716  11.424 -0.5102 -0.2900  0.2091
17150TIP3    H172865   5.962   2.636  11.461  0.6692  0.0983 -0.0986
17150TIP3    H272866   5.905   2.694  11.333 -0.2476 -0.2412  0.1423
17151TIP3   OH272867   6.218   4.021  12.794 -0.8047 -0.0874  0.2421
17151TIP3    H172868   6.243   3.935  12.827 -0.4106 -1.0140 -2.2373
17151TIP3    H272869   6.146   4.048  12.851  0.1415 -1.2826  2.1088
17152TIP3   OH272870   2.109   3.520   4.176  0.8466  0.1544 -0.2828
17152TIP3    H172871   2.014   3.528   4.169  0.6785 -0.4142  1.1307
17152TIP3    H272872   2.135   3.468   4.099  0.1954  1.3648 -1.3623
17153TIP3   OH272873   4.085   1.156   0.177 -0.0984  0.6525  0.4798
17153TIP3    H172874   4.044   1.235   0.211  1.8262  1.6725  0.5468
17153TIP3    H272875   4.151   1.187   0.116  1.1514 -0.8632  0.9941
17154TIP3   OH272876   0.419   1.932   3.690  0.0726 -0.1505  0.2773
17154TIP3    H172877   0.436   2.025   3.707 -0.6271  0.2938 -1.2950
17154TIP3    H272878   0.494   1.902   3.639 -0.1580 -0.1876 -0.0462
17155TIP3   OH272879   3.123   2.181   1.093  0.0751 -0.4389 -0.3677
17155TIP3    H172880   3.163   2.139   1.169 -0.6630  0.0631  0.3107
17155TIP3    H272881   3.075   2.110   1.050 -2.6343 -0.0789  1.7413
17156TIP3   OH272882   5.719   5.647   5.665  0.5919  0.0267 -0.1469
17156TIP3    H172883   5.671   5.564   5.672  1.1162 -0.1662  1.9034
17156TIP3    H272884   5.667   5.709   5.717  2.1514 -0.0133  1.5366
17157TIP3   OH272885   0.525   6.741   0.957 -0.1077 -0.2014 -0.0885
17157TIP3    H172886   0.591   6.770   1.020 -1.8013  0.6886  1.3745
17157TIP3    H272887   0.492   6.659   0.993 -1.7534  0.7842  0.7858
17158TIP3   OH272888   6.713   2.980  15.021 -0.5573  0.2369  0.4337
17158TIP3    H172889   6.747   3.057  15.066  2.5036 -1.0161  0.4940
17158TIP3    H272890   6.726   2.999  14.928  0.3295 -0.2130  0.4534
17159TIP3   OH272891   0.287   5.910  11.534 -0.0923  0.4557 -0.1907
17159TIP3    H172892   0.375   5.913  11.571  0.5871 -2.4049 -1.3543
17159TIP3    H272893   0.258   6.002  11.533  2.0245  1.2372  2.0966
17160TIP3   OH272894   0.204   4.057   5.531  0.3127  0.1823 -0.2597
17160TIP3    H172895   0.150   4.099   5.598  1.4960  0.5336  0.5043
17160TIP3    H272896   0.165   3.971   5.519 -0.2222  0.3107  0.5048
17161TIP3   OH272897   6.138   5.420  14.377 -0.5188  0.3803  0.2164
17161TIP3    H172898   6.054   5.408  14.331  0.2148 -1.6155 -0.7235
17161TIP3    H272899   6.204   5.392  14.314  0.7256  0.1098  1.5894
17162TIP3   OH272900   6.593   4.426  10.834  0.0799 -0.0237  0.1835
17162TIP3    H172901   6.650   4.381  10.896  0.7656 -0.5226 -0.7867
17162TIP3    H272902   6.505   4.393  10.854 -0.0086  1.2115  2.0957
17163TIP3   OH272903   4.887   5.572   5.313 -0.3584  0.4695 -0.5860
17163TIP3    H172904   4.900   5.537   5.401 -1.3755 -2.0322 -1.3593
17163TIP3    H272905   4.975   5.574   5.275  0.0462  1.2873  0.3420
17164TIP3   OH272906   3.015   3.209   1.068  0.5079 -0.4576 -0.3688
17164TIP3    H172907   3.068   3.215   0.989  0.5369 -1.6593 -0.4563
17164TIP3    H272908   2.934   3.167   1.039  0.2085 -0.2059  0.0952
17165TIP3   OH272909   0.445   4.642  14.274 -0.4446 -0.8147 -0.1750
17165TIP3    H172910   0.443   4.658  14.368 -2.3976  0.6595 -0.3890
17165TIP3    H272911   0.434   4.729  14.235 -2.2691 -1.6311 -1.6664
17166TIP3   OH272912   0.027   0.346  16.889 -0.1052  0.5926 -0.3369
17166TIP3    H172913   0.060   0.275  16.944 -4.3261  0.6552  2.7851
17166TIP3    H272914   0.010   0.305  16.805 -0.0495 -1.4927  0.5950
17167TIP3   OH272915   1.853   4.594  12.599 -0.2251 -0.5890  0.6549
17167TIP3    H172916   1.949   4.597  12.603 -0.1200  1.2873 -1.4449
17167TIP3    H272917   1.834   4.508  12.560  1.0314  0.9297 -4.0358
17168TIP3   OH272918   0.843   5.680  16.230  0.3839  0.2561  0.1046
17168TIP3    H172919   0.809   5.737  16.299  1.8749 -1.0331  2.0121
17168TIP3    H272920   0.891   5.739  16.172 -1.0478  1.4040  0.0231
17169TIP3   OH272921   3.089   3.483   4.044 -0.0093  0.1721 -0.4174
17169TIP3    H172922   3.179   3.508   4.061 -0.5423  1.1917  1.0758
17169TIP3    H272923   3.069   3.417   4.110 -0.2226 -0.4049 -1.0468
17170TIP3   OH272924   4.840   4.205   5.888 -0.1881  0.0692 -0.6394
17170TIP3    H172925   4.747   4.220   5.904 -0.6212 -1.9354 -1.0292
17170TIP3    H272926   4.864   4.137   5.951  0.6007 -0.5406 -1.5608
17171TIP3   OH272927   1.100   5.342   0.240 -0.1128  0.1060 -0.1210
17171TIP3    H172928   1.185   5.381   0.219  0.7190 -1.3249  0.4431
17171TIP3    H272929   1.075   5.381   0.323 -0.2424  0.8731 -0.5112
17172TIP3   OH272930   0.224   3.999  14.740  0.0484  0.4660  0.0197
17172TIP3    H172931   0.245   3.921  14.689  3.6913  0.9852  0.4419
17172TIP3    H272932   0.199   4.064  14.674  0.8587  0.0283 -0.7532
17173TIP3   OH272933   0.575   6.281  16.129 -0.0636  0.0970 -0.2290
17173TIP3    H172934   0.529   6.250  16.207 -1.7103 -1.1178 -1.6029
17173TIP3    H272935   0.526   6.243  16.056 -0.0612  3.0950 -1.9677
17174TIP3   OH272936   3.469   0.101  10.245  0.6878 -0.0124 -0.9303
17174TIP3    H172937   3.468   0.011  10.211  0.0608 -0.4182  0.0856
17174TIP3    H272938   3.469   0.090  10.340  1.1143  1.0720 -0.7908
17175TIP3   OH272939   2.979   3.159   5.893  0.3347  0.2343 -0.3066
17175TIP3    H172940   2.920   3.232   5.915  2.4980  1.3662  2.3304
17175TIP3    H272941   3.065   3.200   5.883  1.1829 -1.6803 -1.4388
17176TIP3   OH272942   5.504   6.210   0.253 -0.2743 -0.4653  0.2375
17176TIP3    H172943   5.533   6.259   0.176  1.0278  1.3141  1.7775
17176TIP3    H272944   5.412   6.237   0.265  0.4904  2.0062  1.2352
17177TIP3   OH272945   4.977   0.287   5.340 -0.1103  0.1982  0.1502
17177TIP3    H172946   5.061   0.313   5.377 -1.6297  1.6664  2.9089
17177TIP3    H272947   4.996   0.206   5.292  3.0162  1.0726 -0.2614
17178TIP3   OH272948   5.033   1.430  12.770  0.2763  0.4243  0.0493
17178TIP3    H172949   5.057   1.349  12.726 -0.3842 -0.6267  1.5510
17178TIP3    H272950   4.990   1.483  12.703 -0.1957 -0.8888 -0.7053
17179TIP3   OH272951   0.446   4.237  13.768 -0.0625 -0.7017  0.3827
17179TIP3    H172952   0.425   4.320  13.811 -0.0381  0.2053 -1.2886
17179TIP3    H272953   0.373   4.179  13.790 -0.0335 -0.2992  1.6390
17180TIP3   OH272954   4.036   5.084  14.033 -0.1541  0.1215  0.3520
17180TIP3    H172955   4.054   5.090  13.939  0.8064 -0.4634  0.4862
17180TIP3    H272956   4.121   5.069  14.073 -0.2906  2.0483  1.4963
17181TIP3   OH272957   0.707   0.743  16.428 -0.0978  0.3182 -0.7893
17181TIP3    H172958   0.613   0.739  16.448  0.1613 -1.4114  0.2469
17181TIP3    H272959   0.748   0.761  16.513  0.5922 -0.3239 -0.9849
17182TIP3   OH272960   2.109   4.885  10.901  0.3196 -0.1154 -0.4342
17182TIP3    H172961   2.091   4.796  10.930  1.3866 -0.7009 -1.5195
17182TIP3    H272962   2.099   4.883  10.806  0.6897  0.8404 -0.5101
17183TIP3   OH272963   3.699   0.222  11.549  0.5213 -0.5009  0.1030
17183TIP3    H172964   3.761   0.293  11.538  0.0945  0.0798  1.2714
17183TIP3    H272965   3.619   0.253  11.507  0.7155 -0.8465 -0.5395
17184TIP3   OH272966   1.927   3.691   0.072 -0.3031 -0.1270  0.2576
17184TIP3    H172967   1.900   3.628   0.138 -0.3962  0.6586  0.9866
17184TIP3    H272968   2.011   3.659   0.040 -0.9539 -1.3086 -0.3139
17185TIP3   OH272969   4.891   6.716  15.069 -0.4322 -0.3811  0.1057
17185TIP3    H172970   4.956   6.752  15.129  0.7126 -2.5077  0.2087
17185TIP3    H272971   4.862   6.634  15.111 -1.5364 -0.5980 -1.0157
17186TIP3   OH272972   1.584   0.695  15.496  0.4244  0.0424 -0.5718
17186TIP3    H172973   1.644   0.756  15.452  1.9744 -0.8055  0.2798
17186TIP3    H272974   1.560   0.739  15.577  0.4279  0.1006 -0.6020
17187TIP3   OH272975   1.814   6.348   0.488 -0.4296  0.2440 -0.4241
17187TIP3    H172976   1.751   6.297   0.437  1.7411 -1.8438 -1.1980
17187TIP3    H272977   1.874   6.384   0.423  1.4167 -1.0821  0.4434
17188TIP3   OH272978   0.314   2.214   3.712  0.2598 -0.1604  0.5429
17188TIP3    H172979   0.264   2.274   3.767  0.7600 -1.0011  1.9663
17188TIP3    H272980   0.374   2.271   3.663 -1.1358  0.7296 -0.2172
17189TIP3   OH272981   1.961   5.003  14.021 -0.0552 -0.2007 -0.0032
17189TIP3    H172982   1.900   5.053  14.075 -0.0541 -0.6659  0.4392
17189TIP3    H272983   1.951   4.913  14.052  0.3903 -0.3760 -0.3688
17190TIP3   OH272984   3.332   3.383   6.088  0.0311  0.4519 -0.2502
17190TIP3    H172985   3.316   3.472   6.058  0.1014 -0.1140 -2.0906
17190TIP3    H272986   3.249   3.355   6.126  0.4582  1.8047  1.8598
17191TIP3   OH272987   1.158   0.137   0.571 -0.4778 -0.1499 -0.2566
17191TIP3    H172988   1.135   0.186   0.491 -1.1617  0.3199  0.2200
17191TIP3    H272989   1.081   0.085   0.591 -0.4966  0.1109  0.3789
17192TIP3   OH272990   3.263   2.891  14.795  0.5302 -0.2933 -0.1435
17192TIP3    H172991   3.320   2.932  14.729  0.4697 -0.3310 -0.2200
17192TIP3    H272992   3.312   2.814  14.824  0.7845  0.0095  0.2301
17193TIP3   OH272993   2.721   5.699  16.936  0.6000  0.2207  0.0157
17193TIP3    H172994   2.744   5.609  16.957  1.2095  1.0155  3.3484
17193TIP3    H272995   2.628   5.707  16.959  1.3660  1.2005  3.4058
17194TIP3   OH272996   4.691   5.397  13.528 -0.8286  0.4821 -0.4154
17194TIP3    H172997   4.728   5.454  13.460 -0.5486  1.2733  0.3804
17194TIP3    H272998   4.720   5.309  13.504 -0.5455  0.7807 -1.1941
17195TIP3   OH272999   3.617   2.313  15.198 -0.0317 -0.0408 -0.5849
17195TIP3    H173000   3.568   2.354  15.126 -0.4938  0.2683 -0.1087
17195TIP3    H273001   3.708   2.340  15.183 -0.0748 -0.2202 -1.2133
17196TIP3   OH273002   4.198   4.974   3.523  0.3844  0.1334  0.2032
17196TIP3    H173003   4.158   4.980   3.436  2.5042  0.4484 -0.8215
17196TIP3    H273004   4.211   4.881   3.537 -2.7939 -0.2124  1.6449
17197TIP3   OH273005   5.999   0.138   4.901 -0.5420 -0.6465 -0.2252
17197TIP3    H173006   5.928   0.125   4.838  0.7855  0.4776 -2.0682
17197TIP3    H273007   5.993   0.231   4.924  1.2153 -0.1149 -1.6602
17198TIP3   OH273008   4.416   5.906   0.928  0.2386  0.3129  0.0383
17198TIP3    H173009   4.504   5.916   0.964 -0.6860  1.5474  2.1252
17198TIP3    H273010   4.413   5.970   0.857  0.3107  1.9951  1.4901
17199TIP3   OH273011   5.826   1.838   4.133  0.3177  0.1597  0.0542
17199TIP3    H173012   5.840   1.745   4.147 -1.1353 -0.1606 -0.4507
17199TIP3    H273013   5.892   1.863   4.069 -0.3359 -0.9260 -1.0845
17200TIP3   OH273014   5.743   6.332  16.477  0.2265 -0.0838  0.1523
17200TIP3    H173015   5.779   6.407  16.526 -1.6711  1.0314 -0.0395
17200TIP3    H273016   5.654   6.322  16.512  0.7489 -2.9566  0.9013
17201TIP3   OH273017   5.996   5.163   4.585  0.4644 -0.8006  0.4786
17201TIP3    H173018   5.942   5.114   4.647 -1.4352 -0.4328 -0.7789
17201TIP3    H273019   5.954   5.149   4.500  1.2639  1.0189 -0.2813
17202TIP3   OH273020   2.898   1.602   3.718  0.1632  0.2367  0.5586
17202TIP3    H173021   2.950   1.631   3.643  0.6190  0.1867  0.8525
17202TIP3    H273022   2.954   1.616   3.794 -0.8449  1.6649  1.0697
17203TIP3   OH273023   3.907   4.659   0.003 -0.3987  0.3245  0.5669
17203TIP3    H173024   3.869   4.747  -0.004  0.1456  0.5792  0.8016
17203TIP3    H273025   3.980   4.659  -0.059 -0.2707  0.1055  0.7158
17204TIP3   OH273026   4.403   3.249   2.646  0.7062  0.6800  0.4284
17204TIP3    H173027   4.449   3.292   2.574  0.0854  2.2642  0.9261
17204TIP3    H273028   4.464   3.253   2.719  0.0743  2.2299  0.9181
17205TIP3   OH273029   5.232   4.053   5.326 -0.5600  0.2179  0.2578
17205TIP3    H173030   5.184   4.135   5.335  0.1173  0.5740  0.7474
17205TIP3    H273031   5.254   4.027   5.416 -0.8477 -0.5498  0.1174
17206TIP3   OH273032   0.349   5.296   5.628  0.5092 -0.0142  0.3532
17206TIP3    H173033   0.320   5.207   5.608 -0.1334  0.2688 -0.0091
17206TIP3    H273034   0.347   5.301   5.724 -2.0842  0.4321  0.3405
17207TIP3   OH273035   1.909   4.524   6.178 -0.0017 -0.4507  1.1080
17207TIP3    H173036   1.861   4.604   6.154  2.0022  0.2276 -1.0937
17207TIP3    H273037   1.978   4.555   6.236 -0.4513 -0.9413  1.9129
17208TIP3   OH273038   0.465   4.978  10.930  0.0737 -0.6901 -0.0579
17208TIP3    H173039   0.415   4.910  10.885  0.4875 -0.5657 -0.7187
17208TIP3    H273040   0.552   4.973  10.891 -0.2503  1.1165 -1.0950
17209TIP3   OH273041   3.783   0.817   3.626 -0.0369  0.3764  0.1853
17209TIP3    H173042   3.755   0.729   3.651 -2.0042  1.3539  1.6855
17209TIP3    H273043   3.878   0.810   3.621 -0.0635 -1.6433  1.0750
17210TIP3   OH273044   2.505   4.812   4.087 -0.0035 -0.3050 -0.0246
17210TIP3    H173045   2.585   4.861   4.104  2.0797 -3.8869  1.5784
17210TIP3    H273046   2.534   4.733   4.041 -2.7480 -1.3636 -0.1433
17211TIP3   OH273047   1.297   5.082   2.671  0.6731 -0.1659  0.6315
17211TIP3    H173048   1.261   5.091   2.583  0.3486 -0.4982  0.7259
17211TIP3    H273049   1.268   5.161   2.717 -1.6028 -1.3099  1.2695
17212TIP3   OH273050   1.791   2.758   1.128  0.5731 -0.7784  0.0395
17212TIP3    H173051   1.806   2.667   1.154  0.6991 -1.3917 -1.9841
17212TIP3    H273052   1.854   2.774   1.058  0.4211  0.8255  0.2299
17213TIP3   OH273053   0.971   2.510  15.871 -0.7214 -0.4963  0.3029
17213TIP3    H173054   0.937   2.437  15.820  1.3328 -0.7115 -0.8741
17213TIP3    H273055   1.036   2.551  15.813 -0.1375  0.8224  1.8217
17214TIP3   OH273056   4.109   1.435  14.127 -0.2035  0.4858 -0.0391
17214TIP3    H173057   4.139   1.439  14.036 -0.2174 -0.2395 -0.0811
17214TIP3    H273058   4.014   1.444  14.121 -0.1401  1.1737 -0.0354
17215TIP3   OH273059   4.954   0.017  16.514 -0.3608  0.3492 -0.1201
17215TIP3    H173060   5.040   0.059  16.512 -0.9114  1.6163 -3.5524
17215TIP3    H273061   4.917   0.045  16.598  1.4969  2.1499  0.1977
17216TIP3   OH273062   0.801   1.654  13.479  0.0653 -0.2009 -0.3562
17216TIP3    H173063   0.744   1.636  13.554 -1.3644  0.8311 -1.1433
17216TIP3    H273064   0.864   1.582  13.479 -0.2488 -0.5327  1.4817
17217TIP3   OH273065   6.233   6.511  14.026 -0.2388 -0.1364 -0.2548
17217TIP3    H173066   6.297   6.490  14.094 -0.2448  1.3480  0.2442
17217TIP3    H273067   6.259   6.598  13.995 -1.4706  0.0977 -0.6914
17218TIP3   OH273068   4.969   0.418  15.446 -0.3067 -0.4363  0.1463
17218TIP3    H173069   4.886   0.465  15.447 -0.3676 -0.5251 -0.3962
17218TIP3    H273070   4.964   0.362  15.369  0.3214 -0.3224  0.0146
17219TIP3   OH273071   4.688   3.155  12.125 -0.1527 -0.0495  0.2828
17219TIP3    H173072   4.657   3.085  12.069 -0.2924  0.2653 -0.0352
17219TIP3    H273073   4.696   3.115  12.212 -0.3918 -0.4122  0.1376
17220TIP3   OH273074   2.188   4.822   4.130 -0.2463  0.1349 -0.0491
17220TIP3    H173075   2.196   4.832   4.035 -0.1441  0.3531 -0.0177
17220TIP3    H273076   2.267   4.862   4.165 -0.1044 -0.2830  0.1090
17221TIP3   OH273077   0.339   0.180   4.699  0.4106 -0.0919  0.9857
17221TIP3    H173078   0.349   0.258   4.644  0.2922 -0.2279  0.7702
17221TIP3    H273079   0.408   0.121   4.670  1.2756  0.4066  1.9752
17222TIP3   OH273080   0.915   5.250   5.776 -0.1638 -1.0013 -0.5505
17222TIP3    H173081   0.942   5.342   5.777  1.3714 -1.4243  0.8343
17222TIP3    H273082   0.853   5.245   5.703  1.4550  0.6521 -2.1853
17223TIP3   OH273083   4.649   1.812   4.224  0.1410  0.5039 -0.3239
17223TIP3    H173084   4.635   1.875   4.154  1.6434 -0.3562 -1.4609
17223TIP3    H273085   4.726   1.845   4.272 -0.3777  0.6532  0.4246
17224TIP3   OH273086   4.948   5.697   2.233  0.0842  0.1782  0.3098
17224TIP3    H173087   5.041   5.697   2.257 -0.2678  1.2992  1.7848
17224TIP3    H273088   4.918   5.785   2.254 -1.1115  0.1292 -1.0496
17225TIP3   OH273089   3.281   1.516  16.574  0.2720 -0.1235 -0.1653
17225TIP3    H173090   3.248   1.605  16.587  1.2285  0.1100  0.7748
17225TIP3    H273091   3.308   1.488  16.661 -0.1688 -1.4070 -0.4265
17226TIP3   OH273092   5.906   3.238  11.875 -0.0229 -0.0266  0.5911
17226TIP3    H173093   5.997   3.267  11.875  0.6262 -1.6495 -2.4376
17226TIP3    H273094   5.860   3.300  11.818 -0.5419  0.0002  1.0243
17227TIP3   OH273095   1.010   5.910  16.509 -0.2246 -0.4471 -0.3705
17227TIP3    H173096   0.928   5.876  16.471 -0.1429 -0.3742 -0.6133
17227TIP3    H273097   1.012   5.873  16.597 -0.7546 -0.0791 -0.1965
17228TIP3   OH273098   5.925   0.242   2.852 -0.6286  0.7152 -0.4080
17228TIP3    H173099   5.965   0.329   2.860 -2.5314  1.7719 -1.6088
17228TIP3    H273100   5.831   0.259   2.861 -1.0233 -1.2763 -0.4316
17229TIP3   OH273101   0.092   4.172   3.869 -0.3476 -0.7392  0.2361
17229TIP3    H173102   0.137   4.153   3.951 -1.6882 -1.4226  0.8316
17229TIP3    H273103   0.079   4.267   3.871  1.8377 -0.3822 -0.3790
17230TIP3   OH273104   1.998   0.389  13.533  0.4808 -0.4274 -0.0894
17230TIP3    H173105   2.023   0.481  13.530 -1.2909  0.0707 -1.0969
17230TIP3    H273106   1.936   0.382  13.605 -0.4545 -0.5090 -0.8755
17231TIP3   OH273107   2.163   4.534   2.343  0.7906 -0.2846 -0.0676
17231TIP3    H173108   2.197   4.622   2.357 -1.4031  0.5726  0.2073
17231TIP3    H273109   2.120   4.510   2.425  1.4421 -1.6742 -0.0995
17232TIP3   OH273110   5.204   4.577  11.671 -0.4171  0.1970 -0.7114
17232TIP3    H173111   5.144   4.505  11.692 -0.4767  0.2751 -0.6189
17232TIP3    H273112   5.259   4.586  11.748  1.0298 -1.2032 -1.5277
17233TIP3   OH273113   2.337   5.461  14.012  0.3177 -0.2020  0.7047
17233TIP3    H173114   2.283   5.401  13.962  0.5968  0.6461 -0.6577
17233TIP3    H273115   2.370   5.524  13.948  1.6947  0.1986  1.7445
17234TIP3   OH273116   5.949   5.514   3.794 -0.1585 -0.8556 -0.7707
17234TIP3    H173117   5.901   5.458   3.856 -0.1368 -0.5211 -0.4492
17234TIP3    H273118   5.926   5.603   3.819  2.3627 -0.5568  0.8615
17235TIP3   OH273119   0.823   3.365   3.692  0.2371  0.0643 -0.0394
17235TIP3    H173120   0.909   3.407   3.687  0.1495  0.4890  1.4964
17235TIP3    H273121   0.763   3.435   3.715 -0.2478 -0.5075  0.4869
17236TIP3   OH273122   5.724   2.320  15.535  0.2155 -0.6655 -0.0892
17236TIP3    H173123   5.747   2.262  15.463  0.8179  0.6722 -1.0159
17236TIP3    H273124   5.808   2.346  15.573 -0.0854 -1.1306  0.9352
17237TIP3   OH273125   0.694   5.193   4.823 -0.2396 -0.0754 -0.1192
17237TIP3    H173126   0.610   5.148   4.831 -0.1793 -0.1974 -0.1688
17237TIP3    H273127   0.694   5.257   4.894  0.6402 -1.7129  1.4414
17238TIP3   OH273128   0.232   0.318   1.826  0.0774  1.2857  0.1148
17238TIP3    H173129   0.246   0.287   1.916 -1.8731  1.5014  0.5503
17238TIP3    H273130   0.141   0.348   1.826 -0.5030 -0.2411 -2.3639
17239TIP3   OH273131   0.959   2.959  13.078  0.0042  0.3167 -0.3540
17239TIP3    H173132   1.039   2.911  13.102  0.2070  0.4415 -0.7727
17239TIP3    H273133   0.966   3.042  13.126 -0.4681 -0.1624  0.5686
17240TIP3   OH273134   2.906   0.074  11.617  0.5470  0.3430 -0.4114
17240TIP3    H173135   2.921  -0.016  11.586 -0.2646  0.6220 -1.6873
17240TIP3    H273136   2.944   0.130  11.549 -0.9360  0.9637 -0.7814
17241TIP3   OH273137   6.706   0.297   0.839 -0.2484 -0.3211  0.0903
17241TIP3    H173138   6.665   0.229   0.893 -0.0115 -1.4571 -1.1239
17241TIP3    H273139   6.635   0.333   0.787 -0.3885  0.4461  0.7914
17242TIP3   OH273140   1.428   0.993  10.115  0.3323  0.1539  0.1607
17242TIP3    H173141   1.366   1.000  10.042 -0.2728  2.1510  0.8031
17242TIP3    H273142   1.496   1.057  10.095  1.9616 -1.6275 -0.2503
17243TIP3   OH273143   0.951   3.747   1.705  0.1486 -0.2119 -0.9482
17243TIP3    H173144   0.975   3.840   1.702  1.6051 -0.4668  0.8141
17243TIP3    H273145   1.029   3.701   1.675  0.6232 -0.9391  1.2251
17244TIP3   OH273146   4.105   0.727  15.838  0.2533  0.8611 -0.4321
17244TIP3    H173147   4.172   0.777  15.790 -1.4512  1.2364 -2.5847
17244TIP3    H273148   4.107   0.640  15.798 -0.3252  0.7923 -0.3203
17245TIP3   OH273149   5.524   3.253  14.364 -0.0438 -0.7922 -0.0052
17245TIP3    H173150   5.533   3.298  14.448  0.3219 -0.1978 -0.3557
17245TIP3    H273151   5.458   3.185  14.380  1.2562 -1.8320  1.2268
17246TIP3   OH273152   3.566   5.495   3.352  0.3175 -0.4162 -0.2827
17246TIP3    H173153   3.529   5.431   3.412 -0.0795 -0.6712 -0.7838
17246TIP3    H273154   3.521   5.478   3.269  0.8659 -0.0854 -0.6545
17247TIP3   OH273155   0.413   0.001   3.197 -0.1122  0.1086 -0.3640
17247TIP3    H173156   0.395   0.094   3.214 -0.4833  0.1297 -0.8509
17247TIP3    H273157   0.425  -0.004   3.102 -3.0251 -0.8271 -0.7562
17248TIP3   OH273158   3.533   1.247  12.465  0.5759 -0.2023  0.1098
17248TIP3    H173159   3.599   1.312  12.489 -0.3813  1.0165 -0.4432
17248TIP3    H273160   3.542   1.179  12.531  2.1989  0.0538  0.1947
17249TIP3   OH273161   1.144   3.862   2.038 -0.0153 -0.4761 -0.8276
17249TIP3    H173162   1.193   3.902   1.966  0.1780 -0.8373 -0.9042
17249TIP3    H273163   1.195   3.784   2.061 -0.0874 -0.3715 -0.3100
17250TIP3   OH273164   4.832   2.408   0.183  0.4192 -0.2481  0.6953
17250TIP3    H173165   4.765   2.374   0.124  0.5263  2.2256 -0.9995
17250TIP3    H273166   4.914   2.369   0.152  0.4555  0.9328 -0.7689
17251TIP3   OH273167   4.188   0.924  11.925  0.0103 -0.2134 -0.0616
17251TIP3    H173168   4.217   0.856  11.986 -0.2018  0.0034  0.2899
17251TIP3    H273169   4.168   0.999  11.981 -0.5302 -0.1255 -0.3644
17252TIP3   OH273170   5.444   1.650   1.506 -0.0398  0.7039  0.0400
17252TIP3    H173171   5.524   1.599   1.501 -0.1696  0.4168  0.7367
17252TIP3    H273172   5.388   1.614   1.437 -0.1556 -0.1610  0.5601
17253TIP3   OH273173   5.219   5.535   3.888 -0.0115 -0.6968  0.2717
17253TIP3    H173174   5.192   5.513   3.977 -3.1696  1.0471 -0.1347
17253TIP3    H273175   5.257   5.623   3.896 -2.1718  0.3607 -0.2695
17254TIP3   OH273176   2.486   4.845   5.866 -0.1846  0.5930 -0.1716
17254TIP3    H173177   2.552   4.847   5.796 -0.2208  0.1109 -0.2182
17254TIP3    H273178   2.436   4.765   5.851  1.4312 -0.9287  1.8886
17255TIP3   OH273179   1.970   3.943   2.545 -0.0249 -0.1109 -0.2803
17255TIP3    H173180   1.936   3.983   2.625 -0.0638  1.0643 -0.8603
17255TIP3    H273181   1.899   3.951   2.482  0.2354 -0.4230 -0.6171
17256TIP3   OH273182   2.457   6.465  16.429  0.0687  0.1136 -0.2376
17256TIP3    H173183   2.428   6.416  16.352  0.4742 -0.7706  0.1621
17256TIP3    H273184   2.544   6.497  16.406 -0.1975  0.6762 -0.4989
17257TIP3   OH273185   2.331   3.458   3.295 -0.1418  0.2041 -0.0830
17257TIP3    H173186   2.290   3.531   3.249  0.0145  0.4739  0.2024
17257TIP3    H273187   2.425   3.471   3.281 -0.1006  0.2146  0.2042
17258TIP3   OH273188   1.677   3.519  14.163  0.1158 -0.0563  0.0484
17258TIP3    H173189   1.720   3.604  14.169 -0.5343  0.1749  2.2866
17258TIP3    H273190   1.743   3.462  14.124  1.0704  1.1232 -0.1345
17259TIP3   OH273191   6.043   6.573  15.354  0.1646  0.2660 -0.1888
17259TIP3    H173192   6.107   6.611  15.413  0.6622 -0.7078 -0.0869
17259TIP3    H273193   5.958   6.600  15.390  0.4118 -1.0238  1.5132
17260TIP3   OH273194   0.869   5.562   1.713  0.0871 -0.3249  0.1032
17260TIP3    H173195   0.936   5.597   1.772  0.7967  0.4356 -1.0905
17260TIP3    H273196   0.787   5.600   1.744  0.5776  0.8095  0.0405
17261TIP3   OH273197   1.438   1.884  14.566 -0.6836  0.5156  0.7872
17261TIP3    H173198   1.453   1.920  14.478 -0.1489 -0.9204  0.2596
17261TIP3    H273199   1.348   1.852  14.564 -0.7261  0.6335  0.8165
17262TIP3   OH273200   4.784   2.734  12.635 -0.2482 -0.2851  0.0099
17262TIP3    H173201   4.818   2.675  12.703  0.6823 -0.0718 -0.2530
17262TIP3    H273202   4.707   2.689  12.600 -0.6449 -0.4715  1.0932
17263TIP3   OH273203   3.479   0.396  12.473 -0.1536 -0.1292 -0.0704
17263TIP3    H173204   3.518   0.444  12.546  3.6753 -0.5497 -1.6143
17263TIP3    H273205   3.414   0.456  12.437  0.5393  1.5999  1.4139
17264TIP3   OH273206   5.062   3.529   1.110  0.3617  0.5438  0.5759
17264TIP3    H173207   4.989   3.568   1.158  2.3482  2.6028  2.1749
17264TIP3    H273208   5.115   3.486   1.178  1.7163  0.9506 -0.1754
17265TIP3   OH273209   3.047   2.626  14.480  0.2297 -0.2913  0.3115
17265TIP3    H173210   3.119   2.595  14.425  1.2669  1.4566  0.6177
17265TIP3    H273211   3.011   2.546  14.520  0.7366 -1.3890 -1.3260
17266TIP3   OH273212   4.953   6.642  13.395 -0.0745 -0.0040  0.5884
17266TIP3    H173213   4.888   6.707  13.368 -0.8886 -1.2378 -0.5911
17266TIP3    H273214   4.902   6.562  13.410  0.9026 -0.3930  1.9669
17267TIP3   OH273215   2.692   4.554  16.670 -0.3466  0.1951 -0.1286
17267TIP3    H173216   2.628   4.612  16.628 -0.3349  1.0079  0.9522
17267TIP3    H273217   2.776   4.581  16.633 -0.3254  0.9659  0.4703
17268TIP3   OH273218   4.505   2.448   5.359  0.0482  0.2000  0.4383
17268TIP3    H173219   4.547   2.533   5.362 -0.4125  0.4055  1.6328
17268TIP3    H273220   4.441   2.455   5.288 -1.8961  1.8115  2.2060
17269TIP3   OH273221   2.604   0.036  11.441  0.1992 -0.6265 -0.1688
17269TIP3    H173222   2.664   0.093  11.395 -3.1323  2.1502 -1.5207
17269TIP3    H273223   2.578  -0.030  11.376 -0.2214 -0.1545 -0.4895
17270TIP3   OH273224   5.416   4.646   6.046  0.2401 -0.1897  0.4665
17270TIP3    H173225   5.334   4.610   6.081 -2.3510  2.4557 -2.2898
17270TIP3    H273226   5.441   4.586   5.976  0.4794 -0.7823  1.0461
17271TIP3   OH273227   3.955   6.350  12.578 -0.0102  0.2726  0.5168
17271TIP3    H173228   3.982   6.441  12.583 -1.3077  0.7814 -0.8871
17271TIP3    H273229   4.022   6.308  12.525  1.5149 -0.0309  2.5746
17272TIP3   OH273230   0.492   6.155  14.967  1.2420  0.2906  0.2913
17272TIP3    H173231   0.514   6.085  15.028  1.8829  0.7032  0.5407
17272TIP3    H273232   0.403   6.181  14.991  0.8108 -0.7543 -0.1187
17273TIP3   OH273233   5.927   6.318  15.779 -0.3360 -0.1806 -0.4952
17273TIP3    H173234   5.932   6.365  15.862 -1.7039  0.5282 -0.7878
17273TIP3    H273235   6.012   6.274  15.772 -0.3959 -0.7476  1.5522
17274TIP3   OH273236   2.403   4.866  15.445 -0.4095  0.4612 -0.0162
17274TIP3    H173237   2.435   4.800  15.384  0.5765  0.3560  0.5816
17274TIP3    H273238   2.483   4.902  15.485 -1.0370 -0.2608  2.0190
17275TIP3   OH273239   6.501   5.308  15.642 -0.4372 -0.9320  0.9556
17275TIP3    H173240   6.492   5.395  15.604  0.5456 -1.2309 -0.0187
17275TIP3    H273241   6.577   5.316  15.700 -1.3173 -0.7405  2.0992
17276TIP3   OH273242   0.249   1.260   2.109  0.0015 -0.0736  0.1485
17276TIP3    H173243   0.318   1.281   2.046  0.9948  0.0985  1.2579
17276TIP3    H273244   0.291   1.203   2.172 -0.8456  0.1355  0.9205
17277TIP3   OH273245   0.735   4.274   3.692 -0.3997  0.4440 -0.5881
17277TIP3    H173246   0.747   4.262   3.786  0.7182  1.2504 -0.6102
17277TIP3    H273247   0.733   4.185   3.657  0.2621  0.1578  0.0767
17278TIP3   OH273248   5.978   2.121   0.772 -0.6819 -0.2973 -0.5490
17278TIP3    H173249   6.009   2.182   0.839 -3.4830  1.9390 -1.1155
17278TIP3    H273250   6.018   2.152   0.691  0.4303 -1.2603 -0.4006
17279TIP3   OH273251   6.242   6.580   1.480  0.0943  0.5709  0.1445
17279TIP3    H173252   6.228   6.617   1.567 -0.5212  0.7154 -0.0114
17279TIP3    H273253   6.218   6.487   1.489 -0.9777  0.8128 -0.1164
17280TIP3   OH273254   1.902   2.183   5.945  0.2703  0.0102  0.1093
17280TIP3    H173255   1.864   2.228   6.021  1.6957 -0.2771  1.0329
17280TIP3    H273256   1.966   2.123   5.982  2.3121  1.1292 -1.3945
17281TIP3   OH273257   0.221   2.690   3.830  0.2137 -0.1839  0.0553
17281TIP3    H173258   0.235   2.729   3.744 -0.6265 -1.0036 -0.4731
17281TIP3    H273259   0.217   2.764   3.890  1.0153  0.3823 -0.5778
17282TIP3   OH273260   1.651   3.047   4.137  0.0919 -0.5416 -0.1191
17282TIP3    H173261   1.648   3.138   4.106 -2.0343 -1.0373 -1.6060
17282TIP3    H273262   1.656   3.054   4.232  1.5525  1.0918 -0.2633
17283TIP3   OH273263   0.563   1.897  11.988  0.6356 -0.3553  0.3207
17283TIP3    H173264   0.631   1.938  11.935 -0.7324  1.1399 -0.3505
17283TIP3    H273265   0.501   1.967  12.006 -0.9108 -1.7519  0.6347
17284TIP3   OH273266   6.023   2.098  13.999  0.0994 -0.1220  0.0807
17284TIP3    H173267   5.945   2.054  14.033  0.3475 -1.3409 -0.8679
17284TIP3    H273268   6.066   2.032  13.945  1.6277  0.6389  0.3355
17285TIP3   OH273269   1.674   1.714  17.087 -0.4981  0.3413 -0.7899
17285TIP3    H173270   1.626   1.756  17.158  0.0939 -0.3535  0.0412
17285TIP3    H273271   1.675   1.780  17.016 -0.5925  1.2619  0.0449
17286TIP3   OH273272   4.103   1.145   1.190 -0.8349  0.1874  0.1723
17286TIP3    H173273   4.196   1.165   1.195 -1.0119  1.2904 -0.6604
17286TIP3    H273274   4.089   1.077   1.257  0.5403  0.0510  0.3391
17287TIP3   OH273275   5.731   4.668  14.122  0.7827 -0.3850  0.0154
17287TIP3    H173276   5.706   4.585  14.083  2.1470 -0.9259  0.2443
17287TIP3    H273277   5.826   4.664  14.128  0.8364  1.0254  0.4116
17288TIP3   OH273278   3.901   3.818  12.069 -0.0815 -0.5340 -0.0162
17288TIP3    H173279   3.990   3.804  12.036  0.3831  1.9626 -0.0164
17288TIP3    H273280   3.883   3.741  12.123  1.5393 -1.7370 -1.0905
17289TIP3   OH273281   5.487   3.542  16.087  0.3525  0.1632  0.0429
17289TIP3    H173282   5.578   3.523  16.066  0.6989  1.5396  0.1601
17289TIP3    H273283   5.442   3.458  16.079  1.8844 -0.8552  1.4106
17290TIP3   OH273284   4.593   1.271  14.714 -0.1107 -0.4272 -0.0801
17290TIP3    H173285   4.499   1.287  14.701 -0.4211 -0.9100  1.3325
17290TIP3    H273286   4.595   1.201  14.779  1.2269 -1.7225 -1.4582
17291TIP3   OH273287   2.231   2.452  14.586  0.0269  0.0193  0.2366
17291TIP3    H173288   2.140   2.478  14.600  0.2158 -0.1437  1.9294
17291TIP3    H273289   2.242   2.373  14.639  0.8967 -0.5546 -0.7531
17292TIP3   OH273290   5.161   2.751   0.175  0.0906  0.7743 -0.0038
17292TIP3    H173291   5.199   2.664   0.162 -1.2197  0.0207  0.9879
17292TIP3    H273292   5.073   2.734   0.208  0.1485  2.4923  1.1445
17293TIP3   OH273293   6.314   0.170   4.023 -0.2350 -0.2494  0.1325
17293TIP3    H173294   6.405   0.182   4.051  0.9468 -1.7875 -2.6071
17293TIP3    H273295   6.262   0.199   4.097  2.4940 -1.1059  2.5757
17294TIP3   OH273296   0.022   1.598  12.092  0.1763 -0.3639 -0.1025
17294TIP3    H173297   0.106   1.612  12.049  0.5722 -1.1909  0.3780
17294TIP3    H273298  -0.028   1.678  12.073  1.3985  0.5547  0.4141
17295TIP3   OH273299   0.535   1.528  17.067  0.3070  0.6259  0.1582
17295TIP3    H173300   0.546   1.485  16.982 -1.0149 -0.3923  0.4653
17295TIP3    H273301   0.608   1.497  17.120  0.1370 -0.1715 -0.0656
17296TIP3   OH273302   4.915   2.902   4.570 -0.1669  0.6441  0.1768
17296TIP3    H173303   4.897   2.809   4.555  1.6591  0.1512  0.8435
17296TIP3    H273304   4.891   2.917   4.661 -1.4361  1.1089 -0.2118
17297TIP3   OH273305   6.263   1.757   0.390  0.4286  0.2100 -0.3984
17297TIP3    H173306   6.198   1.826   0.376 -0.0121  0.0293  0.6415
17297TIP3    H273307   6.213   1.676   0.387  0.5559  0.0793  0.5607
17298TIP3   OH273308   2.282   0.146   0.533 -0.6685  0.5310 -0.3325
17298TIP3    H173309   2.369   0.173   0.504 -1.0981  1.2064 -1.0391
17298TIP3    H273310   2.284   0.051   0.528  0.8336  0.3522  2.0415
17299TIP3   OH273311   4.274   4.084   3.976 -0.0489  0.1441 -0.0637
17299TIP3    H173312   4.314   4.098   3.890  0.3849  0.9309  0.2450
17299TIP3    H273313   4.180   4.084   3.960 -0.0718  2.5615 -0.2790
17300TIP3   OH273314   6.546   4.293  16.819  0.6594  0.1550  0.2421
17300TIP3    H173315   6.490   4.337  16.882 -1.7078 -1.1523 -0.8302
17300TIP3    H273316   6.521   4.329  16.734  2.4046  0.4719 -0.1816
17301TIP3   OH273317   6.429   6.315  12.770  0.1661  0.3201 -0.5448
17301TIP3    H173318   6.432   6.410  12.781 -0.4082  0.2625  0.1402
17301TIP3    H273319   6.337   6.292  12.783  0.7210 -0.6680  2.1965
17302TIP3   OH273320   1.250   6.486  13.959 -0.1791  0.3211  0.1860
17302TIP3    H173321   1.333   6.468  13.915  0.7881  0.2871  1.9315
17302TIP3    H273322   1.266   6.568  14.007 -1.0097  0.1096  0.8483
17303TIP3   OH273323   5.441   1.605  12.571 -0.3793  0.4604  0.5272
17303TIP3    H173324   5.363   1.639  12.615 -1.3044 -0.0602 -0.6510
17303TIP3    H273325   5.445   1.654  12.489 -0.7511 -1.0210 -0.4189
17304TIP3   OH273326   5.376   0.344  15.739 -0.0850  0.1790 -0.4391
17304TIP3    H173327   5.319   0.294  15.798 -0.1090  1.5539  0.7276
17304TIP3    H273328   5.324   0.354  15.659  0.2354 -2.3564 -1.0739
17305TIP3   OH273329   3.641   3.861   5.718 -0.0261  0.3256  0.0951
17305TIP3    H173330   3.560   3.885   5.763 -1.5470 -1.9756 -1.2232
17305TIP3    H273331   3.704   3.928   5.745 -1.9696  1.4381  2.2369
17306TIP3   OH273332   1.555   1.876   0.885 -0.1104  0.3049 -0.2099
17306TIP3    H173333   1.563   1.796   0.834  1.4927  0.2964 -0.0151
17306TIP3    H273334   1.535   1.846   0.974 -0.3877  0.1732 -0.3163
17307TIP3   OH273335   6.676   3.385   5.259  0.5747 -0.1179 -0.5243
17307TIP3    H173336   6.605   3.326   5.234  1.4517 -2.0177  1.2015
17307TIP3    H273337   6.633   3.469   5.277 -1.3754 -1.3815  1.1354
17308TIP3   OH273338   0.787   0.398  13.309  0.7843 -0.0170 -0.5491
17308TIP3    H173339   0.871   0.441  13.324  0.6090  0.5557 -1.1677
17308TIP3    H273340   0.739   0.457  13.252 -0.4852  0.1806  0.6745
17309TIP3   OH273341   1.805   2.755   2.673 -0.3050 -0.1431 -0.4212
17309TIP3    H173342   1.738   2.697   2.708 -0.5158  0.3268 -0.0428
17309TIP3    H273343   1.812   2.729   2.581 -0.8978 -0.2996 -0.4299
17310TIP3   OH273344   4.155   2.431  14.034  0.4851 -0.0388 -0.4434
17310TIP3    H173345   4.246   2.458  14.050  0.9911 -1.8381 -0.0503
17310TIP3    H273346   4.163   2.350  13.983 -0.9516  0.7549 -2.0365
17311TIP3   OH273347   2.020   2.095   3.395 -0.3197  0.3760 -0.2993
17311TIP3    H173348   2.100   2.048   3.372  0.6368  1.7038  0.1762
17311TIP3    H273349   2.023   2.175   3.343 -1.3358  0.4569 -0.2530
17312TIP3   OH273350   3.898   6.142  16.713 -0.0612  0.4753 -0.1401
17312TIP3    H173351   3.868   6.180  16.796 -0.3651  0.9421 -0.4566
17312TIP3    H273352   3.823   6.094  16.679  0.3509 -0.4983  0.2995
17313TIP3   OH273353   0.209   1.172  12.911 -0.0555  0.4655 -0.2116
17313TIP3    H173354   0.156   1.098  12.940  0.1998  0.0211 -0.8494
17313TIP3    H273355   0.185   1.185  12.820  1.9754 -0.7416 -0.9998
17314TIP3   OH273356   2.100   1.408  15.744 -0.4020 -0.1171  0.2923
17314TIP3    H173357   2.120   1.321  15.710  1.7120  1.4953 -3.1588
17314TIP3    H273358   2.143   1.410  15.830  3.2970 -1.2197 -1.3106
17315TIP3   OH273359   1.299   4.827   1.211  0.0849 -0.2484 -0.2070
17315TIP3    H173360   1.302   4.778   1.129 -1.7031 -0.2564 -0.2965
17315TIP3    H273361   1.232   4.894   1.197 -0.1801 -0.1817  1.2194
17316TIP3   OH273362   5.943   6.449  13.229  0.2987 -0.2567 -0.1816
17316TIP3    H173363   6.026   6.408  13.207 -0.4577 -1.2568 -1.2836
17316TIP3    H273364   5.909   6.397  13.302  1.1564  0.8743  1.0612
17317TIP3   OH273365   5.343   1.078  15.186  0.6668 -0.2743  0.3189
17317TIP3    H173366   5.350   1.097  15.280 -1.4050  1.7596  0.1492
17317TIP3    H273367   5.253   1.047  15.175  1.3148 -1.8849 -0.8380
17318TIP3   OH273368   4.875   4.375  11.134 -0.2021  0.2750  0.1446
17318TIP3    H173369   4.827   4.332  11.063  0.6134  0.8676 -0.7809
17318TIP3    H273370   4.807   4.406  11.193 -0.8827 -0.4996 -0.2046
17319TIP3   OH273371   0.836   6.667  12.792 -0.2212 -0.1986  0.1642
17319TIP3    H173372   0.752   6.657  12.836  0.3091  0.2402  1.3315
17319TIP3    H273373   0.816   6.711  12.710 -0.8963  1.9547  1.4218
17320TIP3   OH273374   5.393   5.504   2.755  0.1253 -0.2816  0.8031
17320TIP3    H173375   5.380   5.443   2.827  0.5310 -1.2518  0.0676
17320TIP3    H273376   5.391   5.450   2.676  1.0186  0.5758  0.1644
17321TIP3   OH273377   2.114   1.487   1.410  0.5524 -0.2808  0.6505
17321TIP3    H173378   2.037   1.544   1.405 -0.6632 -1.5214  3.2687
17321TIP3    H273379   2.188   1.546   1.420 -0.3431  0.8827  0.5498
17322TIP3   OH273380   3.416   5.630  15.047 -0.3188 -0.3129 -0.4115
17322TIP3    H173381   3.350   5.589  15.102  0.2995  0.5666  1.0593
17322TIP3    H273382   3.498   5.588  15.073  0.1891  1.1556  0.4420
17323TIP3   OH273383   6.407   2.675  11.183  0.4726 -0.1021  0.7067
17323TIP3    H173384   6.496   2.644  11.166  1.2385  1.0123  2.3553
17323TIP3    H273385   6.412   2.769  11.166  0.0097  0.2065  2.1812
17324TIP3   OH273386   5.396   0.551   0.079  0.1104 -0.4814  0.1576
17324TIP3    H173387   5.454   0.627   0.075  1.6979 -1.7038 -1.5274
17324TIP3    H273388   5.453   0.475   0.068 -1.7665 -1.7631 -1.8192
17325TIP3   OH273389   0.619   1.433   2.150 -0.7229  0.1981 -0.4502
17325TIP3    H173390   0.562   1.415   2.225 -0.6409  1.5335 -0.0416
17325TIP3    H273391   0.682   1.361   2.149 -1.2509 -0.2831  0.2409
17326TIP3   OH273392   6.521   6.384  15.201  0.0857 -0.1571 -0.1271
17326TIP3    H173393   6.455   6.321  15.174 -1.5115  2.0168 -1.7425
17326TIP3    H273394   6.543   6.431  15.120  1.1950  1.3027  0.9647
17327TIP3   OH273395   2.335   3.580   3.676 -0.2893  0.3730 -0.4547
17327TIP3    H173396   2.287   3.639   3.618 -0.9839  0.1787 -0.0910
17327TIP3    H273397   2.295   3.494   3.660 -1.3623  0.5284  1.2117
17328TIP3   OH273398   4.995   5.229   5.764 -0.7383  0.3395 -0.0932
17328TIP3    H173399   5.041   5.310   5.784 -1.5362  0.4965  1.2182
17328TIP3    H273400   5.033   5.199   5.681 -0.6355  2.1929 -0.7468
17329TIP3   OH273401   2.730   3.337  16.552 -0.0658  0.2005  0.1234
17329TIP3    H173402   2.684   3.289  16.483 -0.1654  1.4886 -0.7471
17329TIP3    H273403   2.672   3.409  16.574 -0.9387 -1.2605  3.0199
17330TIP3   OH273404   2.553   4.633   3.156  0.2614  0.7276 -0.7215
17330TIP3    H173405   2.603   4.560   3.193 -0.8027 -0.2844 -1.2309
17330TIP3    H273406   2.585   4.641   3.066 -1.4880 -0.9707 -1.5887
17331TIP3   OH273407   6.008   1.112  15.866 -0.3781  0.2833 -0.1194
17331TIP3    H173408   5.972   1.167  15.796  0.9385  0.0649 -0.9922
17331TIP3    H273409   6.031   1.030  15.823  0.8162  0.2838  0.4784
17332TIP3   OH273410   6.631   4.543  14.834 -0.6948 -0.0311 -0.0051
17332TIP3    H173411   6.588   4.628  14.834  0.5176  0.6048  0.1874
17332TIP3    H273412   6.581   4.490  14.896 -2.4011  0.0275 -1.2685
17333TIP3   OH273413   6.658   4.685  16.884 -0.6562 -0.2881 -0.0372
17333TIP3    H173414   6.565   4.696  16.899 -0.7651  0.3241 -1.0566
17333TIP3    H273415   6.676   4.738  16.806  0.9428  1.3434  1.3500
17334TIP3   OH273416   6.484   2.031   1.687 -0.0203  0.2901  0.5233
17334TIP3    H173417   6.488   2.088   1.610  1.6860 -0.4299  0.0303
17334TIP3    H273418   6.524   2.082   1.757 -1.3705  0.8584  0.9269
17335TIP3   OH273419   0.969   0.918  14.119 -0.4240 -0.4097  0.8360
17335TIP3    H173420   1.004   0.832  14.094 -0.7151 -0.4288  0.4957
17335TIP3    H273421   1.043   0.962  14.162 -0.6174 -1.2962  2.1652
17336TIP3   OH273422   1.621   5.177  17.183  0.4559  0.3604  0.3049
17336TIP3    H173423   1.546   5.207  17.130  1.2566 -0.5570 -1.4319
17336TIP3    H273424   1.653   5.099  17.137  0.2343 -1.5032  3.0478
17337TIP3   OH273425   1.180   4.877   3.079 -0.6976 -0.3847 -0.1884
17337TIP3    H173426   1.272   4.855   3.096 -1.3879 -2.4670  1.1828
17337TIP3    H273427   1.185   4.952   3.019  1.8969  1.3016  1.9046
17338TIP3   OH273428   5.742   3.877   0.611  0.2570 -0.5304  0.7341
17338TIP3    H173429   5.697   3.886   0.694 -0.2159 -0.8473  0.5193
17338TIP3    H273430   5.755   3.782   0.600  0.1213 -0.5107  0.3549
17339TIP3   OH273431   5.785   2.392   0.967  0.0640  0.3724  0.1962
17339TIP3    H173432   5.826   2.445   1.036  1.1716 -2.1713  1.6274
17339TIP3    H273433   5.856   2.376   0.904 -0.1330  0.1449  0.0323
17340TIP3   OH273434   3.885   3.560  13.871 -0.5757 -0.3871 -0.1222
17340TIP3    H173435   3.975   3.530  13.887 -1.0764 -1.5061  0.7394
17340TIP3    H273436   3.890   3.655  13.879  0.1400 -0.5544  2.2778
17341TIP3   OH273437   6.085   5.982   1.585  0.2302 -0.0160 -0.0481
17341TIP3    H173438   6.147   5.950   1.519 -0.9601 -3.2971  0.2237
17341TIP3    H273439   6.133   5.980   1.667  0.0206 -2.1015  0.0869
17342TIP3   OH273440   6.188   4.652   3.071 -0.1442  0.1992 -0.0902
17342TIP3    H173441   6.140   4.591   3.127 -0.3508 -0.1850 -0.6705
17342TIP3    H273442   6.268   4.605   3.049  0.2108  0.5904  0.3684
17343TIP3   OH273443   3.931   6.164  12.854  0.1070 -0.0005 -0.0707
17343TIP3    H173444   3.989   6.092  12.829 -0.0402 -0.6377  1.3131
17343TIP3    H273445   3.913   6.149  12.947 -1.3983  0.8037 -0.1987
17344TIP3   OH273446   2.123   5.987  10.466  0.0620  0.0051 -0.6532
17344TIP3    H173447   2.057   5.917  10.459  1.3045 -1.2208 -0.5286
17344TIP3    H273448   2.152   5.983  10.557  0.0363  0.8069 -0.6070
17345TIP3   OH273449   3.306   2.685   0.869  0.5808  0.1381 -0.4171
17345TIP3    H173450   3.291   2.610   0.811 -2.7045  2.0085 -2.2444
17345TIP3    H273451   3.253   2.666   0.946  0.2053  0.3032 -0.6318
17346TIP3   OH273452   3.686   0.687  11.539  0.2322 -0.5767 -0.6257
17346TIP3    H173453   3.592   0.673  11.544  0.4318 -2.1875 -0.7753
17346TIP3    H273454   3.719   0.656  11.623  0.4718  1.7222  0.1752
17347TIP3   OH273455   2.882   2.489   4.445 -0.2381 -0.8363  0.1859
17347TIP3    H173456   2.853   2.492   4.536 -1.3641 -0.2752 -0.1749
17347TIP3    H273457   2.801   2.478   4.395  0.4169 -1.6843 -0.7216
17348TIP3   OH273458   4.846   0.328   3.842 -0.0275 -0.4976  0.0129
17348TIP3    H173459   4.935   0.299   3.824  0.2110  0.7775 -0.9724
17348TIP3    H273460   4.838   0.324   3.937  0.8351 -1.2838  0.0660
17349TIP3   OH273461   0.918   4.729  12.166  0.1115  0.4224  0.1600
17349TIP3    H173462   0.956   4.738  12.079 -2.6958 -0.0572 -1.2354
17349TIP3    H273463   0.838   4.678  12.152 -0.6761  0.7209  2.9575
17350TIP3   OH273464   4.774   4.770   2.569 -0.0839 -0.1426 -1.0191
17350TIP3    H173465   4.705   4.824   2.530  0.3314  0.8438 -0.4334
17350TIP3    H273466   4.731   4.725   2.641  0.4210  2.6675  1.2231
17351TIP3   OH273467   1.722   3.041  13.651 -0.0916 -0.0155 -0.8650
17351TIP3    H173468   1.705   2.973  13.716 -0.9477  0.3590 -0.6822
17351TIP3    H273469   1.815   3.031  13.630  0.3776  0.2602  0.8839
17352TIP3   OH273470   6.572   3.735  16.602  0.8037  0.3234 -0.1330
17352TIP3    H173471   6.510   3.666  16.579  0.5047  1.0927 -1.7849
17352TIP3    H273472   6.597   3.716  16.693 -3.3207  1.0595  1.3561
17353TIP3   OH273473   3.142   6.041  15.638  0.2842 -0.2376 -0.3887
17353TIP3    H173474   3.069   6.094  15.606  2.4104  3.0279 -0.2213
17353TIP3    H273475   3.133   6.042  15.733  0.8577  0.6874 -0.3379
17354TIP3   OH273476   4.337   5.470   2.547 -0.0087 -1.0244 -0.6659
17354TIP3    H173477   4.246   5.487   2.573  0.2112 -0.0703 -0.4725
17354TIP3    H273478   4.372   5.415   2.617  0.2394  0.5704  0.5227
17355TIP3   OH273479   1.782   4.623   4.106  0.4211  0.0577  0.1046
17355TIP3    H173480   1.829   4.676   4.042  1.9005  0.7013  1.6353
17355TIP3    H273481   1.696   4.609   4.067  0.9842  1.1134 -1.6367
17356TIP3   OH273482   3.915   5.096  14.439 -0.0360 -0.0422 -0.5025
17356TIP3    H173483   4.005   5.112  14.409  0.1989  1.4777  0.8232
17356TIP3    H273484   3.902   5.002  14.429  1.7197 -0.2948 -0.7092
17357TIP3   OH273485   3.783   4.204  13.102  0.0152 -0.2694 -0.3525
17357TIP3    H173486   3.733   4.176  13.025 -2.4988  1.3743  0.5530
17357TIP3    H273487   3.771   4.133  13.165 -1.3783  0.1585 -0.1036
17358TIP3   OH273488   2.681   1.361   5.237 -0.0020 -0.2804 -0.6592
17358TIP3    H173489   2.720   1.280   5.271 -0.9981 -0.0702  1.1247
17358TIP3    H273490   2.605   1.376   5.293  1.1560  2.8603  0.2888
17359TIP3   OH273491   4.268   0.769   5.566  0.5378  0.0152 -0.4423
17359TIP3    H173492   4.337   0.716   5.608  0.6715 -0.1523 -0.8686
17359TIP3    H273493   4.213   0.798   5.639  1.8154  1.2730  0.0726
17360TIP3   OH273494   3.676   6.317   5.276  0.2795  0.2862  0.3427
17360TIP3    H173495   3.589   6.321   5.317  0.5160  2.6628  0.7552
17360TIP3    H273496   3.678   6.231   5.233 -2.0857 -0.0365  0.7118
17361TIP3   OH273497   5.437   3.281  12.780 -0.0876 -0.0804  0.1953
17361TIP3    H173498   5.397   3.358  12.739 -1.5082 -0.5581  0.6413
17361TIP3    H273499   5.461   3.224  12.707  1.5138  1.0074 -0.1765
17362TIP3   OH273500   0.137   1.253  14.823 -0.2219 -0.2325  0.1815
17362TIP3    H173501   0.205   1.263  14.757  0.4853  1.0138  1.0545
17362TIP3    H273502   0.183   1.226  14.902 -0.6372  1.0327  0.8998
17363TIP3   OH273503   2.450   4.583   0.513  0.6190  0.1137 -0.2124
17363TIP3    H173504   2.489   4.638   0.446  1.4524 -0.0818  0.1051
17363TIP3    H273505   2.524   4.539   0.555  0.0780 -0.0933  0.5503
17364TIP3   OH273506   4.884   2.430   0.933  0.2280  0.2370  0.3364
17364TIP3    H173507   4.853   2.468   1.015  0.0339 -1.8182  1.2542
17364TIP3    H273508   4.957   2.487   0.907 -0.2257  1.3892  1.4845
17365TIP3   OH273509   6.257   5.901  12.266 -0.0376 -0.0635 -0.2668
17365TIP3    H173510   6.294   5.887  12.353  1.1571 -2.4875 -1.0747
17365TIP3    H273511   6.333   5.920  12.211 -0.4939 -0.8584 -1.1964
17366TIP3   OH273512   1.059   4.717  16.106  0.5129 -0.1526 -0.0909
17366TIP3    H173513   1.136   4.749  16.152  1.7105 -0.3000 -1.8770
17366TIP3    H273514   1.033   4.638  16.153  3.8543 -2.3715 -1.6317
17367TIP3   OH273515   4.309   6.585  15.714 -0.5917 -0.0132 -0.4322
17367TIP3    H173516   4.376   6.565  15.649 -0.1735 -0.3968  0.1109
17367TIP3    H273517   4.325   6.523  15.785  0.3997  1.8862  1.0822
17368TIP3   OH273518   0.596   0.627  13.753  0.2224  0.8046 -0.0416
17368TIP3    H173519   0.661   0.572  13.797 -0.8002 -0.6494 -0.2794
17368TIP3    H273520   0.587   0.589  13.666 -1.0469  0.8665  0.0366
17369TIP3   OH273521   6.336   0.467  14.921  0.0674 -0.0207 -0.2447
17369TIP3    H173522   6.266   0.514  14.874 -0.8690 -1.2378 -0.1250
17369TIP3    H273523   6.321   0.488  15.013 -1.0942 -1.4392 -0.0730
17370TIP3   OH273524   3.921   3.632   3.339  0.1533  0.1419  0.4847
17370TIP3    H173525   4.011   3.605   3.356 -0.2332 -1.1317  0.6023
17370TIP3    H273526   3.920   3.726   3.357  2.6847  1.4243 -4.4571
17371TIP3   OH273527   2.651   1.574  14.006  0.0454  0.0178 -0.2361
17371TIP3    H173528   2.602   1.522  13.943  0.6523 -1.3082  0.3509
17371TIP3    H273529   2.619   1.663  13.994 -0.9529 -0.4708 -1.3354
17372TIP3   OH273530   6.533   1.239  14.303 -0.0538 -0.4787  0.2626
17372TIP3    H173531   6.572   1.166  14.350  0.6812 -0.7619 -0.7683
17372TIP3    H273532   6.607   1.286  14.265 -0.6547 -0.6095 -1.1302
17373TIP3   OH273533   5.235   6.207  11.556  0.3415  0.2867 -0.0548
17373TIP3    H173534   5.142   6.231  11.551  0.6099  1.5947  0.7433
17373TIP3    H273535   5.243   6.161  11.640  0.5438  0.8582  0.2459
17374TIP3   OH273536   1.205   0.483  15.030  0.2282 -0.2467 -0.0560
17374TIP3    H173537   1.254   0.551  14.982  0.4106 -0.5845 -0.3494
17374TIP3    H273538   1.135   0.531  15.074  0.1355  0.0851 -0.5593
17375TIP3   OH273539   5.944   5.182  16.450  0.1173  0.3314  0.0815
17375TIP3    H173540   6.038   5.186  16.432  0.1567 -2.5282 -0.8463
17375TIP3    H273541   5.935   5.113  16.516 -1.4659 -1.2572 -1.6693
17376TIP3   OH273542   1.982   3.439   0.724  0.4346 -0.6230  0.2010
17376TIP3    H173543   1.943   3.524   0.745  0.3183 -0.7090  0.3390
17376TIP3    H273544   1.976   3.433   0.629 -0.3622 -0.8547  0.2527
17377TIP3   OH273545   3.916   6.332   0.922 -0.1153 -0.2538  0.0014
17377TIP3    H173546   3.980   6.398   0.898  1.1313 -0.8893  1.3922
17377TIP3    H273547   3.871   6.370   0.998 -1.9808  0.5056 -1.3960
17378TIP3   OH273548   3.228   5.562   5.672  0.9356 -0.1402  0.2681
17378TIP3    H173549   3.158   5.532   5.730 -0.5827  1.5718 -0.5848
17378TIP3    H273550   3.259   5.482   5.629 -0.5696 -0.9389  0.5888
17379TIP3   OH273551   2.027   5.015  13.100 -0.0060 -0.4157 -0.6034
17379TIP3    H173552   1.943   5.047  13.065  0.2563  0.2756 -0.6104
17379TIP3    H273553   2.043   5.068  13.177 -1.2523 -2.8163  1.4655
17380TIP3   OH273554   5.207   6.482   0.905 -0.3214  0.9112  0.2210
17380TIP3    H173555   5.222   6.505   0.997 -1.0088  1.5302  0.1873
17380TIP3    H273556   5.124   6.433   0.906  0.3618 -0.3041  0.0938
17381TIP3   OH273557   3.246   1.581   2.774 -0.3644  0.2482  0.2683
17381TIP3    H173558   3.327   1.617   2.738 -1.7381  2.1930 -1.1120
17381TIP3    H273559   3.200   1.544   2.699 -0.4278 -1.5753  1.1669
17382TIP3   OH273560   6.366   3.406   5.654  0.1172  0.3017 -0.0979
17382TIP3    H173561   6.364   3.373   5.744  0.1873  0.6624  0.0394
17382TIP3    H273562   6.275   3.425   5.633  0.2352  1.4385  0.3625
17383TIP3   OH273563   0.278   2.509  10.994  0.1026  0.9333 -0.0412
17383TIP3    H173564   0.347   2.499  10.928  1.1444  0.3649  1.0904
17383TIP3    H273565   0.292   2.436  11.054 -2.9269 -0.6031 -0.9745
17384TIP3   OH273566   6.094   0.600   2.004  0.4489 -0.5234 -0.9818
17384TIP3    H173567   6.001   0.585   1.989  0.0695  0.1251  0.5644
17384TIP3    H273568   6.121   0.530   2.063  0.8135 -0.3920 -0.9887
17385TIP3   OH273569   3.907   5.461   4.364 -0.0090  0.1996  0.5210
17385TIP3    H173570   3.867   5.486   4.447  0.3539  0.4657  0.6221
17385TIP3    H273571   3.854   5.504   4.298  1.4332  2.4692  0.7487
17386TIP3   OH273572   5.643   1.369  13.676  0.5299 -0.3639 -0.4513
17386TIP3    H173573   5.714   1.332  13.624  0.6822 -0.0117 -0.4969
17386TIP3    H273574   5.680   1.381  13.763  0.4586 -0.3909 -0.4167
17387TIP3   OH273575   5.305   0.518  16.080  0.4127 -0.3961  0.0824
17387TIP3    H173576   5.383   0.555  16.038 -0.8831  1.0619 -1.1305
17387TIP3    H273577   5.236   0.582  16.065 -1.2631 -2.0445  0.3223
17388TIP3   OH273578   6.249   4.113  16.827 -0.5041  0.7313 -0.2145
17388TIP3    H173579   6.174   4.065  16.791 -1.1625  1.3279  0.3258
17388TIP3    H273580   6.315   4.111  16.758 -0.5274 -0.9088 -0.2248
17389TIP3   OH273581   4.653   0.611   3.228  0.3102  0.2559 -0.3232
17389TIP3    H173582   4.718   0.542   3.212 -1.1734 -1.9118  2.1091
17389TIP3    H273583   4.572   0.576   3.193 -0.4549  0.7998  0.8498
17390TIP3   OH273584   4.955   3.861   1.288 -1.1830 -0.3658  0.0272
17390TIP3    H173585   4.930   3.800   1.357 -1.1754 -0.5339 -0.1193
17390TIP3    H273586   4.894   3.843   1.216 -1.3043 -0.0697  0.0560
17391TIP3   OH273587   1.867   0.232   2.290 -0.0245 -0.3284 -0.1149
17391TIP3    H173588   1.889   0.200   2.377  0.3105 -0.1829 -0.1445
17391TIP3    H273589   1.908   0.318   2.285 -2.3582  0.8942  0.6034
17392TIP3   OH273590   0.717   0.660   1.909  0.2987  0.5438 -0.0870
17392TIP3    H173591   0.654   0.669   1.837 -0.0532  0.5867  0.2230
17392TIP3    H273592   0.685   0.585   1.959 -0.8410  1.9195  1.3855
17393TIP3   OH273593   6.264   5.156  15.693  0.1552  0.2630 -0.0536
17393TIP3    H173594   6.354   5.185  15.676  0.2546  0.2287  0.3894
17393TIP3    H273595   6.271   5.105  15.774 -0.0602 -0.7629 -0.6671
17394TIP3   OH273596   0.980   0.909   0.407 -0.0745  0.3298  0.1605
17394TIP3    H173597   0.990   0.822   0.367 -0.6109 -0.0479  0.8300
17394TIP3    H273598   0.973   0.892   0.500 -0.1563  1.1016  0.3021
17395TIP3   OH273599   6.359   4.295  16.212  0.5586  0.1626 -0.5921
17395TIP3    H173600   6.391   4.374  16.169 -0.7427  0.3528 -1.2852
17395TIP3    H273601   6.306   4.327  16.285  0.6420 -0.0913 -0.4198
17396TIP3   OH273602   4.472   6.268   2.335  0.1312 -0.3321  0.3839
17396TIP3    H173603   4.460   6.317   2.254 -1.7630 -0.0835  0.7622
17396TIP3    H273604   4.400   6.205   2.337  0.6521 -0.9277  1.4586
17397TIP3   OH273605   5.690   0.476   2.168 -0.1288  0.3521  0.2333
17397TIP3    H173606   5.704   0.382   2.174  0.9904  0.5637  1.3889
17397TIP3    H273607   5.595   0.486   2.173 -0.2854 -0.7200 -0.2349
17398TIP3   OH273608   5.087   1.168  16.297 -0.2815  0.3858  0.0737
17398TIP3    H173609   5.163   1.175  16.239 -0.0048 -3.5099 -0.2622
17398TIP3    H273610   5.013   1.152  16.238 -0.7788  0.6833  0.6053
17399TIP3   OH273611   0.957   1.872   2.413  0.0430  0.3300  0.7635
17399TIP3    H173612   0.868   1.906   2.421  0.3226  1.5010 -0.5249
17399TIP3    H273613   0.961   1.798   2.473 -1.8164  0.2128  0.7942
17400TIP3   OH273614   5.732   3.006   1.256 -0.6410  0.5202  0.5618
17400TIP3    H173615   5.824   2.983   1.265 -0.6922 -0.4901 -1.0891
17400TIP3    H273616   5.732   3.093   1.215 -0.3632 -0.5565 -1.8520
17401TIP3   OH273617   5.602   6.664   0.668  0.1316  0.3679 -0.7321
17401TIP3    H173618   5.631   6.732   0.607  2.1594 -0.7526 -1.1071
17401TIP3    H273619   5.596   6.585   0.615  0.7432 -0.3693  0.2478
17402TIP3   OH273620   2.030   1.992  16.286  0.2451 -0.3647 -0.3923
17402TIP3    H173621   2.024   2.032  16.199 -1.7293  0.6541  0.1431
17402TIP3    H273622   2.026   2.067  16.346 -2.0018 -1.2112  0.6140
17403TIP3   OH273623   3.243   5.285   5.644  0.3281 -0.1097  0.2336
17403TIP3    H173624   3.174   5.236   5.689 -0.1119  0.3435  0.0548
17403TIP3    H273625   3.283   5.220   5.586 -0.6033 -0.1550 -0.3955
17404TIP3   OH273626   0.111   3.222   5.276  0.3533 -0.3273  0.0611
17404TIP3    H173627   0.187   3.276   5.296 -0.3593  0.3090  1.1373
17404TIP3    H273628   0.038   3.284   5.269 -0.4032 -1.0912  0.8829
17405TIP3   OH273629   5.743   1.106  13.795 -0.5124 -0.5980  0.1866
17405TIP3    H173630   5.661   1.136  13.757 -0.7934 -1.1362  0.3475
17405TIP3    H273631   5.738   1.010  13.789 -0.0739 -0.6480  0.5602
17406TIP3   OH273632   2.134   2.531   2.322 -0.6272  0.2954  0.1000
17406TIP3    H173633   2.158   2.518   2.414 -1.9867  1.2589  0.6123
17406TIP3    H273634   2.040   2.547   2.323 -0.7475 -0.1484 -1.5198
17407TIP3   OH273635   4.273   0.497  16.729  0.2188 -0.0212  0.4176
17407TIP3    H173636   4.248   0.489  16.820 -0.2871 -1.4136  0.1910
17407TIP3    H273637   4.358   0.452  16.724 -0.0828 -0.5636  0.0848
17408TIP3   OH273638   4.040   3.191   2.322  0.1618  0.8717 -0.2218
17408TIP3    H173639   4.083   3.115   2.285 -0.2400 -0.3867  1.7848
17408TIP3    H273640   4.108   3.236   2.372  0.2260  1.4932 -0.8384
17409TIP3   OH273641   3.248   4.497  11.534 -0.1691 -0.1866  0.1544
17409TIP3    H173642   3.293   4.522  11.454 -0.3935 -0.4271 -0.0473
17409TIP3    H273643   3.189   4.571  11.553  1.2896  0.7684  1.1846
17410TIP3   OH273644   4.953   6.585   1.230  0.1688  0.1802 -0.4059
17410TIP3    H173645   4.962   6.634   1.312 -0.3445  0.0205 -0.2474
17410TIP3    H273646   4.981   6.646   1.162 -1.8047  1.2198 -0.3568
17411TIP3   OH273647   4.728   0.475  13.612 -0.0484  0.0301  0.0846
17411TIP3    H173648   4.632   0.485  13.613 -0.2368 -1.4637  1.6265
17411TIP3    H273649   4.760   0.550  13.662 -0.3735  0.6317 -0.5825
17412TIP3   OH273650   2.672   3.084   1.830  0.0991 -0.1192 -0.0628
17412TIP3    H173651   2.627   3.162   1.862  1.7480 -0.4670  3.6445
17412TIP3    H273652   2.602   3.025   1.803 -1.2244  2.0948 -1.8270
17413TIP3   OH273653   3.987   5.635   5.214  0.1502 -0.2323 -0.1495
17413TIP3    H173654   4.014   5.697   5.282 -0.7566  0.4926 -0.4379
17413TIP3    H273655   3.990   5.549   5.258 -0.6173  0.2457  0.8841
17414TIP3   OH273656   0.599   0.377  10.860  0.3799  0.3741 -0.3625
17414TIP3    H173657   0.619   0.295  10.815  1.6213  0.9986 -1.0083
17414TIP3    H273658   0.590   0.441  10.789  2.0496  1.3079  0.2014
17415TIP3   OH273659   4.202   0.058  14.385  0.0805 -0.2315 -0.1413
17415TIP3    H173660   4.210  -0.023  14.434  1.3253 -0.3231 -0.4762
17415TIP3    H273661   4.156   0.033  14.305 -0.2134 -0.4525  0.0946
17416TIP3   OH273662   1.260   5.655  11.112  0.2145 -0.3841 -0.3420
17416TIP3    H173663   1.222   5.703  11.038  0.2228 -0.2681 -0.2709
17416TIP3    H273664   1.188   5.646  11.174  0.3196 -0.0972 -0.1739
17417TIP3   OH273665   5.275   5.511  13.679  0.2564 -0.2378  0.3932
17417TIP3    H173666   5.208   5.514  13.747 -1.2276 -4.0446 -0.6451
17417TIP3    H273667   5.355   5.487  13.725 -0.3390 -1.0646  1.0294
17418TIP3   OH273668   0.974   0.741  16.100  0.1072  0.3704  0.1177
17418TIP3    H173669   0.948   0.823  16.142  0.9812  0.8539 -0.2579
17418TIP3    H273670   0.901   0.682  16.116 -0.1158  0.9227  1.2390
17419TIP3   OH273671   0.849   5.497  14.048 -0.5254 -0.2247 -0.0465
17419TIP3    H173672   0.888   5.566  14.102 -0.0284 -0.9706  0.5671
17419TIP3    H273673   0.922   5.465  13.995 -0.4246 -1.2029  0.6581
17420TIP3   OH273674   5.072   5.753  15.044  0.6517  0.2093  0.0886
17420TIP3    H173675   5.123   5.768  15.124 -0.4640  0.2086  0.8294
17420TIP3    H273676   5.100   5.822  14.984 -1.0497  2.5292  1.7846
17421TIP3   OH273677   2.410   6.439  15.688  0.0122  0.3005 -0.7863
17421TIP3    H173678   2.503   6.459  15.697  0.3352 -1.3417  0.0443
17421TIP3    H273679   2.393   6.441  15.594  0.9115  0.5452 -0.9506
17422TIP3   OH273680   2.804   6.173  15.249 -0.2461  0.3390  0.5714
17422TIP3    H173681   2.817   6.236  15.320 -0.5487  1.2510 -0.1694
17422TIP3    H273682   2.877   6.189  15.189 -1.0793  0.9523 -0.3106
17423TIP3   OH273683   6.366   5.416   4.771  0.3543 -0.3135 -0.4914
17423TIP3    H173684   6.314   5.347   4.729  1.6532 -0.6185 -1.6756
17423TIP3    H273685   6.334   5.497   4.733  0.8831 -0.5205 -1.4332
17424TIP3   OH273686   5.604   4.406   0.017 -0.1620  0.0233  0.0060
17424TIP3    H173687   5.688   4.402  -0.030 -0.3532 -1.2161 -0.2827
17424TIP3    H273688   5.627   4.388   0.108 -0.3571 -3.6409 -0.4816
17425TIP3   OH273689   4.356   4.396   1.855 -0.2670  0.0672 -0.4529
17425TIP3    H173690   4.402   4.467   1.900 -2.3780  0.3272  1.4797
17425TIP3    H273691   4.298   4.440   1.793 -0.9080  0.0263  0.0976
17426TIP3   OH273692   6.308   5.486   1.160 -0.1959 -0.1385 -0.5144
17426TIP3    H173693   6.358   5.433   1.098 -0.3981  0.0282 -0.8180
17426TIP3    H273694   6.358   5.567   1.168  1.0396 -0.9940  1.2378
17427TIP3   OH273695   0.767   3.198  11.705 -0.3902  0.2247 -0.3922
17427TIP3    H173696   0.809   3.158  11.781 -0.5871 -0.0935 -0.4508
17427TIP3    H273697   0.785   3.292  11.714 -0.8352  0.2481  0.3107
17428TIP3   OH273698   4.822   3.276  11.873 -0.5832  0.1928 -0.1143
17428TIP3    H173699   4.899   3.242  11.919  0.2282 -0.5232 -1.9241
17428TIP3    H273700   4.851   3.359  11.835 -0.5105 -0.3325 -1.2425
17429TIP3   OH273701   4.495   1.394  13.569 -0.1409 -0.3525  0.1656
17429TIP3    H173702   4.555   1.346  13.512  0.4104  0.5508 -0.0378
17429TIP3    H273703   4.422   1.417  13.512  0.9693  1.6312 -0.5877
17430TIP3   OH273704   3.243   6.260  10.416  0.2497 -0.1617 -0.1893
17430TIP3    H173705   3.284   6.292  10.496 -0.5976 -0.8268  0.5241
17430TIP3    H273706   3.235   6.337  10.360 -0.6033  0.6267  0.9924
17431TIP3   OH273707   4.487   5.064  14.376  0.5222 -0.7065 -0.0157
17431TIP3    H173708   4.582   5.060  14.379  0.8283  2.4769 -1.4172
17431TIP3    H273709   4.468   5.120  14.301 -2.4320 -0.3999  0.8474
17432TIP3   OH273710   3.684   4.945  11.642 -0.0151 -0.0112 -0.0386
17432TIP3    H173711   3.604   4.974  11.598 -0.8341 -1.6464  0.3004
17432TIP3    H273712   3.732   5.026  11.660 -2.4032  1.2139  1.3496
17433TIP3   OH273713   4.607   6.647   2.972  0.2544 -0.5252 -0.3414
17433TIP3    H173714   4.651   6.687   2.897  0.7314  0.0600  0.2374
17433TIP3    H273715   4.547   6.584   2.934 -0.3436  0.5752 -1.2743
17434TIP3   OH273716   3.863   5.591  11.388 -0.4205 -0.2110  0.2005
17434TIP3    H173717   3.842   5.504  11.423  0.6755 -1.0967 -1.2433
17434TIP3    H273718   3.920   5.574  11.313 -0.9377  1.7137 -0.7011
17435TIP3   OH273719   5.611   1.103  17.194 -0.0810  0.4898  0.3942
17435TIP3    H173720   5.619   1.198  17.190 -2.0114  0.7310  1.1140
17435TIP3    H273721   5.556   1.087  17.271  0.2119 -1.2091  0.2850
17436TIP3   OH273722   6.300   4.453  10.626  0.1021  0.7315  0.7081
17436TIP3    H173723   6.338   4.382  10.677 -1.1463  0.0236  0.6926
17436TIP3    H273724   6.259   4.410  10.551  1.6427  1.7287 -0.7584
17437TIP3   OH273725   3.811   5.435   6.285  0.4930  0.2568 -0.3636
17437TIP3    H173726   3.838   5.506   6.226 -0.4683  0.5664 -0.4350
17437TIP3    H273727   3.716   5.429   6.275  0.3734 -0.0300  0.7763
17438TIP3   OH273728   0.395   2.853   0.113  0.3072  0.4023  0.3649
17438TIP3    H173729   0.346   2.931   0.136  0.2626  0.3709  0.3763
17438TIP3    H273730   0.399   2.802   0.194  0.4791  0.4707  0.3990
17439TIP3   OH273731   3.317   2.387  13.592  1.0346  0.2327 -0.5707
17439TIP3    H173732   3.295   2.479  13.579 -0.0322 -0.0552 -0.8648
17439TIP3    H273733   3.344   2.382  13.684 -1.8292  0.3150  0.3590
17440TIP3   OH273734   4.698   1.293  13.342 -0.1652 -0.3553 -0.2403
17440TIP3    H173735   4.770   1.329  13.290  1.2944  0.7880  2.3688
17440TIP3    H273736   4.626   1.283  13.280  0.2950  4.1651 -1.9102
17441TIP3   OH273737   6.505   0.033  14.441 -0.1169 -0.0422  0.1406
17441TIP3    H173738   6.530   0.118  14.476 -0.5668 -0.3215  1.1528
17441TIP3    H273739   6.450  -0.007  14.508 -0.3418 -0.9234 -0.5375
17442TIP3   OH273740   1.167   1.860  14.580  0.2076  0.3885  0.2062
17442TIP3    H173741   1.172   1.914  14.658  1.0529  1.5250 -0.5996
17442TIP3    H273742   1.160   1.922  14.508  0.0854 -0.6101 -0.6763
17443TIP3   OH273743   3.027   0.764   5.038 -0.0872 -0.2517  0.2911
17443TIP3    H173744   3.063   0.820   5.106 -1.2807  1.6047 -0.4886
17443TIP3    H273745   2.995   0.687   5.084  1.3619 -0.1942  1.4641
17444TIP3   OH273746   2.559   4.930   3.557  0.4484 -0.0487  0.2136
17444TIP3    H173747   2.546   4.949   3.464  1.1973 -0.6704 -0.0241
17444TIP3    H273748   2.533   5.011   3.601 -0.0641  0.2019 -0.5223
17445TIP3   OH273749   3.546   0.362   0.746  0.3850 -0.5821  0.2989
17445TIP3    H173750   3.628   0.411   0.740 -0.3331  0.6217  0.1184
17445TIP3    H273751   3.508   0.389   0.829 -0.0215 -0.8550  0.2043
17446TIP3   OH273752   3.664   1.871   6.406  0.8389 -0.6001 -0.5094
17446TIP3    H173753   3.616   1.805   6.357  1.8521 -1.6880 -0.0976
17446TIP3    H273754   3.739   1.823   6.443  1.5510  0.7630 -0.1240
17447TIP3   OH273755   1.101   5.219   0.639  0.1613  0.7155 -0.1585
17447TIP3    H173756   1.041   5.287   0.608  0.6644  1.2793  0.0680
17447TIP3    H273757   1.129   5.250   0.726 -0.4681 -0.3452  0.4423
17448TIP3   OH273758   6.675   5.591   2.396  0.1892 -0.1751 -0.4578
17448TIP3    H173759   6.622   5.523   2.440 -0.5148  0.4836 -0.2685
17448TIP3    H273760   6.614   5.635   2.338  0.5603  0.5120 -0.3378
17449TIP3   OH273761   6.288   3.740   2.926 -0.3588 -0.5108 -0.1984
17449TIP3    H173762   6.359   3.798   2.899 -0.6221  1.1264  2.2877
17449TIP3    H273763   6.217   3.759   2.864 -0.5105  2.0915  0.6309
17450TIP3   OH273764   2.516   1.424   4.116 -0.0327 -0.0118  0.8442
17450TIP3    H173765   2.429   1.390   4.138  0.0032 -0.8683 -0.2346
17450TIP3    H273766   2.513   1.516   4.142 -1.1498 -0.1117  1.1213
17451TIP3   OH273767   4.472   3.413  13.945  0.3279 -0.2592 -0.2658
17451TIP3    H173768   4.468   3.418  13.850  0.9117  1.1653 -0.2421
17451TIP3    H273769   4.544   3.353  13.963  1.0409  0.4290 -0.7445
17452TIP3   OH273770   2.295   3.018  11.053  0.1385 -0.2660 -0.4972
17452TIP3    H173771   2.344   3.091  11.015 -0.5528  0.2467 -0.4339
17452TIP3    H273772   2.353   2.942  11.044  1.6085  0.6020  1.0329
17453TIP3   OH273773   3.766   6.521  14.635  0.1229  0.8116  0.0768
17453TIP3    H173774   3.699   6.531  14.703  1.1484  3.1766  0.8383
17453TIP3    H273775   3.733   6.451  14.579 -1.8216  0.2844  1.7613
17454TIP3   OH273776   2.076   2.325   3.763 -0.2598 -0.2357 -0.3048
17454TIP3    H173777   2.022   2.362   3.833  0.9629 -0.5192  0.8258
17454TIP3    H273778   2.145   2.278   3.809  2.8925  2.7819 -1.5608
17455TIP3   OH273779   1.513   4.681  10.911 -0.4761  0.3501  0.1873
17455TIP3    H173780   1.519   4.625  10.834  4.4524  1.0859 -0.2458
17455TIP3    H273781   1.474   4.763  10.879  0.1049  0.1169 -1.1772
17456TIP3   OH273782   0.813   2.844   0.747  0.2539 -0.0905 -0.3471
17456TIP3    H173783   0.848   2.874   0.663 -1.5686  0.0106 -1.1172
17456TIP3    H273784   0.797   2.924   0.796 -0.6400 -0.0257 -0.7358
17457TIP3   OH273785   2.603   3.646  15.042  0.4536  0.4589  0.5772
17457TIP3    H173786   2.621   3.674  14.953 -0.2846  0.2759  0.3607
17457TIP3    H273787   2.664   3.574  15.058  0.9240  0.8195  0.3976
17458TIP3   OH273788   5.736   3.610   0.532 -0.5778 -0.0841  0.2025
17458TIP3    H173789   5.663   3.638   0.477 -1.4054  0.5846  1.5932
17458TIP3    H273790   5.738   3.515   0.523  0.0126  0.0799 -1.8135
17459TIP3   OH273791   6.142   4.317   1.661  0.1461  0.0495 -0.2992
17459TIP3    H173792   6.185   4.234   1.680  3.8128  2.0686  1.3422
17459TIP3    H273793   6.174   4.342   1.574 -1.8281 -0.6636 -1.2846
17460TIP3   OH273794   4.180   3.266  11.776 -0.6374  0.0846 -0.1629
17460TIP3    H173795   4.122   3.240  11.848 -1.5215  0.3369 -0.7579
17460TIP3    H273796   4.237   3.191  11.762 -0.5931 -0.0367  0.6730
17461TIP3   OH273797   1.186   0.175  10.862  0.4774 -0.1466 -0.9637
17461TIP3    H173798   1.149   0.088  10.874  2.8113 -1.0364  0.6062
17461TIP3    H273799   1.227   0.172  10.776 -1.1361  0.1352 -1.7823
17462TIP3   OH273800   2.199   3.395   3.511 -0.0770  0.5669  0.3664
17462TIP3    H173801   2.261   3.420   3.442 -1.7918  0.0784 -1.4632
17462TIP3    H273802   2.123   3.452   3.496 -0.2339  0.9454  2.3397
17463TIP3   OH273803   1.173   0.473  13.966 -0.4830 -0.5644  0.1351
17463TIP3    H173804   1.108   0.412  14.001 -1.8627 -0.2007 -1.6229
17463TIP3    H273805   1.257   0.431  13.982 -1.3443 -2.6629 -0.5112
17464TIP3   OH273806   1.398   4.276  11.317 -0.0500  0.9467 -0.0691
17464TIP3    H173807   1.464   4.325  11.365  0.6638 -2.2636  2.6376
17464TIP3    H273808   1.442   4.249  11.237  1.3527  0.3854  0.8551
17465TIP3   OH273809   5.464   3.558   4.644 -0.5544  0.0280  0.1843
17465TIP3    H173810   5.427   3.539   4.557 -0.4201 -1.8258  0.5003
17465TIP3    H273811   5.421   3.496   4.702  2.8639 -2.1622  0.5999
17466TIP3   OH273812   2.534   3.706  16.483  0.3949 -0.5380  0.3214
17466TIP3    H173813   2.615   3.733  16.441 -0.1059  0.1290 -0.2452
17466TIP3    H273814   2.481   3.669  16.412 -0.6120  0.9524  0.2345
17467TIP3   OH273815   2.665   1.286   3.963  0.2850 -0.0730 -0.1600
17467TIP3    H173816   2.593   1.339   3.999 -0.3156  0.5738 -2.1386
17467TIP3    H273817   2.724   1.272   4.036 -0.6940  1.4091  0.9708
17468TIP3   OH273818   0.341   6.000  13.692  0.8440  0.0789 -0.7381
17468TIP3    H173819   0.281   5.987  13.618  1.4999 -1.5269 -1.0321
17468TIP3    H273820   0.328   5.922  13.746  0.1019  1.4019  1.0712
17469TIP3   OH273821   4.519   6.345   0.753  0.0441 -0.7686 -0.0982
17469TIP3    H173822   4.494   6.437   0.763  0.7559 -0.7248  1.7446
17469TIP3    H273823   4.605   6.348   0.711  0.0905 -0.5956  0.0098
17470TIP3   OH273824   4.675   4.829   1.364 -0.0414  0.2048  1.0167
17470TIP3    H173825   4.675   4.874   1.280 -0.4269  0.4426  1.1434
17470TIP3    H273826   4.744   4.871   1.414  2.6772 -2.2090 -0.3739
17471TIP3   OH273827   4.481   4.401  15.220 -0.3902 -0.2055 -0.2310
17471TIP3    H173828   4.450   4.442  15.301 -0.6562 -0.6195 -0.1211
17471TIP3    H273829   4.556   4.348  15.247 -0.5404 -0.4227 -0.2372
17472TIP3   OH273830   4.740   3.080  10.457 -0.1222 -0.3959  0.4870
17472TIP3    H173831   4.768   3.171  10.461 -3.0892  0.6328  0.0535
17472TIP3    H273832   4.806   3.038  10.401  0.3501  1.8890 -0.8290
17473TIP3   OH273833   4.509   5.805  13.368  0.1644  0.5104  0.3585
17473TIP3    H173834   4.479   5.856  13.293  0.0010 -0.6914 -0.4252
17473TIP3    H273835   4.433   5.797  13.425 -0.5625 -0.9771 -0.7446
17474TIP3   OH273836   0.789   2.650  13.750  0.6034  0.9125 -0.2032
17474TIP3    H173837   0.849   2.585  13.714  0.6720  1.3904 -0.9535
17474TIP3    H273838   0.799   2.727  13.695 -3.2878 -0.1175 -2.7727
17475TIP3   OH273839   3.437   6.084  13.005 -0.3533  0.0482  0.2618
17475TIP3    H173840   3.377   6.050  12.937  1.4154  0.0142 -1.3692
17475TIP3    H273841   3.385   6.082  13.085 -2.6533  0.3769 -1.1271
17476TIP3   OH273842   0.963   3.187  17.162 -0.2799  0.0821 -0.4644
17476TIP3    H173843   1.020   3.234  17.101  1.1082  0.7347  1.2599
17476TIP3    H273844   0.920   3.256  17.213  1.3667 -0.4014  1.7249
17477TIP3   OH273845   0.513   3.872  15.620 -0.3003 -0.2225  0.0804
17477TIP3    H173846   0.445   3.825  15.572 -1.8626  2.2235 -0.2819
17477TIP3    H273847   0.471   3.900  15.701  1.3529 -1.5346  1.4748
17478TIP3   OH273848   1.415   4.680  13.986 -0.2654 -0.6087  0.4402
17478TIP3    H173849   1.333   4.702  14.031 -0.3096  1.0499 -0.3752
17478TIP3    H273850   1.480   4.673  14.056 -0.7111  0.0436  0.9313
17479TIP3   OH273851   3.685   0.269   5.185  0.1538  0.0432  0.2384
17479TIP3    H173852   3.605   0.322   5.193  0.9748  1.5524 -1.0763
17479TIP3    H273853   3.733   0.286   5.266  0.6563  1.8139 -0.3798
17480TIP3   OH273854   3.301   6.117   0.694 -0.8396 -0.3456 -0.1269
17480TIP3    H173855   3.331   6.183   0.633 -1.1064  0.9891  1.1315
17480TIP3    H273856   3.382   6.074   0.724 -0.3061  1.5202  1.3342
17481TIP3   OH273857   2.762   6.504  11.943  0.3456 -0.2063  0.1091
17481TIP3    H173858   2.757   6.451  12.023 -0.2292 -0.1835  0.0978
17481TIP3    H273859   2.796   6.445  11.876  0.8134 -0.2318  0.3666
17482TIP3   OH273860   3.850   1.638   2.772  0.2936 -0.0626 -0.5162
17482TIP3    H173861   3.918   1.589   2.818 -0.9887 -1.6483 -0.2044
17482TIP3    H273862   3.860   1.612   2.680  0.5024  0.2015 -0.5693
17483TIP3   OH273863   5.167   6.012  13.082  0.2065 -0.2947  0.3559
17483TIP3    H173864   5.185   5.940  13.021 -1.0675 -0.3893  0.0597
17483TIP3    H273865   5.112   6.072  13.032 -0.4138 -0.1109  1.2278
17484TIP3   OH273866   4.924   6.060  14.963 -0.7290 -0.8174 -0.3476
17484TIP3    H173867   4.876   6.016  14.893 -0.8923 -1.8244  0.3770
17484TIP3    H273868   4.984   6.119  14.918  0.0675 -2.3682 -1.4011
17485TIP3   OH273869   5.877   0.597  16.252  0.1436  1.0809 -0.8756
17485TIP3    H173870   5.937   0.657  16.207  0.5838  0.1105 -1.6313
17485TIP3    H273871   5.863   0.525  16.190  1.9099 -1.0572  0.9854
17486TIP3   OH273872   5.200   4.075   4.546 -0.1669  1.1202 -0.0695
17486TIP3    H173873   5.144   4.152   4.557 -0.9783  0.6622 -0.9735
17486TIP3    H273874   5.144   4.009   4.507  0.6992  0.2647  0.0941
17487TIP3   OH273875   4.227   5.989  15.259 -0.0963 -0.7343  0.0413
17487TIP3    H173876   4.237   6.084  15.252 -0.0305 -0.7550 -0.1454
17487TIP3    H273877   4.243   5.956  15.171  2.4355 -1.1432  0.5737
17488TIP3   OH273878   0.690   3.243   4.468  0.1566 -0.2949  0.8023
17488TIP3    H173879   0.742   3.188   4.525  0.1671  0.0946  1.1754
17488TIP3    H273880   0.751   3.308   4.434  0.4231 -1.2704 -0.6497
17489TIP3   OH273881   4.299   3.915   1.406 -0.1982  0.0790 -0.2003
17489TIP3    H173882   4.282   3.944   1.495  1.4124  1.2900 -0.2211
17489TIP3    H273883   4.338   3.828   1.415  0.5276  0.4491  0.3463
17490TIP3   OH273884   3.858   1.042   3.021  0.0349 -0.2708  0.1700
17490TIP3    H173885   3.779   1.049   3.074 -0.2667  0.6116 -0.3743
17490TIP3    H273886   3.829   1.000   2.940 -0.7850  3.4004 -1.6640
17491TIP3   OH273887   0.930   5.707   1.934  0.1080 -0.0493 -0.4800
17491TIP3    H173888   0.886   5.658   2.003  1.3138 -0.6831 -0.1379
17491TIP3    H273889   0.943   5.794   1.971  2.5538 -0.9172  0.9563
17492TIP3   OH273890   3.047   0.246  13.950  0.1760 -0.2918 -0.0033
17492TIP3    H173891   2.992   0.297  14.009  0.8305 -0.8212  1.0854
17492TIP3    H273892   3.120   0.304  13.929 -0.3166  0.0864 -0.7432
17493TIP3   OH273893   1.875   2.758   3.392 -0.2642  0.0457  0.1235
17493TIP3    H173894   1.856   2.693   3.324  1.5221 -0.6572  0.2260
17493TIP3    H273895   1.790   2.791   3.419 -1.2034 -1.9961 -0.1904
17494TIP3   OH273896   4.521   5.479   1.684 -0.0684  0.0637  0.0502
17494TIP3    H173897   4.499   5.428   1.606 -2.8824  1.0430  0.0992
17494TIP3    H273898   4.526   5.414   1.754 -1.7585 -0.4004 -0.2186
17495TIP3   OH273899   2.790   2.750  14.506 -0.1294  0.0442 -0.6543
17495TIP3    H173900   2.794   2.809  14.581  1.0479  0.2836 -0.8844
17495TIP3    H273901   2.879   2.717  14.497 -0.4922 -0.8047 -1.3048
17496TIP3   OH273902   3.778   2.796  14.850 -0.2293  0.2420 -0.6303
17496TIP3    H173903   3.829   2.876  14.835 -1.3730  0.8513 -1.4410
17496TIP3    H273904   3.735   2.779  14.766 -0.8299 -0.6373 -0.1637
17497TIP3   OH273905   3.878   4.170  16.745 -0.4232 -0.0759 -0.6965
17497TIP3    H173906   3.826   4.135  16.817  1.0492 -1.4375 -0.2534
17497TIP3    H273907   3.893   4.262  16.768 -0.0707 -0.4647  0.6848
17498TIP3   OH273908   1.455   3.120  11.502  0.2333  0.1588  0.2362
17498TIP3    H173909   1.379   3.167  11.536 -0.5171 -2.3068  2.2581
17498TIP3    H273910   1.422   3.072  11.426 -0.3128 -0.9746  1.1607
17499TIP3   OH273911   1.756   5.242  16.530 -0.0789 -0.4195 -0.3751
17499TIP3    H173912   1.692   5.265  16.463 -0.2473  0.6841  0.1294
17499TIP3    H273913   1.715   5.170  16.578  0.0084 -1.1529 -1.3948
17500TIP3   OH273914   1.930   6.474   5.771 -0.2133 -0.8155  0.2495
17500TIP3    H173915   2.013   6.465   5.817  0.0498 -4.1556 -0.6449
17500TIP3    H273916   1.863   6.465   5.839  0.1295  0.2596  0.7443
17501TIP3   OH273917   3.053   2.265  13.671  0.1004 -0.0093 -0.6021
17501TIP3    H173918   3.050   2.171  13.651  2.2958 -0.0587 -0.9218
17501TIP3    H273919   3.135   2.295  13.632 -1.0082  2.2643 -1.3108
17502TIP3   OH273920   5.173   0.746   4.197  0.0473  0.2667  0.2073
17502TIP3    H173921   5.139   0.690   4.267 -0.9698 -0.2434 -0.6723
17502TIP3    H273922   5.189   0.687   4.124  0.4626  0.8927 -0.2226
17503TIP3   OH273923   6.163   1.328  14.691 -0.2539  0.1314 -0.4631
17503TIP3    H173924   6.224   1.378  14.636  0.3525  0.5294  0.5537
17503TIP3    H273925   6.166   1.371  14.776  1.8127 -2.7749  1.0721
17504TIP3   OH273926   0.264   2.639   0.561 -0.5693 -0.5056  0.2307
17504TIP3    H173927   0.346   2.608   0.601  2.2973  0.9774 -3.8182
17504TIP3    H273928   0.242   2.571   0.497 -1.6071 -0.0895  0.1274
17505TIP3   OH273929   2.949   2.483  12.401  0.1035  0.0141 -0.1208
17505TIP3    H173930   2.911   2.430  12.331  0.8794 -0.8032  0.0621
17505TIP3    H273931   2.874   2.509  12.455 -0.2397 -1.4384  0.1496
17506TIP3   OH273932   2.719   4.158  14.312  0.1620 -0.1988 -0.5704
17506TIP3    H173933   2.794   4.102  14.336 -0.9815 -2.4645 -1.9111
17506TIP3    H273934   2.661   4.153  14.388  0.8857  0.7328  0.0647
17507TIP3   OH273935   5.028   1.419  11.260  0.0631  0.1061  0.0477
17507TIP3    H173936   4.945   1.411  11.213 -0.2360  0.6595  0.4600
17507TIP3    H273937   5.084   1.351  11.223 -0.8235 -0.7841  0.2919
17508TIP3   OH273938   3.323   1.101  11.718 -0.0472  0.5752  0.0584
17508TIP3    H173939   3.358   1.063  11.798 -0.5733 -1.3620 -0.5743
17508TIP3    H273940   3.228   1.099  11.729 -0.2218 -1.3695 -1.2494
17509TIP3   OH273941   2.490   5.786  16.259 -0.7530  0.4039  0.3228
17509TIP3    H173942   2.463   5.877  16.271 -0.6828  0.3381  1.0116
17509TIP3    H273943   2.554   5.789  16.188 -0.4246  0.9536  0.6393
17510TIP3   OH273944   3.471   2.752   4.684 -0.2318 -0.9491 -0.4456
17510TIP3    H173945   3.478   2.773   4.777 -0.6256  0.5095 -0.7203
17510TIP3    H273946   3.561   2.736   4.657  0.0769  0.0741 -0.1102
17511TIP3   OH273947   3.214   2.858   0.626 -0.0388 -0.5318 -0.6438
17511TIP3    H173948   3.259   2.806   0.560 -0.1564 -0.3365 -0.8796
17511TIP3    H273949   3.214   2.802   0.704  0.8630 -0.4205 -0.5506
17512TIP3   OH273950   6.086   3.146  17.228 -0.1148 -0.2717 -0.1834
17512TIP3    H173951   6.155   3.142  17.162 -1.1606 -0.7739 -1.3004
17512TIP3    H273952   6.018   3.087  17.195 -0.0729 -1.7389  2.1009
17513TIP3   OH273953   1.396   1.210  16.797  0.0413 -0.0114  0.4705
17513TIP3    H173954   1.326   1.155  16.832 -1.4279  0.2098 -1.9372
17513TIP3    H273955   1.354   1.295  16.782  1.3889  0.7626  0.8687
17514TIP3   OH273956   5.872   6.371   2.895  0.6204 -0.1473 -0.7439
17514TIP3    H173957   5.841   6.444   2.841  1.1768  1.2364  0.7174
17514TIP3    H273958   5.958   6.400   2.927 -0.3051 -0.1874  2.0828
17515TIP3   OH273959   6.746   3.257   0.587 -0.1136  0.6242  0.4746
17515TIP3    H173960   6.756   3.220   0.499  0.0850  3.2204 -0.6955
17515TIP3    H273961   6.830   3.241   0.630  0.3434  0.6682 -0.3851
17516TIP3   OH273962   1.736   2.075   4.673  0.3824 -0.3202  0.3175
17516TIP3    H173963   1.764   2.075   4.765  0.2882  0.9615  0.3603
17516TIP3    H273964   1.641   2.085   4.678  0.5110  1.1411  0.0640
17517TIP3   OH273965   3.092   6.154  12.730 -0.0293  0.0139 -0.7185
17517TIP3    H173966   3.116   6.197  12.812  0.2718 -0.2132 -0.6861
17517TIP3    H273967   3.175   6.149  12.681 -0.1969  0.0996 -1.0122
17518TIP3   OH273968   1.519   2.983  15.128  0.5211  0.0750 -0.6951
17518TIP3    H173969   1.509   3.058  15.069  0.3093 -0.8204 -1.8409
17518TIP3    H273970   1.585   2.928  15.086 -0.5924 -1.2350 -0.8397
17519TIP3   OH273971   5.948   1.719  15.660 -0.1453 -0.4970 -0.1875
17519TIP3    H173972   5.962   1.797  15.607 -1.8017  1.1397  1.5963
17519TIP3    H273973   6.034   1.701  15.699 -0.2062  2.0867  1.3889
17520TIP3   OH273974   3.601   4.006  11.830  0.1213  0.3546  0.3627
17520TIP3    H173975   3.649   4.033  11.908 -1.3741 -0.4968  1.6364
17520TIP3    H273976   3.524   4.063  11.828 -0.6487 -0.6543  0.4120
17521TIP3   OH273977   3.001   4.616   3.059 -1.0214  0.4236  0.1313
17521TIP3    H173978   2.992   4.672   3.137  0.7955  0.9711 -0.0042
17521TIP3    H273979   2.979   4.528   3.090 -0.0737  0.5910  1.3652
17522TIP3   OH273980   2.018   1.019  12.343  0.1744 -0.4208  0.4185
17522TIP3    H173981   2.044   1.049  12.256 -0.4744 -3.0327 -0.7890
17522TIP3    H273982   1.948   1.078  12.370  2.7882  2.7624  0.9377
17523TIP3   OH273983   5.646   0.375  16.390  0.1044 -0.0894 -0.0482
17523TIP3    H173984   5.678   0.403  16.475 -1.4760 -1.5595  1.0930
17523TIP3    H273985   5.567   0.325  16.409 -1.0156  0.5842 -2.4745
17524TIP3   OH273986   0.717   6.294   2.263 -0.3570  0.5644 -0.0983
17524TIP3    H173987   0.705   6.337   2.348 -0.2781  0.0404  0.1790
17524TIP3    H273988   0.634   6.249   2.247 -0.2991  0.4965 -0.2085
17525TIP3   OH273989   4.654   3.158   1.849 -0.3601  0.1168 -0.4818
17525TIP3    H173990   4.594   3.153   1.775 -0.1949  2.5501 -0.8730
17525TIP3    H273991   4.605   3.204   1.918  0.3973  0.4234 -0.1224
17526TIP3   OH273992   3.294   3.791  13.832 -0.3545 -0.2288  0.0665
17526TIP3    H173993   3.242   3.866  13.806  0.8448  0.5770 -0.1020
17526TIP3    H273994   3.379   3.828  13.857  0.3445 -1.5458 -0.2508
17527TIP3   OH273995   2.996   2.915  14.262 -0.0711  0.1080 -0.2848
17527TIP3    H173996   3.004   2.981  14.193 -0.9090  0.5535  0.0256
17527TIP3    H273997   2.913   2.870  14.243  1.0933 -1.7777 -1.2608
17528TIP3   OH273998   6.029   4.327   4.647 -0.0432 -0.3663 -0.0728
17528TIP3    H173999   6.046   4.255   4.708  0.7885  0.4015  0.6463
17528TIP3    H274000   6.035   4.406   4.702  0.2037  0.3124 -1.0534
17529TIP3   OH274001   1.531   2.380  16.614  0.1490 -0.2134 -1.1782
17529TIP3    H174002   1.451   2.342  16.579  0.5324 -0.7411 -1.4908
17529TIP3    H274003   1.601   2.345  16.559  0.7069 -0.6333 -0.2344
17530TIP3   OH274004   5.332   1.376   0.929  0.3994  0.1537 -0.4410
17530TIP3    H174005   5.386   1.356   1.006  2.5151 -0.3537 -1.9776
17530TIP3    H274006   5.305   1.291   0.896  1.4300  0.2351 -1.5429
17531TIP3   OH274007   5.035   4.829   5.692 -0.0667 -0.4928 -0.0227
17531TIP3    H174008   5.120   4.857   5.658  0.2889  2.0370  2.5686
17531TIP3    H274009   5.056   4.754   5.748  0.3588 -0.2143  0.1942
17532TIP3   OH274010   0.165   4.860   3.166 -0.0736  1.2514  0.0886
17532TIP3    H174011   0.237   4.824   3.115 -0.6412  1.3189 -0.7772
17532TIP3    H274012   0.087   4.845   3.113 -0.6422  1.6191  0.7881
17533TIP3   OH274013   2.644   1.533  13.031 -0.3150  0.2071 -0.1935
17533TIP3    H174014   2.719   1.544  12.972 -0.1317  1.7868  0.3077
17533TIP3    H274015   2.650   1.606  13.092 -1.7089 -0.2124  0.4819
17534TIP3   OH274016   2.940   2.690   2.814  0.1659 -0.1656 -0.2677
17534TIP3    H174017   2.907   2.723   2.731 -1.3453 -0.8592  0.0353
17534TIP3    H274018   2.962   2.769   2.864 -1.8039  0.4011 -0.2007
17535TIP3   OH274019   2.132   2.516  12.662  0.1558 -0.3235 -0.0176
17535TIP3    H174020   2.146   2.557  12.747  2.1231 -0.6636 -0.1347
17535TIP3    H274021   2.198   2.555  12.605  0.1669 -1.5259 -0.8765
17536TIP3   OH274022   5.452   5.447   3.252  0.3032 -0.2721  0.1027
17536TIP3    H174023   5.518   5.481   3.312  0.5400 -0.5472  0.0019
17536TIP3    H274024   5.397   5.523   3.231  0.8687  0.0715 -0.1787
17537TIP3   OH274025   1.048   0.554   0.544  0.0760 -0.1461  0.1168
17537TIP3    H174026   1.116   0.487   0.542 -0.4201 -0.6677  0.4339
17537TIP3    H274027   1.089   0.628   0.589  0.1025 -0.8490  1.3097
17538TIP3   OH274028   6.224   1.999  16.355 -0.7492  0.2421 -0.2664
17538TIP3    H174029   6.294   1.933  16.355 -0.8024  0.1871  0.3683
17538TIP3    H274030   6.196   2.003  16.263 -0.9240 -0.8074 -0.2663
17539TIP3   OH274031   1.690   5.665  15.223 -0.0759 -0.1835  0.0777
17539TIP3    H174032   1.596   5.650  15.222 -0.1412  0.2183 -0.1649
17539TIP3    H274033   1.710   5.698  15.135  0.1494  0.5481  0.3952
17540TIP3   OH274034   2.853   3.452   1.075 -0.2132  0.1219 -0.1062
17540TIP3    H174035   2.898   3.368   1.067 -0.4902 -0.3516  2.5695
17540TIP3    H274036   2.918   3.516   1.046  0.6971 -0.8725 -0.3170
17541TIP3   OH274037   0.945   0.765   2.020  0.0483  0.4080 -0.6366
17541TIP3    H174038   0.860   0.722   2.009 -0.4072  0.2582  2.5548
17541TIP3    H274039   1.008   0.694   2.027  0.4118  0.5114 -2.2909
17542TIP3   OH274040   4.155   4.122  11.490 -0.3768  0.4590 -0.5084
17542TIP3    H174041   4.235   4.072  11.469 -0.7550  0.0017 -0.8872
17542TIP3    H274042   4.105   4.063  11.546  0.1343  1.2538  0.8319
17543TIP3   OH274043   0.471   0.521  14.343  0.0898  0.2859  0.1041
17543TIP3    H174044   0.406   0.499  14.409 -0.8595  2.8427  0.1288
17543TIP3    H274045   0.517   0.598  14.378  2.0128 -0.4351 -0.6680
17544TIP3   OH274046   1.614   4.324  12.293 -0.2378 -0.3267  0.1910
17544TIP3    H174047   1.585   4.313  12.384  1.6205  1.1408  1.0442
17544TIP3    H274048   1.629   4.235  12.262 -0.7941 -0.8593  1.3655
17545TIP3   OH274049   1.841   5.095   5.587 -0.4401 -0.2580 -0.1049
17545TIP3    H174050   1.764   5.151   5.601  0.7007  0.6406  3.4729
17545TIP3    H274051   1.806   5.006   5.594 -1.7200 -0.0412 -2.5515
17546TIP3   OH274052   3.115   2.845   4.778  0.1926 -0.0070 -0.5325
17546TIP3    H174053   3.117   2.940   4.766  0.1407 -0.0763 -1.1625
17546TIP3    H274054   3.108   2.811   4.689 -1.1730 -0.5549 -0.2490
17547TIP3   OH274055   5.801   3.255  12.735  0.0888 -0.3972 -0.1422
17547TIP3    H174056   5.841   3.324  12.681 -0.5963  0.9754  1.0175
17547TIP3    H274057   5.778   3.186  12.673  1.8944 -0.1292 -1.1880
17548TIP3   OH274058   0.669   4.888  11.133 -0.2535  0.1537  0.2861
17548TIP3    H174059   0.711   4.973  11.120  2.2362 -1.1005 -0.5324
17548TIP3    H274060   0.644   4.860  11.045  1.5467 -1.1327  0.1185
17549TIP3   OH274061   3.088   4.430  13.965 -0.5835  0.0263  0.1676
17549TIP3    H174062   3.040   4.352  13.934 -0.6976 -0.2755  1.0778
17549TIP3    H274063   3.069   4.497  13.899 -1.3087 -0.4263 -0.1029
17550TIP3   OH274064   2.250   2.549   0.042 -1.3799 -0.2025 -0.0997
17550TIP3    H174065   2.246   2.642   0.064  2.6839  0.2617 -0.5531
17550TIP3    H274066   2.252   2.505   0.127 -0.4749  0.3951  0.2095
17551TIP3   OH274067   6.546   6.215  12.284 -0.1046 -0.5854  0.1698
17551TIP3    H174068   6.582   6.266  12.357 -1.2852 -1.7175  1.5973
17551TIP3    H274069   6.453   6.206  12.304 -0.0227 -2.8582 -0.2908
17552TIP3   OH274070   5.742   4.427   2.704 -0.2619  0.2612  0.4548
17552TIP3    H174071   5.782   4.511   2.684  1.8998 -0.1534  2.5008
17552TIP3    H274072   5.683   4.445   2.777 -2.3198  0.4923 -1.1885
17553TIP3   OH274073   1.381   4.612   5.347 -0.6876 -0.2087  0.0318
17553TIP3    H174074   1.361   4.519   5.331 -3.5787 -0.2631  2.8841
17553TIP3    H274075   1.340   4.658   5.274 -0.9814 -1.0575 -0.3539
17554TIP3   OH274076   4.662   3.152   4.806  0.5586 -0.3350 -0.0440
17554TIP3    H174077   4.601   3.105   4.861  2.2082 -0.4146  1.8305
17554TIP3    H274078   4.614   3.170   4.725 -2.0923  0.1165  1.5370
17555TIP3   OH274079   2.857   5.538  14.735  0.4517 -0.1020  0.2677
17555TIP3    H174080   2.927   5.599  14.758  0.4397  0.2765 -0.6450
17555TIP3    H274081   2.896   5.452  14.747  0.6766  0.0922  0.9585
17556TIP3   OH274082   5.879   3.138   4.622 -0.4593  0.7289 -0.2538
17556TIP3    H174083   5.844   3.143   4.533 -0.0966  0.7028 -0.3996
17556TIP3    H274084   5.945   3.069   4.619 -0.6700  0.5000  0.1181
17557TIP3   OH274085   4.746   4.207  12.232 -0.4434 -0.3089  0.5009
17557TIP3    H174086   4.803   4.187  12.158 -0.3389 -1.9709  0.9904
17557TIP3    H274087   4.804   4.206  12.308 -0.7598  0.1993  0.7541
17558TIP3   OH274088   3.910   6.197   6.027 -0.1907  0.0695  0.4911
17558TIP3    H174089   3.824   6.187   5.986  0.5716 -1.8207 -0.8021
17558TIP3    H274090   3.891   6.208   6.120 -1.8429 -0.3367  0.2407
17559TIP3   OH274091   6.528   2.349   0.768 -0.7017 -0.0949  0.3877
17559TIP3    H174092   6.541   2.434   0.810  0.5604 -0.2767  0.3896
17559TIP3    H274093   6.572   2.357   0.683 -0.3369 -0.8321  0.4998
17560TIP3   OH274094   3.531   1.152  13.883  0.0467  0.3464 -0.2115
17560TIP3    H174095   3.513   1.186  13.971  1.0519  0.6788 -0.1203
17560TIP3    H274096   3.447   1.157  13.837 -0.1290  1.6879  0.2262
17561TIP3   OH274097   0.719   3.166  11.159  0.5000 -0.0617 -0.3158
17561TIP3    H174098   0.699   3.124  11.075  1.1780  1.6531 -1.3980
17561TIP3    H274099   0.754   3.252  11.135  1.5422  0.1485  1.7100
17562TIP3   OH274100   6.338   0.924   3.082 -0.3803  0.2495 -0.0965
17562TIP3    H174101   6.402   0.853   3.089  0.5045  1.0016 -0.3586
17562TIP3    H274102   6.364   0.986   3.151 -3.1722 -1.1843  2.4754
17563TIP3   OH274103   0.181   4.174  14.523 -1.0829 -0.3464  0.0278
17563TIP3    H174104   0.128   4.181  14.444 -0.1606  3.6075 -0.4320
17563TIP3    H274105   0.134   4.227  14.588 -1.4996 -2.9924  2.0641
17564TIP3   OH274106   4.077   3.009   4.768  0.2964  0.0263  0.3012
17564TIP3    H174107   4.053   2.929   4.815 -0.2981  0.5547  0.9243
17564TIP3    H274108   4.095   2.981   4.679 -2.8551 -0.4083 -0.2942
17565TIP3   OH274109   1.362   2.615  15.208  0.3589 -0.1486 -0.6988
17565TIP3    H174110   1.419   2.571  15.272 -0.3099  0.1374  0.1210
17565TIP3    H274111   1.383   2.573  15.125 -0.5513 -2.3653  0.1117
17566TIP3   OH274112   4.061   6.170   1.319  0.3111 -0.0276 -0.2568
17566TIP3    H174113   4.039   6.077   1.323  0.6302 -0.0888  0.1023
17566TIP3    H274114   4.141   6.174   1.268  0.6074 -0.0060  0.2069
17567TIP3   OH274115   0.656   5.555  14.291  0.2216 -0.1084  0.4159
17567TIP3    H174116   0.597   5.630  14.301  1.9223  1.0697  2.3525
17567TIP3    H274117   0.682   5.557  14.199 -1.2414  0.4668 -0.0242
17568TIP3   OH274118   1.840   0.472  11.673  0.0493 -0.2699 -0.0923
17568TIP3    H174119   1.899   0.459  11.747  0.8477  2.4113 -0.1607
17568TIP3    H274120   1.765   0.415  11.692  0.6121 -0.3139  2.3368
17569TIP3   OH274121   3.067   6.187  11.985  0.2229 -0.0418 -0.0734
17569TIP3    H174122   3.131   6.222  12.048 -0.0873  0.7316 -0.1724
17569TIP3    H274123   2.987   6.177  12.036  0.7407 -2.3339  0.4044
17570TIP3   OH274124   1.421   0.577   2.334 -0.1960 -0.3863  0.3764
17570TIP3    H174125   1.380   0.663   2.321  2.1830  0.4619 -2.7266
17570TIP3    H274126   1.351   0.514   2.316 -1.0875  0.9530 -1.0802
17571TIP3   OH274127   5.013   6.543   2.420  0.4476  0.1837 -0.2063
17571TIP3    H174128   5.102   6.510   2.404  1.2421  1.0063  2.0444
17571TIP3    H274129   4.962   6.511   2.346  1.3637 -5.0813  0.9812
17572TIP3   OH274130   6.368   3.415  16.266  0.4043 -0.1966 -0.1227
17572TIP3    H174131   6.300   3.411  16.199 -1.7857  0.7767  1.9018
17572TIP3    H274132   6.378   3.325  16.296  1.3471 -0.6239 -1.6475
17573TIP3   OH274133   6.187   4.052  14.725 -0.4992 -0.4331 -0.4891
17573TIP3    H174134   6.131   4.008  14.789  0.3064 -0.4983  0.1845
17573TIP3    H274135   6.247   4.105  14.778 -0.6604  0.5260 -1.2432
17574TIP3   OH274136   6.023   1.369  16.189 -0.2674 -0.4321 -0.5000
17574TIP3    H174137   5.933   1.368  16.221  0.3504 -0.8691  1.3960
17574TIP3    H274138   6.060   1.286  16.221  1.5994  1.0014  1.3437
17575TIP3   OH274139   0.564   0.652   4.243  0.0940 -0.3165 -0.0851
17575TIP3    H174140   0.582   0.744   4.225 -0.4536  0.1376  1.5165
17575TIP3    H274141   0.650   0.612   4.252  0.3378  0.3937  0.8208
17576TIP3   OH274142   0.137   6.546   3.828 -0.0265  0.6696  0.1309
17576TIP3    H174143   0.049   6.584   3.829 -0.4412 -0.0223 -2.8917
17576TIP3    H274144   0.171   6.566   3.741  2.6648  0.4856  1.0480
17577TIP3   OH274145   5.831   3.793  17.004 -0.0478 -0.0396  0.4334
17577TIP3    H174146   5.841   3.717  17.061  1.4813 -0.3525 -0.2214
17577TIP3    H274147   5.762   3.768  16.943 -0.1556 -0.5533  0.7593
17578TIP3   OH274148   0.632   6.754  12.414  0.0037  0.5196  0.5482
17578TIP3    H174149   0.643   6.673  12.363  0.8056  0.8134  0.2451
17578TIP3    H274150   0.588   6.814  12.354  1.0828  0.9149  0.1440
17579TIP3   OH274151   4.292   2.091   2.247 -0.0074 -0.0455  0.2307
17579TIP3    H174152   4.197   2.082   2.249  0.0939 -2.3846 -1.2615
17579TIP3    H274153   4.314   2.100   2.154  1.2622  0.0351  0.5104
17580TIP3   OH274154   6.139   2.417  11.727 -0.8333 -0.2080  0.3423
17580TIP3    H174155   6.113   2.328  11.749 -1.1362 -0.1721  0.1258
17580TIP3    H274156   6.113   2.429  11.636  0.2757 -0.3002 -0.0066
17581TIP3   OH274157   6.618   5.976   4.227  0.1182 -0.1061  0.2935
17581TIP3    H174158   6.566   6.032   4.284 -1.1535 -0.9354  0.0012
17581TIP3    H274159   6.599   6.007   4.138  1.4955  0.6913  0.2497
17582TIP3   OH274160   5.098   1.292  13.468 -0.1029  0.0896  0.2024
17582TIP3    H174161   5.137   1.252  13.546 -0.0860  1.4314  0.9213
17582TIP3    H274162   5.163   1.278  13.399  1.4076  1.6293  1.2082
17583TIP3   OH274163   3.482   5.737   5.260 -0.4679 -0.0075 -0.5004
17583TIP3    H174164   3.486   5.728   5.165  0.8477  0.1045 -0.4681
17583TIP3    H274165   3.471   5.831   5.275 -0.4814 -0.0045 -0.5286
17584TIP3   OH274166   4.224   3.234  15.870 -0.2743  0.0764 -0.6989
17584TIP3    H174167   4.311   3.266  15.846 -0.3474 -0.4162 -1.6565
17584TIP3    H274168   4.172   3.314  15.884 -0.0278  0.3694 -1.4465
17585TIP3   OH274169   6.461   5.793  13.852  0.1548  0.6095  0.2509
17585TIP3    H174170   6.490   5.813  13.940  1.7826  0.1059 -0.1395
17585TIP3    H274171   6.526   5.834  13.795 -0.4279  0.2708 -0.6911
17586TIP3   OH274172   4.590   1.106  15.669 -0.2664  0.2409 -0.2669
17586TIP3    H174173   4.588   1.164  15.745 -1.1148 -0.1935  0.0611
17586TIP3    H274174   4.514   1.133  15.617 -0.4686 -0.3427 -0.2790
17587TIP3   OH274175   3.386   0.698  11.601 -0.2202 -0.4586  0.1867
17587TIP3    H174176   3.306   0.669  11.558 -0.8284  1.2816  0.0675
17587TIP3    H274177   3.393   0.643  11.678 -2.4549  0.4068  1.0909
17588TIP3   OH274178   3.909   2.031  13.335 -0.5062 -0.0414  0.7718
17588TIP3    H174179   3.836   2.075  13.380 -2.3519 -1.5555 -0.6090
17588TIP3    H274180   3.908   1.942  13.369  1.5443  0.2019  1.6204
17589TIP3   OH274181   6.073   1.536  16.704  0.6249  0.2275 -0.3439
17589TIP3    H174182   6.048   1.447  16.680  1.7414  0.3403 -2.1120
17589TIP3    H274183   6.020   1.592  16.647 -0.3912  0.7481  1.0603
17590TIP3   OH274184   6.222   5.995   2.275 -0.3041  0.1965 -0.1268
17590TIP3    H174185   6.246   6.001   2.367 -0.7718 -0.2337  0.0243
17590TIP3    H274186   6.164   5.920   2.269 -2.2043  1.5959 -0.3422
17591TIP3   OH274187   0.301   5.983  12.893 -0.6070  0.2974  0.2252
17591TIP3    H174188   0.389   6.017  12.877 -0.7219  0.4083 -0.1795
17591TIP3    H274189   0.247   6.060  12.909 -0.6403  0.2318  0.4348
17592TIP3   OH274190   0.500   6.562  14.013 -0.0636  0.3919 -0.2206
17592TIP3    H174191   0.481   6.495  13.948 -0.5448 -1.1101  1.3947
17592TIP3    H274192   0.585   6.537  14.049  0.0168  0.9795  0.0115
17593TIP3   OH274193   2.897   1.047  15.762 -0.3595 -0.0066 -0.2544
17593TIP3    H174194   2.835   1.097  15.815  0.8838  1.1156  0.2124
17593TIP3    H274195   2.858   0.960  15.754 -3.1414  1.2866 -2.0144
17594TIP3   OH274196   0.802   0.973   2.792  0.2430 -0.4299 -0.2049
17594TIP3    H174197   0.882   0.999   2.837 -0.4680  0.9557  0.3102
17594TIP3    H274198   0.736   1.035   2.822 -0.7510 -0.7848 -1.5525
17595TIP3   OH274199   1.126   6.171  15.067 -0.2358 -0.2747  0.6823
17595TIP3    H174200   1.089   6.087  15.095 -0.2748 -0.5342 -0.0934
17595TIP3    H274201   1.216   6.150  15.043 -0.7410 -0.4917 -1.1972
17596TIP3   OH274202   3.038   4.469  16.197  0.7136  0.3500 -0.5174
17596TIP3    H174203   3.065   4.406  16.264  3.2470  0.2852 -1.4754
17596TIP3    H274204   2.980   4.530  16.242 -1.5734 -2.3919  0.5319
17597TIP3   OH274205   3.030   6.484  15.130 -0.3388  0.7512 -0.0553
17597TIP3    H174206   2.966   6.464  15.062  0.2779  1.5761 -0.8903
17597TIP3    H274207   2.979   6.485  15.211 -1.1652  0.2346 -0.5546
17598TIP3   OH274208   4.340   5.222   4.478 -0.2635  0.6755 -0.5450
17598TIP3    H174209   4.417   5.168   4.491 -0.9842 -0.2007  0.2695
17598TIP3    H274210   4.304   5.193   4.394 -0.1515  0.5272 -0.5412
17599TIP3   OH274211   3.622   5.001   1.671  0.0565 -0.2014  0.3853
17599TIP3    H174212   3.674   5.033   1.745 -2.3733  0.4057  1.9298
17599TIP3    H274213   3.545   4.961   1.711 -1.4447  0.3245 -1.8211
17600TIP3   OH274214   2.883   2.129   3.181 -0.6740  0.2201 -0.6985
17600TIP3    H174215   2.841   2.189   3.119  0.2647 -0.3022 -1.8680
17600TIP3    H274216   2.847   2.043   3.161 -2.1646  0.3618  1.1099
17601TIP3   OH274217   0.520   1.118   5.986  0.0247 -0.0640  0.2575
17601TIP3    H174218   0.607   1.148   5.961  0.2507 -1.1107 -0.2355
17601TIP3    H274219   0.517   1.130   6.081  0.6262  0.1623  0.2535
17602TIP3   OH274220   1.849   5.706  12.092  0.2394  0.3943  0.4958
17602TIP3    H174221   1.861   5.681  12.000 -0.1898  2.1150 -0.0787
17602TIP3    H274222   1.912   5.776  12.106  0.0545  0.3842  1.4109
17603TIP3   OH274223   6.388   0.892   0.552  0.0946 -0.5474  0.5411
17603TIP3    H174224   6.319   0.857   0.496 -0.6296  2.8216 -0.8855
17603TIP3    H274225   6.464   0.900   0.494 -0.4329  2.2262  0.0781
17604TIP3   OH274226   5.450   0.837  14.575 -0.0490  0.0781  0.4091
17604TIP3    H174227   5.481   0.890  14.502 -1.1646  1.3979  0.8371
17604TIP3    H274228   5.367   0.800  14.545 -0.7056  0.9317  1.1037
17605TIP3   OH274229   4.133   3.917  13.566  0.2394 -0.3262 -0.5776
17605TIP3    H174230   4.156   3.966  13.486 -0.4609 -1.0185 -1.2180
17605TIP3    H274231   4.168   3.970  13.637 -2.0905  2.1010 -1.1045
17606TIP3   OH274232   0.501   4.790  16.797  0.3360  0.1281 -0.6536
17606TIP3    H174233   0.415   4.784  16.838  0.1474 -0.8714 -1.1730
17606TIP3    H274234   0.483   4.819  16.707  0.3966 -1.4633 -1.2033
17607TIP3   OH274235   1.246   0.940   3.582 -0.2536 -0.5424 -0.9376
17607TIP3    H174236   1.268   1.017   3.530 -1.1113  0.1138 -0.3463
17607TIP3    H274237   1.267   0.866   3.524  0.4749  0.1273 -1.5465
17608TIP3   OH274238   0.915   0.568   3.384 -0.1455 -0.1396 -0.1923
17608TIP3    H174239   0.971   0.617   3.445 -0.3293 -0.8717  0.5882
17608TIP3    H274240   0.903   0.627   3.310  0.0785  0.7877  0.4862
17609TIP3   OH274241   2.418   1.991  12.600 -0.4913 -0.2087 -0.2246
17609TIP3    H174242   2.357   1.924  12.631 -1.8705  1.6591  1.3385
17609TIP3    H274243   2.377   2.074  12.624  2.0983  1.1805 -0.2224
17610TIP3   OH274244   1.972   3.487  17.049 -0.2713 -0.2149  0.6262
17610TIP3    H174245   1.878   3.473  17.053 -0.7518  0.5082 -3.3189
17610TIP3    H274246   1.981   3.575  17.011  1.8602 -1.1805 -1.3408
17611TIP3   OH274247   1.407   6.494  17.202 -0.7912 -0.2838  0.2989
17611TIP3    H174248   1.424   6.577  17.245 -1.9231 -0.0190  0.2612
17611TIP3    H274249   1.454   6.429  17.255 -0.3610  0.3081  0.6419
17612TIP3   OH274250   5.911   5.971   2.917 -0.6402 -0.3996 -0.7478
17612TIP3    H174251   5.922   5.963   2.823  0.0615  2.0385 -0.9447
17612TIP3    H274252   5.962   5.898   2.954 -0.5506 -1.1043 -2.2216
17613TIP3   OH274253   0.039   0.781   5.389  0.1014 -0.0407  0.4818
17613TIP3    H174254   0.052   0.749   5.478  1.7166  0.7351  0.5637
17613TIP3    H274255   0.021   0.874   5.399  0.3209  0.0580  0.0094
17614TIP3   OH274256   4.187   5.798  15.017  0.2925  0.0779 -0.3267
17614TIP3    H174257   4.103   5.787  14.973 -0.7032  1.6438  1.0276
17614TIP3    H274258   4.246   5.736  14.974 -1.4829 -0.8928 -1.4774
17615TIP3   OH274259   0.377   4.305   1.221  0.2471 -0.2342 -0.5084
17615TIP3    H174260   0.375   4.391   1.264  1.3260 -0.5803  0.2821
17615TIP3    H274261   0.442   4.315   1.151  0.8443 -0.5760 -0.0106
17616TIP3   OH274262   4.138   2.413   2.372 -0.0107 -0.0660  0.4714
17616TIP3    H174263   4.195   2.420   2.448 -0.6329  1.9681  0.7922
17616TIP3    H274264   4.197   2.424   2.297  0.4117 -0.8031  0.6883
17617TIP3   OH274265   5.741   1.963   5.247 -0.0552 -0.3608  0.2407
17617TIP3    H174266   5.741   1.922   5.161 -1.5290 -0.0859  0.0726
17617TIP3    H274267   5.760   1.892   5.308  2.0114 -0.3697 -0.3449
17618TIP3   OH274268   0.847   4.945  13.537 -0.0474  0.4583 -0.4909
17618TIP3    H174269   0.802   4.867  13.570  4.1375 -2.3493 -0.7413
17618TIP3    H274270   0.822   4.950  13.445  0.1200 -1.0423 -0.6429
17619TIP3   OH274271   2.682   1.012  12.077 -0.3271  0.4921  0.5424
17619TIP3    H174272   2.749   1.077  12.098  1.1258 -1.3996  2.2146
17619TIP3    H274273   2.714   0.969  11.998 -0.2263  0.4131  0.6265
17620TIP3   OH274274   4.359   0.394  11.991 -0.2866  0.2207 -0.1023
17620TIP3    H174275   4.426   0.456  11.962  0.0054 -0.1470 -0.2210
17620TIP3    H274276   4.383   0.372  12.081 -1.4817  1.7602  0.6523
17621TIP3   OH274277   0.291   2.661   1.796 -0.3653 -0.0276 -0.4009
17621TIP3    H174278   0.335   2.680   1.880  0.3260 -0.9583 -0.5395
17621TIP3    H274279   0.363   2.650   1.734 -0.7779 -1.4443 -0.6653
17622TIP3   OH274280   2.715   0.915   5.457  0.9546 -0.3927 -0.6513
17622TIP3    H174281   2.621   0.901   5.472  0.7435 -0.8749 -2.2586
17622TIP3    H274282   2.758   0.849   5.511  0.4086  0.1670  0.5054
17623TIP3   OH274283   3.280   5.130  12.636  0.3438  0.1227 -0.3173
17623TIP3    H174284   3.325   5.210  12.665 -0.5263  0.5620 -0.1391
17623TIP3    H274285   3.256   5.086  12.717 -1.4698  0.9996 -0.3256
17624TIP3   OH274286   6.160   5.344  12.777 -0.2221 -0.0872  0.0925
17624TIP3    H174287   6.159   5.362  12.683 -0.4268  2.4208  0.4895
17624TIP3    H274288   6.071   5.362  12.806  0.1328  0.4137  0.9371
17625TIP3   OH274289   2.580   0.389   5.149 -0.6552 -0.2993  0.0483
17625TIP3    H174290   2.656   0.435   5.115  0.6839 -1.4851  1.3077
17625TIP3    H274291   2.561   0.431   5.233 -2.0107  0.5903 -0.6563
17626TIP3   OH274292   4.546   5.860  15.281  0.3605  0.1836 -0.2445
17626TIP3    H174293   4.591   5.817  15.353 -0.3799  1.0340  0.7564
17626TIP3    H274294   4.571   5.810  15.203  2.3880  0.1624  0.3790
17627TIP3   OH274295   2.225   6.471  15.183  0.0535 -0.3811 -0.0381
17627TIP3    H174296   2.144   6.429  15.210  1.1944 -1.3703  2.1020
17627TIP3    H274297   2.231   6.549  15.239  0.8030 -0.6041  0.2030
17628TIP3   OH274298   5.356   0.008  14.453  0.0236  0.0641 -0.3290
17628TIP3    H174299   5.306   0.073  14.404  0.4359  0.4385 -0.2500
17628TIP3    H274300   5.444   0.043  14.458 -0.2957  0.7104  1.8677
17629TIP3   OH274301   2.350   3.263  11.596 -0.2502 -0.0443 -0.1756
17629TIP3    H174302   2.258   3.285  11.579 -0.9821 -0.9891  2.1869
17629TIP3    H274303   2.375   3.206  11.523 -1.8419 -0.5459 -0.3612
17630TIP3   OH274304   2.732   0.872  10.286 -0.4169 -0.1652  0.4040
17630TIP3    H174305   2.757   0.955  10.327  1.5828 -1.2959  1.6950
17630TIP3    H274306   2.660   0.894  10.228 -0.2201  2.3925  1.0075
17631TIP3   OH274307   0.791   2.038   6.146  0.6465  0.1592  0.0211
17631TIP3    H174308   0.728   1.971   6.120  0.2294  1.2755 -2.1168
17631TIP3    H274309   0.807   2.021   6.239  0.3669 -2.6779 -0.3558
17632TIP3   OH274310   4.895   5.954   5.233  0.0122 -0.3969  0.3449
17632TIP3    H174311   4.939   5.997   5.158  0.1774  1.3417  1.3719
17632TIP3    H274312   4.956   5.886   5.261  0.6464 -0.0512 -0.1651
17633TIP3   OH274313   2.889   5.804  15.722 -0.2452  0.3206 -0.1956
17633TIP3    H174314   2.899   5.851  15.640  1.3230  1.8606  0.7886
17633TIP3    H274315   2.957   5.736  15.720 -1.6839 -1.1448 -1.0822
17634TIP3   OH274316   4.718   3.642   5.122 -0.3203  0.0358  0.6087
17634TIP3    H174317   4.648   3.601   5.071  1.5552 -1.8457 -0.6484
17634TIP3    H274318   4.761   3.702   5.060  0.0739  0.0473  0.8884
17635TIP3   OH274319   6.708   3.533  13.521 -0.5381 -0.5300 -0.0017
17635TIP3    H174320   6.664   3.548  13.438  1.4887  0.5108 -0.9451
17635TIP3    H274321   6.772   3.464  13.503 -0.2912 -0.5187  0.7679
17636TIP3   OH274322   4.369   3.134  16.762  0.4429 -0.3735  0.1177
17636TIP3    H174323   4.453   3.094  16.741  1.1593  2.1225 -2.3795
17636TIP3    H274324   4.332   3.160  16.677 -1.6035  0.9763  1.3118
17637TIP3   OH274325   2.046   0.636  14.254  0.1293  0.4531  0.4763
17637TIP3    H174326   2.123   0.639  14.197 -0.9235  0.2246 -0.9951
17637TIP3    H274327   1.971   0.646  14.195 -1.0627 -0.8278  1.6939
17638TIP3   OH274328   4.700   3.706   2.258 -0.0530 -0.1978 -0.0880
17638TIP3    H174329   4.631   3.726   2.322  0.5097 -1.0391  0.7922
17638TIP3    H274330   4.657   3.719   2.173 -1.1104 -0.0633  0.4438
17639TIP3   OH274331   2.644   4.078   0.137 -0.0233  0.3020 -0.2345
17639TIP3    H174332   2.715   4.063   0.199  0.7070  1.2983 -0.7917
17639TIP3    H274333   2.586   4.002   0.147  0.5077  0.0459  1.0558
17640TIP3   OH274334   5.259   6.156  14.903 -0.8783  0.8534 -0.1010
17640TIP3    H174335   5.284   6.075  14.857 -1.6825  0.1687  0.6269
17640TIP3    H274336   5.177   6.183  14.863 -1.8170  0.0118  1.1504
17641TIP3   OH274337   4.527   5.803   1.272  0.0460 -0.0924 -0.1815
17641TIP3    H174338   4.588   5.736   1.302 -0.9911 -1.1080 -0.2996
17641TIP3    H274339   4.572   5.886   1.291 -0.0635 -0.6495  3.1925
17642TIP3   OH274340   6.698   1.421   4.554  0.1264 -0.1343  0.0380
17642TIP3    H174341   6.790   1.395   4.543  0.7574  2.1259 -0.5927
17642TIP3    H274342   6.660   1.412   4.466  0.9393  2.8526 -0.7500
17643TIP3   OH274343   1.222   1.895   2.399 -0.3827  0.2137  0.0701
17643TIP3    H174344   1.259   1.970   2.352  1.2755 -0.0916  0.8345
17643TIP3    H274345   1.127   1.903   2.386 -0.0612  0.8408 -2.2330
17644TIP3   OH274346   4.835   5.050  13.901  0.2481 -0.0712  0.6586
17644TIP3    H174347   4.916   5.099  13.908  0.2840 -0.1073  0.4844
17644TIP3    H274348   4.787   5.072  13.981  0.6973 -0.5409  1.0603
17645TIP3   OH274349   3.352   1.352   1.946  0.1120 -0.3446  0.1284
17645TIP3    H174350   3.417   1.362   2.015  1.2329  0.0193 -0.9600
17645TIP3    H274351   3.314   1.265   1.961 -0.7176  0.3041  2.0630
17646TIP3   OH274352   0.682   1.175   5.669  0.2988 -0.3702  0.1834
17646TIP3    H174353   0.722   1.170   5.755  1.1746  1.2662 -0.0982
17646TIP3    H274354   0.716   1.098   5.623 -0.7939 -1.7006  1.4969
17647TIP3   OH274355   1.832   1.140  14.978  0.0734 -0.0007  0.6319
17647TIP3    H174356   1.849   1.230  15.006  1.3041  0.2686 -0.8285
17647TIP3    H274357   1.868   1.086  15.048  0.0629  0.6326  1.1399
17648TIP3   OH274358   0.946   0.864   0.908  0.1186  0.2298  0.0011
17648TIP3    H174359   0.990   0.785   0.876 -1.9724 -0.6324 -0.9472
17648TIP3    H274360   0.880   0.832   0.969  0.5707  1.4527  1.1840
17649TIP3   OH274361   6.306   2.150   1.335 -0.1938  0.0508 -0.9325
17649TIP3    H174362   6.391   2.166   1.376 -0.2473  2.7359 -1.6943
17649TIP3    H274363   6.316   2.183   1.246 -2.2833  1.4158 -0.7379
17650TIP3   OH274364   1.072   1.397   4.343 -0.0079 -0.6904 -0.0041
17650TIP3    H174365   1.033   1.310   4.337  0.7170 -1.1636  1.5469
17650TIP3    H274366   1.153   1.390   4.292 -0.6244 -0.4833 -1.0429
17651TIP3   OH274367   3.740   3.515   4.356  0.2270 -0.1159 -0.2577
17651TIP3    H174368   3.753   3.528   4.262  3.0385  0.5967  0.1262
17651TIP3    H274369   3.821   3.549   4.396 -1.5459  1.1549  2.5671
17652TIP3   OH274370   1.057   5.418  13.356  0.3360 -0.0573 -0.4508
17652TIP3    H174371   1.113   5.370  13.294  0.6015  0.9225 -0.9937
17652TIP3    H274372   0.968   5.387  13.337  0.3812  0.4255 -1.5212
17653TIP3   OH274373   4.267   2.820   1.340  0.5692  0.3731 -0.0821
17653TIP3    H174374   4.328   2.857   1.277 -0.8963  0.6998 -1.3901
17653TIP3    H274375   4.308   2.739   1.370  1.9015  0.9016 -0.4389
17654TIP3   OH274376   3.283   0.004   0.217  0.1958 -0.6098 -0.1119
17654TIP3    H174377   3.308   0.087   0.175  1.1549 -1.2596 -0.8763
17654TIP3    H274378   3.366  -0.033   0.247 -0.3443 -0.7717  1.2522
17655TIP3   OH274379   4.245   6.748  13.400 -0.9460 -0.5284  0.0244
17655TIP3    H174380   4.272   6.745  13.492 -1.2679  0.2732  0.1518
17655TIP3    H274381   4.321   6.786  13.354 -0.2787 -2.1293 -0.2530
17656TIP3   OH274382   6.222   0.660   4.564  0.3300 -0.5720 -0.4102
17656TIP3    H174383   6.297   0.619   4.607  0.4030  0.8875  0.9357
17656TIP3    H274384   6.260   0.725   4.506  0.1633 -1.4993 -1.6053
17657TIP3   OH274385   5.342   5.715   5.032 -0.1396  0.3067 -0.1440
17657TIP3    H174386   5.333   5.734   5.125 -0.6969 -0.7020  0.0195
17657TIP3    H274387   5.430   5.745   5.010  0.2014  0.0525  0.8279
17658TIP3   OH274388   0.414   1.836   5.759  0.5202 -0.4453  0.2767
17658TIP3    H174389   0.451   1.832   5.671 -1.1069  1.2951 -0.5546
17658TIP3    H274390   0.360   1.758   5.765  2.4357 -1.8129  0.6643
17659TIP3   OH274391   0.028   5.639   1.012 -0.1930  0.6287  0.7046
17659TIP3    H174392  -0.006   5.562   1.059 -0.6849  0.7280  0.5170
17659TIP3    H274393   0.074   5.689   1.080  0.3624  0.0426  0.7746
17660TIP3   OH274394   3.763   1.687  14.025  0.3882 -0.8293  0.2188
17660TIP3    H174395   3.826   1.724  13.963  0.0155  0.3730  0.5279
17660TIP3    H274396   3.809   1.690  14.109 -0.3889  1.0159  0.6357
17661TIP3   OH274397   2.860   3.102  12.193 -0.0093 -0.8389  0.2676
17661TIP3    H174398   2.912   3.087  12.114 -0.0027 -1.6661  0.4235
17661TIP3    H274399   2.815   3.019  12.208 -0.8518 -0.3489  0.5207
17662TIP3   OH274400   4.923   4.314   2.322 -0.1123 -0.4169  0.2477
17662TIP3    H174401   4.931   4.408   2.335  0.5336 -0.6067  1.3255
17662TIP3    H274402   4.845   4.289   2.372 -0.0491 -0.5209  0.2952
17663TIP3   OH274403   4.987   0.838  13.790 -0.1947  0.3389 -0.5197
17663TIP3    H174404   4.968   0.778  13.861 -0.2022 -1.8789 -2.2710
17663TIP3    H274405   4.901   0.865  13.757 -0.2209 -0.2268 -0.9278
17664TIP3   OH274406   3.882   5.677  14.018 -0.0029 -0.0543  0.0069
17664TIP3    H174407   3.804   5.732  14.015  0.6610  0.8604 -1.7278
17664TIP3    H274408   3.851   5.590  13.992 -0.2804  0.5686 -1.9423
17665TIP3   OH274409   0.698   3.558  15.409 -0.4792 -0.2873  0.5563
17665TIP3    H174410   0.648   3.586  15.333  0.6134  0.4087  0.0831
17665TIP3    H274411   0.765   3.625  15.421 -0.4023 -0.5630  1.9206
17666TIP3   OH274412   0.143   2.085   5.049 -0.0190  0.7868  0.1617
17666TIP3    H174413   0.053   2.117   5.039 -0.7686 -0.2827  2.6984
17666TIP3    H274414   0.179   2.136   5.122  0.8623  0.0711  0.2431
17667TIP3   OH274415   1.522   4.790   6.365 -0.4827  0.3869  0.0928
17667TIP3    H174416   1.523   4.856   6.434  0.9252 -0.2028  0.6732
17667TIP3    H274417   1.490   4.711   6.408  1.1048 -0.1742  0.2828
17668TIP3   OH274418   2.842   4.685  12.335 -0.4370 -0.1833  0.2262
17668TIP3    H174419   2.928   4.676  12.374 -0.0728 -1.5363 -0.8108
17668TIP3    H274420   2.847   4.636  12.253 -2.2190 -0.3802  0.1887
17669TIP3   OH274421   6.098   1.928  13.757  0.4443  0.1659 -0.3578
17669TIP3    H174422   6.154   1.866  13.803  0.7674  0.7632  0.0644
17669TIP3    H274423   6.139   1.938  13.671  1.1934  0.8573  0.0652
17670TIP3   OH274424   4.113   5.796  13.891 -0.4775  0.0718 -0.2690
17670TIP3    H174425   4.084   5.846  13.814 -0.5071 -1.9937 -1.6676
17670TIP3    H274426   4.033   5.780  13.941 -0.4870  1.2496  0.1319
17671TIP3   OH274427   5.212   5.019   0.182 -0.3312 -0.1531  0.2503
17671TIP3    H174428   5.211   5.060   0.269 -1.1036 -0.7043  0.5159
17671TIP3    H274429   5.155   4.943   0.191  0.2724 -0.7092 -0.5176
17672TIP3   OH274430   6.371   6.275  14.093 -0.0929 -0.0008 -0.3978
17672TIP3    H174431   6.418   6.208  14.143  0.2505  1.3022  1.1054
17672TIP3    H274432   6.280   6.265  14.120  0.1963  1.1967  1.1710
17673TIP3   OH274433   0.902   3.458   4.839 -0.7436 -0.3484 -0.1230
17673TIP3    H174434   0.937   3.418   4.759 -0.5021  1.1000 -0.7653
17673TIP3    H274435   0.807   3.450   4.829 -0.7018 -1.0409 -0.0724
17674TIP3   OH274436   0.292   4.906  15.089  0.3611  0.0266 -0.3524
17674TIP3    H174437   0.293   4.970  15.160  1.6696  0.4540 -0.7314
17674TIP3    H274438   0.210   4.923  15.042 -0.2944  0.0480  0.7527
17675TIP3   OH274439   5.805   4.456   6.176 -0.0354  0.1803 -0.3195
17675TIP3    H174440   5.857   4.487   6.249  2.0661 -1.6995 -0.8786
17675TIP3    H274441   5.719   4.437   6.213  0.4248  0.9619  1.2237
17676TIP3   OH274442   6.191   2.692   5.447  0.4934  0.2473  0.3272
17676TIP3    H174443   6.209   2.692   5.541  0.4602 -1.3965  0.3674
17676TIP3    H274444   6.148   2.608   5.431 -0.4831  0.9729 -0.9863
17677TIP3   OH274445   2.689   5.950  13.303 -0.1882  0.1524 -0.2241
17677TIP3    H174446   2.595   5.932  13.309 -0.3735  1.1611  0.2332
17677TIP3    H274447   2.731   5.873  13.339 -0.7821 -0.8655 -1.6093
17678TIP3   OH274448   3.044   3.212   2.010 -0.1223  0.4210  0.1140
17678TIP3    H174449   3.104   3.208   2.085 -0.2122  2.2282  0.3294
17678TIP3    H274450   3.020   3.121   1.993  1.8473 -0.2503  0.6928
17679TIP3   OH274451   0.139   6.383   4.088  0.0137 -0.3281  0.1004
17679TIP3    H174452   0.070   6.387   4.022 -0.1668 -2.0597  0.1380
17679TIP3    H274453   0.214   6.426   4.046 -0.7214  0.5198 -0.3899
17680TIP3   OH274454   0.994   5.436   4.011  0.5477  0.4988  0.1824
17680TIP3    H174455   1.087   5.419   3.997  0.7868  1.3820  0.5874
17680TIP3    H274456   0.992   5.525   4.047 -0.5490  1.0621 -1.1834
17681TIP3   OH274457   6.558   5.600   5.763  0.6522  0.3321 -0.0265
17681TIP3    H174458   6.543   5.514   5.802 -2.2403 -0.2416 -2.1017
17681TIP3    H274459   6.508   5.660   5.817  0.3480  0.2425 -0.2043
17682TIP3   OH274460   3.405   5.384  16.042 -0.0556 -0.0710  0.1811
17682TIP3    H174461   3.323   5.335  16.040  0.6062 -1.1910 -0.4955
17682TIP3    H274462   3.462   5.333  16.100 -0.2979  1.5225  1.9324
17683TIP3   OH274463   4.098   0.122   0.716  0.2799 -0.0068 -0.0053
17683TIP3    H174464   4.151   0.159   0.646 -0.3283  2.3711  0.7135
17683TIP3    H274465   4.157   0.120   0.792 -0.4683  2.2950  0.6994
17684TIP3   OH274466   2.600   5.971   1.389 -0.8790 -0.3862 -0.1225
17684TIP3    H174467   2.640   6.014   1.465  1.3737  0.3440 -1.6175
17684TIP3    H274468   2.620   6.029   1.315 -1.1290 -2.1165 -1.6284
17685TIP3   OH274469   1.097   6.512   4.770 -0.1043 -0.2544  0.1402
17685TIP3    H174470   1.044   6.556   4.836 -0.9251  0.5646 -1.0306
17685TIP3    H274471   1.159   6.459   4.821  0.3007  1.4871  1.5876
17686TIP3   OH274472   6.547   5.756   3.633 -0.0667 -0.0564  0.6383
17686TIP3    H174473   6.567   5.740   3.725 -0.3779 -0.7285  0.5976
17686TIP3    H274474   6.632   5.767   3.591  0.3289 -3.0050  0.4438
17687TIP3   OH274475   5.000   6.749   0.999 -0.5034  0.1946  0.2060
17687TIP3    H174476   4.977   6.841   0.984 -1.1186 -0.0154 -0.1781
17687TIP3    H274477   4.979   6.705   0.917 -0.2858 -0.3038  0.4123
17688TIP3   OH274478   4.263   5.242   4.018 -0.5931 -0.3674  0.3895
17688TIP3    H174479   4.344   5.220   3.970 -0.3659 -0.3391  0.7556
17688TIP3    H274480   4.197   5.183   3.982 -0.4977 -0.1338 -0.1769
17689TIP3   OH274481   2.227   6.599  16.519  0.0327  0.2655 -0.3368
17689TIP3    H174482   2.208   6.550  16.439  0.3192  0.6678 -0.6566
17689TIP3    H274483   2.286   6.542  16.568  2.9099  1.5143 -2.1005
17690TIP3   OH274484   1.442   3.590   3.702 -0.0247 -0.2509 -0.6711
17690TIP3    H174485   1.413   3.667   3.652 -0.1523  0.5849  0.6487
17690TIP3    H274486   1.362   3.546   3.728 -0.0639  0.5039  0.5792
17691TIP3   OH274487   6.438   0.817   0.053 -0.8218 -0.1335 -0.3996
17691TIP3    H174488   6.409   0.751  -0.011  0.3647 -1.5960  0.5006
17691TIP3    H274489   6.533   0.817   0.045 -0.8077  1.6479 -0.4955
17692TIP3   OH274490   4.835   6.420  14.844 -0.1155 -0.4026 -0.0004
17692TIP3    H174491   4.783   6.494  14.813 -0.6369 -0.8267 -0.1649
17692TIP3    H274492   4.834   6.429  14.940  0.9337  0.5287 -0.0620
17693TIP3   OH274493   5.802   1.941  14.857 -0.3991  0.1712  0.1136
17693TIP3    H174494   5.754   1.950  14.775 -0.9183  0.4562  0.4418
17693TIP3    H274495   5.734   1.929  14.924  0.0635 -2.2734  0.2536
17694TIP3   OH274496   2.119   2.828  12.093 -0.1780  0.4169 -0.2209
17694TIP3    H174497   2.202   2.872  12.108  0.9813 -0.9622 -2.2072
17694TIP3    H274498   2.143   2.737  12.076 -2.0271  0.1124 -1.4633
17695TIP3   OH274499   6.627   4.330  14.482 -0.4226 -0.0798  0.6807
17695TIP3    H174500   6.654   4.247  14.441 -1.3239  0.5270 -1.2648
17695TIP3    H274501   6.700   4.353  14.539  0.9653 -0.9732 -0.6401
17696TIP3   OH274502   6.721   4.568   1.462 -0.3421  0.2159 -0.3642
17696TIP3    H174503   6.743   4.572   1.555 -2.9029 -1.2021  0.4014
17696TIP3    H274504   6.630   4.597   1.458 -1.4426 -2.9612 -1.8584
17697TIP3   OH274505   4.448   6.766  11.078 -0.0889 -0.6100  0.1366
17697TIP3    H174506   4.428   6.769  11.171  2.2064  1.1796  0.6711
17697TIP3    H274507   4.488   6.680  11.064  0.6740 -0.4145  1.0820
17698TIP3   OH274508   0.189   0.508   5.127 -0.1930  0.1983 -0.3995
17698TIP3    H174509   0.107   0.517   5.079 -0.7912  0.6371  0.6923
17698TIP3    H274510   0.233   0.593   5.115 -0.2238  0.2167 -0.3811
17699TIP3   OH274511   2.625   2.434  14.957  0.6119  0.1441 -0.1483
17699TIP3    H174512   2.703   2.381  14.940  1.6184  0.6154  2.4432
17699TIP3    H274513   2.588   2.397  15.037 -0.1782  1.6643  0.2344
17700TIP3   OH274514   0.721   6.147  12.183  0.3567 -1.0046  0.3149
17700TIP3    H174515   0.736   6.054  12.167  0.4916 -0.8066 -0.7480
17700TIP3    H274516   0.798   6.190  12.147 -0.6833 -0.3176 -1.1624
17701TIP3   OH274517   6.056   4.648  15.147  0.2249 -0.4688  0.1426
17701TIP3    H174518   6.003   4.724  15.120 -1.6541 -1.9772 -0.6172
17701TIP3    H274519   6.040   4.639  15.241  0.0639 -0.2163  0.1405
17702TIP3   OH274520   5.166   1.466  17.154 -0.5820 -0.3396 -0.3765
17702TIP3    H174521   5.199   1.379  17.132  0.8051  0.1438 -0.2796
17702TIP3    H274522   5.228   1.526  17.114 -0.6742  0.5968  0.8282
17703TIP3   OH274523   0.263   2.497  12.964  0.4348 -0.1340  0.2673
17703TIP3    H174524   0.206   2.422  12.946 -0.2660  0.4187  0.1229
17703TIP3    H274525   0.349   2.471  12.931 -0.3711  0.1185 -2.2882
17704TIP3   OH274526   1.138   1.389   1.722 -0.2929 -0.5453  0.1376
17704TIP3    H174527   1.113   1.450   1.652 -2.9830  0.0468  1.4924
17704TIP3    H274528   1.230   1.369   1.704  0.6741  3.6325 -0.6108
17705TIP3   OH274529   0.446   6.765  11.591  0.3662 -0.0932 -0.5301
17705TIP3    H174530   0.402   6.847  11.567 -1.0446 -0.8080 -0.4385
17705TIP3    H274531   0.441   6.711  11.512 -0.8224 -0.9688  0.1162
17706TIP3   OH274532   6.538   6.699  11.893 -0.2648  0.2055 -0.0335
17706TIP3    H174533   6.565   6.700  11.802  0.7985 -2.0566  0.1895
17706TIP3    H274534   6.472   6.630  11.898  0.0555 -0.0436  0.9922
17707TIP3   OH274535   3.928   6.211  14.437 -0.4302 -0.7324 -0.0183
17707TIP3    H174536   3.913   6.273  14.365 -1.6167  1.4973  1.9758
17707TIP3    H274537   3.840   6.181  14.462 -0.2317 -0.1071  1.5486
17708TIP3   OH274538   2.526   1.749  17.077 -0.2749 -0.4107  0.1399
17708TIP3    H174539   2.609   1.705  17.096  1.3328  2.3392  0.1427
17708TIP3    H274540   2.477   1.747  17.159  1.7758  1.6851  1.5462
17709TIP3   OH274541   0.385   0.017  13.601  0.0410  0.2274  0.2621
17709TIP3    H174542   0.399   0.011  13.695  0.6299  1.2936  0.2621
17709TIP3    H274543   0.473   0.006  13.563 -0.3238 -1.1841 -0.2360
17710TIP3   OH274544   4.259   0.798  12.669 -0.4929 -0.0535 -0.6378
17710TIP3    H174545   4.283   0.838  12.752  2.5783 -1.1282 -0.8660
17710TIP3    H274546   4.242   0.871  12.610 -0.8144  0.7441  0.4190
17711TIP3   OH274547   2.771   6.370  14.093 -0.8848 -0.4027  0.5274
17711TIP3    H174548   2.709   6.407  14.156 -1.9561 -1.3612  0.0773
17711TIP3    H274549   2.728   6.290  14.062 -0.4752  0.1448 -1.5744
17712TIP3   OH274550   2.370   0.151   4.340  0.2299  0.0594  0.1980
17712TIP3    H174551   2.446   0.092   4.346  1.1287  1.2243  0.7732
17712TIP3    H274552   2.391   0.222   4.401 -0.9146  0.8666 -0.3272
17713TIP3   OH274553   0.914   0.407  14.085  0.3960 -0.1755  0.2626
17713TIP3    H174554   0.828   0.406  14.128  0.1791 -0.6725 -0.1577
17713TIP3    H274555   0.907   0.475  14.018 -0.4307 -1.6319 -1.2104
17714TIP3   OH274556   3.037   6.232  14.954  0.2496 -0.1352  0.4729
17714TIP3    H174557   3.075   6.268  15.035 -0.1542 -1.5849  1.3527
17714TIP3    H274558   3.045   6.137  14.965  1.0693 -0.3504 -1.6465
17715TIP3   OH274559   6.578   1.888  12.966 -0.2091 -0.5079 -0.4794
17715TIP3    H174560   6.588   1.858  12.876 -1.7930 -1.4026 -0.4075
17715TIP3    H274561   6.663   1.871  13.007  0.5178 -0.1061 -1.7805
17716TIP3   OH274562   5.676   6.610   6.125  0.0095  0.1906 -0.2503
17716TIP3    H174563   5.705   6.676   6.062 -0.3224 -0.6459 -1.3087
17716TIP3    H274564   5.581   6.607   6.115  0.0380 -0.5639 -0.3432
17717TIP3   OH274565   5.456   4.669   2.493 -0.1360 -0.5064 -0.7267
17717TIP3    H174566   5.533   4.684   2.548 -0.7674 -0.2257  0.0958
17717TIP3    H274567   5.448   4.573   2.489  0.3450 -0.5402 -0.9530
17718TIP3   OH274568   6.176   5.688  16.102  0.2678  0.1159 -0.3408
17718TIP3    H174569   6.089   5.656  16.125 -0.0846 -0.0414 -1.7962
17718TIP3    H274570   6.161   5.754  16.034  1.1971  1.1820  0.4479
17719TIP3   OH274571   5.303   0.127   2.872  0.5420 -0.5023  0.7525
17719TIP3    H174572   5.236   0.062   2.850  0.0261 -0.3997  1.9339
17719TIP3    H274573   5.344   0.094   2.951  1.1069  0.0127  0.6807
17720TIP3   OH274574   2.127   4.903  11.199 -0.4288 -0.3161 -0.1857
17720TIP3    H174575   2.184   4.827  11.193  1.9241  1.3371 -0.3365
17720TIP3    H274576   2.130   4.944  11.113 -0.9658  0.4178  0.1207
17721TIP3   OH274577   2.089   5.888  12.160 -0.3324 -0.2479 -0.5306
17721TIP3    H174578   2.131   5.807  12.130 -1.2019 -1.2859  0.8911
17721TIP3    H274579   2.123   5.901  12.249 -0.9283  0.4218 -0.3927
17722TIP3   OH274580   2.826   3.121   2.287 -0.6371  0.1349 -0.2662
17722TIP3    H174581   2.843   3.173   2.365 -1.5619  1.9341 -1.1942
17722TIP3    H274582   2.817   3.186   2.217 -0.8906 -1.3560 -1.6655
17723TIP3   OH274583   2.862   0.671   1.158  0.1060  0.2826 -0.1695
17723TIP3    H174584   2.822   0.613   1.223  0.3416 -0.4607 -0.6755
17723TIP3    H274585   2.924   0.615   1.111  0.3655  0.9586 -0.6424
17724TIP3   OH274586   1.827   2.110   0.482 -0.4538 -0.1355 -0.6210
17724TIP3    H174587   1.810   2.052   0.556  0.1395  0.2276 -0.1930
17724TIP3    H274588   1.767   2.184   0.495  0.5000  0.5157  0.1737
17725TIP3   OH274589   5.262   3.975  16.091  0.0658  0.4618  0.0567
17725TIP3    H174590   5.287   3.939  16.176 -1.8639  0.7258  0.7997
17725TIP3    H274591   5.317   3.930  16.028  0.3010 -1.0542  1.2922
17726TIP3   OH274592   5.647   2.360  11.028 -0.2048  0.0538 -0.2523
17726TIP3    H174593   5.643   2.268  11.003 -0.1774 -1.2369  3.8281
17726TIP3    H274594   5.734   2.371  11.065 -0.1947  1.7528 -0.7091
17727TIP3   OH274595   5.737   4.382   1.265  0.4243  0.2720 -0.2675
17727TIP3    H174596   5.803   4.320   1.298  0.4359  0.7825  0.7081
17727TIP3    H274597   5.786   4.441   1.208  1.1399  1.5091  1.5378
17728TIP3   OH274598   5.163   2.627   3.656 -0.7953  0.8101 -0.1827
17728TIP3    H174599   5.134   2.639   3.746 -0.5915  2.4208 -0.2889
17728TIP3    H274600   5.081   2.626   3.605 -0.8584  2.3269 -0.1811
17729TIP3   OH274601   4.962   1.504  16.347 -0.6240  0.6842 -0.2359
17729TIP3    H174602   4.896   1.445  16.311  0.9951 -0.3202 -1.7092
17729TIP3    H274603   4.929   1.528  16.433 -0.9907 -2.9903  0.7838
17730TIP3   OH274604   1.506   5.932  16.891  0.5185  0.7384  0.0945
17730TIP3    H174605   1.543   6.020  16.880  0.4303  0.8854  0.9519
17730TIP3    H274606   1.412   5.944  16.882  0.5412  0.6521 -0.2731
17731TIP3   OH274607   6.458   2.177   2.282 -0.3401 -0.0007  0.2365
17731TIP3    H174608   6.543   2.156   2.243  0.6459  0.8257  1.8191
17731TIP3    H274609   6.399   2.109   2.249  0.8419 -0.3974 -1.1722
17732TIP3   OH274610   6.751   3.215  12.851  0.0280  0.2036  0.2043
17732TIP3    H174611   6.780   3.132  12.814  0.8757  0.0450  1.1815
17732TIP3    H274612   6.831   3.264  12.866 -0.3332  0.5201  1.1875
17733TIP3   OH274613   5.407   1.702   3.072 -0.6665 -0.1467  0.3995
17733TIP3    H174614   5.497   1.671   3.066 -0.0981  1.2701  1.0563
17733TIP3    H274615   5.398   1.731   3.163 -1.3954  0.7945  0.0455
17734TIP3   OH274616   6.212   2.896   6.096  0.6387 -0.6662  0.1863
17734TIP3    H174617   6.180   2.984   6.117  0.2717 -0.7255 -0.0950
17734TIP3    H274618   6.269   2.908   6.021  0.0338 -0.7450 -0.3001
17735TIP3   OH274619   0.028   5.493  17.151 -0.1685  0.5003  0.0128
17735TIP3    H174620  -0.017   5.577  17.150  0.2086  0.7389  1.3344
17735TIP3    H274621  -0.040   5.429  17.174 -0.5688  0.3500 -1.5138
17736TIP3   OH274622   4.334   3.472   5.751  0.6053 -0.0730 -0.3247
17736TIP3    H174623   4.405   3.533   5.774  1.3257 -1.0660  0.1823
17736TIP3    H274624   4.336   3.407   5.821  0.1361 -0.9125 -1.0778
17737TIP3   OH274625   3.730   3.871  14.152  0.1475 -0.1807  0.4488
17737TIP3    H174626   3.671   3.898  14.222 -0.1408 -0.8616  0.4689
17737TIP3    H274627   3.815   3.908  14.177 -0.1552  0.3755  0.6732
17738TIP3   OH274628   3.939   0.285   0.906  0.2424  0.3337 -0.1946
17738TIP3    H174629   3.965   0.207   0.859 -1.5858 -0.2198 -0.3661
17738TIP3    H274630   3.905   0.344   0.839  0.0104  0.5731  0.1258
17739TIP3   OH274631   0.657   5.413  17.053  0.2337 -0.1028 -0.1614
17739TIP3    H174632   0.701   5.444  17.133  0.6828 -2.0805  0.4303
17739TIP3    H274633   0.724   5.362  17.008 -0.6120 -0.7047 -0.7561
17740TIP3   OH274634   0.326   4.756  12.108 -0.0596  0.3080  0.6472
17740TIP3    H174635   0.273   4.795  12.038  0.0614  1.2731  1.0709
17740TIP3    H274636   0.311   4.662  12.100 -0.2074  0.4178 -0.5448
17741TIP3   OH274637   5.241   5.304   1.511  0.7591 -0.3451 -0.0193
17741TIP3    H174638   5.152   5.336   1.500  1.3621  0.8063 -2.0865
17741TIP3    H274639   5.253   5.241   1.440  0.8777 -2.3340  1.6607
17742TIP3   OH274640   3.169   0.843  15.090  0.4151  0.2743 -0.4214
17742TIP3    H174641   3.078   0.865  15.106  0.1409 -0.4935 -0.8611
17742TIP3    H274642   3.219   0.908  15.140 -0.3654  0.7130 -0.1983
17743TIP3   OH274643   3.246   1.617  11.490 -0.5093  0.4980 -0.5073
17743TIP3    H174644   3.250   1.552  11.560 -1.4274 -0.6058 -1.4353
17743TIP3    H274645   3.154   1.619  11.464 -0.2540  1.1776 -1.4173
17744TIP3   OH274646   3.869   4.384   0.862 -0.2317  0.4702 -0.3261
17744TIP3    H174647   3.837   4.464   0.903 -0.2380  0.9602 -1.2428
17744TIP3    H274648   3.791   4.344   0.823 -0.2866 -0.1720  0.4330
17745TIP3   OH274649   0.082   2.782   5.537  0.2340  0.6719 -0.0413
17745TIP3    H174650   0.064   2.854   5.477 -0.3256 -0.2811 -1.0523
17745TIP3    H274651   0.105   2.825   5.619 -2.4730  2.0312  0.1192
17746TIP3   OH274652   5.890   0.069  13.642 -1.0002 -0.6875 -0.0468
17746TIP3    H174653   5.923   0.013  13.572 -1.0024 -0.6790 -0.0553
17746TIP3    H274654   5.961   0.071  13.707 -0.9234 -0.5417 -0.1362
17747TIP3   OH274655   2.228   5.507  11.804 -0.1736 -0.6504 -0.5654
17747TIP3    H174656   2.288   5.476  11.737 -0.2090 -0.2828 -0.7680
17747TIP3    H274657   2.185   5.584  11.765  1.9106  1.4003  0.8917
17748TIP3   OH274658   4.348   6.340   0.186  0.2403  0.3074 -0.4870
17748TIP3    H174659   4.385   6.428   0.195 -1.8660  1.0993  1.4913
17748TIP3    H274660   4.360   6.300   0.272  0.3636 -1.0302 -1.0992
17749TIP3   OH274661   2.478   5.056   1.525 -0.7581 -0.2910 -0.3106
17749TIP3    H174662   2.481   4.968   1.489 -2.5455  0.0618 -1.5042
17749TIP3    H274663   2.483   5.114   1.449 -0.4945  0.6083  0.3642
17750TIP3   OH274664   6.126   0.571  11.506  0.3067  0.5271  0.9392
17750TIP3    H174665   6.180   0.637  11.464  0.2299 -0.0365 -0.0908
17750TIP3    H274666   6.039   0.583  11.466  0.2247  0.0015  0.9557
17751TIP3   OH274667   5.601   4.753   3.108 -0.1556 -0.0118  0.3751
17751TIP3    H174668   5.611   4.754   3.203  1.5423  0.2779  0.2231
17751TIP3    H274669   5.631   4.839   3.079  0.3931 -0.4838 -0.5058
17752TIP3   OH274670   4.772   6.500   3.195 -0.4020  0.1018 -0.1101
17752TIP3    H174671   4.759   6.514   3.289  1.0229  1.5397 -0.0922
17752TIP3    H274672   4.711   6.560   3.153 -1.6798 -1.1753 -0.1472
17753TIP3   OH274673   2.138   1.712  15.753  0.6503 -0.4074 -0.1655
17753TIP3    H174674   2.065   1.766  15.722 -0.2890  0.0053  2.5173
17753TIP3    H274675   2.097   1.628  15.777  1.4998 -1.0448 -0.8792
17754TIP3   OH274676   4.290   0.826  14.305 -0.8219  0.1809  0.5643
17754TIP3    H174677   4.332   0.893  14.360 -0.6631  1.1411 -0.6901
17754TIP3    H274678   4.347   0.818  14.229 -2.8035  1.4995 -1.1855
17755TIP3   OH274679   2.010   1.091   0.588 -0.0362  0.5287  0.2439
17755TIP3    H174680   1.942   1.023   0.592 -0.2165  0.7380  0.7672
17755TIP3    H274681   1.987   1.144   0.512 -0.2362  0.3646  0.1899
17756TIP3   OH274682   0.122   5.846   0.431 -0.7959  0.2124  0.0157
17756TIP3    H174683   0.195   5.809   0.481 -0.3320 -0.7528 -1.2919
17756TIP3    H274684   0.051   5.855   0.494  0.4689  1.2650  1.3472
17757TIP3   OH274685   5.951   6.336   3.539 -0.3269  0.3928  0.6006
17757TIP3    H174686   5.859   6.344   3.514 -1.2161 -0.5385  3.2425
17757TIP3    H274687   5.999   6.357   3.459 -2.7914  1.6262 -0.6862
17758TIP3   OH274688   2.144   5.276  16.247  0.7965  0.1043 -0.1304
17758TIP3    H174689   2.091   5.196  16.248 -2.1352  1.8908  0.7471
17758TIP3    H274690   2.158   5.297  16.339  0.8153  1.0397 -0.3375
17759TIP3   OH274691   0.723   3.061  13.975 -0.0579 -0.3141 -0.0891
17759TIP3    H174692   0.743   3.076  14.068  3.1923 -2.2234 -0.3368
17759TIP3    H274693   0.751   3.141  13.932  0.0544 -0.0803  0.4066
17760TIP3   OH274694   3.545   4.266   2.175 -0.2305 -0.6972  0.2033
17760TIP3    H174695   3.479   4.299   2.113  0.4606 -1.1345 -0.7856
17760TIP3    H274696   3.604   4.339   2.189  0.8443 -1.2284 -1.3645
17761TIP3   OH274697   2.022   2.259   2.430 -0.4349  0.4498 -0.2465
17761TIP3    H174698   2.067   2.177   2.451 -0.6081  0.0809 -1.2368
17761TIP3    H274699   2.063   2.289   2.349  1.5483  2.8368  1.4960
17762TIP3   OH274700   1.443   3.910  15.181  0.1510  0.5204  0.4653
17762TIP3    H174701   1.513   3.970  15.209 -0.1719  0.8838  0.5071
17762TIP3    H274702   1.489   3.833  15.148  0.5465  0.2327  1.6397
17763TIP3   OH274703   3.329   6.073  17.123  0.6217  0.2875 -0.1315
17763TIP3    H174704   3.405   6.100  17.176  0.4080  0.0720  0.2873
17763TIP3    H274705   3.304   5.988  17.158  0.4345  0.1724 -0.5401
17764TIP3   OH274706   0.759   4.944  13.244  0.3598  0.3457 -0.0011
17764TIP3    H174707   0.799   4.867  13.203  0.2268 -0.8883  2.0406
17764TIP3    H274708   0.721   4.993  13.171  1.5560 -0.8447 -1.5034
17765TIP3   OH274709   4.415   3.568   3.138  0.2956 -0.0696 -0.3969
17765TIP3    H174710   4.436   3.476   3.156 -0.7848  0.0888  2.1567
17765TIP3    H274711   4.495   3.615   3.163  0.6630 -0.2512 -1.1970
17766TIP3   OH274712   3.006   6.124  17.151  0.6214  0.0719 -0.0501
17766TIP3    H174713   2.978   6.033  17.161  1.1863 -0.1997 -0.8496
17766TIP3    H274714   3.006   6.140  17.056  1.0894  0.7243  0.0460
17767TIP3   OH274715   2.879   1.721   1.643  0.0105 -0.1965 -0.3459
17767TIP3    H174716   2.875   1.815   1.624  1.0627  0.5976  2.6787
17767TIP3    H274717   2.796   1.702   1.688 -0.1277 -0.6825 -0.7998
17768TIP3   OH274718   1.666   2.807  11.946  0.2657  0.2569  0.2738
17768TIP3    H174719   1.675   2.749  12.021  0.5853  1.6832  1.3852
17768TIP3    H274720   1.572   2.827  11.943  0.5600  2.1907  1.9217
17769TIP3   OH274721   5.152   5.715   2.390 -0.4825  0.0680  0.1642
17769TIP3    H174722   5.247   5.709   2.401 -0.3952  0.2681 -0.4622
17769TIP3    H274723   5.118   5.720   2.480  0.1076  0.2259  0.3840
17770TIP3   OH274724   1.317   6.185   5.144  0.3759  0.1462  0.5431
17770TIP3    H174725   1.407   6.214   5.161 -0.0495  0.3987  2.5334
17770TIP3    H274726   1.293   6.135   5.222 -2.1270  2.3006  1.2709
17771TIP3   OH274727   3.610   6.677   0.976  0.1319  0.1360  0.3955
17771TIP3    H174728   3.581   6.656   1.064 -0.6908  1.4362  0.4681
17771TIP3    H274729   3.669   6.752   0.988  0.7263 -0.2413 -0.0872
17772TIP3   OH274730   0.073   0.119  11.844  0.2693  0.0258 -0.1550
17772TIP3    H174731   0.124   0.041  11.819 -0.4070  0.0705 -1.8325
17772TIP3    H274732   0.045   0.156  11.760 -1.0221  1.0049  0.6846
17773TIP3   OH274733   0.796   1.386   5.136  0.4177 -0.2318  0.2966
17773TIP3    H174734   0.728   1.344   5.084  1.2576 -0.4786 -0.6540
17773TIP3    H274735   0.804   1.333   5.215  0.0124 -0.6194  0.0785
17774TIP3   OH274736   6.147   1.900  12.337 -0.5066 -0.0870 -0.1168
17774TIP3    H174737   6.107   1.959  12.402  1.7172  0.1129  1.1541
17774TIP3    H274738   6.124   1.812  12.367  1.5167 -0.0615  1.7716
17775TIP3   OH274739   3.525   4.114  11.546  0.1212 -0.5841  0.0114
17775TIP3    H174740   3.481   4.157  11.620  1.0349 -0.9141  0.7791
17775TIP3    H274741   3.559   4.033  11.583  1.1640 -0.4408 -0.5957
17776TIP3   OH274742   4.733   4.710   6.434 -0.2422 -0.0108 -0.5709
17776TIP3    H174743   4.655   4.764   6.419 -0.1375  0.6035  0.9417
17776TIP3    H274744   4.801   4.773   6.457 -0.5331 -0.7881  2.9928
17777TIP3   OH274745   1.685   0.987  13.662 -1.0807 -0.2295 -0.2221
17777TIP3    H174746   1.776   0.958  13.664 -1.3694 -1.1088  0.4502
17777TIP3    H274747   1.688   1.075  13.701 -0.7230 -0.8577  1.2398
17778TIP3   OH274748   4.282   6.737   2.278 -0.3048 -0.5245  0.3978
17778TIP3    H174749   4.209   6.679   2.301 -0.2434  0.1153  2.3571
17778TIP3    H274750   4.241   6.810   2.231 -0.6531 -1.1018 -0.2087
17779TIP3   OH274751   0.430   4.538   5.844  0.1533  0.7979 -0.2524
17779TIP3    H174752   0.514   4.576   5.870 -0.2702  0.9331  0.9672
17779TIP3    H274753   0.445   4.444   5.841  0.4211  0.8434 -0.3129
17780TIP3   OH274754   5.794   3.896   4.151 -0.3185 -0.1512 -0.4075
17780TIP3    H174755   5.875   3.948   4.158 -0.7842  0.6997 -1.1599
17780TIP3    H274756   5.725   3.956   4.179 -0.9702 -0.0568 -2.1162
17781TIP3   OH274757   6.358   0.119   4.460 -0.3793  0.1945  0.1605
17781TIP3    H174758   6.262   0.123   4.458 -0.3286  2.0796 -1.1099
17781TIP3    H274759   6.386   0.205   4.429  1.7486 -0.0648  1.1682
17782TIP3   OH274760   4.504   3.383  12.554  0.1591  0.1533 -0.5757
17782TIP3    H174761   4.450   3.451  12.514  1.3309  1.8324  0.5217
17782TIP3    H274762   4.459   3.363  12.636 -0.2178 -0.4578 -0.9273
17783TIP3   OH274763   4.149   3.020   3.336 -0.5469 -0.6741  0.2688
17783TIP3    H174764   4.190   2.936   3.312  0.4026 -0.1886  0.1324
17783TIP3    H274765   4.078   3.030   3.272 -0.6199 -1.3278  0.2322
17784TIP3   OH274766   6.049   0.068   6.007  0.1879 -0.7274 -0.0192
17784TIP3    H174767   6.129   0.040   6.051  0.2781 -1.3736 -0.5876
17784TIP3    H274768   6.079   0.111   5.927  0.0031  0.0102  0.2983
17785TIP3   OH274769   0.802   4.365   6.139 -0.4628 -0.1051 -0.0357
17785TIP3    H174770   0.807   4.411   6.222  0.9415 -1.4382  0.6787
17785TIP3    H274771   0.862   4.412   6.081 -1.0175  0.4897 -0.1361
17786TIP3   OH274772   6.527   1.396   1.344 -0.3640  0.1591 -0.2087
17786TIP3    H174773   6.502   1.303   1.341 -0.2656  0.1206  0.0638
17786TIP3    H274774   6.516   1.420   1.436  0.5107  0.1607 -0.0891
17787TIP3   OH274775   6.364   6.232   6.004 -0.0444  0.0085 -0.1193
17787TIP3    H174776   6.272   6.255   5.992 -0.5167 -0.6985  1.8662
17787TIP3    H274777   6.412   6.305   5.963 -1.4684  0.8953 -0.2840
17788TIP3   OH274778   5.160   5.884  13.325 -0.7203  0.3554  0.1733
17788TIP3    H174779   5.200   5.937  13.256 -0.6445 -0.6977 -0.6190
17788TIP3    H274780   5.118   5.812  13.279 -0.0092 -0.8048  1.2680
17789TIP3   OH274781   5.787   5.406  14.009  0.5170  0.2949  0.5053
17789TIP3    H174782   5.692   5.413  14.004  0.3995  0.6875  2.5011
17789TIP3    H274783   5.812   5.357  13.930 -1.2891  0.4048 -0.1763
17790TIP3   OH274784   1.261   4.120  12.622 -0.4053 -0.3636 -0.2821
17790TIP3    H174785   1.178   4.166  12.631 -0.0123  0.1483  1.0395
17790TIP3    H274786   1.249   4.040  12.674 -0.0797 -0.2749 -0.0660
17791TIP3   OH274787   1.741   6.360  12.736  0.1120  0.0181 -0.2321
17791TIP3    H174788   1.768   6.290  12.677  2.3818  1.0183 -0.5004
17791TIP3    H274789   1.664   6.398  12.694 -0.1770 -1.2506 -0.9205
17792TIP3   OH274790   6.237   2.682   0.233 -0.0549 -1.0008  0.5672
17792TIP3    H174791   6.319   2.729   0.250 -1.0205  0.0596  2.6133
17792TIP3    H274792   6.253   2.637   0.150  3.1677 -2.1117  1.6255
17793TIP3   OH274793   2.358   1.300   4.875 -0.4034  0.0059 -0.3102
17793TIP3    H174794   2.404   1.242   4.936  0.6199  1.0349 -0.0527
17793TIP3    H274795   2.343   1.247   4.797 -1.4073 -1.2355  0.6689
17794TIP3   OH274796   1.719   4.707  12.824  0.1063  0.8263  0.4494
17794TIP3    H174797   1.766   4.651  12.763 -0.5785 -1.3018  1.7538
17794TIP3    H274798   1.704   4.788  12.776  0.8458 -0.2161 -1.6574
17795TIP3   OH274799   0.889   5.558  15.422  0.1055 -0.3392  0.6137
17795TIP3    H174800   0.938   5.555  15.504  0.5923  0.1952  0.3461
17795TIP3    H274801   0.945   5.607  15.362 -1.1702  1.1836  0.5944
17796TIP3   OH274802   2.338   2.638  16.997  0.2396  0.0137  0.1918
17796TIP3    H174803   2.398   2.712  17.006 -1.1421  0.9543  2.8738
17796TIP3    H274804   2.320   2.611  17.087 -1.8496 -1.4720 -0.5878
17797TIP3   OH274805   0.563   1.393   1.450  0.0953  0.5414 -0.3359
17797TIP3    H174806   0.505   1.324   1.479  0.0083  0.6170 -0.3301
17797TIP3    H274807   0.549   1.399   1.355 -2.0085  2.4697  0.0175
17798TIP3   OH274808   2.122   4.973   2.869  0.2716  0.4354  0.3643
17798TIP3    H174809   2.133   5.067   2.854  1.9242  0.5308  1.8365
17798TIP3    H274810   2.206   4.935   2.846 -0.2284 -0.6397  0.2427
17799TIP3   OH274811   2.635   3.721   2.188 -0.6225 -0.0965 -0.2389
17799TIP3    H174812   2.611   3.813   2.179  0.3816 -0.0030 -2.7920
17799TIP3    H274813   2.552   3.674   2.182 -1.1612  0.6096  1.2839
17800TIP3   OH274814   5.470   6.056  11.521 -0.2461 -0.2220 -0.2738
17800TIP3    H174815   5.465   6.041  11.426  1.1368  0.4884 -0.4840
17800TIP3    H274816   5.412   6.131  11.535  0.4306  0.4031 -0.7515
17801TIP3   OH274817   1.106   0.363   6.215  0.0390  0.5032  0.2829
17801TIP3    H174818   1.012   0.354   6.198  0.1493 -0.4174  0.1110
17801TIP3    H274819   1.143   0.278   6.193  0.8031  0.6019  1.1050
17802TIP3   OH274820   3.565   6.719  11.982 -0.3636 -0.4490  0.3809
17802TIP3    H174821   3.488   6.711  12.038  1.0557 -2.8918  2.1995
17802TIP3    H274822   3.623   6.778  12.029 -0.5419  0.2839 -0.2985
17803TIP3   OH274823   2.302   2.836  11.361  0.1560  0.2108  0.2777
17803TIP3    H174824   2.296   2.759  11.305  0.2311  0.1848  0.3049
17803TIP3    H274825   2.228   2.829  11.421  0.7190 -0.3330  0.9098
17804TIP3   OH274826   4.450   6.493  11.846 -0.1182 -0.0598 -0.3638
17804TIP3    H174827   4.440   6.540  11.929 -1.8762 -1.1358  0.0834
17804TIP3    H274828   4.432   6.559  11.779  0.8456  0.7032  0.1145
17805TIP3   OH274829   4.369   2.143   2.542  0.1759 -0.1745 -0.0478
17805TIP3    H174830   4.371   2.121   2.449  1.9362 -0.7176  0.0881
17805TIP3    H274831   4.296   2.091   2.577  0.0745 -0.6575 -0.9521
17806TIP3   OH274832   5.108   4.747  14.859  0.0776  0.5744  0.1285
17806TIP3    H174833   5.021   4.771  14.827  0.3805  0.0049 -1.2059
17806TIP3    H274834   5.108   4.651  14.859  0.1021  0.5495  1.8854
17807TIP3   OH274835   6.092   4.860   1.420 -0.0328 -0.2195  0.7154
17807TIP3    H174836   6.073   4.855   1.326 -0.7626  0.8345  0.7954
17807TIP3    H274837   6.062   4.776   1.455  1.9792 -1.4328 -0.2445
17808TIP3   OH274838   2.883   4.115  11.939  0.2453 -0.1237  0.3433
17808TIP3    H174839   2.883   4.019  11.937 -1.0691 -0.1348 -0.4937
17808TIP3    H274840   2.825   4.140  11.867  0.1341  1.2883  0.9034
17809TIP3   OH274841   6.656   3.898  10.847 -0.6210  0.3213  0.0658
17809TIP3    H174842   6.729   3.930  10.901 -0.3246 -1.8332  1.0229
17809TIP3    H274843   6.591   3.968  10.851 -0.2178  0.6263  2.4825
17810TIP3   OH274844   0.331   3.997  16.655  0.1106 -0.3662  0.0200
17810TIP3    H174845   0.339   4.042  16.571 -1.7383  1.5060  0.7668
17810TIP3    H274846   0.243   4.019  16.686  0.6272 -1.2396  2.3175
17811TIP3   OH274847   1.888   3.162  12.962 -0.0862 -0.4643 -0.2556
17811TIP3    H174848   1.844   3.198  13.039  1.6070 -1.8710  1.4731
17811TIP3    H274849   1.941   3.234  12.928 -0.9523  0.2094 -0.2016
17812TIP3   OH274850   4.322   6.488  10.844  0.2460 -0.3321  0.2741
17812TIP3    H174851   4.319   6.428  10.919 -0.1129 -1.3126 -0.5036
17812TIP3    H274852   4.379   6.444  10.781 -1.0558 -0.5013 -0.8329
17813TIP3   OH274853   1.332   4.199   1.481  0.1106 -0.2772  0.9108
17813TIP3    H174854   1.389   4.275   1.493  0.1176 -0.2710  0.8382
17813TIP3    H274855   1.391   4.124   1.487  0.2615 -0.2421  0.0106
17814TIP3   OH274856   6.489   4.527  16.132  0.2827 -0.6682 -0.1665
17814TIP3    H174857   6.569   4.483  16.103  1.3346  0.5173  0.8266
17814TIP3    H274858   6.515   4.618  16.147 -1.0902 -0.4024  0.8085
17815TIP3   OH274859   5.990   5.952  14.209 -0.2394  0.6386  0.2184
17815TIP3    H174860   5.929   5.926  14.278 -0.9980 -0.8851 -0.9765
17815TIP3    H274861   5.935   5.967  14.133  0.5875  2.2878 -0.1028
17816TIP3   OH274862   5.523   6.303  12.455 -0.2777 -0.3413  0.1410
17816TIP3    H174863   5.440   6.305  12.407  1.3276 -0.7612 -2.8758
17816TIP3    H274864   5.559   6.216  12.438  1.5463  0.4018 -0.0727
17817TIP3   OH274865   0.298   5.090  11.687  0.5480  0.4963 -0.2262
17817TIP3    H174866   0.283   5.031  11.761  1.0554 -1.9631 -1.9247
17817TIP3    H274867   0.387   5.069  11.657  0.5854  1.8462 -1.1726
17818TIP3   OH274868   6.354   6.641  16.258  0.0032 -0.2728  0.2151
17818TIP3    H174869   6.313   6.715  16.212  0.8833  0.4386  0.5385
17818TIP3    H274870   6.281   6.589  16.291 -0.6714  1.4065  1.5017
17819TIP3   OH274871   3.728   2.313   5.777 -0.5509  0.6919 -0.0911
17819TIP3    H174872   3.740   2.371   5.853  0.5817 -1.8894  1.8446
17819TIP3    H274873   3.816   2.303   5.741 -0.4896 -0.8182  0.4266
17820TIP3   OH274874   3.184   4.137  16.091  0.0185  0.2217  0.0840
17820TIP3    H174875   3.227   4.117  16.008 -1.9611  1.2785 -1.2678
17820TIP3    H274876   3.216   4.225  16.114 -1.3647  1.0288 -0.9460
17821TIP3   OH274877   4.961   4.438  16.914  0.4253 -0.5747 -0.3391
17821TIP3    H174878   4.939   4.421  16.823 -2.3937 -0.8032  0.3066
17821TIP3    H274879   4.951   4.532  16.925 -1.7435 -0.8214  0.2515
17822TIP3   OH274880   0.051   3.167  15.195  0.5977  0.1195 -0.6423
17822TIP3    H174881   0.028   3.254  15.163  2.7311  0.8618 -0.3479
17822TIP3    H274882   0.070   3.180  15.288 -1.0523 -1.1093 -0.0866
17823TIP3   OH274883   4.475   0.254  16.150  0.5599 -0.2699  0.0577
17823TIP3    H174884   4.411   0.297  16.094  1.1820 -0.7851 -1.0706
17823TIP3    H274885   4.462   0.160  16.133 -1.3680 -0.7142  3.0822
17824TIP3   OH274886   6.373   6.209  16.828 -0.3767  0.6468 -0.2032
17824TIP3    H174887   6.319   6.287  16.817 -1.0089  0.5710  1.9213
17824TIP3    H274888   6.324   6.140  16.784  0.9008  1.6215 -3.4288
17825TIP3   OH274889   6.673   1.903   4.637  0.0430 -0.2236  0.0923
17825TIP3    H174890   6.579   1.884   4.638 -0.1270  0.5612  1.1087
17825TIP3    H274891   6.715   1.819   4.658 -0.2653 -1.1673 -2.7232
17826TIP3   OH274892   2.668   0.041  16.858  0.5036 -0.2078 -0.4399
17826TIP3    H174893   2.610   0.085  16.795  0.4423 -0.3686 -0.4966
17826TIP3    H274894   2.643   0.078  16.943  0.4451 -0.1416 -0.4854
17827TIP3   OH274895   4.686   5.335   2.969  0.9246  0.3613  0.0066
17827TIP3    H174896   4.724   5.310   2.885 -0.0487 -1.8904  0.1630
17827TIP3    H274897   4.760   5.337   3.030  1.1162 -2.7744  0.0531
17828TIP3   OH274898   5.783   6.033  12.179  0.2835 -0.2945 -0.1959
17828TIP3    H174899   5.876   6.043  12.200  0.5014 -1.1186 -0.7079
17828TIP3    H274900   5.781   5.961  12.116 -0.3325  1.8182 -2.7922
17829TIP3   OH274901   6.156   2.914   3.971  0.8322  0.1336 -0.6421
17829TIP3    H174902   6.116   2.991   3.931  1.7813 -0.3312 -2.6044
17829TIP3    H274903   6.168   2.853   3.899 -2.7355 -3.2706  1.2178
17830TIP3   OH274904   6.729   3.039  13.965  0.0528  0.1737  0.3403
17830TIP3    H174905   6.773   3.049  13.881 -0.2812  0.6714  0.2180
17830TIP3    H274906   6.740   2.947  13.988  1.4293  0.3543  0.4625
17831TIP3   OH274907   4.162   0.872  13.692  0.1496  0.2387  0.0256
17831TIP3    H174908   4.251   0.859  13.660  0.2198  0.5717  0.0871
17831TIP3    H274909   4.165   0.955  13.740 -0.6652  1.3578 -1.7623
17832TIP3   OH274910   1.806   0.970  11.156  0.4366  0.0655 -0.7192
17832TIP3    H174911   1.714   0.993  11.169 -0.2048 -2.6824  0.2385
17832TIP3    H274912   1.818   0.973  11.061 -0.0302  2.4087 -0.7526
17833TIP3   OH274913   1.199   4.674  17.224  0.1772  0.2277  0.0971
17833TIP3    H174914   1.190   4.679  17.319 -1.0693  0.6124 -0.0211
17833TIP3    H274915   1.280   4.723  17.206  0.4568  0.1087  0.9542
17834TIP3   OH274916   3.470   5.096   5.077 -0.1975 -0.4460 -0.2381
17834TIP3    H174917   3.545   5.143   5.042 -0.0370 -0.2846  0.3127
17834TIP3    H274918   3.395   5.135   5.032 -0.2342  1.5505  1.3888
17835TIP3   OH274919   4.648   0.571  12.618 -0.3112  0.0749  0.2673
17835TIP3    H174920   4.690   0.490  12.646  1.3611  1.0622  0.7261
17835TIP3    H274921   4.563   0.570  12.662 -0.3385 -1.4242  0.2350
17836TIP3   OH274922   6.784   2.939   3.307  0.1017  0.7853 -0.0760
17836TIP3    H174923   6.868   2.906   3.339 -0.0434  0.5909  0.1049
17836TIP3    H274924   6.783   3.031   3.334  1.1723  1.3862 -1.8851
17837TIP3   OH274925   5.356   4.918   2.917  0.2597 -0.5771  0.5424
17837TIP3    H174926   5.346   5.013   2.910  1.1662 -0.3328  1.9830
17837TIP3    H274927   5.444   4.906   2.954  0.7865 -2.0545 -1.0525
17838TIP3   OH274928   4.619   4.296   2.170 -0.3010  0.2770  0.6955
17838TIP3    H174929   4.632   4.377   2.219 -0.8506  0.7616  0.0465
17838TIP3    H274930   4.708   4.266   2.150 -0.0942  0.6865  0.9789
17839TIP3   OH274931   6.663   4.609  13.245  0.4443  0.6447  0.5268
17839TIP3    H174932   6.624   4.523  13.232  2.6722 -0.6729  2.0192
17839TIP3    H274933   6.687   4.638  13.157  1.6360 -1.2770  0.1639
17840TIP3   OH274934   4.151   5.129   0.081  0.5371  0.2729  0.0891
17840TIP3    H174935   4.167   5.145  -0.012  0.9662  0.9366  0.2738
17840TIP3    H274936   4.173   5.037   0.093  0.5735  0.2069 -0.4412
17841TIP3   OH274937   2.688   0.871   5.186 -0.0580  0.8315  0.1944
17841TIP3    H174938   2.722   0.891   5.273 -0.2661 -1.0709  0.7532
17841TIP3    H274939   2.766   0.861   5.132  0.5780 -3.6162  1.4917
17842TIP3   OH274940   2.060   4.188  14.206  0.5584  0.7500  0.6049
17842TIP3    H174941   2.072   4.105  14.159 -0.3424  0.8144  0.2457
17842TIP3    H274942   2.149   4.216  14.227  0.8419 -0.8575  1.7045
17843TIP3   OH274943   0.511   0.574  14.924  0.3007 -0.2280 -0.5124
17843TIP3    H174944   0.561   0.536  14.851 -1.9904 -1.9281 -1.3183
17843TIP3    H274945   0.476   0.656  14.888 -0.3270 -0.7689 -1.1918
17844TIP3   OH274946   3.833   3.323   6.789  0.2676  0.0789  0.2435
17844TIP3    H174947   3.781   3.393   6.828  1.0589 -0.2726  2.0406
17844TIP3    H274948   3.923   3.354   6.795  0.3663  0.6281 -2.7163
17845TIP3   OH274949   5.155   3.358  16.539 -0.1453  0.1560 -0.0284
17845TIP3    H174950   5.157   3.266  16.516  0.9940  0.1164  0.1987
17845TIP3    H274951   5.062   3.381  16.539 -0.6155 -1.4944  1.8740
17846TIP3   OH274952   1.868   1.802   1.229 -0.0820 -0.4027  0.1402
17846TIP3    H174953   1.959   1.779   1.211 -0.0676 -0.9335  0.8434
17846TIP3    H274954   1.868   1.897   1.236  0.4126 -0.3970  0.0840
17847TIP3   OH274955   2.699   1.615   3.222 -0.0492  0.2980  0.4842
17847TIP3    H174956   2.658   1.588   3.304 -1.0980  0.6278  0.0986
17847TIP3    H274957   2.756   1.688   3.246 -0.8160  0.7925  0.8405
17848TIP3   OH274958   1.081   3.817  11.582 -0.2615  0.1783 -0.5216
17848TIP3    H174959   1.051   3.906  11.598  0.4444  0.2246  0.5913
17848TIP3    H274960   1.044   3.766  11.654  1.5120  0.0716  0.3618
17849TIP3   OH274961   5.535   2.822  14.359 -0.2945  0.0704  0.0952
17849TIP3    H174962   5.500   2.824  14.270 -0.5169  0.3472  0.1869
17849TIP3    H274963   5.496   2.744  14.399  0.8758 -0.8232 -0.4778
17850TIP3   OH274964   0.808   2.843  15.282 -0.0845 -0.0465  0.4227
17850TIP3    H174965   0.874   2.782  15.313  0.8596  1.1332  0.8164
17850TIP3    H274966   0.845   2.930  15.299 -1.6794  0.6537  0.5488
17851TIP3   OH274967   1.583   3.581  15.331  0.0666  0.3804  0.3532
17851TIP3    H174968   1.669   3.618  15.314  0.6506 -0.9041  0.3518
17851TIP3    H274969   1.562   3.608  15.420  0.8341  0.0707  0.6424
17852TIP3   OH274970   1.019   2.177  13.763 -0.2754  0.2101  0.0804
17852TIP3    H174971   1.083   2.116  13.727  2.3152  2.3972  0.6828
17852TIP3    H274972   0.934   2.144  13.731  0.9773 -3.2616 -0.1276
17853TIP3   OH274973   5.327   6.320   5.852  0.5936  0.7414 -0.2315
17853TIP3    H174974   5.309   6.413   5.840 -0.4098  0.7739  1.2769
17853TIP3    H274975   5.415   6.308   5.817  0.7207  2.2562 -0.4880
17854TIP3   OH274976   4.327   1.032   5.362  0.1426  0.3092 -0.0073
17854TIP3    H174977   4.362   0.948   5.393  1.6449  0.6127 -0.7496
17854TIP3    H274978   4.401   1.092   5.369 -0.9704  1.6497  0.7125
17855TIP3   OH274979   2.061   3.259   0.412  0.6380  0.2209  0.7097
17855TIP3    H174980   2.080   3.203   0.488 -0.9503 -1.5744 -0.1445
17855TIP3    H274981   2.147   3.283   0.378  1.3884 -1.7078  1.1302
17856TIP3   OH274982   2.165   1.334   4.090 -0.2960  0.1640  0.3804
17856TIP3    H174983   2.181   1.420   4.050 -0.2307  0.0574  0.1770
17856TIP3    H274984   2.199   1.342   4.178 -1.8341  0.9058  0.9475
17857TIP3   OH274985   1.587   5.345  13.760 -0.6955 -0.4906  0.5146
17857TIP3    H174986   1.533   5.266  13.749 -0.6935 -0.2385 -1.8245
17857TIP3    H274987   1.648   5.343  13.686  0.0699  1.1245  1.0603
17858TIP3   OH274988   1.695   6.399  14.383 -0.3963  0.0702  0.1507
17858TIP3    H174989   1.784   6.406  14.349 -0.0033 -2.9819  0.2947
17858TIP3    H274990   1.644   6.458  14.328  1.2755 -0.0414 -1.6390
17859TIP3   OH274991   1.319   3.796   0.661 -0.0358  0.0045 -0.4018
17859TIP3    H174992   1.294   3.888   0.670  0.3424  0.2760 -1.8900
17859TIP3    H274993   1.256   3.760   0.599  0.0334 -0.6539 -0.0977
17860TIP3   OH274994   0.682   4.216  13.579 -0.2015  0.6627  0.0214
17860TIP3    H174995   0.742   4.207  13.654  1.0991 -2.9357 -1.2243
17860TIP3    H274996   0.597   4.190  13.614  0.4670 -1.3863  0.2665
17861TIP3   OH274997   5.557   6.633  13.334 -0.3128 -0.5646 -0.1121
17861TIP3    H174998   5.535   6.543  13.312 -1.0021 -0.7230  1.1528
17861TIP3    H274999   5.527   6.684  13.259  2.1758 -1.5597 -1.9543
17862TIP3   OH275000   2.128   3.544   2.352  0.0494 -0.3584  0.2464
17862TIP3    H175001   2.196   3.481   2.374 -0.5739 -0.7444  1.1371
17862TIP3    H275002   2.091   3.512   2.270  0.4760 -0.5294  0.1186
17863TIP3   OH275003   0.469   1.781  16.525  0.1173  0.4965  0.2193
17863TIP3    H175004   0.376   1.800  16.540  0.1686 -0.1666  1.5082
17863TIP3    H275005   0.485   1.810  16.436 -1.4278  0.2671 -0.1602
17864TIP3   OH275006   0.962   1.984  15.214 -0.2616 -0.0002 -0.4816
17864TIP3    H175007   0.952   2.071  15.252  2.0514  1.5491 -3.0542
17864TIP3    H275008   0.894   1.931  15.256 -2.1571  3.1648  0.7500
17865TIP3   OH275009   2.251   3.858  11.218  0.3723  0.0468 -0.0932
17865TIP3    H175010   2.182   3.924  11.220  1.1478  0.8952 -0.4947
17865TIP3    H275011   2.205   3.777  11.195 -0.8193  0.1094  1.8717
17866TIP3   OH275012   5.179   4.371   1.009  0.1845 -0.6086 -0.2334
17866TIP3    H175013   5.217   4.425   1.078 -1.7740  1.5420 -0.7263
17866TIP3    H275014   5.253   4.347   0.953  1.2758  0.6576  0.6147
17867TIP3   OH275015   4.957   2.986  13.792  0.0709 -0.0664  0.3561
17867TIP3    H175016   4.973   3.078  13.812  2.2461 -0.2134 -0.5188
17867TIP3    H275017   4.947   2.944  13.878  0.5062  0.7491  0.8145
17868TIP3   OH275018   6.257   0.098  12.499  0.5755 -0.2543 -0.1983
17868TIP3    H175019   6.209   0.054  12.429  0.0828 -0.4625  0.2675
17868TIP3    H275020   6.231   0.190  12.491  1.9871  0.0696 -1.4865
17869TIP3   OH275021   3.880   3.141   1.616  0.2450 -0.3453  0.5350
17869TIP3    H175022   3.896   3.172   1.527  0.2042 -0.3471  0.5271
17869TIP3    H275023   3.831   3.212   1.657  0.8297 -0.0599  0.7545
17870TIP3   OH275024   3.265   6.271  15.793 -0.4996  0.7997 -0.1625
17870TIP3    H175025   3.293   6.279  15.884  0.1568 -0.0718 -0.2756
17870TIP3    H275026   3.320   6.335  15.746 -0.6046  1.0120  0.0035
17871TIP3   OH275027   4.178   0.490  12.274 -0.2097 -0.2261 -0.3278
17871TIP3    H175028   4.088   0.511  12.301 -0.7242 -2.2121 -0.3565
17871TIP3    H275029   4.221   0.461  12.354  0.1773 -0.0359 -0.4652
17872TIP3   OH275030   0.124   5.000  12.127  0.2072  0.4478 -0.0820
17872TIP3    H175031   0.094   4.912  12.151  2.0392  0.5481  3.1750
17872TIP3    H275032   0.095   5.055  12.199 -1.5852  2.8137 -2.4104
17873TIP3   OH275033   0.844   2.603  11.386 -0.3611  0.2505  0.2145
17873TIP3    H175034   0.832   2.696  11.366 -1.2842  0.2504  0.7094
17873TIP3    H275035   0.778   2.558  11.334  0.9209 -0.2764 -1.0270
17874TIP3   OH275036   3.325   5.427   1.965 -0.2837 -0.1993 -0.0835
17874TIP3    H175037   3.409   5.394   1.995  0.1647  0.9819  0.0066
17874TIP3    H275038   3.303   5.373   1.889 -0.0822 -1.3717  0.6813
17875TIP3   OH275039   0.782   4.486  14.608  0.7526 -0.1198  0.3058
17875TIP3    H175040   0.767   4.539  14.686 -0.8810 -0.0330 -0.0488
17875TIP3    H275041   0.847   4.536  14.558  0.3461  0.8140  0.6847
17876TIP3   OH275042   1.646   5.194  16.284 -0.4859 -0.1693  0.4552
17876TIP3    H175043   1.649   5.099  16.291 -0.0242 -0.2785 -0.8351
17876TIP3    H275044   1.562   5.212  16.240  0.3697 -0.1776 -1.2892
17877TIP3   OH275045   3.385   2.637   5.810  0.6534 -0.6235 -0.2230
17877TIP3    H175046   3.353   2.642   5.720 -0.0189 -0.9323 -0.0085
17877TIP3    H275047   3.381   2.544   5.831  0.6241 -0.5277  0.1920
17878TIP3   OH275048   2.425   0.624   2.303  0.0699  0.3100 -0.4598
17878TIP3    H175049   2.437   0.536   2.341  2.9770  0.1681 -1.4639
17878TIP3    H275050   2.385   0.675   2.374 -0.0939 -1.3824  0.7350
17879TIP3   OH275051   4.983   1.374   6.060  0.5964  0.5008  0.0631
17879TIP3    H175052   5.073   1.366   6.030  0.1910 -0.3188 -0.9617
17879TIP3    H275053   4.947   1.285   6.055  0.0046  0.6272  1.3885
17880TIP3   OH275054   6.723   4.680  16.430  0.0537  0.5377 -0.7400
17880TIP3    H175055   6.755   4.767  16.453 -0.5426  1.1399 -2.0825
17880TIP3    H275056   6.632   4.679  16.461  0.2984  0.0745  0.0007
17881TIP3   OH275057   3.131   5.698  14.341  0.4892  0.0322 -0.1128
17881TIP3    H175058   3.107   5.679  14.250  0.2416  0.3765 -0.1212
17881TIP3    H275059   3.048   5.714  14.386  0.6335  0.2690  0.0761
17882TIP3   OH275060   1.889   2.878  13.035  0.7159  0.4451  0.6799
17882TIP3    H175061   1.906   2.972  13.048  0.8930  0.2779  1.7198
17882TIP3    H275062   1.960   2.834  13.083  0.0046 -0.2213  1.1420
17883TIP3   OH275063   2.365   1.646   1.364  0.1604 -0.0230 -0.5695
17883TIP3    H175064   2.431   1.688   1.419 -1.1237  1.9398 -0.3940
17883TIP3    H275065   2.411   1.575   1.320  2.7250  1.9931 -1.3864
17884TIP3   OH275066   3.306   0.131  15.597 -0.2758  0.4751 -0.2273
17884TIP3    H175067   3.321   0.118  15.504  0.4626  0.6257 -0.1372
17884TIP3    H275068   3.251   0.058  15.623 -0.0795  0.1594 -0.6877
17885TIP3   OH275069   3.372   5.116  15.741 -0.2705 -0.1381  0.1636
17885TIP3    H175070   3.361   5.205  15.775  0.7132 -0.5586  1.7276
17885TIP3    H275071   3.424   5.126  15.662 -1.3937  0.7741 -0.4829
17886TIP3   OH275072   1.911   2.222   2.748 -0.0201  0.1442  0.2876
17886TIP3    H175073   1.866   2.255   2.670 -0.5536 -1.5911 -0.1869
17886TIP3    H275074   1.841   2.188   2.804  0.4890 -0.0791  0.8047
17887TIP3   OH275075   6.424   3.697   4.233  0.1370 -0.5032 -0.3236
17887TIP3    H175076   6.460   3.646   4.305 -0.2055  0.3093  0.4531
17887TIP3    H275077   6.443   3.788   4.257  0.8983 -0.2654 -1.7601
17888TIP3   OH275078   1.836   2.326  13.819  0.1580  0.5073  0.1949
17888TIP3    H175079   1.775   2.384  13.864 -1.3102  0.1389 -1.2061
17888TIP3    H275080   1.912   2.381  13.799 -0.0295  1.1820  1.3060
17889TIP3   OH275081   3.509   2.789   0.159  0.1048  0.6257 -0.0986
17889TIP3    H175082   3.472   2.743   0.234  0.7939  0.3134  0.0561
17889TIP3    H275083   3.488   2.734   0.084  1.7574 -0.4895  0.1929
17890TIP3   OH275084   1.141   3.665   5.729 -0.3877 -0.0890  0.4170
17890TIP3    H175085   1.211   3.729   5.742 -0.0918 -0.1906 -0.6091
17890TIP3    H275086   1.180   3.582   5.757 -0.6204  0.0928  1.3124
17891TIP3   OH275087   6.051   3.170   4.136  0.5505 -0.2387 -0.2791
17891TIP3    H175088   6.092   3.241   4.087 -0.9487 -0.0744 -1.3753
17891TIP3    H275089   5.971   3.150   4.087 -0.5991 -0.6457  1.6367
17892TIP3   OH275090   0.311   1.906   3.198 -0.0232  0.5163 -0.5892
17892TIP3    H175091   0.307   1.915   3.293 -1.2351  1.3964 -0.6905
17892TIP3    H275092   0.343   1.817   3.184  1.4032  0.8011  0.6190
17893TIP3   OH275093   4.949   4.973  11.871 -0.5255  0.9618 -0.2865
17893TIP3    H175094   4.996   4.902  11.916  0.4036  1.3546 -0.6001
17893TIP3    H275095   4.897   4.928  11.804  1.0479  0.6115 -1.3494
17894TIP3   OH275096   3.256   5.520  16.412  0.2507 -0.3788 -0.0380
17894TIP3    H175097   3.254   5.440  16.359  0.5807  1.5477 -3.2700
17894TIP3    H275098   3.169   5.557  16.402  0.4412  0.2181  0.4558
17895TIP3   OH275099   5.886   4.840  17.164 -0.2520  0.3840 -0.2892
17895TIP3    H175100   5.892   4.860  17.258 -0.5214  0.2066 -0.2337
17895TIP3    H275101   5.810   4.782  17.157  0.1253 -0.0888 -0.5380
17896TIP3   OH275102   3.848   6.263  16.105  0.4614  0.3770  1.0105
17896TIP3    H175103   3.921   6.263  16.044  0.5394 -0.6651  1.0852
17896TIP3    H275104   3.889   6.276  16.191  0.4524  0.8073  0.9520
17897TIP3   OH275105   4.574   3.345   3.187  0.3928  0.2189  0.0971
17897TIP3    H175106   4.654   3.345   3.240 -0.2071  0.3639  1.0171
17897TIP3    H275107   4.593   3.284   3.115  2.1334  1.9170 -0.9656
17898TIP3   OH275108   1.697   2.947   3.063  0.0280  0.6451 -1.0738
17898TIP3    H175109   1.763   2.912   3.003  0.2506  0.8297 -0.9366
17898TIP3    H275110   1.746   3.001   3.124 -0.2369  0.6923 -0.9014
17899TIP3   OH275111   0.502   5.304  11.868  0.6928 -0.4554  0.2556
17899TIP3    H175112   0.558   5.332  11.940 -0.1544 -0.2260  0.8482
17899TIP3    H275113   0.440   5.242  11.908  0.2695 -0.3967 -0.2867
17900TIP3   OH275114   5.303   2.053  12.635  0.4455 -0.4851 -0.4651
17900TIP3    H175115   5.321   2.115  12.706 -1.0629  0.0719 -0.5378
17900TIP3    H275116   5.302   2.107  12.556 -0.1068 -0.7277 -0.6240
17901TIP3   OH275117   1.316   3.470   1.853 -0.5289  0.0079 -0.4030
17901TIP3    H175118   1.299   3.451   1.945  1.8735  0.5116  0.1963
17901TIP3    H275119   1.379   3.541   1.854  2.9316 -2.7294 -2.3000
17902TIP3   OH275120   2.685   4.041  15.689  0.5966  0.0989  0.5236
17902TIP3    H175121   2.688   3.981  15.764 -1.7694  0.1744  0.7575
17902TIP3    H275122   2.670   3.983  15.614 -0.3043  0.2606  0.5680
17903TIP3   OH275123   4.997   2.083   2.772 -0.3992 -0.3136  0.2310
17903TIP3    H175124   4.924   2.037   2.732  0.9090 -0.3497 -2.3463
17903TIP3    H275125   4.968   2.101   2.861 -2.4825 -2.6369  0.1464
17904TIP3   OH275126   0.708   0.667  11.957  0.2551  0.3846 -0.3355
17904TIP3    H175127   0.800   0.673  11.982  0.1670 -1.5540  0.5793
17904TIP3    H275128   0.708   0.667  11.862  1.3368 -1.1214 -0.3532
17905TIP3   OH275129   2.064   4.588   4.269  0.1597 -0.0340  0.4560
17905TIP3    H175130   1.979   4.617   4.238 -0.0814 -3.1047 -2.3390
17905TIP3    H275131   2.126   4.650   4.230 -0.6247  2.1618  2.4265
17906TIP3   OH275132   4.201   5.249  15.402  0.5483  0.1381  0.2799
17906TIP3    H175133   4.242   5.273  15.319  0.9044  0.4159  0.5372
17906TIP3    H275134   4.143   5.323  15.423 -0.6000 -0.5260 -0.4095
17907TIP3   OH275135   5.023   0.653  11.637  0.2233  0.0583  0.0142
17907TIP3    H175136   5.049   0.738  11.602  0.0705  1.1388  2.3466
17907TIP3    H275137   4.944   0.670  11.688 -0.8302 -1.8385 -0.8658
17908TIP3   OH275138   4.484   1.257   5.368  0.1004 -0.3143  0.3638
17908TIP3    H175139   4.473   1.318   5.442 -0.9991 -1.7850  1.4766
17908TIP3    H275140   4.566   1.211   5.387  0.3315 -0.0001  0.1351
17909TIP3   OH275141   0.621   5.100  14.093 -0.1263  0.1543  0.1083
17909TIP3    H175142   0.663   5.156  14.028 -0.6658 -0.1676 -0.5367
17909TIP3    H275143   0.578   5.161  14.153  1.7088  0.5142  1.1394
17910TIP3   OH275144   3.550   2.245  13.158  0.0846 -0.2328 -0.1709
17910TIP3    H175145   3.535   2.154  13.130  0.5614 -0.5177  0.4781
17910TIP3    H275146   3.500   2.254  13.239  1.4990 -0.4830  0.7489
17911TIP3   OH275147   0.581   4.722  12.673 -0.0932  0.1844  0.2529
17911TIP3    H175148   0.643   4.747  12.605  1.0137  0.4897  1.3297
17911TIP3    H275149   0.571   4.801  12.726  0.5380 -0.5585  1.5164
17912TIP3   OH275150   0.238   2.269   5.229 -0.3525  0.3140  0.0778
17912TIP3    H175151   0.174   2.296   5.295 -0.1891 -0.3851  0.5377
17912TIP3    H275152   0.247   2.345   5.172 -0.7150  0.8308  0.6926
17913TIP3   OH275153   5.422   5.787  11.608 -0.5745  0.2854  0.2702
17913TIP3    H175154   5.401   5.732  11.533 -0.0682 -0.3738  0.6037
17913TIP3    H275155   5.476   5.857  11.572  0.5693 -0.6252  0.1887
17914TIP3   OH275156   1.053   2.088   4.096 -0.0052  0.0260 -0.7744
17914TIP3    H175157   0.992   2.050   4.159 -0.5932  2.2365  0.0837
17914TIP3    H275158   1.138   2.083   4.138  0.3277 -2.1167 -1.5438
17915TIP3   OH275159   5.176   0.050  12.631  0.3419 -0.2794  0.3801
17915TIP3    H175160   5.222  -0.026  12.666 -0.5718 -0.5012  1.1586
17915TIP3    H275161   5.104   0.013  12.580 -0.3097  0.0442  1.0416
17916TIP3   OH275162   6.243   1.164   3.983 -0.0874 -0.4469  0.4856
17916TIP3    H175163   6.228   1.233   4.049  0.5741  0.2054 -0.0303
17916TIP3    H275164   6.266   1.212   3.904  0.1443 -1.2658  0.0517
17917TIP3   OH275165   4.785   3.955  15.388  0.0523  0.5113  0.0146
17917TIP3    H175166   4.839   3.914  15.455 -1.3182 -0.6336  0.4699
17917TIP3    H275167   4.788   4.049  15.408  0.9400  0.3409  0.6938
17918TIP3   OH275168   5.559   2.128   3.414 -0.5999 -0.3708 -0.2315
17918TIP3    H175169   5.545   2.123   3.320 -0.7690  1.5681 -0.3549
17918TIP3    H275170   5.471   2.128   3.451 -0.5488 -0.6483 -0.1096
17919TIP3   OH275171   2.677   2.582  13.345  0.8498  0.5077  0.5823
17919TIP3    H175172   2.628   2.524  13.287  1.2116 -0.0597  0.8326
17919TIP3    H275173   2.660   2.548  13.433 -0.3105  1.8192  0.8945
17920TIP3   OH275174   3.322   6.218   4.629 -0.2555  0.5526 -0.2611
17920TIP3    H175175   3.339   6.305   4.593  0.7611  0.2425 -0.5638
17920TIP3    H275176   3.393   6.164   4.594  0.1381 -0.0125  1.3279
17921TIP3   OH275177   5.845   6.070   1.749 -0.5512  0.0408 -0.0295
17921TIP3    H175178   5.861   6.105   1.661  0.0287  1.1148  0.4897
17921TIP3    H275179   5.922   6.019   1.769  0.2124  1.3832  0.6027
17922TIP3   OH275180   1.230   5.203   4.251  0.4644  0.5839  0.2088
17922TIP3    H175181   1.140   5.214   4.280  0.0965 -0.1825 -0.6059
17922TIP3    H275182   1.276   5.172   4.329  0.1860  1.6336  0.8094
17923TIP3   OH275183   2.102   5.931  11.471  0.4532 -0.1545 -0.1705
17923TIP3    H175184   2.111   6.023  11.497 -2.1946  0.6098 -1.5721
17923TIP3    H275185   2.013   5.907  11.498  0.0731 -1.3900 -2.2640
17924TIP3   OH275186   5.964   3.722  14.163  0.0182  0.4059  0.2972
17924TIP3    H175187   5.912   3.642  14.154  1.7393 -0.9797  1.8327
17924TIP3    H275188   5.984   3.728  14.256  1.9555  1.2710 -0.1185
17925TIP3   OH275189   0.420   4.670   5.075 -0.5090  0.2382  0.7639
17925TIP3    H175190   0.428   4.763   5.054  1.6814 -0.1526 -0.5148
17925TIP3    H275191   0.391   4.630   4.993 -0.5171 -0.3145  1.0329
17926TIP3   OH275192   5.059   4.549  16.181 -0.2735  0.1298  0.0135
17926TIP3    H175193   5.135   4.589  16.224 -0.2122 -0.1758  0.1908
17926TIP3    H275194   5.080   4.550  16.088  0.2408 -0.5691  0.1184
17927TIP3   OH275195   2.811   3.584   3.058  0.3150 -0.1870 -0.6899
17927TIP3    H175196   2.892   3.534   3.063  0.2804 -0.2142 -0.3505
17927TIP3    H275197   2.760   3.554   3.133  1.3813  2.2391  1.1554
17928TIP3   OH275198   4.586   6.559  15.941 -0.1698 -0.5227  0.5349
17928TIP3    H175199   4.654   6.619  15.971 -1.3779  0.8745  0.5667
17928TIP3    H275200   4.619   6.528  15.856  0.0376  1.0002  0.0140
17929TIP3   OH275201   5.033   0.995   4.457 -0.3980  0.7644  0.3379
17929TIP3    H175202   5.058   1.083   4.485  1.4366  0.4986 -0.3568
17929TIP3    H275203   4.981   0.960   4.530  0.3403  1.7827  1.3715
17930TIP3   OH275204   3.723   1.906  10.921  0.5253  0.0773  0.3944
17930TIP3    H175205   3.818   1.896  10.932  0.5506  0.9135  0.9769
17930TIP3    H275206   3.690   1.816  10.922  1.4624 -0.3392 -1.3535
17931TIP3   OH275207   1.459   5.366   6.372 -0.0497  0.2013 -0.2242
17931TIP3    H175208   1.514   5.290   6.350 -1.7876 -1.4613  0.8725
17931TIP3    H275209   1.418   5.343   6.455 -1.9341  1.6105 -0.6884
17932TIP3   OH275210   1.996   1.090   1.255 -0.3554 -0.4630 -0.3576
17932TIP3    H175211   1.946   1.165   1.223  0.3729 -0.0662 -0.6055
17932TIP3    H275212   2.039   1.122   1.335 -1.8070 -1.3100  0.8033
17933TIP3   OH275213   4.194   4.701   0.628  0.4073  0.9004  0.5777
17933TIP3    H175214   4.233   4.717   0.543  0.3891  1.7112  0.7121
17933TIP3    H275215   4.114   4.754   0.629 -0.5546 -0.4951  0.4238
17934TIP3   OH275216   5.247   4.494   5.231  0.0667  0.0494 -0.2446
17934TIP3    H175217   5.294   4.506   5.314 -1.4092 -0.3339  0.6848
17934TIP3    H275218   5.212   4.405   5.236 -2.4882  0.9777  0.0596
17935TIP3   OH275219   4.640   1.620  16.054 -0.0086 -0.3130  0.1512
17935TIP3    H175220   4.608   1.676  16.125  0.3439  1.0398 -0.7257
17935TIP3    H275221   4.579   1.634  15.982  0.7572 -0.1351 -0.4758
17936TIP3   OH275222   4.333   4.542  14.227  0.4036 -0.1073 -0.3256
17936TIP3    H175223   4.354   4.522  14.136  1.1262  1.7294 -0.6082
17936TIP3    H275224   4.318   4.637  14.228 -0.0175 -0.1518  1.3932
17937TIP3   OH275225   5.849   5.159   5.471 -0.0408  0.9184  0.1217
17937TIP3    H175226   5.935   5.162   5.512  0.1263 -0.0062 -0.1265
17937TIP3    H275227   5.841   5.069   5.439 -0.9941  1.0629 -0.0872
17938TIP3   OH275228   3.932   0.236   1.238 -0.0957  0.3709 -0.5148
17938TIP3    H175229   3.986   0.310   1.210 -0.0641  0.3835 -0.4202
17938TIP3    H275230   3.941   0.234   1.333  1.6524 -1.0574 -0.6496
17939TIP3   OH275231   0.528   6.354   1.202 -0.5475 -0.7500 -0.2334
17939TIP3    H175232   0.459   6.350   1.269 -0.1643 -0.2299  0.2045
17939TIP3    H275233   0.481   6.347   1.119 -1.2306  0.6057  0.0205
17940TIP3   OH275234   6.258   5.983  15.270 -0.2125 -0.6411  0.1529
17940TIP3    H175235   6.171   5.994  15.232  0.6849 -1.1695 -2.2537
17940TIP3    H275236   6.295   5.908  15.223  2.2310  0.7636 -0.3410
17941TIP3   OH275237   4.230   4.118   5.809 -0.2118 -0.8953  0.1918
17941TIP3    H175238   4.275   4.190   5.765  0.7401 -2.0985 -0.8888
17941TIP3    H275239   4.188   4.158   5.885 -0.6630  1.0010 -0.9879
17942TIP3   OH275240   2.852   0.442   2.661  0.2567 -1.0277 -0.2111
17942TIP3    H175241   2.791   0.446   2.734  2.1444  2.0396  1.3853
17942TIP3    H275242   2.812   0.497   2.593 -0.5730 -2.2914 -0.7779
17943TIP3   OH275243   5.536   0.564   5.301  0.4265 -0.8023  0.2895
17943TIP3    H175244   5.549   0.469   5.299  2.3231 -0.6182  1.2881
17943TIP3    H275245   5.521   0.584   5.394  0.1242 -0.1256  0.0986
17944TIP3   OH275246   5.734   3.979   2.992  0.4684 -0.0944  0.3033
17944TIP3    H175247   5.643   4.008   2.986  0.1960 -0.6872  1.3403
17944TIP3    H275248   5.783   4.039   2.935 -0.6296 -0.0679 -0.6445
17945TIP3   OH275249   5.716   2.149   2.583  0.6203  0.0266 -0.8167
17945TIP3    H175250   5.736   2.058   2.605  0.5802  0.5976  1.8498
17945TIP3    H275251   5.643   2.172   2.641  1.9649  2.3624  0.0551
17946TIP3   OH275252   1.219   2.729   4.944 -0.2660 -0.1282  0.1884
17946TIP3    H175253   1.283   2.799   4.955  0.5899 -0.8391 -0.1465
17946TIP3    H275254   1.180   2.719   5.031 -1.4647  1.7411 -0.0902
17947TIP3   OH275255   1.632   1.597   5.681 -0.3027  0.0906 -0.4648
17947TIP3    H175256   1.560   1.615   5.620  0.1239  0.6693 -0.8106
17947TIP3    H275257   1.698   1.554   5.627 -1.4053 -2.9293  0.3926
17948TIP3   OH275258   5.263   6.404   1.448 -0.5866  0.4099  0.1114
17948TIP3    H175259   5.325   6.472   1.473 -0.4109 -0.1680  1.3121
17948TIP3    H275260   5.251   6.352   1.527 -0.6697 -0.9960 -0.7842
17949TIP3   OH275261   1.370   4.463   4.663  0.2031 -0.3038  0.8933
17949TIP3    H175262   1.460   4.450   4.633  0.0118 -0.4363  0.3769
17949TIP3    H275263   1.379   4.515   4.743  0.6725  0.6851  0.2088
17950TIP3   OH275264   1.391   4.148  15.700  0.3838 -0.4394 -0.1564
17950TIP3    H175265   1.436   4.125  15.781  1.7517 -0.4250 -0.8841
17950TIP3    H275266   1.335   4.072  15.682  0.1888 -0.5131  0.7059
17951TIP3   OH275267   3.094   3.793   5.852  0.6083  0.1707  0.5213
17951TIP3    H175268   3.078   3.731   5.922 -1.0112 -0.5132 -0.4012
17951TIP3    H275269   3.039   3.869   5.874 -1.5725 -0.8626 -0.9691
17952TIP3   OH275270   0.569   2.055  14.250  0.2056  0.6156 -0.1025
17952TIP3    H175271   0.637   2.103  14.297  1.7622  0.9758 -2.5887
17952TIP3    H275272   0.522   2.122  14.201 -2.6180  0.4993  2.1554
17953TIP3   OH275273   0.760   3.842  11.165  0.0896 -0.3347 -0.0364
17953TIP3    H175274   0.793   3.763  11.121  0.5060 -0.3066  0.2201
17953TIP3    H275275   0.834   3.901  11.166 -0.3603  0.2608 -0.6674
17954TIP3   OH275276   0.530   2.424   1.441  0.4041 -0.0250 -0.0482
17954TIP3    H175277   0.482   2.419   1.524 -1.0052  0.2522 -0.8160
17954TIP3    H275278   0.525   2.335   1.406 -0.7217  0.2934 -0.7426
17955TIP3   OH275279   0.906   0.239   2.861  0.3779  0.1171  0.1263
17955TIP3    H175280   0.949   0.323   2.874 -1.7407  1.2187  0.4674
17955TIP3    H275281   0.854   0.226   2.940 -1.5962 -0.0572 -1.1350
17956TIP3   OH275282   4.681   2.530  13.175 -0.2345  0.1758 -0.9143
17956TIP3    H175283   4.681   2.561  13.085 -0.4029  2.9304 -0.0574
17956TIP3    H275284   4.759   2.570  13.214 -0.6627 -0.1964  0.3842
17957TIP3   OH275285   2.506   6.575  13.978  0.4925  0.0857 -0.4802
17957TIP3    H175286   2.430   6.520  13.955  1.5490 -1.4518 -0.4234
17957TIP3    H275287   2.527   6.552  14.068 -0.6527  2.5936  0.5443
17958TIP3   OH275288   5.848   0.504   4.571 -0.0315  0.0768  0.3793
17958TIP3    H175289   5.754   0.494   4.563  0.1969 -1.3772 -0.9328
17958TIP3    H275290   5.869   0.580   4.516 -0.4069  0.3748  0.6367
17959TIP3   OH275291   2.811   0.487  12.081 -0.3973  0.4089 -0.4660
17959TIP3    H175292   2.781   0.501  11.991  0.9650 -0.4610 -1.0770
17959TIP3    H275293   2.851   0.570  12.106 -2.3293  1.2619  0.0141
17960TIP3   OH275294   4.422   4.558  15.464  0.2803 -0.4851  0.0173
17960TIP3    H175295   4.361   4.630  15.479  1.3360  0.5500 -0.4495
17960TIP3    H275296   4.508   4.594  15.490  0.9279 -1.3466 -0.8575
17961TIP3   OH275297   0.236   2.121   2.474 -0.6565 -0.2874  0.2783
17961TIP3    H175298   0.303   2.181   2.443 -1.2356  0.0387 -0.3801
17961TIP3    H275299   0.253   2.112   2.568  1.8337 -2.1458 -0.2314
17962TIP3   OH275300   4.149   0.309  14.862  0.3059  0.1074  0.0444
17962TIP3    H175301   4.197   0.367  14.803 -0.5205  0.2205 -0.5280
17962TIP3    H275302   4.119   0.237  14.807 -2.7963  1.5350 -0.3475
17963TIP3   OH275303   2.344   2.162   5.235  0.0058  0.1575  0.2436
17963TIP3    H175304   2.315   2.125   5.151  2.0484 -0.4983 -0.2152
17963TIP3    H275305   2.357   2.087   5.292  2.1945  0.2394 -0.0529
17964TIP3   OH275306   6.065   3.008   1.771  0.1417  0.6779 -0.2679
17964TIP3    H175307   6.071   3.036   1.863  1.2760  1.3705 -0.5338
17964TIP3    H275308   5.974   2.980   1.761 -0.4424  2.1042  0.6505
17965TIP3   OH275309   6.040   2.813   2.321 -0.0328 -0.0533  0.6530
17965TIP3    H175310   5.992   2.770   2.250 -2.2677  1.5098  1.1072
17965TIP3    H275311   6.023   2.758   2.398 -0.3404  0.0289  0.6416
17966TIP3   OH275312   4.576   3.113  13.259  0.3462 -0.0923 -0.0596
17966TIP3    H175313   4.645   3.125  13.193  1.7162  1.1360  1.5232
17966TIP3    H275314   4.600   3.032  13.304  0.0962 -0.2798 -0.2616
17967TIP3   OH275315   4.496   6.045   3.461  0.1410  0.0214 -0.3617
17967TIP3    H175316   4.579   6.007   3.491  1.1250  1.3448 -1.2837
17967TIP3    H275317   4.465   6.096   3.536 -0.1384 -0.9046  0.1708
17968TIP3   OH275318   5.065   6.520  11.562 -1.1371  0.4693  0.2343
17968TIP3    H175319   5.072   6.561  11.475 -0.6382  0.1811  0.1355
17968TIP3    H275320   5.057   6.594  11.622 -2.2839  0.6526 -0.1214
17969TIP3   OH275321   0.179   4.534   5.478 -0.2021 -0.1388 -0.3910
17969TIP3    H175322   0.258   4.562   5.431  0.1237 -0.6139 -0.1336
17969TIP3    H275323   0.211   4.471   5.542 -0.8484 -0.6187 -0.5404
17970TIP3   OH275324   2.705   0.038   1.032  0.0197 -0.6748 -0.2743
17970TIP3    H175325   2.731   0.064   0.943 -0.8676 -0.8873 -0.6123
17970TIP3    H275326   2.761  -0.037   1.053  0.4569 -0.4190 -0.5286
17971TIP3   OH275327   1.011   1.912   1.984 -0.1083 -0.3396 -0.8093
17971TIP3    H175328   1.029   1.852   1.912 -0.8002 -0.4068 -0.9324
17971TIP3    H275329   0.937   1.965   1.954 -0.4274 -0.3878 -0.1405
17972TIP3   OH275330   6.256   4.788  14.759  0.0546 -0.3716 -0.0419
17972TIP3    H175331   6.331   4.771  14.701 -0.3691 -0.8770 -0.4489
17972TIP3    H275332   6.290   4.771  14.847  1.0001  1.3698 -0.0071
17973TIP3   OH275333   5.918   4.725  16.386 -0.0032  0.0028  0.5514
17973TIP3    H175334   5.993   4.751  16.439 -0.5453  0.7458  0.9730
17973TIP3    H275335   5.882   4.649  16.431  0.3109 -0.1720  0.5136
17974TIP3   OH275336   4.814   1.297   2.137  0.3176  0.4473 -0.1437
17974TIP3    H175337   4.720   1.288   2.122  0.4856  1.7403 -2.3395
17974TIP3    H275338   4.852   1.306   2.050  2.4103  0.6950  0.7287
17975TIP3   OH275339   4.227   1.699   2.309 -0.1015 -0.2476 -0.1717
17975TIP3    H175340   4.158   1.675   2.370 -0.9513 -1.1896 -1.4649
17975TIP3    H275341   4.268   1.616   2.285  0.2770  0.1166 -0.8147
17976TIP3   OH275342   2.385   1.591   4.549  0.8312  0.1303 -0.6116
17976TIP3    H175343   2.322   1.567   4.616  1.7632 -1.1506 -0.1531
17976TIP3    H275344   2.465   1.611   4.597  0.9557  1.1368 -1.2193
17977TIP3   OH275345   0.031   3.960   2.803  0.0542  0.2373  0.0467
17977TIP3    H175346  -0.040   4.017   2.834 -0.6743  0.0108 -1.1259
17977TIP3    H275347   0.016   3.953   2.708  1.4444 -0.1055 -0.1748
17978TIP3   OH275348   6.053   0.868  11.204  0.2239 -0.1234 -0.3067
17978TIP3    H175349   6.089   0.860  11.116  1.2739 -0.9045  0.1677
17978TIP3    H275350   5.962   0.841  11.196  0.2356  0.0715 -1.1921
17979TIP3   OH275351   5.820   5.404   0.872 -0.0518 -0.3595 -0.3694
17979TIP3    H175352   5.771   5.384   0.952 -1.3992  0.7682 -0.8734
17979TIP3    H275353   5.818   5.499   0.866  0.4715 -0.4035 -1.4970
17980TIP3   OH275354   6.196   3.539   0.294 -0.0252  0.1072 -0.1753
17980TIP3    H175355   6.107   3.558   0.264  0.7576  0.1902 -2.6717
17980TIP3    H275356   6.235   3.625   0.309 -0.6579  0.0711  2.1569
17981TIP3   OH275357   5.619   5.498   5.160 -0.4424 -0.0798 -0.9014
17981TIP3    H175358   5.636   5.570   5.221  0.0401  0.4263 -1.6055
17981TIP3    H275359   5.530   5.471   5.178 -0.8286  1.0795 -0.9981
17982TIP3   OH275360   3.422   2.436   1.725  0.5135  0.2372  0.5846
17982TIP3    H175361   3.339   2.406   1.759  1.1048  0.7866  2.6486
17982TIP3    H275362   3.405   2.525   1.694  0.2750  0.2317  0.7062
17983TIP3   OH275363   3.597   3.979   6.867  0.0205 -0.0909 -0.1696
17983TIP3    H175364   3.618   3.991   6.774  0.4870  3.2260  0.2671
17983TIP3    H275365   3.663   3.916   6.898  0.6957 -0.2270 -1.7710
17984TIP3   OH275366   1.152   0.711  14.078 -0.6410 -0.0996 -0.4095
17984TIP3    H175367   1.203   0.781  14.038 -3.1011  1.1701 -1.5123
17984TIP3    H275368   1.166   0.636  14.021 -0.6598  0.4698 -1.1817
17985TIP3   OH275369   1.474   3.077   0.677  0.2049  0.4976 -0.9175
17985TIP3    H175370   1.561   3.095   0.642 -0.2420 -0.2531 -2.5055
17985TIP3    H275371   1.477   2.986   0.706  0.2281  0.7728 -0.0104
17986TIP3   OH275372   4.767   5.981   1.640  0.2214  0.1161  0.5306
17986TIP3    H175373   4.723   5.976   1.725 -2.8950  0.4410 -0.9399
17986TIP3    H275374   4.789   6.074   1.630  0.9163  0.0212  1.1030
17987TIP3   OH275375   1.283   1.674   1.728  0.1224  0.1190 -0.1390
17987TIP3    H175376   1.195   1.709   1.718 -0.1413  0.0079  1.5094
17987TIP3    H275377   1.271   1.581   1.745  0.4331  0.3247  1.4080
17988TIP3   OH275378   5.986   3.035  13.441  0.2738 -0.0045 -0.4390
17988TIP3    H175379   5.925   2.961  13.441 -0.6589  0.7234  1.1787
17988TIP3    H275380   6.016   3.042  13.531  0.3953  1.5484 -0.5822
17989TIP3   OH275381   0.757   4.107   5.863 -0.3662 -0.2205  0.5443
17989TIP3    H175382   0.853   4.106   5.874 -0.1823 -0.7011 -0.8962
17989TIP3    H275383   0.739   4.192   5.823 -0.3181 -0.7792 -0.7236
17990TIP3   OH275384   2.676   0.917  11.639 -0.0265 -0.3722  0.3579
17990TIP3    H175385   2.707   0.840  11.591  0.8596 -0.6697  1.3624
17990TIP3    H275386   2.606   0.882  11.695 -1.1560  0.0002 -0.7773
17991TIP3   OH275387   1.332   4.130   3.108  0.0870 -0.1329  0.7434
17991TIP3    H175388   1.411   4.100   3.064  0.3080 -0.0025  1.0487
17991TIP3    H275389   1.276   4.053   3.114  0.4795 -0.3872  1.1519
17992TIP3   OH275390   2.549   3.750   3.817  0.1146 -0.2784 -0.3902
17992TIP3    H175391   2.501   3.705   3.748 -1.1578  1.2970 -0.5863
17992TIP3    H275392   2.508   3.720   3.898 -2.9266  2.7075 -0.6120
17993TIP3   OH275393   4.496   2.209   0.165 -0.1795 -0.2566 -0.0211
17993TIP3    H175394   4.470   2.175   0.079  0.7854  1.1133 -0.9018
17993TIP3    H275395   4.526   2.298   0.147 -0.8926  0.4263  1.9010
17994TIP3   OH275396   5.075   3.726   0.798 -0.4919 -0.1581 -0.4041
17994TIP3    H175397   5.023   3.724   0.718 -1.1195 -2.7181 -0.0157
17994TIP3    H275398   5.045   3.651   0.849  2.8393 -1.2256  0.2848
17995TIP3   OH275399   0.641   6.170   0.530 -0.0980 -0.3501  0.1756
17995TIP3    H175400   0.590   6.247   0.552 -0.2408 -0.4097  0.0565
17995TIP3    H275401   0.719   6.176   0.585  0.1065  0.1124 -0.1552
17996TIP3   OH275402   2.741   2.602   2.238  0.3256  0.0245 -0.7011
17996TIP3    H175403   2.811   2.593   2.173 -0.2176 -2.4973 -1.0646
17996TIP3    H275404   2.769   2.546   2.310  0.0199  1.3178  0.4614
17997TIP3   OH275405   0.711   2.801   1.317  0.1647 -0.2614 -0.1959
17997TIP3    H175406   0.757   2.812   1.233  0.3643 -1.4275 -0.2596
17997TIP3    H275407   0.623   2.775   1.292 -0.3260  1.1734 -0.0565
17998TIP3   OH275408   2.908   4.148  16.738 -0.0027 -0.0074  0.2243
17998TIP3    H175409   2.889   4.232  16.781 -0.3066 -0.0320  0.1427
17998TIP3    H275410   2.833   4.133  16.681  1.6243  1.3687 -2.4395
17999TIP3   OH275411   3.455   2.984  11.233  0.0741  0.5752 -0.6939
17999TIP3    H175412   3.447   2.946  11.145  1.0556  1.0946 -1.0308
17999TIP3    H275413   3.464   3.078  11.217 -0.4456  0.7558  0.0143
18000TIP3   OH275414   6.278   4.358  16.942 -0.0596 -0.0137 -0.1120
18000TIP3    H175415   6.260   4.360  17.036 -0.4466  1.3757 -0.1995
18000TIP3    H275416   6.278   4.264  16.920  2.8270 -0.5787  1.7604
18001TIP3   OH275417   2.882   5.168  14.188  0.3821  0.2394  0.4460
18001TIP3    H175418   2.805   5.134  14.233  0.8963 -0.5177  0.7696
18001TIP3    H275419   2.871   5.263  14.191 -1.8214  0.1518 -1.7466
18002TIP3   OH275420   5.181   4.405   0.004  0.0796  0.0725 -0.9738
18002TIP3    H175421   5.176   4.446   0.090 -1.5242  0.4057 -1.1954
18002TIP3    H275422   5.194   4.312   0.023 -0.6471  0.0934 -0.3621
18003TIP3   OH275423   6.548   1.202   6.645 -0.6900 -0.2296  0.2035
18003TIP3    H175424   6.538   1.109   6.666 -0.0491 -0.5753 -0.9246
18003TIP3    H275425   6.605   1.203   6.568 -1.8918  1.0280 -0.7219
18004TIP3   OH275426   1.711   6.270  15.029 -0.4528 -0.4105 -0.2617
18004TIP3    H175427   1.615   6.270  15.027 -0.4498 -0.3779 -0.4592
18004TIP3    H275428   1.735   6.356  15.062 -0.5094 -0.8409  0.9451
18005TIP3   OH275429   0.665   5.936   2.126 -0.2141 -0.0283  0.4223
18005TIP3    H175430   0.653   5.860   2.067 -0.1639  1.5193 -1.7039
18005TIP3    H275431   0.749   5.973   2.100  0.7294 -0.3094  2.8097
18006TIP3   OH275432   2.948   2.236   0.508  0.1174  0.1556  0.5321
18006TIP3    H175433   2.853   2.243   0.500  0.2158  0.9791 -0.1264
18006TIP3    H275434   2.970   2.285   0.587  0.0927  1.0162  0.0225
18007TIP3   OH275435   4.877   0.474  11.278 -0.7166 -0.2940 -0.4290
18007TIP3    H175436   4.922   0.543  11.229  0.6308 -0.3148  0.7333
18007TIP3    H275437   4.800   0.518  11.315 -0.2255  0.4247 -0.2457
18008TIP3   OH275438   6.638   0.082   1.004 -0.4920 -0.0498 -0.2161
18008TIP3    H175439   6.655   0.094   1.097 -2.2563 -0.7782  0.2311
18008TIP3    H275440   6.611  -0.010   0.996  0.0672 -0.1277 -1.5192
18009TIP3   OH275441   2.761   5.790   5.308 -0.1336  0.4167  0.3930
18009TIP3    H175442   2.743   5.858   5.373  0.0623  1.6184 -0.7465
18009TIP3    H275443   2.852   5.807   5.281 -0.9525  1.5273 -1.9182
18010TIP3   OH275444   6.731   6.305  11.451  0.1687  0.8260  0.7088
18010TIP3    H175445   6.735   6.255  11.369 -1.5883  0.5136  0.7819
18010TIP3    H275446   6.809   6.277  11.499  0.1804 -0.4931 -0.0205
18011TIP3   OH275447   4.546   4.794  14.571 -0.1884 -0.4436 -0.4186
18011TIP3    H175448   4.568   4.795  14.664 -3.0009 -2.5533  0.4041
18011TIP3    H275449   4.515   4.705  14.555 -3.9437  0.9986 -2.2269
18012TIP3   OH275450   2.415   0.151  14.746  0.0645 -0.1728  0.3699
18012TIP3    H175451   2.363   0.072  14.764  1.5357 -1.2965 -0.1158
18012TIP3    H275452   2.413   0.160  14.651  0.4469  0.0062  0.3780
18013TIP3   OH275453   4.886   0.279  15.214  0.4888  0.0251 -0.1607
18013TIP3    H175454   4.802   0.305  15.174  0.6090  3.2354  1.3217
18013TIP3    H275455   4.952   0.305  15.149  0.5899  3.7675  1.1999
18014TIP3   OH275456   5.338   3.817   2.645  0.5246 -0.1680 -0.0996
18014TIP3    H175457   5.248   3.806   2.675  0.8401 -1.3160  0.4753
18014TIP3    H275458   5.334   3.798   2.551 -0.0522  1.0958 -0.3450
18015TIP3   OH275459   3.757   1.112  14.985 -0.0611 -0.6391  0.1762
18015TIP3    H175460   3.754   1.116  14.889 -0.5512  0.1257  0.2059
18015TIP3    H275461   3.805   1.191  15.010  0.1153 -0.8698  0.5527
18016TIP3   OH275462   1.358   0.586  10.398  0.1103  0.4721 -0.0979
18016TIP3    H175463   1.345   0.681  10.391 -0.4556  0.3895 -0.2227
18016TIP3    H275464   1.433   0.568  10.342 -0.9695  0.5934 -1.6560
18017TIP3   OH275465   1.854   4.045   2.995 -0.2694 -0.3317  0.7745
18017TIP3    H175466   1.767   4.056   3.033 -1.1263 -1.1602 -0.8671
18017TIP3    H275467   1.853   3.958   2.955  1.6440 -0.7500  1.5080
18018TIP3   OH275468   2.771   1.598  12.223  0.0529 -0.5064 -0.1301
18018TIP3    H175469   2.751   1.690  12.208 -1.7200 -0.7786  0.3237
18018TIP3    H275470   2.756   1.556  12.138 -0.4847 -0.5790 -0.0008
18019TIP3   OH275471   1.855   5.801  11.603 -0.4981 -0.5028  0.5145
18019TIP3    H175472   1.806   5.883  11.609 -0.3233 -0.3256 -0.3373
18019TIP3    H275473   1.823   5.748  11.677 -0.6090  0.3282  1.0745
18020TIP3   OH275474   3.255   1.739   5.179  0.4085 -0.1876 -0.3442
18020TIP3    H175475   3.257   1.647   5.154 -1.1973  0.4494 -3.2949
18020TIP3    H275476   3.326   1.779   5.129  0.4073  0.3706  0.0816
18021TIP3   OH275477   1.648   0.447  17.054  0.3928  0.2050  0.1753
18021TIP3    H175478   1.562   0.459  17.096  1.7844  0.6146  3.1453
18021TIP3    H275479   1.627   0.432  16.961 -2.7493  3.0067  0.2337
18022TIP3   OH275480   5.237   0.098  15.393 -0.1794  0.1092  0.4447
18022TIP3    H175481   5.263   0.057  15.476  0.0438 -0.9923 -0.1476
18022TIP3    H275482   5.295   0.174  15.385  0.1707 -0.0872  1.0233
18023TIP3   OH275483   4.082   2.237  11.690 -0.6531  0.0122  0.0982
18023TIP3    H175484   4.093   2.142  11.694 -1.2822 -0.0281  1.1463
18023TIP3    H275485   4.165   2.268  11.653 -0.6104 -0.9596 -0.7048
18024TIP3   OH275486   1.381   2.878  11.896 -0.3583  0.0132  0.5242
18024TIP3    H175487   1.329   2.943  11.942  2.0662  0.0430  3.5915
18024TIP3    H275488   1.342   2.794  11.921  0.3271  0.0768  1.8550
18025TIP3   OH275489   0.875   4.562  12.364  0.5762 -0.2780 -0.4636
18025TIP3    H175490   0.917   4.498  12.306  0.2396 -0.3803 -0.5979
18025TIP3    H275491   0.900   4.647  12.328  0.2065 -0.3419 -0.8820
18026TIP3   OH275492   3.480   2.516  12.408  0.5019 -0.4784  0.1339
18026TIP3    H175493   3.493   2.456  12.482  1.1624  0.9842  1.2592
18026TIP3    H275494   3.388   2.541  12.414 -0.1563 -2.3623 -1.1713
18027TIP3   OH275495   3.413   6.027   5.269 -0.8618 -0.0638 -0.1261
18027TIP3    H175496   3.488   6.037   5.211 -1.5852  0.0382 -1.0667
18027TIP3    H275497   3.341   6.000   5.211 -1.3605 -0.9658  0.8733
18028TIP3   OH275498   2.505   1.640  16.197 -0.6725 -0.3776 -0.2204
18028TIP3    H175499   2.517   1.643  16.292 -0.8122  1.4932 -0.2218
18028TIP3    H275500   2.425   1.690  16.181 -0.0771  0.2424 -1.3989
18029TIP3   OH275501   6.074   1.806   6.406  0.0567 -0.3579 -0.4054
18029TIP3    H175502   6.080   1.759   6.489  0.7685 -0.1303 -0.3253
18029TIP3    H275503   6.054   1.896   6.431  2.2860  0.1794 -0.3321
18030TIP3   OH275504   5.646   1.601  15.463  0.2973 -0.3399  0.2669
18030TIP3    H175505   5.570   1.657  15.449  0.8265  0.2331 -0.3395
18030TIP3    H275506   5.712   1.633  15.401  1.0381 -0.8269  0.7878
18031TIP3   OH275507   6.203   2.219   2.769 -0.4745 -0.3979  0.9918
18031TIP3    H175508   6.275   2.272   2.736  0.2316 -1.9994 -0.1948
18031TIP3    H275509   6.124   2.262   2.736  0.0887 -0.1303 -0.0524
18032TIP3   OH275510   0.504   5.946  11.140 -0.1153 -0.2434 -0.1498
18032TIP3    H175511   0.432   5.955  11.078 -0.7348 -0.6950  0.4881
18032TIP3    H275512   0.520   6.035  11.172  0.8151  0.1463 -1.5985
18033TIP3   OH275513   2.207   1.607  11.454  0.2543 -0.2033  0.8066
18033TIP3    H175514   2.153   1.594  11.377 -0.2589  0.8951  0.9619
18033TIP3    H275515   2.194   1.699  11.478  0.5358 -0.4695  2.0889
18034TIP3   OH275516   5.531   3.632   3.279 -0.0143  0.3558 -0.1859
18034TIP3    H175517   5.494   3.580   3.208 -0.8008  3.2619 -2.0792
18034TIP3    H275518   5.616   3.661   3.246 -0.2250  1.4341  0.1742
18035TIP3   OH275519   3.697   5.953   0.246  0.6587 -0.0603 -0.5024
18035TIP3    H175520   3.775   5.995   0.209  0.2072 -0.8484 -2.4895
18035TIP3    H275521   3.668   6.012   0.315  0.7639  2.2783 -2.3197
18036TIP3   OH275522   0.207   1.096  11.584  0.0644  0.5299  0.0110
18036TIP3    H175523   0.199   1.190  11.600 -0.1561  0.4736  0.2226
18036TIP3    H275524   0.226   1.058  11.670  0.7538  0.4486 -0.1692
18037TIP3   OH275525   0.324   5.419   1.092 -0.7620  1.1890  0.3041
18037TIP3    H175526   0.320   5.349   1.157  0.1954  1.3082  0.5048
18037TIP3    H275527   0.289   5.496   1.138 -1.6262  0.9068  0.1452
18038TIP3   OH275528   6.509   3.500   1.403  0.0721  0.7180 -0.2419
18038TIP3    H175529   6.526   3.475   1.312 -0.2108  0.9616 -0.3658
18038TIP3    H275530   6.468   3.586   1.397  2.1068  1.7619  0.2390
18039TIP3   OH275531   2.941   0.166  13.230  0.4272  0.1020  0.1463
18039TIP3    H175532   3.029   0.162  13.266  1.4895  1.1363 -2.1804
18039TIP3    H275533   2.926   0.259  13.213 -1.2770 -0.0091  0.8173
18040TIP3   OH275534   1.593   6.769  14.703 -0.1792 -0.6703  0.1861
18040TIP3    H175535   1.637   6.852  14.720 -1.4847 -0.0151  0.4717
18040TIP3    H275536   1.631   6.708  14.768  0.6367 -0.2671  0.1047
18041TIP3   OH275537   2.034   0.200  14.555 -0.0426 -0.2621  0.4689
18041TIP3    H175538   2.059   0.109  14.542 -1.2144 -0.7662  1.5438
18041TIP3    H275539   2.042   0.214  14.649  0.8090  0.9704  0.2318
18042TIP3   OH275540   3.530   2.695  11.671 -0.0995  0.2476 -0.1512
18042TIP3    H175541   3.557   2.659  11.756  0.2387 -2.3939 -1.2934
18042TIP3    H275542   3.456   2.640  11.645  0.2790  0.5134 -1.8871
18043TIP3   OH275543   6.531   3.050   6.089 -0.5816 -0.2111 -0.1497
18043TIP3    H175544   6.625   3.061   6.101 -0.7217  0.8507  0.0455
18043TIP3    H275545   6.522   2.961   6.053  0.5638  0.0282 -1.0866
18044TIP3   OH275546   2.874   4.954   2.282 -0.2532  0.0206 -0.1253
18044TIP3    H175547   2.840   5.029   2.233  0.6190  0.8503  0.4979
18044TIP3    H275548   2.850   4.971   2.373 -0.1894 -0.5436  0.0014
18045TIP3   OH275549   2.844   2.369   1.395  0.0940 -0.2528 -0.0959
18045TIP3    H175550   2.822   2.314   1.320  1.3924 -0.6852 -0.1842
18045TIP3    H275551   2.847   2.309   1.469 -0.2653  0.0172  0.1414
18046TIP3   OH275552   5.077   1.190  12.592  0.1545 -0.0413 -0.4264
18046TIP3    H175553   4.998   1.141  12.568  0.0625 -0.7978  1.2840
18046TIP3    H275554   5.133   1.184  12.515 -0.1050 -2.3704 -0.5164
18047TIP3   OH275555   4.432   4.319  11.782  1.0301  0.8628 -0.1275
18047TIP3    H175556   4.481   4.340  11.862  0.5167 -2.1495  1.1226
18047TIP3    H275557   4.341   4.335  11.805  0.9854  1.4625 -0.6830
18048TIP3   OH275558   6.214   4.367  11.621  0.3879  0.1186  0.1590
18048TIP3    H175559   6.154   4.294  11.634  2.1053 -1.5464 -0.8111
18048TIP3    H275560   6.248   4.386  11.709  0.6003 -0.8620  0.2954
18049TIP3   OH275561   3.330   5.556  11.964  0.1664 -0.2779 -0.4115
18049TIP3    H175562   3.421   5.577  11.946  0.3102  0.1892  0.8159
18049TIP3    H275563   3.292   5.637  11.996 -0.0043 -1.0745  1.5802
18050TIP3   OH275564   4.496   1.490   2.943  0.1343 -0.3375  0.5524
18050TIP3    H175565   4.542   1.549   3.003  1.0927  1.2060 -1.5751
18050TIP3    H275566   4.409   1.528   2.934  0.9010  1.1646 -1.1938
18051TIP3   OH275567   3.909   5.569  16.186 -0.2201  0.0696 -0.1097
18051TIP3    H175568   3.908   5.659  16.219 -0.6329 -0.8278  2.5738
18051TIP3    H275569   3.902   5.578  16.091 -2.3832  2.8106  0.1973
18052TIP3   OH275570   1.927   2.879   1.435  0.0406 -0.4818  0.0691
18052TIP3    H175571   1.931   2.786   1.457 -0.5653 -0.6807 -0.6165
18052TIP3    H275572   1.852   2.886   1.376  0.2092  0.4114 -0.0507
18053TIP3   OH275573   0.361   3.064   3.771  0.5932  0.1404 -0.4861
18053TIP3    H175574   0.374   3.019   3.854 -1.3690  0.9135  0.3048
18053TIP3    H275575   0.441   3.116   3.760  1.4167 -0.9172  0.2718
18054TIP3   OH275576   6.443   3.324   4.138  0.0810  0.2026  0.4130
18054TIP3    H175577   6.512   3.379   4.103  0.6544 -0.3131  0.7183
18054TIP3    H275578   6.442   3.342   4.232 -0.2769  0.2907  0.3969
18055TIP3   OH275579   4.909   1.490   3.335  0.0329 -0.2648 -0.3725
18055TIP3    H175580   4.926   1.541   3.256  0.8989 -0.9341 -0.6336
18055TIP3    H275581   4.905   1.399   3.305 -0.8275 -0.4213  0.1825
18056TIP3   OH275582   1.782   4.024   2.305 -0.0643  0.0500 -0.2303
18056TIP3    H175583   1.690   4.049   2.305 -0.1463 -0.2541 -0.0602
18056TIP3    H275584   1.786   3.945   2.252 -0.1109 -0.7110  0.8822
18057TIP3   OH275585   6.340   5.069   5.057  0.5429  0.5941 -0.2560
18057TIP3    H175586   6.435   5.074   5.049  0.7344  0.0788  1.2861
18057TIP3    H275587   6.311   5.032   4.974  1.4722  2.4595 -1.5100
18058TIP3   OH275588   1.349   6.219  14.325  0.2013 -0.2582  0.0697
18058TIP3    H175589   1.403   6.298  14.319 -2.7186  1.8082 -1.3882
18058TIP3    H275590   1.289   6.236  14.397  0.3246 -1.8012  0.5913
18059TIP3   OH275591   6.145   4.654  13.590  0.2129  0.1946 -0.3021
18059TIP3    H175592   6.084   4.727  13.582  0.4592  1.2163  4.3829
18059TIP3    H275593   6.230   4.695  13.605  0.8764 -1.1304 -0.2343
18060TIP3   OH275594   4.729   2.102  15.065 -0.2601  0.1973 -0.2859
18060TIP3    H175595   4.639   2.115  15.036 -0.9899  0.3285  1.8465
18060TIP3    H275596   4.771   2.187  15.052  0.3354 -0.4683 -3.5295
18061TIP3   OH275597   3.850   5.202  16.090  0.1324  0.0145  0.2720
18061TIP3    H175598   3.877   5.243  16.008  1.2364  1.1717  1.1702
18061TIP3    H275599   3.787   5.263  16.129  1.4624  0.7393  1.4094
18062TIP3   OH275600   4.657   6.111  16.492 -0.5612 -0.2945 -0.5338
18062TIP3    H175601   4.613   6.082  16.411  1.0554 -0.3361 -1.4362
18062TIP3    H275602   4.698   6.032  16.526 -0.8171 -0.1711  0.0729
18063TIP3   OH275603   5.990   5.252   0.135 -0.2627 -0.0186  0.3355
18063TIP3    H175604   5.994   5.164   0.173  0.6772 -0.3110 -0.4025
18063TIP3    H275605   5.899   5.262   0.106 -0.4165 -0.6867  0.5762
18064TIP3   OH275606   1.445   3.605   4.977 -0.3411  0.3963  0.3081
18064TIP3    H175607   1.533   3.620   5.012 -0.5451  1.1963  0.4947
18064TIP3    H275608   1.388   3.659   5.032 -0.8416  0.5365 -0.3406
18065TIP3   OH275609   4.761   0.785   5.869 -0.3122 -0.3973  0.5674
18065TIP3    H175610   4.736   0.864   5.917 -1.6673  0.1227 -0.8974
18065TIP3    H275611   4.741   0.805   5.778 -0.8720 -2.4872  0.1707
18066TIP3   OH275612   6.299   5.582   2.837 -0.0546  0.0012  0.1157
18066TIP3    H175613   6.340   5.561   2.921 -1.0103 -1.5401  0.2343
18066TIP3    H275614   6.231   5.516   2.826  0.7566 -0.5319 -2.3888
18067TIP3   OH275615   3.985   0.035  14.184 -0.3053  0.0862 -0.0286
18067TIP3    H175616   3.967   0.128  14.202 -0.0457  0.6020 -2.1431
18067TIP3    H275617   3.898  -0.003  14.168 -0.2416  0.6444 -1.9162
18068TIP3   OH275618   4.598   4.330   0.449  0.2346 -0.4252  0.1223
18068TIP3    H175619   4.582   4.410   0.400 -0.8820 -0.9997 -0.4697
18068TIP3    H275620   4.675   4.291   0.406  0.4488  0.0409  0.0723
18069TIP3   OH275621   0.286   2.307  14.719  0.0193 -0.0602 -0.1818
18069TIP3    H175622   0.202   2.262  14.715 -0.1826  0.2259  0.6111
18069TIP3    H275623   0.296   2.347  14.633 -0.4120 -0.5170 -0.4511
18070TIP3   OH275624   1.161   2.274  15.923  0.3581  0.2066 -0.6470
18070TIP3    H175625   1.214   2.351  15.904  0.0519  0.7097  0.4678
18070TIP3    H275626   1.123   2.291  16.009  1.9534 -2.0920  0.6305
18071TIP3   OH275627   4.631   6.470  13.223 -0.1727 -0.0212  0.1728
18071TIP3    H175628   4.698   6.517  13.175  0.4541 -0.1205  0.9296
18071TIP3    H275629   4.679   6.410  13.280 -0.9548 -1.2753 -0.4609
18072TIP3   OH275630   2.505   1.297  13.034 -0.3237 -0.0885 -0.1535
18072TIP3    H175631   2.561   1.375  13.034 -0.0355 -0.2922 -0.2095
18072TIP3    H275632   2.521   1.257  12.948  0.5660 -0.9412  0.3932
18073TIP3   OH275633   2.887   5.507   5.517 -0.5452 -0.3607  0.7252
18073TIP3    H175634   2.910   5.476   5.429 -2.1897  0.5524 -0.0654
18073TIP3    H275635   2.899   5.430   5.573 -1.3154 -1.5166 -0.6257
18074TIP3   OH275636   4.660   3.921  12.055  0.1784  0.1061  0.4059
18074TIP3    H175637   4.730   3.984  12.041 -0.0181  0.2003 -0.1726
18074TIP3    H275638   4.624   3.943  12.141  1.1289 -0.2131  0.8991
18075TIP3   OH275639   1.548   4.608   5.751  0.1305  0.0860  0.3389
18075TIP3    H175640   1.523   4.697   5.774  0.6918  0.4230 -0.3210
18075TIP3    H275641   1.469   4.571   5.709 -0.1840  0.1825  0.8440
18076TIP3   OH275642   0.245   5.212  16.420  0.0369  0.0760  0.4399
18076TIP3    H175643   0.226   5.160  16.498  0.9910 -0.2461  0.4672
18076TIP3    H275644   0.241   5.303  16.451  0.0798 -0.0353  0.7828
18077TIP3   OH275645   3.336   0.807  10.542 -0.4215 -0.1217 -0.4350
18077TIP3    H175646   3.402   0.814  10.610 -0.0758 -0.7247 -0.7021
18077TIP3    H275647   3.323   0.897  10.512  0.1791  0.0179 -0.2918
18078TIP3   OH275648   0.478   1.431  11.851 -0.3239  0.0696  0.8701
18078TIP3    H175649   0.392   1.437  11.892 -0.0935 -2.4734  1.9378
18078TIP3    H275650   0.494   1.337  11.843  1.5101  0.4799 -1.1742
18079TIP3   OH275651   3.041   0.643   4.585 -0.0146  0.2834 -0.6229
18079TIP3    H175652   3.108   0.672   4.648  0.8360 -0.6363 -1.0765
18079TIP3    H275653   3.012   0.559   4.618  0.7784 -0.4327 -1.6820
18080TIP3   OH275654   5.090   4.829  10.890 -0.4930 -0.1119  0.9171
18080TIP3    H175655   5.129   4.895  10.947 -0.7918  0.5224  0.4054
18080TIP3    H275656   5.111   4.859  10.801 -1.4238 -0.1913  0.6599
18081TIP3   OH275657   6.771   1.356   3.002  0.2353  0.2307  0.3175
18081TIP3    H175658   6.776   1.427   3.065  1.2670  0.1250  0.3721
18081TIP3    H275659   6.681   1.325   3.007 -0.6715  2.4822 -0.7676
18082TIP3   OH275660   3.008   1.216  14.331  0.1010  0.1140 -0.4628
18082TIP3    H175661   2.928   1.189  14.376  0.1492  1.6337  0.5883
18082TIP3    H275662   3.009   1.163  14.251 -2.2633  0.4715 -0.7994
18083TIP3   OH275663   4.975   2.182  14.272  0.2460  0.2338 -0.1842
18083TIP3    H175664   4.900   2.123  14.266  0.6705 -0.1859 -1.7237
18083TIP3    H275665   5.050   2.125  14.287  0.2742  0.6679  1.5858
18084TIP3   OH275666   2.467   5.475   5.613  0.3464 -0.4313  0.1641
18084TIP3    H175667   2.519   5.512   5.542 -0.2366 -0.5755 -0.3436
18084TIP3    H275668   2.460   5.546   5.677 -1.3486  0.6170 -1.0979
18085TIP3   OH275669   2.918   2.173  16.721  1.1022  0.3206 -0.3603
18085TIP3    H175670   2.873   2.257  16.736 -1.4172 -0.8239 -0.9270
18085TIP3    H275671   2.903   2.123  16.802 -0.2272 -0.7099 -1.2085
18086TIP3   OH275672   2.499   5.770  10.895 -0.5404 -0.3268  0.4925
18086TIP3    H175673   2.492   5.792  10.802 -0.7752 -1.1807  0.2983
18086TIP3    H275674   2.566   5.702  10.899 -0.5499 -0.3151  0.9482
18087TIP3   OH275675   2.964   2.766  12.299 -0.1607  0.1042 -0.0259
18087TIP3    H175676   2.872   2.792  12.302 -0.0892  0.5658 -1.3804
18087TIP3    H275677   2.962   2.671  12.302 -0.7552  0.0655 -1.1110
18088TIP3   OH275678   4.271   3.833  13.233 -0.3787  0.1037  0.3111
18088TIP3    H175679   4.214   3.765  13.197 -0.8838  0.8520 -0.3378
18088TIP3    H275680   4.219   3.913  13.229  1.4063  1.2699 -2.3753
18089TIP3   OH275681   1.316   1.316  13.188 -0.0039 -0.3098  0.6466
18089TIP3    H175682   1.264   1.262  13.247 -1.9851  0.5665 -0.2124
18089TIP3    H275683   1.332   1.259  13.112  0.4200 -0.6177  0.9602
18090TIP3   OH275684   6.778   4.181  14.301  0.5218 -0.2971 -0.0441
18090TIP3    H175685   6.823   4.254  14.261 -3.4588  2.7047  0.3705
18090TIP3    H275686   6.720   4.147  14.233  0.1048 -1.0280  0.6502
18091TIP3   OH275687   4.983   3.072  15.237  0.3778  0.4959  0.4594
18091TIP3    H175688   4.987   3.082  15.142  0.1264 -1.3053  0.2215
18091TIP3    H275689   4.979   3.162  15.270 -0.2665  1.1586 -1.2596
18092TIP3   OH275690   3.691   4.629  15.357  0.3126 -0.4146 -0.4224
18092TIP3    H175691   3.713   4.635  15.450 -0.9913 -1.2459 -0.0315
18092TIP3    H275692   3.755   4.686  15.314  1.9463 -1.2364  0.8018
18093TIP3   OH275693   4.057   5.482  15.420  0.0379 -0.8647  0.1579
18093TIP3    H175694   4.046   5.525  15.336 -1.7813 -1.8877 -0.1898
18093TIP3    H275695   4.032   5.548  15.485  1.3219 -0.1163 -0.0826
18094TIP3   OH275696   4.185   2.464  12.669  0.6243  0.4221  1.0964
18094TIP3    H175697   4.117   2.483  12.733 -1.1813  3.3694 -1.4391
18094TIP3    H275698   4.138   2.424  12.596  2.0424  0.2760  0.2341
18095TIP3   OH275699   2.152   3.523  16.241  0.1389 -0.4953 -0.0915
18095TIP3    H175700   2.097   3.529  16.319  0.4561 -0.4285  0.1280
18095TIP3    H275701   2.193   3.437  16.248  0.4747 -0.3263  0.0211
18096TIP3   OH275702   2.535   2.254   2.672  0.2089 -0.1344  0.2359
18096TIP3    H175703   2.474   2.226   2.604 -0.4932  2.6116 -0.3719
18096TIP3    H275704   2.620   2.219   2.644 -0.4748 -1.0594 -0.7552
18097TIP3   OH275705   6.454   0.772   1.168  0.4101 -0.0449 -0.1126
18097TIP3    H175706   6.433   0.858   1.131  2.3366  1.6266  2.2783
18097TIP3    H275707   6.549   0.776   1.184  0.4249 -2.3702  0.7137
18098TIP3   OH275708   4.527   5.668  14.688 -0.3443 -0.2500  1.2500
18098TIP3    H175709   4.476   5.741  14.721  0.6998  1.2753 -0.3417
18098TIP3    H275710   4.464   5.597  14.679 -1.7484  0.9492  1.2742
18099TIP3   OH275711   0.536   2.957  13.648 -0.2122  0.7632 -0.0653
18099TIP3    H175712   0.632   2.951  13.646 -0.2950 -2.0571 -0.4490
18099TIP3    H275713   0.514   2.951  13.741 -0.0408 -1.1480 -0.1136
18100TIP3   OH275714   0.071   0.796  13.864  0.4292 -0.6310 -0.2370
18100TIP3    H175715   0.153   0.845  13.876 -0.1608  0.2694  0.2902
18100TIP3    H275716   0.009   0.862  13.831  0.2539 -1.5941 -1.9416
18101TIP3   OH275717   4.906   6.148  16.113 -0.3148  0.0499  0.4832
18101TIP3    H175718   4.944   6.224  16.158 -0.9770  0.4037  0.4699
18101TIP3    H275719   4.859   6.186  16.039  0.5109 -0.5050 -0.3432
18102TIP3   OH275720   2.348   1.279  13.371 -0.0944  0.0421 -0.0674
18102TIP3    H175721   2.285   1.260  13.440  1.0836 -0.9441  0.7973
18102TIP3    H275722   2.340   1.206  13.310 -0.9450  0.7769 -0.8698
18103TIP3   OH275723   4.254   1.474   6.050  0.0038  0.3667  0.3649
18103TIP3    H175724   4.163   1.473   6.020  0.0842  1.8223 -0.0528
18103TIP3    H275725   4.250   1.444   6.141 -0.7979 -0.2283  0.1425
18104TIP3   OH275726   5.095   3.723  10.445  0.7663  0.2084  0.3423
18104TIP3    H175727   5.008   3.761  10.443  0.4529 -0.4939 -2.4250
18104TIP3    H275728   5.148   3.788  10.492 -0.5878  2.1332 -0.6617
18105TIP3   OH275729   2.436   0.651  12.625 -0.1026  0.8213 -0.9190
18105TIP3    H175730   2.441   0.643  12.720 -0.3163  1.8289 -0.8003
18105TIP3    H275731   2.429   0.746  12.610 -0.3477  0.6564 -1.9203
18106TIP3   OH275732   6.762   2.512  11.352  0.2904 -0.0516  0.0889
18106TIP3    H175733   6.804   2.597  11.339  0.3424  0.3138  2.3573
18106TIP3    H275734   6.711   2.499  11.272  0.2985  2.1024 -0.3285
18107TIP3   OH275735   2.710   4.988   6.124  0.9879  0.0785 -0.2562
18107TIP3    H175736   2.710   5.077   6.158  1.1706  0.5777 -1.4932
18107TIP3    H275737   2.679   4.934   6.196 -0.2773  1.2926  0.1417
18108TIP3   OH275738   3.945   0.597  10.566  0.1884  0.4640  0.7210
18108TIP3    H175739   3.902   0.530  10.620  2.4421 -1.9830 -0.2651
18108TIP3    H275740   3.911   0.582  10.478  0.1114  1.1909  0.6245
18109TIP3   OH275741   4.717   2.918  14.581  0.0123  0.2424  0.8905
18109TIP3    H175742   4.697   2.978  14.653  1.2161  0.0427  1.4137
18109TIP3    H275743   4.797   2.873  14.609 -0.5703 -1.2394  0.2775
18110TIP3   OH275744   0.948   5.644  12.435  0.6778  0.2245  0.2201
18110TIP3    H175745   0.860   5.661  12.402  0.8555  2.0620  0.5545
18110TIP3    H275746   0.989   5.590  12.367 -0.1026  0.9325 -0.8565
18111TIP3   OH275747   0.076   4.220  15.262 -0.4100  0.3050 -0.4741
18111TIP3    H175748   0.021   4.296  15.282  0.3191  0.7714 -0.2098
18111TIP3    H275749   0.158   4.236  15.309 -0.3383 -0.7772 -0.1866
18112TIP3   OH275750   5.287   5.562   1.967 -0.5512  0.2738 -0.3367
18112TIP3    H175751   5.351   5.515   1.914 -1.1598 -0.2625 -0.5981
18112TIP3    H275752   5.303   5.655   1.947 -0.8055  0.0848 -1.5140
18113TIP3   OH275753   3.603   6.739  13.780 -0.1305 -0.1424  0.3984
18113TIP3    H175754   3.625   6.774  13.866 -1.1494  1.0632  0.2063
18113TIP3    H275755   3.549   6.807  13.740 -2.8548 -2.2393  0.2609
18114TIP3   OH275756   0.642   2.773  13.960 -0.4109  0.0493 -0.4020
18114TIP3    H175757   0.708   2.731  13.905  1.4383  1.9919  0.2151
18114TIP3    H275758   0.661   2.866  13.953 -0.1465  0.4063  3.4082
18115TIP3   OH275759   6.276   4.330  13.221  0.0297 -0.0721  0.6837
18115TIP3    H175760   6.367   4.305  13.230 -0.0043 -0.3839  0.1829
18115TIP3    H275761   6.227   4.249  13.235 -0.0334 -0.5831 -2.0053
18116TIP3   OH275762   6.041   1.751   4.981  0.1385 -0.0115  0.2254
18116TIP3    H175763   6.051   1.844   4.959  1.6088  0.3475  2.1079
18116TIP3    H275764   5.965   1.749   5.040  0.7133  0.1746  0.9872
18117TIP3   OH275765   3.463   4.158   3.876  0.0760  0.5094 -0.1165
18117TIP3    H175766   3.412   4.124   3.802  0.2994 -0.0472 -0.0230
18117TIP3    H275767   3.539   4.099   3.881 -0.5470 -0.2262  1.3115
18118TIP3   OH275768   4.274   3.060   0.521  0.3630 -0.3675 -0.9324
18118TIP3    H175769   4.318   3.068   0.606 -2.3672  0.2444  0.5389
18118TIP3    H275770   4.254   3.150   0.496 -2.8854 -0.6584  0.1532
18119TIP3   OH275771   4.892   1.042   1.252 -0.5505 -0.1232 -0.1374
18119TIP3    H175772   4.984   1.069   1.249 -1.1596  2.3331  0.8813
18119TIP3    H275773   4.895   0.946   1.251  2.0620 -0.1259  0.9207
18120TIP3   OH275774   3.066   3.657   3.454  0.5773 -0.4999  0.1854
18120TIP3    H175775   2.985   3.639   3.502  0.6519  1.5816  1.2042
18120TIP3    H275776   3.101   3.570   3.433 -1.4401 -1.4533  0.4982
18121TIP3   OH275777   2.145   5.270   0.315 -0.0569  1.0449  0.0084
18121TIP3    H175778   2.061   5.263   0.360 -0.4136  1.3674 -0.5922
18121TIP3    H275779   2.122   5.286   0.223  0.5702 -2.4796 -0.9278
18122TIP3   OH275780   3.156   5.755   2.532  0.5821 -0.2595  0.3560
18122TIP3    H175781   3.104   5.688   2.577 -0.1413 -0.3378 -0.5478
18122TIP3    H275782   3.225   5.705   2.488  0.4703 -0.3432  0.2718
18123TIP3   OH275783   4.641   4.633  14.079  0.6786 -0.2666 -0.2069
18123TIP3    H175784   4.717   4.690  14.074  1.8069 -1.5579  1.2035
18123TIP3    H275785   4.583   4.675  14.143  1.1629 -0.3254  0.2722
18124TIP3   OH275786   2.446   0.022  16.445 -0.1629 -0.0813 -0.8717
18124TIP3    H175787   2.426  -0.071  16.433  1.6658 -0.4685 -1.1383
18124TIP3    H275788   2.376   0.068  16.397 -0.3377 -1.3399 -1.8788
18125TIP3   OH275789   2.829   3.497   0.638 -0.3203 -0.1714 -0.2745
18125TIP3    H175790   2.827   3.504   0.543  2.0033 -1.6542 -0.4981
18125TIP3    H275791   2.865   3.410   0.655 -0.2593  0.2351  1.9784
18126TIP3   OH275792   3.582   5.167   1.922  0.2506  0.2220  0.3384
18126TIP3    H175793   3.661   5.127   1.958 -0.4416 -1.2029  0.3212
18126TIP3    H275794   3.514   5.147   1.986 -0.1136  1.4636  0.3664
18127TIP3   OH275795   1.108   3.086   1.520 -0.2896  0.1073  0.3661
18127TIP3    H175796   1.086   3.049   1.605 -0.1613 -0.2475  0.2477
18127TIP3    H275797   1.028   3.075   1.467 -0.3658  0.3177  0.4358
18128TIP3   OH275798   2.958   2.017   1.542  0.5762 -0.2936  0.0472
18128TIP3    H175799   2.945   2.051   1.453  0.0362 -1.0567 -0.1838
18128TIP3    H275800   2.915   2.081   1.599  0.0960 -0.2762 -0.3266
18129TIP3   OH275801   4.593   2.828   0.606  0.1938  0.2608  0.0943
18129TIP3    H175802   4.669   2.786   0.566  0.6766  0.4571  0.7980
18129TIP3    H275803   4.520   2.808   0.547  0.5604 -0.9458  0.0419
18130TIP3   OH275804   3.070   2.468   4.248  0.5373  0.4106 -0.3371
18130TIP3    H175805   3.139   2.515   4.296  1.4103 -1.5736  0.4555
18130TIP3    H275806   2.989   2.500   4.287  1.1413  0.4659  0.9465
18131TIP3   OH275807   4.976   0.926  15.584  0.0203  0.2325 -0.6121
18131TIP3    H175808   4.936   1.005  15.548  1.8505  1.0615 -0.9372
18131TIP3    H275809   5.010   0.879  15.507 -1.1816 -0.9842 -0.4369
18132TIP3   OH275810   5.579   2.984   3.266 -0.0507  0.0021  0.7455
18132TIP3    H175811   5.634   2.999   3.189 -2.5821 -1.7842 -1.6137
18132TIP3    H275812   5.550   3.071   3.292  1.9553  0.7593  0.5722
18133TIP3   OH275813   5.054   1.658  13.306  0.4535  0.4163  0.0311
18133TIP3    H175814   5.138   1.690  13.275  1.9341 -2.1655  1.0581
18133TIP3    H275815   5.026   1.596  13.239  0.5212 -0.4072  0.7419
18134TIP3   OH275816   6.023   2.299   2.096  0.5125  0.2425  0.5049
18134TIP3    H175817   6.076   2.375   2.117  0.6438  0.5824 -0.9419
18134TIP3    H275818   6.087   2.231   2.072  0.3564  0.0163  0.7180
18135TIP3   OH275819   6.695   1.619   2.304  0.1655  0.4067 -0.3272
18135TIP3    H175820   6.672   1.579   2.388  0.0691  0.5203 -0.2999
18135TIP3    H275821   6.781   1.584   2.284  0.8640  1.5460  0.5563
18136TIP3   OH275822   2.794   4.438  14.634 -0.3516 -0.2875 -0.6176
18136TIP3    H175823   2.873   4.384  14.635  0.1097  0.3766 -0.2581
18136TIP3    H275824   2.780   4.462  14.726 -0.1633  0.7478 -0.8495
18137TIP3   OH275825   3.322   3.769   4.247 -0.4861 -0.0772 -0.5082
18137TIP3    H175826   3.344   3.722   4.166 -1.8888 -0.8873 -0.4616
18137TIP3    H275827   3.262   3.710   4.293 -2.5736  1.8439 -0.5780
18138TIP3   OH275828   0.402   1.828   5.481 -0.4459 -0.0676  1.1499
18138TIP3    H175829   0.392   1.923   5.469  0.5847 -0.2343 -1.9944
18138TIP3    H275830   0.326   1.790   5.438 -1.5322 -0.7432  3.4946
18139TIP3   OH275831   6.676   6.484   1.623 -0.3470 -0.3240  0.1111
18139TIP3    H175832   6.726   6.404   1.641 -0.4387 -0.4463 -0.1834
18139TIP3    H275833   6.662   6.523   1.709 -1.5445 -1.3608  0.3986
18140TIP3   OH275834   4.691   6.582   2.613 -0.2642 -0.6697  0.3580
18140TIP3    H175835   4.617   6.560   2.556  1.5173  0.3301 -2.5822
18140TIP3    H275836   4.720   6.667   2.582  1.0318 -0.1871  2.6704
18141TIP3   OH275837   6.305   2.689  11.716  0.0283  0.0830 -0.7305
18141TIP3    H175838   6.297   2.681  11.621 -2.3485 -0.5415 -0.5331
18141TIP3    H275839   6.273   2.777  11.736 -0.1706 -0.0462 -0.4637
18142TIP3   OH275840   6.440   0.655   2.661 -0.4553  0.1460  1.1589
18142TIP3    H175841   6.466   0.577   2.710  1.3934  0.9798  1.5898
18142TIP3    H275842   6.379   0.701   2.720  0.3289  0.2223  1.9324
18143TIP3   OH275843   1.531   5.908  11.052  0.7615 -0.1080 -0.2535
18143TIP3    H175844   1.555   5.956  10.973  1.4899  1.1111  0.6631
18143TIP3    H275845   1.440   5.930  11.068  0.2689 -1.2383 -1.3255
18144TIP3   OH275846   3.283   5.516  13.812 -0.0042 -0.3371 -0.2080
18144TIP3    H175847   3.361   5.502  13.865  0.8920 -0.8400 -1.6023
18144TIP3    H275848   3.310   5.494  13.723 -1.4102  0.6498 -0.9198
18145TIP3   OH275849   3.573   6.143  16.452 -0.4742  0.0989  0.5770
18145TIP3    H175850   3.631   6.130  16.527  0.5205  0.0028 -0.1850
18145TIP3    H275851   3.485   6.137  16.488 -0.0150  0.5619  1.8193
18146TIP3   OH275852   5.834   6.430   2.344 -0.0871  0.3873  0.6612
18146TIP3    H175853   5.810   6.400   2.432  0.2212  0.1196  0.6556
18146TIP3    H275854   5.767   6.495   2.322 -1.9842 -1.7135 -0.1562
18147TIP3   OH275855   1.420   0.417  14.316 -0.6923 -0.5194  0.0685
18147TIP3    H175856   1.450   0.337  14.272 -1.2425 -0.1607 -1.0007
18147TIP3    H275857   1.446   0.405  14.407 -1.3320 -2.2273  0.0730
18148TIP3   OH275858   3.669   5.991  13.126 -0.7943 -0.0693 -0.1142
18148TIP3    H175859   3.747   6.041  13.104 -0.8065  0.0808  0.1790
18148TIP3    H275860   3.597   6.039  13.086 -0.6450 -0.7319 -1.2151
18149TIP3   OH275861   1.682   2.146  16.755  0.4029  1.0030 -0.1023
18149TIP3    H175862   1.655   2.140  16.664 -1.7170  2.1792  0.4054
18149TIP3    H275863   1.628   2.215  16.793  2.6559  1.9972  1.5707
18150TIP3   OH275864   1.059   5.654   6.100  0.1747 -0.1619  0.0576
18150TIP3    H175865   0.985   5.711   6.077  0.3831 -0.2902 -1.0226
18150TIP3    H275866   1.018   5.574   6.133 -0.1185  1.1979  3.3404
18151TIP3   OH275867   0.996   4.228  14.873 -0.2904  0.6597 -0.0930
18151TIP3    H175868   1.068   4.186  14.827 -1.1930 -0.5784 -0.4537
18151TIP3    H275869   0.930   4.244  14.805 -1.7592 -1.4367  0.6982
18152TIP3   OH275870   5.050   5.965  10.601 -0.2924  0.3206 -0.2743
18152TIP3    H175871   4.961   5.970  10.567  0.5014 -0.8680 -2.7904
18152TIP3    H275872   5.040   5.943  10.693 -2.6037 -0.0468 -0.5643
18153TIP3   OH275873   6.160   2.629   6.028  0.2029  0.0326  0.3814
18153TIP3    H175874   6.197   2.715   6.046  1.2792 -0.0854 -1.0835
18153TIP3    H275875   6.168   2.581   6.111  0.2430  1.0887  1.0044
18154TIP3   OH275876   5.916   6.373   4.857  0.6716  0.5195 -0.2904
18154TIP3    H175877   5.996   6.426   4.859  0.2332  1.1986  1.1444
18154TIP3    H275878   5.850   6.430   4.819  0.6698  0.2585 -0.6841
18155TIP3   OH275879   3.629   6.397   0.423  0.0293  0.5576 -0.4863
18155TIP3    H175880   3.686   6.409   0.499  0.9828 -0.1094 -1.0812
18155TIP3    H275881   3.688   6.389   0.349 -0.6916 -2.3786 -0.8586
18156TIP3   OH275882   5.627   2.341  12.596  0.2989  0.0209 -0.7742
18156TIP3    H175883   5.612   2.356  12.690 -0.6189  0.0115 -0.9083
18156TIP3    H275884   5.697   2.402  12.573 -0.2432  0.8283 -0.3246
18157TIP3   OH275885   1.208   2.733  15.992 -0.3609  0.4149  0.1016
18157TIP3    H175886   1.124   2.759  16.030 -0.4478  0.4779 -0.1293
18157TIP3    H275887   1.185   2.685  15.912 -0.1600  1.5837 -0.6857
18158TIP3   OH275888   0.264   1.939   3.455 -0.2846  0.2121 -0.5156
18158TIP3    H175889   0.170   1.946   3.473 -0.2941 -0.4053 -0.2723
18158TIP3    H275890   0.306   1.966   3.537 -0.2822 -0.5978 -0.2380
18159TIP3   OH275891   3.671   2.228  13.585  0.3427  0.3763 -0.2447
18159TIP3    H175892   3.606   2.219  13.655  0.2591  1.6636 -0.1326
18159TIP3    H275893   3.749   2.262  13.629  0.6650  0.0832 -0.5888
18160TIP3   OH275894   0.775   6.352  16.298  0.3091 -0.2660  0.0380
18160TIP3    H175895   0.758   6.259  16.313 -0.4653 -0.4401 -1.6976
18160TIP3    H275896   0.698   6.384  16.252  1.4133  0.7406 -1.2137
18161TIP3   OH275897   4.591   5.729   0.534  0.0609 -0.7783  0.2833
18161TIP3    H175898   4.629   5.811   0.565  1.8300 -1.5511  0.2570
18161TIP3    H275899   4.638   5.709   0.453 -1.4641 -1.0161 -0.5736
18162TIP3   OH275900   0.447   4.601   4.532 -0.3738 -0.0776  0.3348
18162TIP3    H175901   0.362   4.559   4.546 -0.7043  1.0043  1.8325
18162TIP3    H275902   0.426   4.694   4.522  0.6894  0.3253  1.6336
18163TIP3   OH275903   4.282   1.282   0.010  0.7071  0.1458  0.0575
18163TIP3    H175904   4.377   1.286   0.006  0.6470  0.9363 -2.7010
18163TIP3    H275905   4.253   1.372  -0.008 -0.5752 -0.1637  0.4252
18164TIP3   OH275906   5.896   4.994   2.216  0.2383  0.5609 -0.0924
18164TIP3    H175907   5.832   4.950   2.160 -1.8057  2.8382  0.2906
18164TIP3    H275908   5.931   4.924   2.272 -1.4941 -0.8736 -0.7143
18165TIP3   OH275909   0.016   3.926  14.399  0.2197 -0.2277 -0.3944
18165TIP3    H175910  -0.026   4.011  14.385 -1.5926 -0.6493  1.7900
18165TIP3    H275911  -0.028   3.866  14.339 -0.5007 -0.1485  0.0467
18166TIP3   OH275912   1.836   6.633  16.080  0.1437 -0.2445  0.1853
18166TIP3    H175913   1.766   6.597  16.025 -0.1546 -0.6176  0.7922
18166TIP3    H275914   1.901   6.563  16.086  0.2535 -0.1442  0.1657
18167TIP3   OH275915   2.419   6.419  16.119  0.1408  0.5563 -0.2131
18167TIP3    H175916   2.341   6.385  16.164  0.8899 -0.5413  0.3046
18167TIP3    H275917   2.409   6.389  16.029 -0.4104  1.0933 -0.3392
18168TIP3   OH275918   1.919   0.084  15.956 -0.0997  0.4776  0.4344
18168TIP3    H175919   1.852   0.150  15.970  0.3149  0.7290  1.2322
18168TIP3    H275920   1.890   0.009  16.008 -0.5955 -0.0051 -0.5057
18169TIP3   OH275921   5.210   1.458   3.105  0.3682  0.2247 -0.0453
18169TIP3    H175922   5.258   1.539   3.085  0.8380 -0.1464 -0.4415
18169TIP3    H275923   5.201   1.459   3.200 -1.5425  1.8181 -0.1754
18170TIP3   OH275924   2.948   5.121  12.673  0.1517  0.1827  0.4059
18170TIP3    H175925   2.953   5.133  12.767  1.4612  0.1920  0.3529
18170TIP3    H275926   2.970   5.207  12.637  1.5497 -0.2828  0.0914
18171TIP3   OH275927   5.840   1.298  15.722  0.0713 -0.1530 -0.2481
18171TIP3    H175928   5.802   1.366  15.777  0.8432 -1.2477  1.7485
18171TIP3    H275929   5.850   1.339  15.637 -1.0243  1.6834  0.4456
18172TIP3   OH275930   1.474   2.481  15.568 -0.2517 -0.2134 -0.0437
18172TIP3    H175931   1.453   2.388  15.565  0.1743 -0.3071 -0.1835
18172TIP3    H275932   1.569   2.484  15.579 -0.1445  0.2015 -0.9779
18173TIP3   OH275933   3.004   3.410  16.066 -0.1596  0.0867  0.6492
18173TIP3    H175934   3.045   3.439  15.985 -0.1489 -0.4548  0.4594
18173TIP3    H275935   3.060   3.339  16.097 -0.3218  0.1045  0.9842
18174TIP3   OH275936   3.004   1.631  15.396  0.4090  0.1218 -0.3860
18174TIP3    H175937   2.993   1.537  15.408 -2.7370  0.5539  1.3246
18174TIP3    H275938   3.041   1.662  15.479  0.1860  0.5141 -0.4257
18175TIP3   OH275939   3.308   3.414   3.641  0.2448  0.2270  0.0085
18175TIP3    H175940   3.327   3.506   3.623  0.5251  0.2138  0.2294
18175TIP3    H275941   3.354   3.395   3.723 -2.5908  0.8434  1.9086
18176TIP3   OH275942   5.199   1.327   0.438  0.0443  0.5789  0.3476
18176TIP3    H175943   5.223   1.360   0.351  1.7306  0.5268  0.7491
18176TIP3    H275944   5.250   1.246   0.447 -3.2192 -1.7366 -0.2231
18177TIP3   OH275945   5.524   1.133   1.147  0.1882  0.4226 -0.5027
18177TIP3    H175946   5.535   1.228   1.156  0.6219  0.4568 -1.3606
18177TIP3    H275947   5.613   1.100   1.133  0.4143 -0.4259  2.3447
18178TIP3   OH275948   4.803   4.663  12.464  0.6311  0.2551  0.0041
18178TIP3    H175949   4.797   4.714  12.383 -0.1082  0.2406  0.0417
18178TIP3    H275950   4.755   4.715  12.529  0.4560 -0.1603  0.2097
18179TIP3   OH275951   1.138   3.568   2.147 -0.0529  0.0247  0.2283
18179TIP3    H175952   1.231   3.587   2.145 -0.5622  2.8270 -1.0533
18179TIP3    H275953   1.117   3.557   2.240  1.4120  0.0035  0.5694
18180TIP3   OH275954   3.115   2.621  13.087 -0.0323 -0.5701 -0.3639
18180TIP3    H175955   3.054   2.627  13.161  1.2103 -0.8777  0.7182
18180TIP3    H275956   3.190   2.572  13.122  0.6095 -0.6617 -1.8159
18181TIP3   OH275957   3.153   3.774  14.676  0.2307  0.0445  0.6424
18181TIP3    H175958   3.227   3.782  14.617  0.4286 -2.1283  0.5123
18181TIP3    H275959   3.187   3.729  14.752 -0.4988  0.9445  1.5349
18182TIP3   OH275960   2.418   3.362   6.151  0.2986 -0.1559  0.3378
18182TIP3    H175961   2.466   3.353   6.233  0.0813 -0.3151  0.4513
18182TIP3    H275962   2.331   3.391   6.178  0.8082  1.7941  0.0217
18183TIP3   OH275963   2.139   0.937  13.072  0.1602  0.1873  0.2085
18183TIP3    H175964   2.185   1.008  13.027  0.0179  0.2697  0.1914
18183TIP3    H275965   2.086   0.896  13.004 -0.3362  0.5460  0.3772
18184TIP3   OH275966   1.652   3.082   5.893 -0.0472  0.2439  0.2479
18184TIP3    H175967   1.576   3.137   5.912  0.9820  1.6025  0.5838
18184TIP3    H275968   1.616   3.004   5.851 -1.5584  1.1230 -0.1321
18185TIP3   OH275969   6.048   5.644  15.423  0.2338 -0.8461  0.1792
18185TIP3    H175970   6.078   5.613  15.509 -1.0807 -0.1593  0.9125
18185TIP3    H275971   6.112   5.711  15.399  0.0028 -0.2453  1.1633
18186TIP3   OH275972   6.693   0.865   2.776  0.3589  0.5372 -0.8185
18186TIP3    H175973   6.714   0.891   2.687 -0.3006  1.4000 -0.7404
18186TIP3    H275974   6.650   0.780   2.767  0.3863  0.5730 -1.3183
18187TIP3   OH275975   3.963   6.658   4.585 -0.1523 -0.7723  0.4641
18187TIP3    H175976   3.993   6.708   4.660  0.6560 -1.5635  0.6858
18187TIP3    H275977   3.911   6.587   4.623 -0.6654 -0.5473  0.1988
18188TIP3   OH275978   3.010   4.502  12.512 -0.9241  0.2708 -0.5821
18188TIP3    H175979   3.076   4.454  12.562  0.6223  0.5677 -2.2482
18188TIP3    H275980   2.973   4.564  12.575  2.2662  1.9167 -0.1589
18189TIP3   OH275981   1.102   0.620   4.964 -0.1871  0.1758  0.1060
18189TIP3    H175982   1.012   0.652   4.961 -0.4449 -0.6180 -1.2216
18189TIP3    H275983   1.094   0.529   4.993  0.0861 -0.2084 -0.9965
18190TIP3   OH275984   0.479   5.609   4.135 -0.4700  0.5121  0.0443
18190TIP3    H175985   0.448   5.638   4.049 -0.5168 -0.8815 -0.4235
18190TIP3    H275986   0.399   5.592   4.185 -0.4424  0.2464 -0.0040
18191TIP3   OH275987   5.936   0.493  13.049  0.0107  0.4746  0.4905
18191TIP3    H175988   6.026   0.489  13.081  0.0749 -1.2018  0.1949
18191TIP3    H275989   5.883   0.468  13.125 -0.2769  1.9648  0.8142
18192TIP3   OH275990   3.954   6.563   6.241 -0.3392  0.0853 -0.0016
18192TIP3    H175991   4.016   6.583   6.311 -0.5171  0.0489  0.1657
18192TIP3    H275992   3.898   6.640   6.236 -0.7210 -0.1717  0.3182
18193TIP3   OH275993   4.330   2.800   3.474 -0.0242  0.1626 -0.0152
18193TIP3    H175994   4.375   2.725   3.514 -2.0462 -0.0061  2.2226
18193TIP3    H275995   4.313   2.859   3.548 -3.5545  0.0844 -0.5936
18194TIP3   OH275996   2.562   2.677  16.746 -0.2787  0.3933 -0.2977
18194TIP3    H175997   2.550   2.729  16.826 -2.4173  0.3941 -0.5514
18194TIP3    H275998   2.623   2.609  16.771 -1.6901 -0.2506  1.7174
18195TIP3   OH275999   6.408   3.605  14.248 -0.1841  0.1204 -0.2603
18195TIP3    H176000   6.377   3.533  14.303 -0.3863  0.4635  0.0774
18195TIP3    H276001   6.362   3.595  14.165  1.3601 -1.4081 -1.0030
18196TIP3   OH276002   2.157   0.444   4.170  0.4569  0.3659  0.3328
18196TIP3    H176003   2.221   0.511   4.145 -0.8190  0.4625 -3.3919
18196TIP3    H276004   2.176   0.370   4.113 -1.8510 -0.0781  0.0275
18197TIP3   OH276005   5.058   6.309   1.222 -0.0434 -0.0555  0.9955
18197TIP3    H176006   5.108   6.277   1.297  0.1826 -0.8815  0.5048
18197TIP3    H276007   5.052   6.404   1.235 -0.9895 -0.2981  2.6550
18198TIP3   OH276008   3.334   1.587   3.551 -0.0712 -0.2292  0.4636
18198TIP3    H176009   3.370   1.575   3.463 -1.9189 -0.3887 -0.3154
18198TIP3    H276010   3.274   1.661   3.543 -2.1056 -1.7275  0.9494
18199TIP3   OH276011   6.245   6.358  15.954 -0.8058 -0.0731  0.1320
18199TIP3    H176012   6.249   6.439  15.904  2.3808  0.1290  0.4591
18199TIP3    H276013   6.309   6.301  15.911  0.5224 -0.6326  2.6511
18200TIP3   OH276014   4.193   5.490  10.431 -0.0960 -0.7180 -0.1858
18200TIP3    H176015   4.146   5.441  10.499 -0.6746  0.3332  0.1860
18200TIP3    H276016   4.125   5.535  10.382  0.5371  1.6548  0.9905
18201TIP3   OH276017   0.968   4.852   3.442 -0.2483  0.7586 -0.4423
18201TIP3    H176018   1.048   4.801   3.428 -1.5073 -0.9276 -2.0956
18201TIP3    H276019   0.969   4.918   3.372 -0.1197  0.9711 -0.2389
18202TIP3   OH276020   1.859   4.338  13.861  0.3946  0.0156 -0.1839
18202TIP3    H176021   1.834   4.429  13.878 -0.8099 -0.4304  0.5855
18202TIP3    H276022   1.940   4.326  13.911 -1.8428 -0.5775  3.6885
18203TIP3   OH276023   1.400   5.959   1.867 -0.5052 -0.7453 -0.0998
18203TIP3    H176024   1.383   6.053   1.874  1.9477 -0.2505 -0.0736
18203TIP3    H276025   1.425   5.946   1.775 -2.0762 -1.6338 -0.4284
18204TIP3   OH276026   6.581   1.927  13.353  0.4553 -0.9269  0.1911
18204TIP3    H176027   6.587   1.878  13.436  0.4492 -0.3494  0.5410
18204TIP3    H276028   6.669   1.920  13.315  0.7377 -0.3905  0.7215
18205TIP3   OH276029   6.748   5.585  16.485  0.7266 -0.2072 -0.5018
18205TIP3    H176030   6.678   5.613  16.544  1.4409 -0.8848  0.7126
18205TIP3    H276031   6.703   5.533  16.418  0.0484 -0.5944  0.2257
18206TIP3   OH276032   3.020   1.078  13.282  0.5518 -0.6417  0.0378
18206TIP3    H176033   2.946   1.039  13.328  0.8364 -1.2586 -0.0252
18206TIP3    H276034   2.982   1.155  13.239  0.4275  0.3941  1.8903
18207TIP3   OH276035   1.570   5.945   4.969  0.0993 -0.2902 -0.2922
18207TIP3    H176036   1.550   5.905   5.054 -0.3659  1.0722  0.2723
18207TIP3    H276037   1.493   5.999   4.949  0.3818 -0.2742 -1.3833
18208TIP3   OH276038   4.710   6.259  12.913 -0.2793  0.1570  0.4500
18208TIP3    H176039   4.729   6.352  12.901 -0.8107  0.0926 -1.1516
18208TIP3    H276040   4.617   6.257  12.936 -0.5376 -0.0138 -0.5531
18209TIP3   OH276041   4.914   3.210   4.895  0.0581  0.6319  0.3699
18209TIP3    H176042   4.826   3.185   4.867 -0.4738  1.1930  1.4656
18209TIP3    H276043   4.970   3.193   4.819 -0.9466  0.0018 -0.2440
18210TIP3   OH276044   5.854   0.947  12.667 -0.2727 -0.0666  0.2796
18210TIP3    H176045   5.910   0.936  12.590 -1.0556  1.3888 -0.5530
18210TIP3    H276046   5.784   0.882  12.654  0.1939 -0.5976  0.3599
18211TIP3   OH276047   2.802   6.382  15.660  0.4175  0.2021 -0.2771
18211TIP3    H176048   2.871   6.324  15.691  0.6289  0.1577 -0.8286
18211TIP3    H276049   2.788   6.444  15.733 -2.4678 -2.7419  1.9883
18212TIP3   OH276050   6.406   3.145  14.887  0.1968  0.0121 -0.1513
18212TIP3    H176051   6.426   3.102  14.970  0.9267 -0.9320 -0.7971
18212TIP3    H276052   6.403   3.239  14.909  0.3540 -0.2199  0.9345
18213TIP3   OH276053   4.851   4.329   0.226 -0.3824  0.0240  0.0230
18213TIP3    H176054   4.894   4.282   0.298  1.7649  1.1906 -0.4135
18213TIP3    H276055   4.816   4.259   0.170  1.6634 -1.0781  0.0110
18214TIP3   OH276056   3.736   1.251   5.705  0.0234  0.1829  0.1603
18214TIP3    H176057   3.830   1.233   5.708  0.1484  0.6814 -0.5255
18214TIP3    H276058   3.715   1.257   5.612 -0.9696 -1.2659  0.2514
18215TIP3   OH276059   2.177   6.667  15.501 -0.1508  0.3558  0.8625
18215TIP3    H176060   2.170   6.716  15.583 -0.4987 -0.6010  1.4181
18215TIP3    H276061   2.193   6.577  15.528  3.1741  0.5197 -0.1618
18216TIP3   OH276062   6.737   3.589   3.577  0.0768  0.2319 -0.1722
18216TIP3    H176063   6.752   3.614   3.668 -0.7704  1.0136 -0.2362
18216TIP3    H276064   6.694   3.665   3.538 -0.3578 -0.4242 -0.9943
18217TIP3   OH276065   5.601   5.094   3.667  0.0264  0.2854  1.0170
18217TIP3    H176066   5.666   5.160   3.640  2.3416 -1.2572  2.4526
18217TIP3    H276067   5.573   5.123   3.753 -0.2052  0.2461  0.9544
18218TIP3   OH276068   4.265   4.011  14.934 -0.6020 -0.6203 -0.5454
18218TIP3    H176069   4.258   3.923  14.896  0.7073 -0.7702 -0.4873
18218TIP3    H276070   4.357   4.035  14.921 -0.3047 -0.3111  1.6790
18219TIP3   OH276071   3.969   4.839   2.357  0.3478 -0.7378 -0.5480
18219TIP3    H176072   4.048   4.883   2.323  0.5810 -0.5843  0.1628
18219TIP3    H276073   4.000   4.753   2.385  0.0762 -1.0150 -1.0879
18220TIP3   OH276074   3.152   0.477  14.298 -0.1854 -0.7538 -0.2990
18220TIP3    H176075   3.189   0.562  14.321 -1.0902 -0.5017  0.2400
18220TIP3    H276076   3.129   0.485  14.206 -0.3435 -0.3860 -0.2292
18221TIP3   OH276077   4.416   2.670  15.768  0.1535  0.1276  0.1219
18221TIP3    H176078   4.419   2.576  15.786 -0.7588  0.3344  1.5191
18221TIP3    H276079   4.476   2.708  15.832  1.0625  0.4550 -0.9009
18222TIP3   OH276080   6.406   5.628   5.332  0.2406 -0.2709 -0.3394
18222TIP3    H176081   6.363   5.621   5.247  2.3895 -0.3463 -1.4773
18222TIP3    H276082   6.419   5.537   5.360  0.6994 -0.2764 -0.5619
18223TIP3   OH276083   1.911   5.844  14.700 -0.2519  0.0280 -0.2557
18223TIP3    H176084   1.947   5.897  14.771 -0.4648  0.5652 -0.5395
18223TIP3    H276085   1.983   5.788  14.672  0.1491  0.5732 -0.3263
18224TIP3   OH276086   0.481   6.295  14.686  0.0843 -0.2327 -0.6251
18224TIP3    H176087   0.427   6.352  14.740  2.0455  0.9285  0.2436
18224TIP3    H276088   0.474   6.209  14.726 -0.9481 -0.0746 -0.4396
18225TIP3   OH276089   2.364   4.471   4.622 -0.3575  0.3486 -0.0733
18225TIP3    H176090   2.325   4.417   4.553 -0.4190 -0.7092  0.7687
18225TIP3    H276091   2.309   4.454   4.699  0.9838 -0.1570  0.7944
18226TIP3   OH276092   5.526   3.660   0.354  0.4380 -0.0519 -0.4657
18226TIP3    H176093   5.466   3.731   0.378 -0.1256  0.0803 -2.1556
18226TIP3    H276094   5.472   3.599   0.304  1.2844 -0.9115 -0.3584
18227TIP3   OH276095   5.162   1.970   4.911  0.1667  0.4914  0.0616
18227TIP3    H176096   5.224   1.898   4.924 -2.1009 -1.4900  0.6521
18227TIP3    H276097   5.154   1.977   4.816 -0.4299 -0.8938 -0.0217
18228TIP3   OH276098   0.960   5.263  14.427 -0.3427 -0.0569 -0.1696
18228TIP3    H176099   0.911   5.258  14.345 -0.0965  0.6346 -0.3646
18228TIP3    H276100   0.968   5.357  14.444 -0.5298 -0.1986  0.7325
18229TIP3   OH276101   1.092   3.431  12.365 -0.2840 -0.2966  0.1562
18229TIP3    H176102   1.160   3.403  12.426 -1.3223  0.6459  1.8332
18229TIP3    H276103   1.140   3.468  12.291  1.0118 -0.8657  0.6708
18230TIP3   OH276104   3.548   1.604  15.147  0.2904 -0.3472  0.0077
18230TIP3    H176105   3.546   1.546  15.071  0.3515  0.1427 -0.3657
18230TIP3    H276106   3.625   1.659  15.134  0.7305 -0.7585  0.7987
18231TIP3   OH276107   3.552   4.389  15.249  0.7514  0.2177  0.0145
18231TIP3    H176108   3.605   4.458  15.288  1.2369 -0.6949  1.0343
18231TIP3    H276109   3.606   4.310  15.258  1.1046 -0.0101 -2.9547
18232TIP3   OH276110   6.057   3.336  12.338  0.5054 -0.3122 -0.4025
18232TIP3    H176111   6.107   3.319  12.259  1.2738  0.4566 -0.0994
18232TIP3    H276112   6.098   3.414  12.376  0.4712 -0.9419  1.0076
18233TIP3   OH276113   6.605   1.261  13.581 -0.3170 -0.2096  0.1866
18233TIP3    H176114   6.603   1.337  13.639  0.6023 -0.6127  0.7697
18233TIP3    H276115   6.519   1.220  13.593 -0.3163 -0.0192  0.9014
18234TIP3   OH276116   2.162   4.950   4.519  0.3880 -0.4993  0.0992
18234TIP3    H176117   2.207   4.867   4.532 -1.6748 -1.6383  0.2756
18234TIP3    H276118   2.083   4.944   4.572 -0.1870  1.2818 -0.4676
18235TIP3   OH276119   6.707   6.497   1.905  0.1626 -0.4524 -0.1367
18235TIP3    H176120   6.628   6.448   1.930 -0.3553  0.5293  0.2066
18235TIP3    H276121   6.721   6.558   1.977 -1.0596  2.0897 -1.8882
18236TIP3   OH276122   6.155   3.114   4.926 -0.1426  0.3707  0.2784
18236TIP3    H176123   6.225   3.107   4.861  0.6104  2.5642  0.7566
18236TIP3    H276124   6.173   3.196   4.972 -2.4166  0.4453  1.1837
18237TIP3   OH276125   6.115   4.115   4.407 -0.4566  0.2779  0.1587
18237TIP3    H176126   6.028   4.109   4.446 -0.1558  0.0395  0.8074
18237TIP3    H276127   6.136   4.208   4.407 -0.5471  0.2984  0.3701
18238TIP3   OH276128   4.038   2.123   6.067 -0.1921  0.4479 -0.2712
18238TIP3    H176129   4.045   2.188   5.997 -1.6499  1.3498  0.3723
18238TIP3    H276130   4.041   2.175   6.148  2.3728 -0.6382  0.4223
18239TIP3   OH276131   5.100   1.858  14.409 -0.4255 -0.0122  0.1449
18239TIP3    H176132   5.102   1.871  14.315  1.7340  0.4500  0.2174
18239TIP3    H276133   5.006   1.856  14.431 -0.9995 -1.2354 -2.1181
18240TIP3   OH276134   0.143   2.953   1.474 -0.2305 -0.7675  0.3353
18240TIP3    H176135   0.070   3.011   1.455 -0.8700 -1.3019  1.1319
18240TIP3    H276136   0.109   2.889   1.536  0.5116 -1.8703 -0.3451
18241TIP3   OH276137   1.874   1.624  11.393 -0.4322  0.7412  0.0722
18241TIP3    H176138   1.911   1.555  11.449 -0.1515 -0.4172 -1.4924
18241TIP3    H276139   1.780   1.620  11.410 -0.3972  0.1148  0.1667
18242TIP3   OH276140   2.448   0.298   1.877  0.0656 -0.4768  0.4588
18242TIP3    H176141   2.459   0.205   1.895 -0.5941 -0.1869  2.5883
18242TIP3    H276142   2.498   0.343   1.945  0.3103  0.7527 -0.4844
18243TIP3   OH276143   3.537   4.568  14.882 -0.1302 -0.1000 -0.2885
18243TIP3    H176144   3.487   4.486  14.887  0.3738 -0.3547  0.8603
18243TIP3    H276145   3.613   4.553  14.938  0.7128  0.6515 -1.1915
18244TIP3   OH276146   0.756   4.354   2.290 -0.0985  0.3056 -0.0176
18244TIP3    H176147   0.672   4.339   2.247 -1.5445  0.6763  2.4398
18244TIP3    H276148   0.732   4.378   2.380  2.6940 -0.9656  1.1757
18245TIP3   OH276149   5.431   3.633   2.819 -0.5220  0.1778 -0.7952
18245TIP3    H176150   5.515   3.587   2.824 -1.4176 -1.4704  0.2516
18245TIP3    H276151   5.432   3.679   2.735  1.0799 -0.4916 -1.1616
18246TIP3   OH276152   4.016   3.712   3.648  0.1471  0.3225 -0.4630
18246TIP3    H176153   3.979   3.788   3.691  1.1343 -0.4382  1.8694
18246TIP3    H276154   4.080   3.748   3.587  0.2386  1.3821  0.2357
18247TIP3   OH276155   1.654   5.346   1.765  0.0924 -0.5655  0.2745
18247TIP3    H176156   1.715   5.418   1.778 -0.1106 -0.2852 -0.2828
18247TIP3    H276157   1.632   5.317   1.853  1.6523 -1.2066  0.4832
18248TIP3   OH276158   5.181   5.670  17.160  0.3339  0.3532  0.3221
18248TIP3    H176159   5.217   5.748  17.118  2.6174 -0.1083  1.2295
18248TIP3    H276160   5.209   5.677  17.251 -1.2511 -0.5032  0.9122
18249TIP3   OH276161   4.473   6.044  12.842  0.4318  0.1549  0.0631
18249TIP3    H176162   4.520   6.110  12.792 -0.4799 -0.7947 -2.1782
18249TIP3    H276163   4.392   6.087  12.868  0.7352  0.5302  0.4046
18250TIP3   OH276164   2.833   3.606  16.684 -0.0076  0.0117  0.1363
18250TIP3    H176165   2.752   3.555  16.676 -0.7868  1.3176 -0.6600
18250TIP3    H276166   2.804   3.697  16.685  0.9260  0.6156  5.5654
18251TIP3   OH276167   2.922   5.304  16.180 -0.3016 -1.0145  0.2863
18251TIP3    H176168   2.960   5.313  16.267 -0.0494  1.0376  0.0192
18251TIP3    H276169   2.831   5.280  16.195 -0.3500 -0.3294  1.1352
18252TIP3   OH276170   6.389   0.360  12.803  0.0480  0.5320 -0.4014
18252TIP3    H176171   6.302   0.374  12.766  0.7916  2.1342 -1.6575
18252TIP3    H276172   6.449   0.406  12.744  1.6838  0.0697  0.8069
18253TIP3   OH276173   3.296   1.398   4.211 -0.6501  0.0384 -0.5404
18253TIP3    H176174   3.378   1.408   4.162 -0.8087  0.8966 -0.6307
18253TIP3    H276175   3.288   1.303   4.224  0.7887  0.0086  0.2271
18254TIP3   OH276176   4.300   6.399  12.209  0.2091  0.2466  0.1798
18254TIP3    H176177   4.290   6.428  12.299  0.9285 -0.4833  0.5080
18254TIP3    H276178   4.395   6.390  12.197  0.2071  1.5019 -1.0311
18255TIP3   OH276179   1.643   5.606   1.320 -0.1926 -0.3274 -0.5301
18255TIP3    H176180   1.645   5.511   1.324 -0.2849 -0.3965 -1.7099
18255TIP3    H276181   1.711   5.629   1.256 -0.6001  0.3572 -0.7329
18256TIP3   OH276182   0.061   0.032   1.207  0.1666 -0.1898 -0.3623
18256TIP3    H176183  -0.008  -0.030   1.231  0.4816  0.1684  1.6097
18256TIP3    H276184   0.142  -0.019   1.215  0.2670 -0.1099 -0.8665
18257TIP3   OH276185   6.218   4.271   6.326  0.4368 -0.1438  0.0390
18257TIP3    H176186   6.203   4.313   6.411  0.0201 -1.7096  0.7749
18257TIP3    H276187   6.233   4.179   6.347  0.6286 -0.5067 -1.5737
18258TIP3   OH276188   5.258   6.331   0.322  0.4791 -0.3305  0.3039
18258TIP3    H176189   5.262   6.356   0.414  0.2911  1.2148 -0.0807
18258TIP3    H276190   5.202   6.397   0.282 -0.5589 -1.7519 -0.6938
18259TIP3   OH276191   1.412   4.088   4.679  0.3756  0.0200  0.2430
18259TIP3    H176192   1.413   4.038   4.761  2.1146  0.4533  0.5466
18259TIP3    H276193   1.398   4.024   4.611 -1.0892 -0.3567  0.8680
18260TIP3   OH276194   3.163   0.365   3.034  0.1549 -0.3417 -0.3779
18260TIP3    H176195   3.068   0.351   3.039  0.2182 -1.6765 -2.0048
18260TIP3    H276196   3.189   0.327   2.950  2.0353  0.7025 -0.3358
18261TIP3   OH276197   1.139   1.089  16.111 -0.0741  0.2968 -0.4749
18261TIP3    H176198   1.176   1.161  16.161 -0.0123  0.6709 -1.0554
18261TIP3    H276199   1.044   1.105  16.112 -0.5526 -1.7188  2.7165
18262TIP3   OH276200   3.958   0.261  16.908 -0.0277 -0.0441 -0.7437
18262TIP3    H176201   4.043   0.217  16.909 -0.1685 -0.3655 -1.7974
18262TIP3    H276202   3.934   0.265  16.815  0.1264  2.5740 -0.7375
18263TIP3   OH276203   6.366   3.048   2.070 -0.0800  0.0427 -0.6073
18263TIP3    H176204   6.344   2.961   2.105  1.8918  0.0257  0.7803
18263TIP3    H276205   6.460   3.043   2.052  0.0350  1.8367 -0.6851
18264TIP3   OH276206   2.407   1.922  15.928 -0.0684  0.8489  0.5157
18264TIP3    H176207   2.332   1.901  15.984  0.0242  0.4851  0.5051
18264TIP3    H276208   2.426   1.840  15.882 -0.2216  1.1729 -0.1361
18265TIP3   OH276209   2.300   2.835  16.782 -0.0476  0.3079 -0.3029
18265TIP3    H176210   2.378   2.891  16.783 -0.6446  1.2435 -1.7119
18265TIP3    H276211   2.326   2.756  16.829  1.7773  0.5594 -0.8139
18266TIP3   OH276212   3.936   3.029  15.997  1.1465  0.2528  0.2307
18266TIP3    H176213   4.024   3.005  15.967  0.0845  0.5721 -3.6521
18266TIP3    H276214   3.951   3.071  16.082  4.6400 -0.2086  0.0187
18267TIP3   OH276215   2.759   3.797  11.770 -0.0727 -0.4932 -0.7757
18267TIP3    H176216   2.682   3.820  11.717 -0.6272 -3.0290 -1.2326
18267TIP3    H276217   2.827   3.776  11.706  0.9413  1.3996 -0.3751
18268TIP3   OH276218   0.699   6.275  13.257 -0.3089 -0.7870  0.0732
18268TIP3    H176219   0.756   6.208  13.220  0.9329 -0.6112  1.5807
18268TIP3    H276220   0.704   6.262  13.351  0.5364  1.8422  0.4775
18269TIP3   OH276221   5.717   1.952   3.213  0.2224  0.4563 -0.3374
18269TIP3    H176222   5.797   1.899   3.206 -0.5432 -0.8320  0.3538
18269TIP3    H276223   5.745   2.030   3.262  1.2679  0.5022 -0.9789
18270TIP3   OH276224   6.444   0.333  12.345  0.5023  0.4372  0.1516
18270TIP3    H176225   6.420   0.276  12.272 -0.5840  1.5255 -0.3693
18270TIP3    H276226   6.523   0.293  12.382  0.2194 -0.9429 -0.6933
18271TIP3   OH276227   3.952   1.798  13.843 -0.0477  0.1678  0.4560
18271TIP3    H176228   3.964   1.753  13.760 -1.3897  2.7160 -1.2426
18271TIP3    H276229   4.037   1.791  13.886  0.5589 -1.5724 -0.8832
18272TIP3   OH276230   1.287   5.500   3.882 -0.6205 -0.1755 -0.3239
18272TIP3    H176231   1.382   5.494   3.884 -0.4692  1.7013 -0.6782
18272TIP3    H276232   1.263   5.476   3.793 -0.4616 -0.2182 -0.3556
18273TIP3   OH276233   0.997   2.869   3.615  0.0893  0.1014 -0.1486
18273TIP3    H176234   1.046   2.818   3.550  0.2077  1.9435 -1.5652
18273TIP3    H276235   1.062   2.893   3.680  0.7771  1.1913 -1.1950
18274TIP3   OH276236   1.452   4.824   3.089  0.8645  0.4341 -0.0681
18274TIP3    H176237   1.424   4.743   3.047 -0.1494 -0.4250  2.1344
18274TIP3    H276238   1.547   4.827   3.074  1.1485 -1.8805  0.9106
18275TIP3   OH276239   5.475   4.529   6.348  0.0053  0.4747  0.6606
18275TIP3    H176240   5.525   4.604   6.317 -2.0412  1.3688 -0.6498
18275TIP3    H276241   5.500   4.458   6.289 -0.9857  1.1802 -0.6518
18276TIP3   OH276242   0.526   4.935   3.315  0.2568 -0.2193 -0.3086
18276TIP3    H176243   0.601   4.876   3.306  0.4350  0.0479 -0.5980
18276TIP3    H276244   0.550   5.013   3.265  0.1358  0.2126  0.2923
18277TIP3   OH276245   3.144   4.938   1.635  0.1562 -0.3478  0.6821
18277TIP3    H176246   3.090   4.878   1.584  2.3152 -0.7598 -1.2852
18277TIP3    H276247   3.088   5.014   1.651 -1.4529 -1.3572  0.0745
18278TIP3   OH276248   6.527   6.097   0.970 -0.7106 -0.4031 -0.4921
18278TIP3    H176249   6.577   6.015   0.964  0.6347  0.4389 -1.1874
18278TIP3    H276250   6.593   6.164   0.986 -1.7767  0.5872 -0.1468
18279TIP3   OH276251   2.151   1.487   1.740  0.3846  0.5622  0.0353
18279TIP3    H176252   2.206   1.417   1.705  2.5681  2.7677 -1.2367
18279TIP3    H276253   2.077   1.492   1.679 -0.1575 -0.9734  0.5052
18280TIP3   OH276254   1.441   1.438   1.437 -0.6373  0.3882 -0.4313
18280TIP3    H176255   1.494   1.358   1.443  1.0307  1.3256 -1.7361
18280TIP3    H276256   1.352   1.406   1.419 -0.3295 -1.2070  0.6717
18281TIP3   OH276257   2.220   5.523  16.819 -0.3525 -0.6203  0.0444
18281TIP3    H176258   2.150   5.589  16.824  0.4933  0.2159  2.1294
18281TIP3    H276259   2.281   5.558  16.755 -0.5029  0.0368  0.2503
18282TIP3   OH276260   2.221   5.057  16.797  0.1849 -0.2337  0.2208
18282TIP3    H176261   2.234   5.113  16.874 -0.6198  0.0102  0.1928
18282TIP3    H276262   2.149   5.099  16.749  2.6323  1.4236 -2.3291
18283TIP3   OH276263   2.607   4.050   5.778  0.7713 -0.1327 -0.5089
18283TIP3    H176264   2.621   3.982   5.712  0.2066  0.1033 -0.8781
18283TIP3    H276265   2.671   4.118   5.757  0.0225  0.3274 -1.3435
18284TIP3   OH276266   4.742   6.138  12.404 -0.1537  0.3108 -0.1238
18284TIP3    H176267   4.699   6.207  12.353 -0.5289  0.3964  0.2970
18284TIP3    H276268   4.787   6.184  12.474 -0.3438  0.1363  0.1153
18285TIP3   OH276269   2.858   4.972   2.548  0.2576  0.3280 -0.1757
18285TIP3    H176270   2.920   4.903   2.571 -1.1902 -0.0061  3.4545
18285TIP3    H276271   2.781   4.953   2.601 -0.8828  3.7582 -0.3760
18286TIP3   OH276272   2.689   5.499   1.001  0.4114 -0.1958  0.1602
18286TIP3    H176273   2.657   5.469   1.086  0.3553  1.1185  0.6172
18286TIP3    H276274   2.615   5.484   0.941  0.6921 -1.7758  0.1687
18287TIP3   OH276275   5.177   3.665  16.244  0.2656 -0.5399  0.1975
18287TIP3    H176276   5.215   3.606  16.310 -2.8053 -2.4288  0.4366
18287TIP3    H276277   5.131   3.608  16.184 -1.1999  1.5053 -0.7486
18288TIP3   OH276278   2.148   2.586  12.951  0.6871  0.5561 -0.3116
18288TIP3    H176279   2.190   2.525  13.012 -1.0366  0.0639  0.4684
18288TIP3    H276280   2.106   2.651  13.008 -1.4035 -0.2059 -0.8786
18289TIP3   OH276281   6.737   2.561  13.951  0.0251  0.7866 -0.2152
18289TIP3    H176282   6.760   2.491  14.013  0.7845  1.1354 -0.0838
18289TIP3    H276283   6.728   2.516  13.867  1.3115  0.6356 -0.2895
18290TIP3   OH276284   2.709   2.171   2.918 -0.1815  0.8973  0.5533
18290TIP3    H176285   2.617   2.196   2.904 -0.4696 -0.6751 -0.5617
18290TIP3    H276286   2.705   2.100   2.982  0.2194  0.5646  0.2103
18291TIP3   OH276287   3.743   1.289   6.258 -0.0198 -0.5148 -0.5903
18291TIP3    H176288   3.831   1.251   6.257 -0.1355 -0.8304  0.2465
18291TIP3    H276289   3.756   1.379   6.230  0.7479 -0.2156  0.6441
18292TIP3   OH276290   6.045   2.454   1.845  0.0567  0.1901  0.2951
18292TIP3    H176291   6.032   2.380   1.905  1.3394 -0.1026  0.2385
18292TIP3    H276292   6.100   2.515   1.894  0.5026  0.2872 -0.3171
18293TIP3   OH276293   1.230   3.570   6.364  0.3395  0.1081 -0.0729
18293TIP3    H176294   1.134   3.562   6.363  0.2716  0.8381 -0.0776
18293TIP3    H276295   1.260   3.487   6.400 -0.4408  0.9897  2.9021
18294TIP3   OH276296   1.422   2.638   4.259  0.2170  0.3143  0.4000
18294TIP3    H176297   1.369   2.670   4.332 -1.7730 -0.0968 -0.7634
18294TIP3    H276298   1.512   2.658   4.283 -0.6405  5.0109  0.6433
18295TIP3   OH276299   4.314   5.822  12.793 -0.6677  0.4647  0.2361
18295TIP3    H176300   4.371   5.895  12.818 -1.2446  0.7828  0.6518
18295TIP3    H276301   4.289   5.841  12.702  1.7766 -0.9154 -0.8015
18296TIP3   OH276302   5.530   6.660   5.290 -0.0248  0.3284 -0.5013
18296TIP3    H176303   5.497   6.744   5.323 -0.1129 -0.4146  1.4461
18296TIP3    H276304   5.605   6.641   5.346 -0.7935 -1.4828 -0.0019
18297TIP3   OH276305   0.708   5.822  16.438 -0.0973 -0.1061 -0.2318
18297TIP3    H176306   0.660   5.845  16.517  2.3100  0.5956  1.1171
18297TIP3    H276307   0.724   5.906  16.394  2.6151  0.1521  1.0514
18298TIP3   OH276308   1.882   3.280  13.434  0.0391  0.0421  0.1148
18298TIP3    H176309   1.903   3.204  13.489  0.3097 -0.1569 -0.2618
18298TIP3    H276310   1.946   3.277  13.364 -0.1611  0.4333 -0.0856
18299TIP3   OH276311   1.150   5.831   6.289  0.0073  0.5786 -0.4805
18299TIP3    H176312   1.231   5.833   6.340 -1.8339 -2.4957  3.0113
18299TIP3    H276313   1.164   5.760   6.226 -0.1305 -0.3560  0.5189
18300TIP3   OH276314   6.778   1.595  15.320 -0.1378  0.4240 -0.1986
18300TIP3    H176315   6.694   1.559  15.290  0.6592 -1.3097 -0.4716
18300TIP3    H276316   6.827   1.612  15.240  1.1589 -2.1618 -0.0933
18301TIP3   OH276317   3.833   2.361   1.994  0.1285 -0.2723  0.0481
18301TIP3    H176318   3.789   2.283   1.958  0.5412 -0.3185 -0.3678
18301TIP3    H276319   3.810   2.431   1.934  1.8581 -0.6064 -1.0760
18302TIP3   OH276320   4.595   1.567  16.443 -0.3697  0.2445  0.1857
18302TIP3    H176321   4.608   1.472  16.443 -0.7393  0.1898 -0.6345
18302TIP3    H276322   4.536   1.583  16.369  0.4124  1.2067 -0.2445
18303TIP3   OH276323   3.462   4.455  13.304  0.1715 -0.2773 -0.1393
18303TIP3    H176324   3.419   4.408  13.233 -0.5282  0.2420 -0.0743
18303TIP3    H276325   3.440   4.405  13.382  0.5616 -0.5943 -0.2292
18304TIP3   OH276326   2.052   4.572  11.376  0.0262 -0.3066 -0.4694
18304TIP3    H176327   2.030   4.544  11.287  0.7291 -0.0905 -0.7137
18304TIP3    H276328   2.080   4.663  11.367 -0.0552 -0.2340 -0.0045
18305TIP3   OH276329   6.727   4.384  16.064 -0.5912  0.0704  0.2344
18305TIP3    H176330   6.763   4.358  15.979 -2.5510  2.0449 -1.3256
18305TIP3    H276331   6.771   4.328  16.127  2.8211  0.1933 -1.7832
18306TIP3   OH276332   3.561   2.971  17.085  0.4309 -0.0435  0.3906
18306TIP3    H176333   3.529   3.016  17.163  0.4633 -0.5011  0.6709
18306TIP3    H276334   3.504   2.894  17.076  1.1007 -0.5738  0.5854
18307TIP3   OH276335   0.670   2.861  14.240 -0.2688  0.0610 -0.3950
18307TIP3    H176336   0.661   2.956  14.253 -0.7945 -0.1637  1.0152
18307TIP3    H276337   0.654   2.849  14.146 -1.1030  1.2723 -0.4432
18308TIP3   OH276338   3.963   0.256  15.326 -0.6782 -0.3299 -0.3223
18308TIP3    H176339   4.053   0.234  15.351 -0.2937 -0.2719 -1.5916
18308TIP3    H276340   3.908   0.204  15.385  0.1614  0.5218  1.2727
18309TIP3   OH276341   3.996   3.659   2.353 -0.3327  0.2423  0.2073
18309TIP3    H176342   4.059   3.691   2.418 -0.1721 -0.0306  0.1874
18309TIP3    H276343   3.950   3.589   2.399 -0.0381 -0.1279 -0.0606
18310TIP3   OH276344   1.840   1.559   1.064  0.1761 -0.4658  0.3724
18310TIP3    H176345   1.751   1.592   1.075  0.5603  1.5953 -1.7763
18310TIP3    H276346   1.896   1.636   1.076  1.7964 -1.8648  2.4724
18311TIP3   OH276347   3.116   1.445  14.912  0.4341 -0.7889  0.0798
18311TIP3    H176348   3.092   1.360  14.874  0.4115 -1.0969  0.7603
18311TIP3    H276349   3.037   1.498  14.903  1.0001 -0.2101 -2.0167
18312TIP3   OH276350   2.193   4.291   2.801 -0.1617 -0.8248 -0.1699
18312TIP3    H176351   2.183   4.254   2.714 -0.4570 -0.5606 -0.2488
18312TIP3    H276352   2.197   4.215   2.859 -0.6883 -0.9867 -0.3394
18313TIP3   OH276353   2.764   3.476  12.391 -0.1576  0.3423  0.0490
18313TIP3    H176354   2.701   3.526  12.442  0.0552 -0.3273  0.9866
18313TIP3    H276355   2.714   3.403  12.355  0.2578 -0.8154  1.6917
18314TIP3   OH276356   4.820   0.482  14.993  0.2598 -0.1102 -0.0658
18314TIP3    H176357   4.726   0.497  15.009 -0.0727 -1.7678 -0.2955
18314TIP3    H276358   4.822   0.423  14.917  1.5996  2.0951 -1.8585
18315TIP3   OH276359   5.714   1.915  13.511 -0.2981 -0.1886  0.1041
18315TIP3    H176360   5.733   1.824  13.488 -0.3121 -0.6975  1.8960
18315TIP3    H276361   5.619   1.921  13.511 -0.2952  0.2108 -1.2675
18316TIP3   OH276362   4.094   4.992   1.528 -0.1751  0.1961 -0.2982
18316TIP3    H176363   4.118   4.990   1.621  2.3657  0.4810 -0.8584
18316TIP3    H276364   4.122   5.079   1.499  0.8266 -0.5594 -1.7007
18317TIP3   OH276365   5.218   1.720  12.682  0.7113  0.3486  0.2184
18317TIP3    H176366   5.231   1.813  12.705  0.7142  0.9611 -2.0670
18317TIP3    H276367   5.126   1.713  12.659  1.2034  0.3918 -1.9606
18318TIP3   OH276368   4.997   2.082  10.968 -0.2106  0.6553 -0.2815
18318TIP3    H176369   4.903   2.062  10.972 -0.1764  0.5605  0.0946
18318TIP3    H276370   5.028   2.069  11.057  0.1716  0.6413 -0.4141
18319TIP3   OH276371   3.629   3.047  10.886  0.4084 -0.0391  0.1325
18319TIP3    H176372   3.712   3.080  10.921  0.5051  0.8593 -0.8804
18319TIP3    H276373   3.653   2.964  10.843  1.2002  1.1401 -1.8347
18320TIP3   OH276374   2.115   6.633   2.495  0.9115 -0.1948  0.0020
18320TIP3    H176375   2.195   6.676   2.464  1.6702 -2.2357 -1.1071
18320TIP3    H276376   2.146   6.568   2.559  0.1185 -0.7456 -0.1608
18321TIP3   OH276377   4.687   1.710   3.184  0.1318 -0.8942 -0.9496
18321TIP3    H176378   4.679   1.784   3.244 -1.1104 -1.4276 -0.4354
18321TIP3    H276379   4.759   1.734   3.126  0.4366  0.2452 -0.1239
18322TIP3   OH276380   3.217   5.929   4.407  0.2503 -0.4823  0.4496
18322TIP3    H176381   3.147   5.901   4.466 -0.3867  1.1364  0.5019
18322TIP3    H276382   3.212   5.868   4.334 -1.1477 -0.4688  0.5070
18323TIP3   OH276383   0.404   4.815   2.091  0.4091  0.7664  0.0738
18323TIP3    H176384   0.449   4.765   2.158  0.4007 -0.5861 -0.8983
18323TIP3    H276385   0.312   4.817   2.118  0.6748  1.7277  0.9703
18324TIP3   OH276386   1.005   3.589   5.106 -0.1090  0.4225  0.3819
18324TIP3    H176387   0.991   3.548   5.020  0.7221 -0.9997  0.8835
18324TIP3    H276388   0.926   3.568   5.155  0.2308 -0.4578  0.5732
18325TIP3   OH276389   0.355   6.661   5.130 -0.1882  0.4281  0.0158
18325TIP3    H176390   0.361   6.618   5.045 -0.0340 -0.9434  0.6818
18325TIP3    H276391   0.267   6.638   5.162 -0.7290  1.9874 -0.2946
18326TIP3   OH276392   6.010   3.213  11.462 -0.2653 -0.2346 -0.3616
18326TIP3    H176393   5.954   3.176  11.530  0.3023 -0.9182 -0.2620
18326TIP3    H276394   5.949   3.263  11.407 -1.1175 -1.5581 -0.6852
18327TIP3   OH276395   1.428   4.727  11.492  0.0045  0.2768 -0.4259
18327TIP3    H176396   1.518   4.724  11.459  0.5103 -3.0862  0.8496
18327TIP3    H276397   1.418   4.645  11.541 -2.8296  1.9107  2.0213
18328TIP3   OH276398   4.905   0.620   3.816  0.7095  0.2075 -0.6430
18328TIP3    H176399   4.844   0.644   3.746  0.9045  0.1129 -0.8476
18328TIP3    H276400   4.867   0.542   3.856  0.6552  0.1929 -0.7226
18329TIP3   OH276401   1.121   0.650  13.756 -0.0109  0.3555 -0.0219
18329TIP3    H176402   1.192   0.707  13.727 -0.2233  0.2288 -0.8290
18329TIP3    H276403   1.165   0.573  13.792  0.2664  0.6883  0.3498
18330TIP3   OH276404   5.885   5.020  13.093 -0.1066 -0.0753 -0.0041
18330TIP3    H176405   5.856   4.956  13.158  3.3291 -1.7521  0.1075
18330TIP3    H276406   5.979   5.030  13.109  0.3147  1.7026 -2.8488
18331TIP3   OH276407   5.132   6.248   4.478 -0.0784 -0.3691 -0.4537
18331TIP3    H176408   5.148   6.207   4.393  1.0976 -1.5493  0.3124
18331TIP3    H276409   5.205   6.221   4.532  0.3637  2.1179  0.3458
18332TIP3   OH276410   4.230   3.214   1.415 -0.1607  0.7529  0.3603
18332TIP3    H176411   4.212   3.301   1.381 -1.1682  0.0481 -0.9808
18332TIP3    H276412   4.240   3.158   1.338  0.2948 -0.3669  1.1884
18333TIP3   OH276413   0.360   2.098   5.411  0.4801 -0.4454 -0.4204
18333TIP3    H176414   0.432   2.160   5.410 -1.0928  1.4968 -1.3976
18333TIP3    H276415   0.296   2.135   5.351 -2.1986 -0.9844  1.8727
18334TIP3   OH276416   3.040   1.164   4.679 -0.0836 -0.3086  0.4644
18334TIP3    H176417   3.055   1.146   4.586 -0.2625 -2.6648  0.8257
18334TIP3    H276418   2.992   1.087   4.711  0.4142  0.2030  2.6100
18335TIP3   OH276419   4.128   2.882  15.276  0.2167  0.1553  0.2653
18335TIP3    H176420   4.049   2.862  15.225 -0.3497  3.4955 -0.3986
18335TIP3    H276421   4.094   2.916  15.359  1.0258 -0.3546  0.8179
18336TIP3   OH276422   1.710   3.474   6.073 -0.2258  0.1591  0.7132
18336TIP3    H176423   1.627   3.466   6.121 -1.2833  1.7360 -0.7170
18336TIP3    H276424   1.777   3.479   6.141 -1.4138 -0.1934  1.9427
18337TIP3   OH276425   5.661   1.914   2.948  0.1136 -0.5936  0.8753
18337TIP3    H176426   5.590   1.977   2.938  0.0068 -1.0611 -2.2959
18337TIP3    H276427   5.670   1.903   3.043 -0.1407  3.8100  1.6518
18338TIP3   OH276428   2.529   2.518   2.712  0.1596  0.5789  1.0650
18338TIP3    H176429   2.546   2.427   2.689  3.2376  1.2425  0.3181
18338TIP3    H276430   2.547   2.523   2.806  2.0632  0.7694  0.7288
18339TIP3   OH276431   6.735   1.064  13.446  0.1018 -0.2833 -0.3174
18339TIP3    H176432   6.702   1.117  13.519  2.2671  1.7025 -0.6451
18339TIP3    H276433   6.681   1.088  13.372  0.2124  0.4909 -0.1542
18340TIP3   OH276434   0.603   5.486  12.380  0.3432 -0.3907  0.0582
18340TIP3    H176435   0.615   5.580  12.364 -0.1006 -0.2515  0.5084
18340TIP3    H276436   0.641   5.443  12.303  0.9420  0.1402  0.0527
18341TIP3   OH276437   6.338   1.334   1.700 -1.0360  0.1487 -0.2123
18341TIP3    H176438   6.426   1.297   1.712 -1.2429 -0.1434  0.4276
18341TIP3    H276439   6.337   1.363   1.609 -0.7468 -1.0968 -0.6230
18342TIP3   OH276440   4.831   5.936   2.690 -0.0969 -0.6154 -0.1897
18342TIP3    H176441   4.828   5.851   2.646 -1.5040 -0.1991 -0.9614
18342TIP3    H276442   4.742   5.970   2.682  0.1491  0.4195  1.1503
18343TIP3   OH276443   1.688   0.897   5.765  0.2963  0.1369 -0.3131
18343TIP3    H176444   1.641   0.813   5.764 -1.2739  0.9888 -0.4235
18343TIP3    H276445   1.665   0.938   5.682  0.4687  0.9868  0.0522
18344TIP3   OH276446   6.330   0.840   5.401  0.4039 -0.6836  0.2615
18344TIP3    H176447   6.239   0.865   5.383 -0.2312 -0.3895  3.2585
18344TIP3    H276448   6.382   0.887   5.337 -1.5374 -0.8108 -1.4988
18345TIP3   OH276449   4.257   1.258   3.720  0.2477 -0.6706  0.4275
18345TIP3    H176450   4.338   1.223   3.757  1.9230  1.0102 -1.4011
18345TIP3    H276451   4.227   1.191   3.659 -0.3507 -1.7299  1.8280
18346TIP3   OH276452   1.308   2.407   5.868 -0.3789 -0.9385 -0.0810
18346TIP3    H176453   1.270   2.387   5.954 -2.9646  0.1063 -0.8705
18346TIP3    H276454   1.378   2.469   5.887 -0.8518 -0.7716  1.2679
18347TIP3   OH276455   3.588   3.831   4.358 -0.2235  0.2420  0.3461
18347TIP3    H176456   3.496   3.846   4.334  0.2558  0.3971 -1.5027
18347TIP3    H276457   3.625   3.784   4.284  1.1759  0.0578  1.1337
18348TIP3   OH276458   2.370   3.645  16.063  0.2615 -0.0860 -0.0193
18348TIP3    H176459   2.391   3.612  15.976  0.9992  0.8874 -0.2325
18348TIP3    H276460   2.276   3.664  16.060  0.2173 -0.3710 -0.4850
18349TIP3   OH276461   0.306   0.972  13.416  0.2845  0.2271 -0.1176
18349TIP3    H176462   0.386   0.943  13.371  1.3054  0.3996  1.5115
18349TIP3    H276463   0.254   0.892  13.425  0.3271  0.0783 -1.0462
18350TIP3   OH276464   5.785   0.870  16.086 -0.5868  0.6988 -0.4997
18350TIP3    H176465   5.710   0.819  16.116 -0.2413  0.9727  0.8754
18350TIP3    H276466   5.860   0.836  16.134  0.5080 -0.5605 -2.9115
18351TIP3   OH276467   2.589   2.060   1.387 -0.1538  1.0558 -0.0491
18351TIP3    H176468   2.622   2.037   1.300  1.9779  1.2208  0.6694
18351TIP3    H276469   2.555   1.977   1.421  1.6021  0.3054  0.0165
18352TIP3   OH276470   2.048   6.243  13.802  0.3054 -0.3834  0.5860
18352TIP3    H176471   2.007   6.308  13.745  4.2726  0.3671 -1.8296
18352TIP3    H276472   2.016   6.159  13.769 -1.3192  0.1768  0.6529
18353TIP3   OH276473   0.211   2.270   1.425  0.1777 -0.1265  0.1561
18353TIP3    H176474   0.175   2.259   1.337  0.9714  0.8775 -0.3159
18353TIP3    H276475   0.295   2.224   1.421  0.2683  0.0244  0.3607
18354TIP3   OH276476   2.485   0.442  14.702 -0.1967  0.0060  0.1470
18354TIP3    H176477   2.446   0.416  14.619 -1.4139  1.0474  0.3587
18354TIP3    H276478   2.413   0.437  14.765  0.5375 -0.0924  1.0044
18355TIP3   OH276479   3.269   3.651  12.539  0.0367  0.5975 -0.1633
18355TIP3    H176480   3.216   3.717  12.583 -2.1106 -0.9107 -0.3566
18355TIP3    H276481   3.233   3.646  12.450  1.6074  0.6695 -0.8519
18356TIP3   OH276482   6.636   2.824   1.165 -0.2259  0.0450 -0.5506
18356TIP3    H176483   6.720   2.784   1.146 -0.7900 -1.3210 -0.2853
18356TIP3    H276484   6.588   2.758   1.216 -1.2963  0.9489 -0.3332
18357TIP3   OH276485   2.946   3.819  11.974 -0.1702 -0.5469 -0.3318
18357TIP3    H176486   2.913   3.776  12.053 -0.1290 -0.2778 -0.1672
18357TIP3    H276487   2.874   3.812  11.911 -0.7171  0.4240  0.1682
18358TIP3   OH276488   3.034   1.277   1.212  0.2544 -0.2437  0.5503
18358TIP3    H176489   3.010   1.212   1.278 -1.2967 -1.6650 -1.2927
18358TIP3    H276490   3.111   1.239   1.169  0.5649  0.1240  0.7783
18359TIP3   OH276491   5.711   3.540   1.004  0.4486  0.1322  0.5016
18359TIP3    H176492   5.635   3.525   0.947 -0.1253 -2.3690  1.7708
18359TIP3    H276493   5.778   3.574   0.945 -0.4774 -1.2649 -1.4787
18360TIP3   OH276494   1.329   1.650   5.754  0.5739  0.0580 -0.4256
18360TIP3    H176495   1.291   1.591   5.819 -0.2094 -0.7468 -1.5613
18360TIP3    H276496   1.316   1.738   5.789  1.3581 -0.3995  1.1011
18361TIP3   OH276497   5.057   5.961  11.486 -0.2429  0.1160  0.3715
18361TIP3    H176498   4.979   5.991  11.533 -2.4896 -1.3033 -2.2063
18361TIP3    H276499   5.104   5.908  11.550  0.3897  3.4253  2.9671
18362TIP3   OH276500   5.092   6.720   3.030  0.2736  0.2203 -0.1157
18362TIP3    H176501   5.089   6.625   3.035 -2.1389  0.0015 -2.7469
18362TIP3    H276502   5.101   6.738   2.936 -2.5997  2.4645 -0.1239
18363TIP3   OH276503   5.290   3.139  14.492  0.4286  0.9578  0.3176
18363TIP3    H176504   5.264   3.135  14.584 -1.7676  1.1787 -0.2351
18363TIP3    H276505   5.210   3.164  14.445  1.1101 -0.5496 -1.8130
18364TIP3   OH276506   1.155   4.979  15.578 -0.0121 -0.1392  0.4474
18364TIP3    H176507   1.203   5.024  15.508  0.6285 -0.3036  0.7778
18364TIP3    H276508   1.134   5.048  15.641  2.2946 -0.4819  1.7108
18365TIP3   OH276509   5.108   5.171   3.572  0.0467  0.6997 -0.8032
18365TIP3    H176510   5.176   5.106   3.558 -0.1652  0.2233  0.2652
18365TIP3    H276511   5.154   5.255   3.574  0.5388  0.4288 -0.5780
18366TIP3   OH276512   0.800   6.266   5.898  0.0179  0.1866 -0.9569
18366TIP3    H176513   0.762   6.354   5.898 -0.2766  0.2259  2.8500
18366TIP3    H276514   0.866   6.268   5.966  1.7639 -1.9407 -2.4437
18367TIP3   OH276515   2.394   2.117   0.953  0.3524  0.5067  0.0569
18367TIP3    H176516   2.342   2.147   0.879  0.1736 -2.1300 -1.0234
18367TIP3    H276517   2.480   2.156   0.940 -0.1985  1.6021 -0.4485
18368TIP3   OH276518   1.046   2.820  12.373 -0.1056 -0.0674  0.3542
18368TIP3    H176519   1.130   2.774  12.373 -0.9718 -1.7779 -1.2352
18368TIP3    H276520   0.988   2.764  12.425 -0.9225 -0.2584 -0.7469
18369TIP3   OH276521   3.887   3.274  12.817  0.3645 -0.4973  0.3960
18369TIP3    H176522   3.822   3.209  12.789 -0.3817 -0.4126  1.8432
18369TIP3    H276523   3.839   3.357  12.818  1.1394 -0.0028 -0.7927
18370TIP3   OH276524   4.465   3.634   4.904 -0.4799  0.4118 -0.5353
18370TIP3    H176525   4.443   3.627   4.811  0.4260 -0.8993 -0.6827
18370TIP3    H276526   4.539   3.695   4.907  0.8747 -1.1404 -0.9595
18371TIP3   OH276527   6.393   1.191  15.324  0.5673  0.4401 -0.4186
18371TIP3    H176528   6.435   1.272  15.295  1.0818 -0.2635 -1.7135
18371TIP3    H276529   6.450   1.121  15.292  0.0316 -0.4552  0.5019
18372TIP3   OH276530   5.832   0.743   4.427 -0.5457 -0.4760 -0.1138
18372TIP3    H176531   5.886   0.779   4.357  1.3856  0.5009  1.7285
18372TIP3    H276532   5.766   0.811   4.443  2.6637  2.3878  2.8830
18373TIP3   OH276533   2.797   6.284   1.360  0.1687  0.0399  0.0827
18373TIP3    H176534   2.790   6.358   1.300  3.3418  0.5210  0.1321
18373TIP3    H276535   2.754   6.315   1.440  1.2208  1.8306  0.0329
18374TIP3   OH276536   2.386   4.175   0.568 -0.5094 -0.1602  0.6993
18374TIP3    H176537   2.405   4.244   0.504  2.3502 -1.1131  0.3757
18374TIP3    H276538   2.291   4.165   0.565 -0.6665  1.2268 -1.9023
18375TIP3   OH276539   4.402   3.431   4.409  0.4893 -0.8073 -0.6393
18375TIP3    H176540   4.329   3.369   4.404 -0.4023  0.2451 -1.0625
18375TIP3    H276541   4.373   3.506   4.358  1.5271 -0.0152 -0.1017
18376TIP3   OH276542   1.252   3.734   5.115  0.4282 -0.2659 -0.0517
18376TIP3    H176543   1.173   3.681   5.120  0.0818  0.3522  2.2516
18376TIP3    H276544   1.234   3.810   5.169  1.9810  0.7754 -0.9081
18377TIP3   OH276545   1.959   4.037   1.881  0.5902  0.1633 -0.6486
18377TIP3    H176546   2.019   4.110   1.861  0.2600  0.7406  0.3689
18377TIP3    H276547   1.874   4.066   1.847  0.5904 -0.0268 -0.8114
18378TIP3   OH276548   1.822   5.127  14.899  0.0639 -0.0388 -0.1943
18378TIP3    H176549   1.851   5.113  14.809 -2.6652 -0.1715 -1.1497
18378TIP3    H276550   1.837   5.221  14.915 -1.9757  0.6689 -1.9009
18379TIP3   OH276551   1.386   0.862   1.932 -0.5924  0.0839 -0.2674
18379TIP3    H176552   1.422   0.776   1.912 -0.7624 -0.1964  0.5572
18379TIP3    H276553   1.338   0.849   2.014 -0.2186  1.0673  0.1225
18380TIP3   OH276554   4.451   3.418  17.181 -0.9600  0.0903  0.0994
18380TIP3    H176555   4.501   3.436  17.261 -0.0164 -1.2447 -0.1557
18380TIP3    H276556   4.491   3.474  17.115 -0.3339 -0.3632  0.0885
18381TIP3   OH276557   0.890   0.333   5.436  0.0888 -0.2573 -0.3102
18381TIP3    H176558   0.862   0.375   5.355 -0.4774 -1.3189 -0.6835
18381TIP3    H276559   0.908   0.242   5.411 -0.1384 -0.6085  0.7567
18382TIP3   OH276560   1.208   4.257  14.461 -0.1978 -0.1177 -0.2910
18382TIP3    H176561   1.216   4.194  14.532 -0.9523 -1.1041 -1.0456
18382TIP3    H276562   1.116   4.251  14.433  0.1601 -0.0181 -1.5791
18383TIP3   OH276563   4.918   0.382   5.869  0.8079  0.2579 -0.7423
18383TIP3    H176564   4.929   0.347   5.781  0.5959 -1.8974  0.0224
18383TIP3    H276565   4.945   0.310   5.927 -2.1897  0.3370  0.9654
18384TIP3   OH276566   0.558   2.448   5.688  0.4261  0.1743 -0.1462
18384TIP3    H176567   0.533   2.389   5.617  0.6642 -1.1601  0.8370
18384TIP3    H276568   0.651   2.429   5.703  0.1045 -0.4220  1.2680
18385TIP3   OH276569   0.991   5.632   0.056 -0.3812 -0.0434  0.0906
18385TIP3    H176570   1.064   5.633   0.117  0.0957  0.3883 -0.4750
18385TIP3    H276571   0.947   5.715   0.069  1.3808  1.3457 -2.0746
18386TIP3   OH276572   1.086   4.006   5.645  0.1513 -0.0432  0.8417
18386TIP3    H176573   1.009   3.958   5.616  1.1138 -0.3479 -1.4471
18386TIP3    H276574   1.088   3.994   5.740 -0.8949 -2.6279  0.6115
18387TIP3   OH276575   6.033   6.212   6.410 -0.2757 -0.5118 -0.2330
18387TIP3    H176576   6.119   6.174   6.425 -0.8740 -1.7854  0.0527
18387TIP3    H276577   5.983   6.191   6.489 -1.1188 -0.5400 -0.7648
18388TIP3   OH276578   5.330   3.995   0.682  1.1034 -0.0322 -0.6569
18388TIP3    H176579   5.241   4.027   0.697  1.1869  1.0869 -2.2570
18388TIP3    H276580   5.344   3.928   0.749  0.1833  1.9030  1.5767
18389TIP3   OH276581   1.469   3.282  10.807  0.5176 -0.0778  0.1523
18389TIP3    H176582   1.450   3.255  10.897  0.1882 -1.9726 -0.4422
18389TIP3    H276583   1.386   3.319  10.775 -0.2313 -1.9908 -0.2298
18390TIP3   OH276584   0.564   1.096   6.252  0.5391 -0.2076  0.2215
18390TIP3    H176585   0.527   1.050   6.327  1.8033 -4.6737 -1.5487
18390TIP3    H276586   0.655   1.112   6.276  1.1407 -2.2865 -0.4738
18391TIP3   OH276587   6.566   6.197  16.157  0.0676 -0.3397  0.3269
18391TIP3    H176588   6.576   6.282  16.200  0.3751 -0.9981  1.5985
18391TIP3    H276589   6.478   6.168  16.180 -0.2433 -0.1380 -0.5610
18392TIP3   OH276590   3.788   3.977   4.744 -0.2075 -0.4257 -0.1225
18392TIP3    H176591   3.765   3.927   4.822 -2.4116  1.0823  0.2690
18392TIP3    H276592   3.779   3.914   4.672  0.0419 -1.3491  0.6331
18393TIP3   OH276593   1.700   1.130  16.054  0.1462  0.3947  0.3053
18393TIP3    H176594   1.681   1.045  16.094 -0.7891  0.4128 -0.0760
18393TIP3    H276595   1.751   1.110  15.976 -1.1602  0.0651 -0.4896
18394TIP3   OH276596   5.249   2.325   2.089 -0.6260 -0.1904  0.3871
18394TIP3    H176597   5.235   2.351   1.998 -0.0689 -1.0390  0.0500
18394TIP3    H276598   5.296   2.241   2.083  0.4339  0.3055  1.4559
18395TIP3   OH276599   5.143   2.707  16.119  0.6501  0.1782  0.1571
18395TIP3    H176600   5.183   2.764  16.185  1.8907  0.3617 -0.7217
18395TIP3    H276601   5.104   2.636  16.170  1.7691  0.1912  1.0866
18396TIP3   OH276602   1.994   4.452   3.431 -0.5268  0.2607  0.6703
18396TIP3    H176603   1.963   4.537   3.462 -2.1290 -0.0100 -0.1145
18396TIP3    H276604   1.917   4.396   3.432 -0.2761 -0.2774 -1.9868
18397TIP3   OH276605   5.150   5.555   5.217  0.1523  0.4235  0.2197
18397TIP3    H176606   5.172   5.533   5.308 -1.3522 -0.6440  0.3838
18397TIP3    H276607   5.207   5.629   5.195  0.9766  0.3158  1.8239
18398TIP3   OH276608   1.369   6.536  12.665 -0.0092  0.2746 -0.0878
18398TIP3    H176609   1.450   6.506  12.624 -0.2013  0.5745 -0.6996
18398TIP3    H276610   1.346   6.467  12.727  1.2264  0.6199  0.8024
18399TIP3   OH276611   1.594   4.288   4.576 -0.1905  0.1845  0.4334
18399TIP3    H176612   1.633   4.321   4.657  1.6854 -2.8512  0.9491
18399TIP3    H276613   1.537   4.217   4.604  1.4933 -1.8135 -0.8525
18400TIP3   OH276614   3.851   2.194   0.126  0.0932  0.5395 -0.4310
18400TIP3    H176615   3.900   2.273   0.105 -0.5915  1.1388  0.1594
18400TIP3    H276616   3.902   2.152   0.195 -0.5490  1.5413  0.7104
18401TIP3   OH276617   0.632   3.858  14.081 -0.4290  0.0376  0.1598
18401TIP3    H176618   0.630   3.764  14.063  1.4073 -0.0988  0.4235
18401TIP3    H276619   0.549   3.876  14.124 -0.0341 -1.8734  1.9038
18402TIP3   OH276620   6.323   3.587  11.090 -0.7367  0.0668  0.1230
18402TIP3    H176621   6.298   3.540  11.011  0.0126  0.1067 -0.1514
18402TIP3    H276622   6.275   3.544  11.160 -2.5987  0.9734 -0.5109
18403TIP3   OH276623   0.513   1.885  10.862  0.0545 -0.0254 -0.0328
18403TIP3    H176624   0.513   1.890  10.957  0.2766 -1.5884  0.0900
18403TIP3    H276625   0.572   1.955  10.833  0.3678  0.1512  1.0076
18404TIP3   OH276626   6.522   4.202  13.364  0.7094 -0.3704 -0.0882
18404TIP3    H176627   6.548   4.257  13.439 -0.2959 -0.5283  0.3930
18404TIP3    H276628   6.541   4.113  13.393 -2.7087 -0.7713  1.3806
18405TIP3   OH276629   5.459   1.740  14.593 -0.3837 -0.1174 -0.0161
18405TIP3    H176630   5.394   1.738  14.663 -2.3849  1.1275 -1.7525
18405TIP3    H276631   5.429   1.675  14.529  0.0060  0.5687 -0.9138
18406TIP3   OH276632   0.499   4.724   1.127  0.2177  0.7133  0.0278
18406TIP3    H176633   0.545   4.661   1.072  1.6215  0.7752  1.0713
18406TIP3    H276634   0.458   4.785   1.065  0.2600 -0.2201 -0.9561
18407TIP3   OH276635   3.199   6.185  15.180  0.3933  0.2480  0.0956
18407TIP3    H176636   3.228   6.120  15.116 -1.2741 -0.3144 -0.1558
18407TIP3    H276637   3.218   6.145  15.265  1.3669  0.4035 -0.0371
18408TIP3   OH276638   5.410   4.351  12.199  0.8566 -0.7088 -0.0348
18408TIP3    H176639   5.396   4.415  12.268  1.9170  0.1498 -0.5859
18408TIP3    H276640   5.469   4.394  12.137  0.1886 -1.5650 -1.3233
18409TIP3   OH276641   4.252   3.570  17.094  0.3337 -0.3820  0.1334
18409TIP3    H176642   4.255   3.630  17.168 -1.1104  0.0518 -0.1412
18409TIP3    H276643   4.293   3.490  17.127  0.6078  0.1283  1.0768
18410TIP3   OH276644   6.586   4.260  15.730 -0.4249  0.7924 -0.0298
18410TIP3    H176645   6.559   4.257  15.638 -1.5102  0.5950  0.2745
18410TIP3    H276646   6.665   4.313  15.730 -0.9367  1.6005 -0.9643
18411TIP3   OH276647   2.102   4.574  14.131 -0.8264  0.1547 -0.1660
18411TIP3    H176648   2.064   4.558  14.217 -1.4343 -0.3227 -0.5112
18411TIP3    H276649   2.085   4.493  14.082  1.2062 -0.3337 -0.1512
18412TIP3   OH276650   6.462   4.121  17.107  0.0079 -0.9387 -0.3129
18412TIP3    H176651   6.458   4.180  17.182 -0.6041 -0.9419 -0.3426
18412TIP3    H276652   6.389   4.061  17.119 -0.4232 -0.6060 -1.1896
18413TIP3   OH276653   5.883   5.728  15.833 -0.1696  0.5449 -0.5773
18413TIP3    H176654   5.846   5.673  15.902 -1.1627  1.7596 -0.0903
18413TIP3    H276655   5.842   5.696  15.753  0.7215 -0.6465 -0.5745
18414TIP3   OH276656   5.403   2.610  11.551 -0.3194 -0.3764 -0.3603
18414TIP3    H176657   5.397   2.578  11.461 -1.3182  1.5792 -1.0510
18414TIP3    H276658   5.369   2.699  11.547 -0.2719 -0.1932  1.9511
18415TIP3   OH276659   4.769   2.382  16.683  0.2206  0.2104  0.0459
18415TIP3    H176660   4.823   2.335  16.747  0.6669  2.9371  1.8575
18415TIP3    H276661   4.753   2.467  16.724 -1.0609  1.4237 -2.7436
18416TIP3   OH276662   3.936   3.388   2.132 -0.3429  0.7344 -0.2506
18416TIP3    H176663   3.948   3.333   2.054 -1.1450 -0.4088  0.4185
18416TIP3    H276664   3.941   3.328   2.206 -1.3721  1.5372  0.4985
18417TIP3   OH276665   0.990   0.703  15.725 -0.0191 -0.1277 -0.2282
18417TIP3    H176666   1.015   0.795  15.737 -1.0424  0.3674 -1.4652
18417TIP3    H276667   1.042   0.674  15.650 -0.8942 -0.0039 -0.9124
18418TIP3   OH276668   0.303   1.064  11.022  0.1456 -0.3586 -0.6659
18418TIP3    H176669   0.270   1.134  11.079  0.1284 -0.2611 -0.7953
18418TIP3    H276670   0.253   0.987  11.049 -0.3145 -0.1746 -0.9766
18419TIP3   OH276671   6.431   6.546   5.199 -0.1241 -0.4944  0.1067
18419TIP3    H176672   6.517   6.571   5.233 -0.0042 -0.2278 -0.3889
18419TIP3    H276673   6.444   6.533   5.105 -0.8003  0.3474 -0.1164
18420TIP3   OH276674   4.981   1.002   2.004 -0.2329 -0.1625  0.5105
18420TIP3    H176675   5.056   0.972   1.952 -0.4543 -0.1262  0.1736
18420TIP3    H276676   5.017   1.012   2.093  0.2790  0.3256  0.2530
18421TIP3   OH276677   5.150   1.134  16.779 -0.1643 -0.7698  0.0237
18421TIP3    H176678   5.171   1.109  16.869 -0.6318  0.1513  0.4141
18421TIP3    H276679   5.067   1.181  16.787  1.2022  1.9309 -0.4355
18422TIP3   OH276680   5.036   5.786  13.859 -0.0398 -0.2407  0.2803
18422TIP3    H176681   5.123   5.753  13.838  0.5431  0.6245  1.2306
18422TIP3    H276682   5.048   5.834  13.941 -0.9939  1.6530 -0.6263
18423TIP3   OH276683   6.439   1.821   3.300 -0.5861  0.0827 -0.0278
18423TIP3    H176684   6.424   1.892   3.363 -0.6962 -0.3466  0.4323
18423TIP3    H276685   6.409   1.742   3.345 -0.1576 -0.3038 -0.4138
18424TIP3   OH276686   5.995   0.986   1.902 -0.0386  0.1552  0.6086
18424TIP3    H176687   5.902   0.988   1.922 -0.5254  0.2516 -1.4207
18424TIP3    H276688   5.999   0.985   1.806  2.0737  1.7421  0.5987
18425TIP3   OH276689   6.120   6.474  11.444  0.0952 -0.8482 -0.1572
18425TIP3    H176690   6.084   6.537  11.507  0.3165 -1.5664  0.7043
18425TIP3    H276691   6.161   6.529  11.377 -1.5958 -0.0214 -0.5841
18426TIP3   OH276692   4.624   2.389  13.538  0.2354 -0.2912  0.5216
18426TIP3    H176693   4.547   2.396  13.482  0.0639  0.3942  0.8283
18426TIP3    H276694   4.634   2.295  13.554 -0.9758 -0.3398  1.0751
18427TIP3   OH276695   1.694   3.266  15.993 -0.3616 -0.2232  0.1414
18427TIP3    H176696   1.788   3.283  15.992 -0.4281  0.1227 -0.6114
18427TIP3    H276697   1.655   3.350  16.020 -0.3863 -0.7609  1.8910
18428TIP3   OH276698   6.598   6.067   6.024 -0.2371  0.1769 -0.1599
18428TIP3    H176699   6.527   6.090   5.964 -1.3909 -1.9287  0.3042
18428TIP3    H276700   6.566   6.091   6.110 -0.0440 -0.0583 -0.0218
18429TIP3   OH276701   3.336   3.493  15.104  0.9183 -0.3570 -0.1603
18429TIP3    H176702   3.326   3.494  15.009  0.0707 -0.9854 -0.0936
18429TIP3    H276703   3.421   3.453  15.119  0.5803 -1.2866 -0.6445
18430TIP3   OH276704   6.775   3.008   4.360 -0.0394  0.3905 -0.2000
18430TIP3    H176705   6.720   3.083   4.380  1.6347  1.8269 -0.7872
18430TIP3    H276706   6.791   3.015   4.265  0.6857 -0.3200 -0.1392
18431TIP3   OH276707   0.106   2.798   6.174 -0.5563  0.2027  0.1855
18431TIP3    H176708   0.090   2.709   6.145 -1.4156 -0.1368  1.6012
18431TIP3    H276709   0.199   2.800   6.197 -1.1624 -1.3668  3.3271
18432TIP3   OH276710   6.340   1.916  11.206  0.6276 -0.5235 -0.2986
18432TIP3    H176711   6.424   1.872  11.190  0.9468 -0.8286  2.0036
18432TIP3    H276712   6.277   1.868  11.153  1.4740 -1.9008 -0.0968
18433TIP3   OH276713   6.657   6.041  11.682 -0.6914 -0.1148 -0.0255
18433TIP3    H176714   6.739   6.041  11.731 -0.7086  0.7302  0.0152
18433TIP3    H276715   6.621   6.129  11.694 -0.5256  0.2391 -1.8287
18434TIP3   OH276716   2.011   2.455   0.326  0.8312  0.6321  0.3523
18434TIP3    H176717   1.957   2.447   0.247  0.2270 -0.9351  0.8878
18434TIP3    H276718   1.948   2.466   0.397  1.3430  1.2490  0.7263
18435TIP3   OH276719   5.156   1.153  11.993  0.0738  0.0006  0.5113
18435TIP3    H176720   5.242   1.111  11.985 -0.9635 -2.7214  2.2892
18435TIP3    H276721   5.163   1.206  12.072  0.8860  2.1027 -0.8733
18436TIP3   OH276722   5.041   5.930   3.591 -0.2895  0.3076  0.5696
18436TIP3    H176723   5.030   5.856   3.531 -0.4446  0.1710  0.7647
18436TIP3    H276724   4.965   5.925   3.649 -0.1165  0.4149  0.8028
18437TIP3   OH276725   5.429   0.959   3.104 -0.1786 -0.3733  0.4015
18437TIP3    H176726   5.518   0.961   3.069 -0.2120 -0.4608  0.3140
18437TIP3    H276727   5.395   1.047   3.087 -0.4201 -0.6103 -0.3638
18438TIP3   OH276728   6.450   3.850  15.585  0.2954  0.5378 -0.0042
18438TIP3    H176729   6.484   3.868  15.498  1.0042 -1.7357 -0.2471
18438TIP3    H276730   6.528   3.846  15.641  0.5748 -3.6408 -0.3693
18439TIP3   OH276731   6.385   4.434   2.197  0.0270  0.3691 -0.3507
18439TIP3    H176732   6.447   4.496   2.159  1.6435  1.6934  3.8167
18439TIP3    H276733   6.320   4.488   2.241 -0.3857 -0.9087  0.6897
18440TIP3   OH276734   2.070   6.494  16.022 -0.2498 -0.0556 -0.2547
18440TIP3    H176735   2.065   6.412  15.972  1.3931 -2.1607  2.7558
18440TIP3    H276736   2.147   6.539  15.986  0.2846 -1.0069 -0.3286
18441TIP3   OH276737   6.327   1.625  12.052  0.1433  0.1449  0.9412
18441TIP3    H176738   6.371   1.679  11.987 -0.8227 -0.3011 -0.1137
18441TIP3    H276739   6.377   1.639  12.133  1.0838  1.0648  0.2239
18442TIP3   OH276740   6.286   0.728  11.320  0.0539  0.2917 -0.0114
18442TIP3    H176741   6.319   0.660  11.262  0.1976  0.3016  0.0579
18442TIP3    H276742   6.245   0.791  11.261 -0.3647 -0.0138 -0.0494
18443TIP3   OH276743   6.457   2.236   4.211 -0.6609 -0.2292 -0.2006
18443TIP3    H176744   6.523   2.201   4.271 -0.2930 -1.8254 -1.4940
18443TIP3    H276745   6.467   2.331   4.218  0.7019 -0.4167  0.7889
18444TIP3   OH276746   4.097   1.157   4.372 -0.0554  1.0504  0.4678
18444TIP3    H176747   4.180   1.112   4.386 -1.0006 -1.3363 -0.8812
18444TIP3    H276748   4.117   1.228   4.311  1.3236  1.9618  1.8960
18445TIP3   OH276749   4.763   5.612  14.027  0.5528 -0.1140  0.0093
18445TIP3    H176750   4.844   5.616  14.078  0.3444 -0.3448  0.3507
18445TIP3    H276751   4.705   5.675  14.069  0.5173 -0.0145 -0.1838
18446TIP3   OH276752   3.138   6.049  14.033  0.0122  0.4586 -0.0138
18446TIP3    H176753   3.227   6.030  14.062  0.3959 -0.2425 -1.5384
18446TIP3    H276754   3.150   6.102  13.954 -0.9355  0.8514  0.0987
18447TIP3   OH276755   0.244   3.841  14.505  0.0686 -0.3078 -0.1353
18447TIP3    H176756   0.159   3.872  14.473 -0.4105 -1.6515 -0.2771
18447TIP3    H276757   0.228   3.748  14.524  0.7079  0.0762  2.6489
18448TIP3   OH276758   5.689   5.862   1.833 -0.1026 -0.1586  0.0608
18448TIP3    H176759   5.724   5.809   1.761 -0.0501  0.7866 -0.6306
18448TIP3    H276760   5.730   5.948   1.821  0.9966 -0.3477  2.0426
18449TIP3   OH276761   5.379   4.973   6.863  0.1551  0.3510 -0.3276
18449TIP3    H176762   5.432   4.899   6.833  1.0948  0.5210  0.8410
18449TIP3    H276763   5.292   4.957   6.825  0.8742 -0.2185 -1.8351
18450TIP3   OH276764   6.043   5.047  11.384 -0.4460  0.4322  0.2417
18450TIP3    H176765   5.982   5.120  11.399  0.3709  1.0041  0.8734
18450TIP3    H276766   6.048   5.038  11.289 -2.5805 -0.5529  0.1540
18451TIP3   OH276767   4.253   1.031  16.620 -0.1214 -0.1801 -0.0045
18451TIP3    H176768   4.272   1.010  16.712  1.7651  1.2846 -0.0095
18451TIP3    H276769   4.188   1.101  16.625 -0.6499 -0.6752  0.1770
18452TIP3   OH276770   4.247   5.102  15.005  0.3002 -0.2497 -0.3616
18452TIP3    H176771   4.210   5.101  14.917  0.2674 -2.6275 -0.3704
18452TIP3    H276772   4.271   5.012  15.023  3.5558  0.6924  0.7536
18453TIP3   OH276773   3.358   1.841  15.820 -0.3409  0.1769  0.5272
18453TIP3    H176774   3.271   1.839  15.781 -0.8265  0.7269  1.5272
18453TIP3    H276775   3.342   1.854  15.914  0.7932 -0.4435  0.8332
18454TIP3   OH276776   3.112   3.348   0.559 -1.0292 -0.3966 -0.5210
18454TIP3    H176777   3.124   3.255   0.543  0.5264  0.0612 -2.3569
18454TIP3    H276778   3.114   3.388   0.472 -1.3229  1.3839  0.2495
18455TIP3   OH276779   4.107   3.769  11.852 -0.4860  0.2998  0.4268
18455TIP3    H176780   4.153   3.687  11.837  0.4693  0.8188  0.4330
18455TIP3    H276781   4.176   3.835  11.858 -1.1575  0.9228  1.7119
18456TIP3   OH276782   0.604   3.976  13.276  0.1807 -0.4201  0.0380
18456TIP3    H176783   0.529   3.937  13.233  2.0251 -1.7381 -2.1815
18456TIP3    H276784   0.566   4.024  13.350 -2.8363 -0.6923 -1.1762
18457TIP3   OH276785   6.017   2.802   0.346  0.7762  0.2439  0.2006
18457TIP3    H176786   6.091   2.751   0.313 -0.8659 -1.8746 -0.4515
18457TIP3    H276787   5.963   2.819   0.269  0.3718  1.4101  0.7152
18458TIP3   OH276788   0.680   5.404  13.466  0.0246 -0.3796  0.0209
18458TIP3    H176789   0.640   5.333  13.415  0.4016 -0.9378  0.4875
18458TIP3    H276790   0.687   5.476  13.404 -1.9552 -0.1513 -0.0072
18459TIP3   OH276791   5.651   4.182   3.342  0.1640 -0.1587 -0.0789
18459TIP3    H176792   5.738   4.175   3.303  0.5343  1.1682  0.4701
18459TIP3    H276793   5.641   4.101   3.393  1.9119  0.5329  1.4628
18460TIP3   OH276794   4.526   5.332   0.883  0.1430  0.2304 -0.4142
18460TIP3    H176795   4.507   5.409   0.829 -0.4210 -0.7608 -1.6969
18460TIP3    H276796   4.473   5.343   0.961 -2.3482 -0.2920 -1.9310
18461TIP3   OH276797   5.912   0.872  12.183  0.5892 -0.3609  0.0178
18461TIP3    H176798   5.856   0.799  12.207  1.5194 -0.7844  1.0060
18461TIP3    H276799   5.869   0.913  12.108 -1.6942  0.1132  1.4948
18462TIP3   OH276800   1.531   2.239   0.325 -0.0440  0.0942  0.3522
18462TIP3    H176801   1.491   2.186   0.394  2.4552  1.2962  2.9637
18462TIP3    H276802   1.582   2.176   0.273 -0.4763 -0.6121  0.7667
18463TIP3   OH276803   2.118   5.246  11.497 -0.1816 -0.1089 -0.5052
18463TIP3    H176804   2.068   5.239  11.416 -0.5771 -2.3377 -0.1477
18463TIP3    H276805   2.205   5.277  11.469  0.2983 -2.6070 -2.1158
18464TIP3   OH276806   0.279   2.417  10.483 -0.2754 -0.1191  0.4854
18464TIP3    H176807   0.197   2.368  10.488  0.0065 -0.8374 -1.1957
18464TIP3    H276808   0.346   2.352  10.505  0.2149 -0.9857 -2.9735
18465TIP3   OH276809   2.324   6.426   4.031  0.2879  0.5088  0.1056
18465TIP3    H176810   2.295   6.512   3.999  0.1107  0.7910  1.0005
18465TIP3    H276811   2.418   6.424   4.009  0.1426  0.6246 -0.5630
18466TIP3   OH276812   0.679   3.361  12.092  0.0712  0.3192 -0.2102
18466TIP3    H176813   0.744   3.291  12.088  0.0460  0.2697  0.2316
18466TIP3    H276814   0.703   3.419  12.019  0.9260  0.5694  0.2488
18467TIP3   OH276815   2.657   0.697  12.869 -0.5681 -0.1338  0.8016
18467TIP3    H176816   2.623   0.693  12.959 -0.9059 -1.5292  0.6376
18467TIP3    H276817   2.611   0.770  12.829 -0.9718  0.0283  1.5507
18468TIP3   OH276818   6.045   1.945  13.198 -0.0323  0.0707 -0.0921
18468TIP3    H176819   5.962   1.897  13.204  0.8427 -1.4773  0.3474
18468TIP3    H276820   6.111   1.880  13.224  1.3150  1.2552 -0.4740
18469TIP3   OH276821   4.202   4.202  12.861  0.0039 -0.8675  0.0095
18469TIP3    H176822   4.256   4.274  12.896  0.7267 -2.2123  1.8171
18469TIP3    H276823   4.259   4.158  12.799  0.2717 -1.0591  0.3869
18470TIP3   OH276824   0.923   6.765  15.155 -0.0877 -0.1316 -0.4818
18470TIP3    H176825   0.969   6.759  15.070  0.3392 -2.8016 -0.1383
18470TIP3    H276826   0.966   6.838  15.199  0.4022  0.6446 -2.1383
18471TIP3   OH276827   1.705   1.755  10.707 -0.2192  0.5374  0.3416
18471TIP3    H176828   1.620   1.794  10.728  0.1855  0.5990  1.9725
18471TIP3    H276829   1.767   1.827  10.721  0.1064  0.5291 -0.9706
18472TIP3   OH276830   6.492   2.806  15.662  0.9374  0.0981  0.0296
18472TIP3    H176831   6.399   2.800  15.682  0.6835  1.3742 -0.6236
18472TIP3    H276832   6.536   2.798  15.746  0.1988  0.1271  0.4222
18473TIP3   OH276833   5.742   2.172  16.050  0.3396  0.5249 -0.7485
18473TIP3    H176834   5.682   2.240  16.078  0.3643  0.3388 -0.2441
18473TIP3    H276835   5.729   2.167  15.955 -1.1960 -0.2153 -0.5373
18474TIP3   OH276836   6.097   6.744  16.717 -1.0466  0.1956  0.1312
18474TIP3    H176837   6.044   6.730  16.639  1.0390  0.3343 -1.4059
18474TIP3    H276838   6.170   6.798  16.687  0.5192 -0.8189  1.8838
18475TIP3   OH276839   6.446   6.512  15.461  0.6260 -0.1175  0.4176
18475TIP3    H176840   6.455   6.456  15.384 -0.7161  1.3111 -0.8371
18475TIP3    H276841   6.374   6.571  15.440  1.7097  1.8255  1.8373
18476TIP3   OH276842   6.264   2.610   3.057 -0.0980  0.0269  0.6803
18476TIP3    H176843   6.257   2.569   2.970  1.9293 -0.7535  0.8388
18476TIP3    H276844   6.238   2.701   3.042 -2.1552 -0.6357 -0.2131
18477TIP3   OH276845   4.880   3.008   1.877  0.4767  0.0129 -0.1365
18477TIP3    H176846   4.797   3.056   1.875  1.1706  1.3381  1.0183
18477TIP3    H276847   4.892   2.984   1.969  1.4997  0.0594 -0.2447
18478TIP3   OH276848   6.335   2.448   5.844 -0.0843 -0.1304  0.3354
18478TIP3    H176849   6.422   2.447   5.883  0.0639  0.2164  0.0223
18478TIP3    H276850   6.277   2.471   5.916 -0.0773 -1.5847  0.8400
18479TIP3   OH276851   4.994   1.626   5.152 -0.8193  0.1833 -0.5148
18479TIP3    H176852   5.085   1.597   5.144 -0.8148 -0.2592  0.9555
18479TIP3    H276853   4.954   1.604   5.068  0.1630 -0.5916 -0.7875
18480TIP3   OH276854   4.352   2.915   0.141  0.2105  0.2887 -0.1619
18480TIP3    H176855   4.360   3.008   0.163 -0.5625  0.0135  1.3679
18480TIP3    H276856   4.299   2.914   0.061 -1.8749  1.0812  1.1278
18481TIP3   OH276857   2.399   4.182   5.401  0.0154  0.6589 -0.0362
18481TIP3    H176858   2.357   4.267   5.415 -1.4656  0.4131 -2.4143
18481TIP3    H276859   2.336   4.118   5.434 -1.1658  0.3411 -2.6500
18482TIP3   OH276860   2.888   4.915  13.879  0.3433 -0.2286  0.2674
18482TIP3    H176861   2.840   4.852  13.933 -1.3439  0.0280 -0.8507
18482TIP3    H276862   2.872   4.886  13.789 -1.4090  2.3480 -0.3568
18483TIP3   OH276863   0.216   2.844   0.350 -0.1977 -0.0836  0.1329
18483TIP3    H176864   0.287   2.903   0.376  0.4008 -1.0925  0.8929
18483TIP3    H276865   0.205   2.786   0.425  0.7632 -2.3383 -1.3416
18484TIP3   OH276866   6.605   3.936   1.491  0.3891  0.4266 -0.0962
18484TIP3    H176867   6.573   3.997   1.425  1.7033  2.1948  0.8424
18484TIP3    H276868   6.526   3.908   1.537 -0.3133  0.8365 -1.0224
18485TIP3   OH276869   0.847   0.046   6.008 -0.4969  0.2011 -0.2762
18485TIP3    H176870   0.858   0.128   6.057  0.0740  0.5524 -0.9681
18485TIP3    H276871   0.755   0.023   6.019 -0.8435  1.3412 -0.7024
18486TIP3   OH276872   3.178   5.692  12.650 -0.0194 -0.7240  0.1923
18486TIP3    H176873   3.135   5.619  12.694  0.6038 -0.8084  0.6774
18486TIP3    H276874   3.220   5.653  12.574 -0.3906 -0.7237 -0.0146
18487TIP3   OH276875   3.488   5.918  15.121  0.0059  0.1307 -0.1364
18487TIP3    H176876   3.416   5.930  15.060  1.0508  0.6236 -1.3308
18487TIP3    H276877   3.515   5.827  15.109 -0.0030  0.1310 -0.1580
18488TIP3   OH276878   0.949   4.500   3.390 -0.2004  0.2168 -0.8718
18488TIP3    H176879   0.876   4.504   3.453 -1.1451  0.4096 -1.9341
18488TIP3    H276880   0.939   4.415   3.348 -0.7306  0.8280 -2.0439
18489TIP3   OH276881   2.477   1.523   0.229  0.2716  0.0287 -0.5209
18489TIP3    H176882   2.521   1.472   0.161 -1.2026  0.3691 -1.7928
18489TIP3    H276883   2.421   1.459   0.275  2.4184 -0.5304  1.4957
18490TIP3   OH276884   0.141   2.922   2.864  0.1850 -0.3098  0.1864
18490TIP3    H176885   0.099   2.997   2.821  0.8339  0.8379  1.4745
18490TIP3    H276886   0.080   2.896   2.933  0.2973 -0.4993  0.2151
18491TIP3   OH276887   6.644   6.522  14.213 -0.0602  0.0945 -0.7614
18491TIP3    H176888   6.726   6.477  14.235  0.4563  1.2660 -0.2390
18491TIP3    H276889   6.578   6.480  14.269  0.2627 -0.5449 -0.8554
18492TIP3   OH276890   1.996   6.474  17.217 -0.4524 -0.0509 -0.2138
18492TIP3    H176891   2.060   6.542  17.197  0.4804 -0.3765  1.5020
18492TIP3    H276892   1.911   6.519  17.215  0.0216  0.8522 -0.4143
18493TIP3   OH276893   5.669   3.527  12.962 -0.6132 -0.2930  0.1487
18493TIP3    H176894   5.591   3.485  12.999  0.2318 -0.5650  1.6781
18493TIP3    H276895   5.685   3.603  13.018 -1.6264  1.7089 -2.0827
18494TIP3   OH276896   2.514   5.936  16.796 -0.4036 -0.7297 -0.0596
18494TIP3    H176897   2.557   5.981  16.724  2.4873 -0.8814  1.4125
18494TIP3    H276898   2.531   5.843  16.779 -0.6175 -0.8268  0.2557
18495TIP3   OH276899   4.004   1.499  15.972  0.8514 -0.6166  0.0863
18495TIP3    H176900   4.056   1.547  15.906 -0.1639 -0.2822 -0.4933
18495TIP3    H276901   3.923   1.476  15.926 -0.3813  0.6052  1.5157
18496TIP3   OH276902   0.272   6.140  16.933  0.6675 -0.4009 -0.4355
18496TIP3    H176903   0.255   6.232  16.956 -1.7597 -0.8375 -0.1595
18496TIP3    H276904   0.346   6.115  16.989 -0.0512  0.7850  1.1566
18497TIP3   OH276905   5.885   4.599   6.415  0.5732  0.1304  0.2455
18497TIP3    H176906   5.865   4.578   6.506  0.4380 -0.8506 -0.0032
18497TIP3    H276907   5.813   4.655   6.386  0.2819 -0.0884  0.5477
18498TIP3   OH276908   3.796   2.206   4.344 -0.0383 -0.2788  0.0508
18498TIP3    H176909   3.825   2.128   4.296  0.7716  0.6131 -0.9470
18498TIP3    H276910   3.701   2.207   4.332 -0.1588 -1.4875  0.6817
18499TIP3   OH276911   2.527   4.304   2.565 -0.3895 -0.9238 -0.0287
18499TIP3    H176912   2.545   4.335   2.476  1.1810  0.3444  0.6943
18499TIP3    H276913   2.582   4.226   2.575  1.4857  0.4098  0.6546
18500TIP3   OH276914   1.865   2.573   4.118 -0.2320  0.1642  0.3706
18500TIP3    H176915   1.925   2.498   4.118  0.2015  0.5068  0.1921
18500TIP3    H276916   1.873   2.611   4.031  1.0002  1.5464  1.0310
18501TIP3   OH276917   3.915   3.315  11.552  0.0638 -0.1418 -0.0332
18501TIP3    H176918   3.918   3.390  11.611 -0.4924  1.8531 -2.3528
18501TIP3    H276919   3.824   3.310  11.524 -0.0672 -2.2118  0.6241
18502TIP3   OH276920   0.767   2.074  13.715  0.1697  0.2981  0.3861
18502TIP3    H176921   0.718   2.132  13.656  0.5688  0.0243 -0.2303
18502TIP3    H276922   0.719   2.077  13.797 -1.8317 -1.2277 -0.6514
18503TIP3   OH276923   1.896   4.891  13.367 -0.8008  0.1594  0.0473
18503TIP3    H176924   1.936   4.978  13.356 -0.4901 -0.0862 -0.8837
18503TIP3    H276925   1.970   4.830  13.358 -0.6705 -0.1622  2.6166
18504TIP3   OH276926   1.817   2.085  15.545  0.8936 -0.0955 -0.0645
18504TIP3    H176927   1.739   2.124  15.506 -1.1174 -1.3313  2.4356
18504TIP3    H276928   1.887   2.147  15.526 -0.9759  1.8252 -1.1342
18505TIP3   OH276929   3.851   2.668  14.460  0.0064  0.2949 -0.1630
18505TIP3    H176930   3.788   2.712  14.518  2.3118  1.1977  1.8192
18505TIP3    H276931   3.893   2.740  14.413  1.2896 -0.0665  0.4129
18506TIP3   OH276932   6.132   2.177   0.245  0.5871  0.4933  0.4846
18506TIP3    H176933   6.167   2.231   0.175 -0.0465  0.3406  0.0381
18506TIP3    H276934   6.184   2.097   0.242  0.4845  0.4404  0.1098
18507TIP3   OH276935   3.471   1.811   0.040  0.2887  0.0734  0.1099
18507TIP3    H176936   3.476   1.726   0.083  1.2240  0.2863  0.4432
18507TIP3    H276937   3.522   1.869   0.096 -0.2834  0.8444 -0.1534
18508TIP3   OH276938   1.186   4.170  13.838  0.2296 -0.1636  0.3051
18508TIP3    H176939   1.223   4.081  13.833  0.0522 -0.1998 -0.4965
18508TIP3    H276940   1.218   4.213  13.759 -0.5267  0.1610  0.1705
18509TIP3   OH276941   3.759   2.741  13.848 -0.6060  0.1618 -0.7232
18509TIP3    H176942   3.814   2.769  13.921 -1.0617  1.4155 -0.8359
18509TIP3    H276943   3.820   2.737  13.774 -0.1416 -1.1233 -0.2977
18510TIP3   OH276944   1.483   3.610   4.368 -0.4542 -0.2699  0.0394
18510TIP3    H176945   1.574   3.596   4.395  0.1570  0.4790 -1.4909
18510TIP3    H276946   1.479   3.574   4.280 -1.2686  0.9004 -0.4254
18511TIP3   OH276947   0.810   4.062   1.511  0.0252 -0.2263 -0.7233
18511TIP3    H176948   0.813   4.155   1.487  1.2326 -0.4581 -1.6042
18511TIP3    H276949   0.876   4.053   1.579  0.2103 -0.5124 -0.9395
18512TIP3   OH276950   1.914   5.401   2.338  0.3320  0.1563  0.0567
18512TIP3    H176951   1.957   5.333   2.287 -1.5360 -1.1028  0.0707
18512TIP3    H276952   1.979   5.471   2.343  1.6528 -0.8676 -1.5057
18513TIP3   OH276953   2.173   5.542  13.059  0.4241  0.3746 -0.4520
18513TIP3    H176954   2.128   5.621  13.031 -0.1816  0.8156  1.5967
18513TIP3    H276955   2.186   5.554  13.153 -1.2804 -2.6947  0.3208
18514TIP3   OH276956   3.822   2.307  11.685  0.0975  0.0841  0.8347
18514TIP3    H176957   3.797   2.223  11.647  1.3273  0.5837 -1.2451
18514TIP3    H276958   3.913   2.294  11.714  0.4259  0.7790  0.1468
18515TIP3   OH276959   3.164   2.276  16.157  0.2661  0.2230  0.1572
18515TIP3    H176960   3.122   2.211  16.099  1.7974 -1.3060  0.6644
18515TIP3    H276961   3.226   2.322  16.100  1.8598 -1.3625  0.4814
18516TIP3   OH276962   0.764   5.832   2.690 -0.3229 -0.1277  0.0679
18516TIP3    H176963   0.797   5.893   2.625 -0.8641  0.0593 -0.0356
18516TIP3    H276964   0.670   5.851   2.695 -0.7181 -1.6650 -0.7700
18517TIP3   OH276965   0.187   3.923  11.553 -0.6758  0.3502  0.2499
18517TIP3    H176966   0.269   3.936  11.505  0.5296 -0.0424  2.0797
18517TIP3    H276967   0.197   3.977  11.632 -1.8946 -0.2370  0.8304
18518TIP3   OH276968   0.306   4.519  16.821  0.8920  0.2939 -0.0201
18518TIP3    H176969   0.367   4.542  16.750  0.2056  2.2641 -0.0130
18518TIP3    H276970   0.356   4.458  16.876  2.0200  0.0319 -1.2769
18519TIP3   OH276971   4.635   2.264  12.938  0.2114 -0.4513  0.1160
18519TIP3    H176972   4.625   2.358  12.927 -0.1719 -0.3990  0.8467
18519TIP3    H276973   4.686   2.254  13.018  0.6161 -0.8616 -0.1846
18520TIP3   OH276974   5.285   0.839   2.890 -0.0073  0.0193  0.0295
18520TIP3    H176975   5.313   0.913   2.944 -1.1640 -0.6059  1.5274
18520TIP3    H276976   5.347   0.839   2.816  0.8682  1.6156  0.7132
18521TIP3   OH276977   0.429   1.676   4.402  0.2041 -0.2566  0.3599
18521TIP3    H176978   0.364   1.644   4.465  0.6825  0.0069  1.0002
18521TIP3    H276979   0.508   1.688   4.454 -0.2973  3.3212  0.5137
18522TIP3   OH276980   5.681   4.275   0.970 -0.0736 -0.7009  0.1013
18522TIP3    H176981   5.618   4.274   1.042 -0.2982  1.6485  0.0056
18522TIP3    H276982   5.637   4.326   0.901  1.4840  0.0515 -0.3735
18523TIP3   OH276983   1.895   0.427  13.208 -0.5252  0.1448 -0.0830
18523TIP3    H176984   1.929   0.405  13.122 -1.3791 -3.0219  0.2676
18523TIP3    H276985   1.815   0.477  13.191 -0.0122  0.6601 -1.0506
18524TIP3   OH276986   1.486   2.693  12.485 -0.0611  0.5520  0.4510
18524TIP3    H176987   1.497   2.695  12.580 -0.8148 -1.3275  0.6089
18524TIP3    H276988   1.558   2.747  12.451  1.8531 -0.9451  1.9476
18525TIP3   OH276989   5.736   2.636   0.034 -0.1310 -0.9347 -0.0122
18525TIP3    H176990   5.784   2.619  -0.047  0.1753 -1.6076  0.2964
18525TIP3    H276991   5.728   2.550   0.076  0.5391 -0.4736  1.1201
18526TIP3   OH276992   4.431   0.824   3.459  0.0613  0.2898  0.1238
18526TIP3    H176993   4.453   0.853   3.547 -0.0078  0.3833  0.1101
18526TIP3    H276994   4.493   0.870   3.403 -0.8081  1.3228 -0.0104
18527TIP3   OH276995   6.659   2.406   3.410  0.1629 -1.0378  0.2785
18527TIP3    H176996   6.594   2.466   3.447  0.4991  1.3242 -2.5755
18527TIP3    H276997   6.618   2.373   3.330  1.7610 -0.9204 -0.6238
18528TIP3   OH276998   3.180   2.958  12.327 -0.1084  0.3321 -0.3980
18528TIP3    H176999   3.194   3.035  12.272  0.3716  0.5617  0.0304
18528TIP3    H277000   3.116   2.906  12.280 -2.1042  2.0157  0.3086
18529TIP3   OH277001   0.070   2.795   1.727 -0.4496  0.0412  0.1085
18529TIP3    H177002   0.134   2.724   1.736  0.6253  0.7092 -1.6122
18529TIP3    H277003  -0.001   2.758   1.675 -0.8699 -0.3263  0.9231
18530TIP3   OH277004   5.876   4.873   0.609  0.0463 -0.3522  0.0936
18530TIP3    H177005   5.948   4.867   0.672  0.0145  2.0842  0.4530
18530TIP3    H277006   5.901   4.814   0.538  2.7788  0.8987 -0.1005
18531TIP3   OH277007   3.493   4.847   3.187  0.3795  0.3126 -0.1548
18531TIP3    H177008   3.487   4.755   3.160  0.3377  0.0761  0.6282
18531TIP3    H277009   3.446   4.895   3.119  1.6576 -0.0811 -1.3545
18532TIP3   OH277010   2.483   2.987  13.844 -0.2277  0.0439 -0.0677
18532TIP3    H177011   2.449   2.970  13.932  1.1964 -1.6255  0.2330
18532TIP3    H277012   2.546   3.058  13.855  0.3105 -0.4900  0.3912
18533TIP3   OH277013   2.652   2.173  13.201  0.4698  0.2877  1.0066
18533TIP3    H177014   2.687   2.107  13.260 -0.4939 -0.4762  0.7491
18533TIP3    H277015   2.579   2.130  13.156  1.9127  0.3981 -1.6778
18534TIP3   OH277016   5.029   6.341   5.755  0.2788 -0.1745  0.0485
18534TIP3    H177017   5.049   6.338   5.662 -0.9727  0.9860 -0.2895
18534TIP3    H277018   5.114   6.338   5.799  0.9505  0.5436 -1.1669
18535TIP3   OH277019   0.995   4.780   0.552  0.0012  0.4821 -0.3295
18535TIP3    H177020   0.938   4.750   0.482 -0.4695  0.1599  0.1835
18535TIP3    H277021   1.033   4.699   0.588  0.0914  0.6288 -0.0914
18536TIP3   OH277022   5.564   5.162  14.796 -0.4194 -1.1091 -0.6759
18536TIP3    H177023   5.616   5.091  14.834 -1.3643 -1.0671  0.7742
18536TIP3    H277024   5.600   5.242  14.835  0.2872 -0.8091 -1.8906
18537TIP3   OH277025   3.916   2.921  11.097 -1.0463  0.1427  0.9043
18537TIP3    H177026   3.928   2.868  11.018 -0.9356 -0.3647  1.2573
18537TIP3    H277027   3.934   3.011  11.069 -0.9111 -0.0471  0.3760
18538TIP3   OH277028   5.856   0.705   0.502 -0.4358  0.2770  0.2624
18538TIP3    H177029   5.852   0.640   0.432  1.2477  0.4036  0.0118
18538TIP3    H277030   5.844   0.655   0.582  1.9949 -0.6097  0.1666
18539TIP3   OH277031   0.966   3.769   1.283  0.3095  0.0111 -0.4737
18539TIP3    H177032   0.873   3.790   1.298  0.2252  0.9247 -2.0243
18539TIP3    H277033   0.973   3.676   1.304 -1.3972 -0.5320 -1.9879
18540TIP3   OH277034   3.948   3.647   0.267  0.1101  0.6708 -0.3811
18540TIP3    H177035   3.986   3.734   0.259  1.3062  0.2415  0.3106
18540TIP3    H277036   3.940   3.633   0.361 -0.8510  0.3570 -0.5041
18541TIP3   OH277037   3.817   0.387   3.906 -0.4153  0.1141 -0.0677
18541TIP3    H177038   3.782   0.298   3.906  1.9770 -0.9735  2.1170
18541TIP3    H277039   3.810   0.415   3.997  1.0761  1.1831 -0.2547
18542TIP3   OH277040   3.681   2.652  15.259  0.4162  0.6467 -0.2361
18542TIP3    H177041   3.597   2.616  15.289  0.7743  0.2150  0.2739
18542TIP3    H277042   3.675   2.648  15.163  0.3326 -0.5368 -0.1963
18543TIP3   OH277043   0.033   3.286  11.586  0.0656 -0.1175  0.0495
18543TIP3    H177044   0.123   3.309  11.608 -0.2278  1.8522 -0.6503
18543TIP3    H277045  -0.015   3.369  11.589 -1.6313 -1.0395 -0.1033
18544TIP3   OH277046   6.483   2.064  13.143  0.6945 -0.2040 -0.2488
18544TIP3    H177047   6.498   2.000  13.074  1.5292 -0.7071  0.3855
18544TIP3    H277048   6.535   2.033  13.217  2.7149  2.1703 -0.5144
18545TIP3   OH277049   1.720   4.898   3.070 -0.1613 -1.2026 -0.3361
18545TIP3    H177050   1.724   4.990   3.044 -0.3978 -0.5966  1.6471
18545TIP3    H277051   1.812   4.869   3.071  0.1132 -0.3616  1.0726
18546TIP3   OH277052   3.446   3.069   0.721 -0.0659  0.6439  0.3581
18546TIP3    H177053   3.502   3.048   0.647 -0.3074 -1.0147  0.6102
18546TIP3    H277054   3.479   3.152   0.753 -0.0208  1.4677 -1.6596
18547TIP3   OH277055   1.878   2.837  12.301  0.0640 -0.3626  0.1294
18547TIP3    H177056   1.901   2.793  12.383 -0.1238 -0.1843  0.2791
18547TIP3    H277057   1.957   2.831  12.248  1.1022  1.7939  1.3045
18548TIP3   OH277058   6.365   6.744   6.071  0.4549  0.2226  0.3000
18548TIP3    H177059   6.310   6.703   6.004  1.1622 -2.6506  1.3267
18548TIP3    H277060   6.455   6.722   6.044  0.7146 -2.3573  2.8579
18549TIP3   OH277061   2.268   3.270  16.241 -0.0636  0.0846  0.3535
18549TIP3    H177062   2.266   3.201  16.174 -0.1108  1.4048 -1.0485
18549TIP3    H277063   2.240   3.226  16.321 -1.6425 -1.1984 -0.8260
18550TIP3   OH277064   5.778   1.127   2.862  0.3130 -0.7084 -0.1350
18550TIP3    H177065   5.769   1.076   2.781  0.5021 -1.7424  0.4759
18550TIP3    H277066   5.710   1.194   2.857 -0.2148 -1.2835 -0.7726
18551TIP3   OH277067   0.070   1.135   0.653 -0.2135 -0.2819 -0.0250
18551TIP3    H177068   0.145   1.082   0.626 -0.1346  0.1986 -0.7728
18551TIP3    H277069   0.010   1.133   0.578 -1.3621 -1.3748  0.8766
18552TIP3   OH277070   0.510   2.705  14.481 -0.3149  0.1482  0.2211
18552TIP3    H177071   0.598   2.668  14.490 -0.6565 -1.3099 -1.7041
18552TIP3    H277072   0.517   2.763  14.405 -1.4483 -1.6098 -1.2885
18553TIP3   OH277073   3.923   2.406   0.983  0.7595 -0.0525 -0.0292
18553TIP3    H177074   3.838   2.368   1.002  0.0347  2.0155  1.2366
18553TIP3    H277075   3.986   2.345   1.022 -0.1109 -1.4511 -0.7214
18554TIP3   OH277076   0.765   1.986  11.840  0.1090  0.1877 -0.2092
18554TIP3    H177077   0.849   2.002  11.884 -1.2705  2.9894  1.6585
18554TIP3    H277078   0.774   2.029  11.755  1.5297 -2.2097 -1.4037
18555TIP3   OH277079   6.149   3.581  16.781 -0.0735 -0.4794 -0.4853
18555TIP3    H177080   6.127   3.520  16.852 -1.7149  0.9600  0.3293
18555TIP3    H277081   6.206   3.646  16.821  0.6647 -0.7884 -1.0261
18556TIP3   OH277082   1.073   6.750   4.653 -0.2789  0.4833  0.0313
18556TIP3    H177083   1.029   6.798   4.723  0.9437 -1.0602  1.9610
18556TIP3    H277084   1.109   6.673   4.695  1.0335 -0.2372 -2.2063
18557TIP3   OH277085   6.219   6.549  12.537 -0.0198  0.5050 -0.0880
18557TIP3    H177086   6.152   6.498  12.582  0.7445 -1.2158 -0.7995
18557TIP3    H277087   6.290   6.557  12.601  0.0520  0.2251 -0.1278
18558TIP3   OH277088   1.108   1.462   5.018 -0.3714 -0.4157  0.3346
18558TIP3    H177089   1.114   1.485   5.111  2.4484 -0.2786  0.2212
18558TIP3    H277090   1.047   1.526   4.981  1.4977  2.1756  1.4123
18559TIP3   OH277091   0.395   3.591  15.433 -0.0044 -0.2351 -0.4350
18559TIP3    H177092   0.487   3.563  15.431  0.7615  1.8947  0.8977
18559TIP3    H277093   0.388   3.656  15.363 -0.2964  0.1318 -0.0691
18560TIP3   OH277094   2.760   3.470  14.363  1.3421  0.5266 -0.0008
18560TIP3    H177095   2.718   3.449  14.446 -1.4883  0.0561 -1.4538
18560TIP3    H277096   2.848   3.431  14.370  0.2968 -1.7422  1.7833
18561TIP3   OH277097   0.097   2.802   4.838  0.7651  0.2743 -0.0514
18561TIP3    H177098   0.028   2.843   4.891  0.6222 -0.5970  0.4635
18561TIP3    H277099   0.108   2.861   4.763 -1.2148 -0.0432 -0.6534
18562TIP3   OH277100   0.300   3.093  12.450 -0.0976 -0.2487 -0.3104
18562TIP3    H177101   0.255   3.042  12.517 -0.1705  0.2730  0.0372
18562TIP3    H277102   0.240   3.093  12.375 -1.0565  1.1488  0.4317
18563TIP3   OH277103   3.801   0.919   1.870  0.5041 -0.0545 -0.0651
18563TIP3    H177104   3.879   0.915   1.814 -0.1543  1.7044 -1.1580
18563TIP3    H277105   3.834   0.894   1.957  2.8518  2.8197  0.0350
18564TIP3   OH277106   1.290   1.598  14.359  0.3348 -0.7060 -0.3934
18564TIP3    H177107   1.281   1.595  14.454  1.3276  0.9343 -0.2021
18564TIP3    H277108   1.210   1.639  14.328 -0.3150 -1.9007 -0.3652
18565TIP3   OH277109   4.399   6.623  12.064 -0.3645  0.3943  0.7163
18565TIP3    H177110   4.334   6.673  12.015 -0.1175 -2.3029 -2.7165
18565TIP3    H277111   4.347   6.556  12.110 -0.2580 -0.6147 -0.5617
18566TIP3   OH277112   5.652   5.460  16.229  0.9010  0.7431  0.2719
18566TIP3    H177113   5.560   5.445  16.249  0.1405  2.8131 -1.3244
18566TIP3    H277114   5.687   5.372  16.214 -0.4725 -0.1869  2.0660
18567TIP3   OH277115   4.006   4.674   5.178 -0.4221  0.2174 -0.5404
18567TIP3    H177116   4.067   4.745   5.194 -0.3753  0.2505 -0.8591
18567TIP3    H277117   3.927   4.717   5.145  0.5829 -0.0416 -3.6025
18568TIP3   OH277118   2.696   4.719   1.365 -0.5224 -0.2715  0.0893
18568TIP3    H177119   2.693   4.744   1.273  0.1370  0.7333  0.3222
18568TIP3    H277120   2.716   4.625   1.364  0.7331 -0.0228 -0.7955
18569TIP3   OH277121   5.074   6.078  12.148 -0.2627  0.0317 -0.5892
18569TIP3    H177122   5.035   6.134  12.081  1.8578 -0.2750 -2.1597
18569TIP3    H277123   5.156   6.122  12.171 -0.2252 -0.6664  0.6887
18570TIP3   OH277124   0.702   6.518  12.299  0.3063 -0.1077 -0.1356
18570TIP3    H177125   0.739   6.533  12.212  0.0616  0.4727 -0.1426
18570TIP3    H277126   0.610   6.499  12.283 -0.0751  1.4379  0.0845
18571TIP3   OH277127   5.909   4.691   3.187 -1.0534  0.2037  0.7485
18571TIP3    H177128   5.856   4.717   3.111 -1.3536  0.3317  1.0020
18571TIP3    H277129   5.877   4.605   3.211 -0.3823 -0.2147  0.2088
18572TIP3   OH277130   0.661   3.266   2.895  0.0321 -0.2795 -0.4676
18572TIP3    H177131   0.682   3.350   2.936 -0.2896 -0.2490 -0.3601
18572TIP3    H277132   0.634   3.210   2.967  0.0075 -0.3984 -0.5680
18573TIP3   OH277133   4.084   5.874   2.256 -0.0522 -0.4148 -0.1377
18573TIP3    H177134   4.052   5.871   2.346  0.8444  0.3529  0.2223
18573TIP3    H277135   4.164   5.823   2.257  0.3505  0.1929 -0.3195
18574TIP3   OH277136   0.433   0.136  15.465  0.2355 -0.3130  0.0270
18574TIP3    H177137   0.339   0.150  15.478  0.0243 -1.2836 -0.4078
18574TIP3    H277138   0.457   0.199  15.396 -0.6043 -1.6434 -1.5594
18575TIP3   OH277139   4.687   3.867  16.935  0.5885  0.0757 -0.3601
18575TIP3    H177140   4.636   3.791  16.905  0.1116 -0.6899  2.1176
18575TIP3    H277141   4.778   3.846  16.911  0.6404 -1.9320  1.2878
18576TIP3   OH277142   6.645   4.182  11.271 -0.3703  0.0288  0.4235
18576TIP3    H177143   6.625   4.101  11.319  2.2901 -0.5479  0.7618
18576TIP3    H277144   6.689   4.237  11.336 -0.6928  1.0762 -0.2311
18577TIP3   OH277145   0.381   4.849   4.406  0.1263  0.2960  0.2339
18577TIP3    H177146   0.449   4.909   4.437  0.4359  0.2044 -0.2413
18577TIP3    H277147   0.381   4.862   4.311  1.2752 -1.5668 -0.0573
18578TIP3   OH277148   1.509   3.988   6.684  0.0790 -0.5347 -0.2772
18578TIP3    H177149   1.562   4.001   6.606  0.9123 -0.7023  0.2464
18578TIP3    H277150   1.570   4.001   6.757 -1.0216  1.2404  0.3993
18579TIP3   OH277151   1.823   6.054   1.334  0.6255  0.1777  0.1181
18579TIP3    H177152   1.763   6.007   1.393  1.9645  0.5486  1.8591
18579TIP3    H277153   1.904   6.003   1.337  1.6800  1.8479  1.0103
18580TIP3   OH277154   6.231   4.523  11.936  0.3954 -0.2421 -0.3961
18580TIP3    H177155   6.200   4.587  11.872 -1.0863  1.2234  1.6835
18580TIP3    H277156   6.322   4.549  11.953 -0.4160  1.9207  1.0293
18581TIP3   OH277157   0.210   2.389   0.409 -0.0559  0.3727  0.4417
18581TIP3    H177158   0.258   2.306   0.416 -0.3359  0.2269  0.6906
18581TIP3    H277159   0.185   2.395   0.317 -2.1546 -1.0528  0.8268
18582TIP3   OH277160   3.918   2.055  11.359  0.0280 -0.0595 -0.1696
18582TIP3    H177161   3.898   2.064  11.452 -1.7150  1.6765 -0.6484
18582TIP3    H277162   3.883   1.969  11.335  0.4763 -0.5133  0.7620
18583TIP3   OH277163   3.292   4.591  12.994 -0.0458 -0.0075 -0.1000
18583TIP3    H177164   3.320   4.581  12.903 -0.1166 -0.1396 -0.1074
18583TIP3    H277165   3.369   4.569  13.046  0.0581  0.2766 -0.1306
18584TIP3   OH277166   4.410   3.775  15.933 -0.7406 -0.2471  0.8889
18584TIP3    H177167   4.457   3.816  16.006  1.1634 -2.6373  1.1182
18584TIP3    H277168   4.444   3.819  15.855 -2.3697  1.9182  1.2643
18585TIP3   OH277169   1.147   1.842  16.849  0.0191 -0.1406 -0.1409
18585TIP3    H177170   1.087   1.908  16.815 -0.0121  1.0746  2.0758
18585TIP3    H277171   1.233   1.871  16.821 -0.2414 -0.9904 -1.9306
18586TIP3   OH277172   6.616   1.680   6.888  0.1401 -0.6567  0.0195
18586TIP3    H177173   6.543   1.667   6.827  0.2527 -1.0384 -0.0341
18586TIP3    H277174   6.690   1.635   6.847  0.5221  0.0928 -0.1359
18587TIP3   OH277175   4.031   6.598  13.359 -0.5397 -0.0344  0.4666
18587TIP3    H177176   4.111   6.649  13.373 -0.5453  0.4560 -1.1233
18587TIP3    H277177   4.030   6.535  13.431  0.5881  0.8037  1.2551
18588TIP3   OH277178   5.268   3.344  13.355 -0.2281 -0.2850 -0.1688
18588TIP3    H177179   5.227   3.313  13.436 -0.7930 -0.3973 -0.4933
18588TIP3    H277180   5.248   3.437  13.352 -0.6249 -0.3752 -0.4182
18589TIP3   OH277181   2.373   1.088  16.950 -0.2744 -0.2182 -0.3540
18589TIP3    H177182   2.379   1.123  16.861 -1.0886 -0.9718 -0.7187
18589TIP3    H277183   2.283   1.107  16.978 -0.9301 -2.3948 -0.7633
18590TIP3   OH277184   1.752   4.400   0.613 -0.0038 -0.1169  0.5070
18590TIP3    H177185   1.678   4.351   0.578 -0.3777  0.7641  0.0229
18590TIP3    H277186   1.725   4.492   0.608  0.2399  0.1058  2.3931
18591TIP3   OH277187   6.001   2.645  12.622 -0.4537 -0.2985  0.3537
18591TIP3    H177188   5.998   2.709  12.552 -2.7179 -0.5318  0.1692
18591TIP3    H277189   6.059   2.684  12.688  1.0822  0.2638 -1.2637
18592TIP3   OH277190   2.377   0.416  12.454  0.3862  0.4120  0.1345
18592TIP3    H177191   2.402   0.495  12.501  0.8454 -0.6467  1.7472
18592TIP3    H277192   2.435   0.348  12.488 -0.4199 -0.7669 -0.7441
18593TIP3   OH277193   5.598   1.006  15.053  0.1404  0.7360  0.2974
18593TIP3    H177194   5.668   0.989  15.116 -0.2836  0.7171  0.7606
18593TIP3    H277195   5.525   1.040  15.105 -0.1075  1.0076 -0.2188
18594TIP3   OH277196   2.362   3.756  10.890  0.2802 -0.7218 -0.1821
18594TIP3    H177197   2.292   3.801  10.937  0.6353  0.9444 -1.1591
18594TIP3    H277198   2.324   3.736  10.804  0.6885 -0.6805 -0.3751
18595TIP3   OH277199   2.893   2.363  14.179  0.2560  0.1629 -0.1653
18595TIP3    H177200   2.927   2.341  14.265 -0.3927  0.1905  0.1051
18595TIP3    H277201   2.906   2.284  14.126  0.9196  0.2424 -0.1340
18596TIP3   OH277202   2.636   5.661  16.444 -0.7069 -0.2398 -0.4284
18596TIP3    H177203   2.707   5.724  16.439 -0.7489  0.1291  2.0293
18596TIP3    H277204   2.564   5.700  16.394 -0.3335  1.0965  0.0477
18597TIP3   OH277205   5.018   5.590  12.191  0.4734 -0.1508  0.3418
18597TIP3    H177206   4.925   5.609  12.178  0.6317 -0.1121 -0.7860
18597TIP3    H277207   5.051   5.665  12.240 -0.5140 -1.1388  2.6932
18598TIP3   OH277208   5.714   0.664   1.153 -0.1409  0.1140 -0.0925
18598TIP3    H177209   5.658   0.723   1.204 -1.2352  0.0658 -1.1870
18598TIP3    H277210   5.732   0.712   1.073 -0.8393 -0.9169 -0.8971
18599TIP3   OH277211   3.492   0.537   0.101 -0.1365  0.3451  0.5549
18599TIP3    H177212   3.534   0.460   0.063 -0.0256  1.2922 -1.3918
18599TIP3    H277213   3.403   0.536   0.064 -0.0967  1.1897  0.4109
18600TIP3   OH277214   6.565   5.249  12.047  0.2035 -0.2201  0.3900
18600TIP3    H177215   6.634   5.292  12.098  0.1931  0.2686 -0.0029
18600TIP3    H277216   6.573   5.286  11.959 -0.8082  0.1412  0.4355
18601TIP3   OH277217   5.399   2.532   2.393 -0.0492  0.2421  0.0760
18601TIP3    H177218   5.475   2.580   2.426  0.6057 -0.4566 -0.3877
18601TIP3    H277219   5.371   2.581   2.316  1.3779 -0.7692 -1.1288
18602TIP3   OH277220   5.274   0.802   1.270  0.2005  0.2058 -0.0207
18602TIP3    H177221   5.234   0.864   1.331 -0.0269 -0.0002  0.0391
18602TIP3    H277222   5.286   0.852   1.189 -0.5687  0.1491 -0.1716
18603TIP3   OH277223   3.052   1.010  16.369  0.1402  0.0697 -0.6464
18603TIP3    H177224   3.066   1.016  16.464 -0.6818 -0.2387 -0.5051
18603TIP3    H277225   2.960   1.032  16.356  0.1641 -0.2091 -1.3424
18604TIP3   OH277226   4.280   1.767  15.610 -0.1713 -0.0152 -0.4052
18604TIP3    H177227   4.286   1.728  15.523 -2.5059  0.5038 -0.8618
18604TIP3    H277228   4.291   1.861  15.595  1.0389 -0.0510  0.1173
18605TIP3   OH277229   5.424   2.272  12.441  0.3711  0.5067  0.5915
18605TIP3    H177230   5.473   2.308  12.515 -2.0718  2.5775  1.3494
18605TIP3    H277231   5.437   2.336  12.371 -0.7638  0.8348  0.6544
18606TIP3   OH277232   5.900   4.318   0.793  0.3664 -0.0713  0.1405
18606TIP3    H177233   5.927   4.249   0.732  0.3363 -0.8084  0.9414
18606TIP3    H277234   5.812   4.292   0.821 -0.0277  0.7948 -0.2580
18607TIP3   OH277235   6.146   4.719  16.553 -0.8381  0.0523 -0.6607
18607TIP3    H177236   6.105   4.642  16.592 -2.2350  1.4280  0.7069
18607TIP3    H277237   6.208   4.683  16.490  0.5397 -2.2467  1.8279
18608TIP3   OH277238   6.218   1.160  15.106 -1.0815 -0.2139 -0.7456
18608TIP3    H177239   6.269   1.197  15.034 -0.0918 -0.4429 -0.1906
18608TIP3    H277240   6.244   1.211  15.183  0.1518 -1.8495 -0.0038
18609TIP3   OH277241   0.535   4.526  15.032  0.0359 -0.7271  0.1867
18609TIP3    H177242   0.555   4.434  15.051  0.6074 -0.3923  1.3403
18609TIP3    H277243   0.500   4.560  15.115 -0.0509  0.1277 -0.1907
18610TIP3   OH277244   2.959   3.657  14.513  0.0653  0.2666  0.4217
18610TIP3    H177245   2.999   3.582  14.469 -0.5448  1.4116 -2.2554
18610TIP3    H277246   3.031   3.700  14.559  0.7976 -0.8175  0.3216
18611TIP3   OH277247   1.037   3.741  13.572 -0.4165 -0.2160  0.3649
18611TIP3    H177248   1.087   3.660  13.559  1.2400  0.9642 -1.0557
18611TIP3    H277249   1.029   3.750  13.666  1.0883 -1.0344  0.6003
18612TIP3   OH277250   6.515   4.834   1.323  0.5209  0.0194 -0.0234
18612TIP3    H177251   6.507   4.827   1.418  2.9361 -1.0741  0.1765
18612TIP3    H277252   6.448   4.775   1.289  1.3430 -1.6509  1.1053
18613TIP3   OH277253   0.030   3.746  11.424 -0.0485  0.4019 -0.3472
18613TIP3    H177254   0.097   3.745  11.356  0.0339  1.1045 -0.2823
18613TIP3    H277255   0.068   3.798  11.495 -0.0185 -0.5559  0.3618
18614TIP3   OH277256   0.934   4.520   2.601  0.1266 -0.3940 -0.7273
18614TIP3    H177257   0.931   4.542   2.694  0.7406 -1.1115 -0.5239
18614TIP3    H277258   0.844   4.495   2.579  0.0337 -0.4815 -0.2559
18615TIP3   OH277259   0.291   5.489  13.142 -0.0035 -0.2554 -0.5677
18615TIP3    H177260   0.195   5.487  13.144 -0.0346 -2.0815 -1.4669
18615TIP3    H277261   0.312   5.572  13.100 -1.2282 -0.1433 -1.0136
18616TIP3   OH277262   4.684   1.919  11.369  0.3525 -0.7885 -0.7639
18616TIP3    H177263   4.744   1.861  11.324  0.8603 -1.0827  0.2676
18616TIP3    H277264   4.604   1.867  11.381  0.7952 -1.2842  0.1300
18617TIP3   OH277265   2.220   5.893  16.860 -0.1779  0.1944 -0.3313
18617TIP3    H177266   2.172   5.861  16.783  1.6098 -0.0525 -1.3991
18617TIP3    H277267   2.298   5.838  16.863  0.2149  0.7975  1.1659
18618TIP3   OH277268   0.585   5.848  14.166 -0.2867  0.2342 -0.2611
18618TIP3    H177269   0.657   5.893  14.209  1.5505 -2.3020 -0.4612
18618TIP3    H277270   0.607   5.850  14.073 -1.1644  0.5538 -0.4745
18619TIP3   OH277271   3.179   1.409   5.886 -0.2466  0.3393 -0.5040
18619TIP3    H177272   3.202   1.430   5.977 -1.5069 -0.0955 -0.0621
18619TIP3    H277273   3.117   1.336   5.893  0.3049 -0.2936 -1.7659
18620TIP3   OH277274   1.054   0.362   5.065  0.3342  0.0447 -0.3314
18620TIP3    H177275   1.084   0.296   5.002  1.0151  1.7508 -1.8748
18620TIP3    H277276   0.976   0.323   5.105 -0.2085 -1.0760 -2.3278
18621TIP3   OH277277   4.958   3.745  14.246  0.2361 -0.2077 -0.2259
18621TIP3    H177278   4.868   3.730  14.276  0.5644  0.8978  1.5015
18621TIP3    H277279   4.969   3.686  14.171 -1.7911 -0.6387 -0.2425
18622TIP3   OH277280   5.675   3.678  13.535  0.7190 -0.0607  0.2382
18622TIP3    H177281   5.649   3.606  13.593 -0.5958 -1.1893 -1.6398
18622TIP3    H277282   5.752   3.645  13.489 -0.5796 -0.8648 -1.5033
18623TIP3   OH277283   5.304   6.015   3.174  0.3889 -0.2111  0.0308
18623TIP3    H177284   5.398   6.029   3.159  0.3675 -1.4973 -1.7195
18623TIP3    H277285   5.296   5.998   3.267  1.6746  1.4463  0.4780
18624TIP3   OH277286   3.130   0.894  10.889 -0.4080 -0.6941 -0.2720
18624TIP3    H177287   3.206   0.951  10.878  0.0878 -1.6225 -1.8533
18624TIP3    H277288   3.129   0.839  10.812  0.4506 -4.4006  2.1107
18625TIP3   OH277289   3.695   4.486   3.108 -0.1821  0.1365 -0.2922
18625TIP3    H177290   3.716   4.404   3.063 -3.0478 -1.2058  0.5156
18625TIP3    H277291   3.752   4.487   3.184  1.3430 -0.0035 -1.3871
18626TIP3   OH277292   1.116   6.120   1.151  0.3261 -0.0854  0.4321
18626TIP3    H177293   1.027   6.140   1.125  0.7083  0.1005 -0.7807
18626TIP3    H277294   1.108   6.082   1.239 -1.0034 -0.7242  0.0473
18627TIP3   OH277295   4.087   3.681   1.285 -0.3676 -0.0520 -0.1843
18627TIP3    H177296   4.083   3.768   1.324 -0.4124  0.8912 -2.1801
18627TIP3    H277297   4.028   3.685   1.209  2.4825 -0.5116 -2.6256
18628TIP3   OH277298   5.024   0.695   5.626  0.2049  0.2870 -0.0680
18628TIP3    H177299   5.114   0.663   5.620 -0.1446 -0.8303  0.3559
18628TIP3    H277300   5.006   0.734   5.540  0.9634  0.1784 -0.2799
18629TIP3   OH277301   2.136   0.628  13.494  0.7992  0.0065  0.0349
18629TIP3    H177302   2.230   0.609  13.486  0.9248  1.2786 -2.2277
18629TIP3    H277303   2.129   0.721  13.472 -0.8298  0.3587  1.8608
18630TIP3   OH277304   1.191   6.311   1.728 -0.2001 -0.3774 -0.1135
18630TIP3    H177305   1.159   6.387   1.776  1.8030  0.2501  0.3577
18630TIP3    H277306   1.125   6.294   1.661 -1.6331  0.5509  1.0246
18631TIP3   OH277307   1.037   3.460   1.909 -0.0177 -0.4852  0.0842
18631TIP3    H177308   1.032   3.498   1.997  1.5370 -0.6904  0.2769
18631TIP3    H277309   1.108   3.507   1.865  0.2932 -1.4653 -0.5149
18632TIP3   OH277310   2.544   5.272  14.900 -0.6475  0.3692 -0.4007
18632TIP3    H177311   2.631   5.231  14.910  0.5722  2.1496 -2.7728
18632TIP3    H277312   2.517   5.249  14.812 -2.6465 -0.1177  0.2977
18633TIP3   OH277313   4.722   6.166   5.291 -0.3241  0.6958 -0.2245
18633TIP3    H177314   4.758   6.087   5.250 -0.2235 -1.1962  3.1391
18633TIP3    H277315   4.627   6.151   5.290 -0.2399 -0.9023  2.6127
18634TIP3   OH277316   5.359   3.749   0.833  0.1107 -0.6503  0.5070
18634TIP3    H177317   5.413   3.670   0.830 -1.4648 -1.7535 -0.4208
18634TIP3    H277318   5.275   3.722   0.797 -0.3913  1.5384 -0.1295
18635TIP3   OH277319   3.066   0.963  16.659 -0.4275 -0.2294  0.7047
18635TIP3    H177320   3.020   1.038  16.696 -1.1203  0.6217 -1.7056
18635TIP3    H277321   3.158   0.980  16.677 -0.3373  2.4200 -1.6356
18636TIP3   OH277322   5.549   2.641   1.871 -0.6510 -0.6032 -0.3171
18636TIP3    H177323   5.621   2.577   1.862  0.4560  0.4292  0.7740
18636TIP3    H277324   5.551   2.691   1.789  2.8131  2.2402  1.2111
18637TIP3   OH277325   1.697   5.369  11.022  0.2943 -0.5567  0.4089
18637TIP3    H177326   1.792   5.374  11.013  0.2827  1.8621  1.0521
18637TIP3    H277327   1.675   5.441  11.081 -1.8630 -1.6279  1.0031
18638TIP3   OH277328   5.887   2.187   5.420 -0.3377  0.0919  0.6367
18638TIP3    H177329   5.804   2.141   5.429 -0.5602  0.0042 -1.4026
18638TIP3    H277330   5.866   2.264   5.367  0.7220  0.5460  0.8416
18639TIP3   OH277331   5.414   2.385  10.907  0.4226 -0.4535 -0.2233
18639TIP3    H177332   5.507   2.397  10.928  0.3731 -0.0350 -0.2541
18639TIP3    H277333   5.405   2.421  10.819 -0.1302  1.1076  0.4466
18640TIP3   OH277334   0.300   5.641  14.482  0.2748 -0.6081  0.1877
18640TIP3    H177335   0.302   5.733  14.455 -1.0634 -0.9673 -1.3032
18640TIP3    H277336   0.351   5.638  14.562  1.5532  1.1816 -0.4995
18641TIP3   OH277337   2.844   4.514  12.980 -0.2066  0.0626 -0.1726
18641TIP3    H177338   2.925   4.479  13.018  0.1206 -1.2739 -1.9785
18641TIP3    H277339   2.784   4.440  12.979 -0.4140  0.2231 -1.6014
18642TIP3   OH277340   1.551   4.405  14.817 -0.1830 -0.4543  0.3536
18642TIP3    H177341   1.568   4.435  14.728 -0.6259 -0.7566  0.1639
18642TIP3    H277342   1.459   4.428  14.833 -0.0980 -0.3833  0.7381
18643TIP3   OH277343   1.349   1.269  14.164 -0.3974  0.0079 -0.6471
18643TIP3    H177344   1.299   1.318  14.099 -0.6457 -0.7928 -1.0680
18643TIP3    H277345   1.439   1.299  14.153 -0.2886 -0.7443 -1.9611
18644TIP3   OH277346   2.104   1.168  13.814  0.9413  0.0870 -0.3555
18644TIP3    H177347   2.062   1.230  13.874  0.3421  0.0049 -0.6829
18644TIP3    H277348   2.193   1.158  13.849  0.7963  0.5158  0.1588
18645TIP3   OH277349   0.857   4.202  12.238  0.2089 -0.6170 -0.3518
18645TIP3    H177350   0.883   4.181  12.148 -0.4624  0.0595 -0.7106
18645TIP3    H277351   0.924   4.263  12.268  1.1851 -1.8505  0.0922
18646TIP3   OH277352   0.824   3.365  13.160 -0.6356  0.2834 -0.3994
18646TIP3    H177353   0.852   3.429  13.094 -0.1166  0.4450 -0.0271
18646TIP3    H277354   0.759   3.411  13.213 -0.9083  0.2170 -0.6745
18647TIP3   OH277355   2.720   6.689   3.718  0.0779  0.8647 -0.1270
18647TIP3    H177356   2.747   6.691   3.810  1.5157 -0.4880 -0.4672
18647TIP3    H277357   2.626   6.708   3.720  0.0407  0.6761  1.6396
18648TIP3   OH277358   1.817   4.115   2.731 -0.0678 -0.1408 -0.3269
18648TIP3    H177359   1.741   4.170   2.714  0.4106  0.4520 -0.5803
18648TIP3    H277360   1.825   4.114   2.827 -2.0691 -2.5390 -0.0730
18649TIP3   OH277361   0.808   6.741  11.092 -0.2942 -0.0129 -0.1066
18649TIP3    H177362   0.807   6.691  11.011  0.5625  2.4103 -1.7362
18649TIP3    H277363   0.835   6.830  11.066 -0.6059  1.0487  2.7340
18650TIP3   OH277364   2.360   6.261  10.783  0.1964  0.0749 -0.4513
18650TIP3    H177365   2.342   6.347  10.822  0.0627  0.4051 -1.2182
18650TIP3    H277366   2.320   6.266  10.696  0.7658 -0.5340 -0.7509
18651TIP3   OH277367   2.311   4.989  14.691  0.6818  0.0844 -0.2812
18651TIP3    H177368   2.382   4.959  14.747  1.4529 -0.9129 -1.7075
18651TIP3    H277369   2.232   4.958  14.734  1.1439  0.4734  0.8966
18652TIP3   OH277370   0.478   6.617  12.589 -0.8565 -0.1403  0.3689
18652TIP3    H177371   0.404   6.602  12.531 -1.0406  0.4893  0.4297
18652TIP3    H277372   0.547   6.653  12.533 -0.5489 -0.8298  0.2903
18653TIP3   OH277373   1.691   1.194   2.782 -0.0226  0.0407  0.6104
18653TIP3    H177374   1.670   1.150   2.865  1.0348  0.0286  0.8848
18653TIP3    H277375   1.784   1.179   2.770 -0.5117 -1.6302 -1.5998
18654TIP3   OH277376   0.229   3.814   1.637 -0.6876  0.2966 -0.5067
18654TIP3    H177377   0.291   3.850   1.574  3.9276 -1.2599  2.6099
18654TIP3    H277378   0.214   3.885   1.700  2.0497 -0.5729  1.3151
18655TIP3   OH277379   5.499   5.720  13.995  0.6843  0.5545 -0.0380
18655TIP3    H177380   5.567   5.765  13.945 -0.9374  2.1640 -0.8941
18655TIP3    H277381   5.496   5.632  13.958  1.8510  0.6590 -0.4106
18656TIP3   OH277382   0.002   5.184  12.284  0.1417  0.4738  0.0254
18656TIP3    H177383  -0.054   5.214  12.356 -1.5381  0.1396 -1.0754
18656TIP3    H277384   0.038   5.265  12.247  0.3776  0.6993  0.7275
18657TIP3   OH277385   0.682   1.544   5.746 -0.3815 -0.1457 -0.2143
18657TIP3    H177386   0.742   1.601   5.698  1.0206 -0.6660  0.8411
18657TIP3    H277387   0.612   1.526   5.684  0.0754  1.2175 -1.1947
18658TIP3   OH277388   1.331   3.057  13.978 -0.3666  0.1650 -0.7620
18658TIP3    H177389   1.405   3.068  14.039 -0.1265  1.1048 -1.2048
18658TIP3    H277390   1.292   3.144  13.973 -0.5846  0.0151 -1.7097
18659TIP3   OH277391   0.547   3.939   5.857  0.5029 -0.2910 -0.5516
18659TIP3    H177392   0.629   3.987   5.845  1.3265 -1.3620  0.5583
18659TIP3    H277393   0.519   3.964   5.946  0.1692 -0.7234 -0.5357
18660TIP3   OH277394   6.547   5.001   3.123  0.6576  0.1399 -0.5447
18660TIP3    H177395   6.566   5.075   3.180  1.1466  0.4608 -1.1146
18660TIP3    H277396   6.462   4.969   3.154  0.3575  1.0352 -0.3941
18661TIP3   OH277397   0.670   2.215   1.670  0.2606 -0.0082 -0.5801
18661TIP3    H177398   0.621   2.218   1.588  1.0607  1.8054 -1.0509
18661TIP3    H277399   0.751   2.169   1.648 -0.1054 -0.7290 -0.4471
18662TIP3   OH277400   6.739   6.383  12.807 -0.0615  0.1971  0.6420
18662TIP3    H177401   6.658   6.394  12.758 -0.3319 -1.4945  0.6245
18662TIP3    H277402   6.795   6.455  12.780 -1.4388  1.2063  0.4104
18663TIP3   OH277403   1.243   1.532  13.023  1.2527  0.0030 -0.2360
18663TIP3    H177404   1.154   1.500  13.006  0.6607  1.8032 -0.7355
18663TIP3    H277405   1.271   1.484  13.101 -0.7546  0.4509  0.8282
18664TIP3   OH277406   1.549   4.715  11.796  0.0355  0.2353  0.5706
18664TIP3    H177407   1.639   4.708  11.764  0.9673  1.8542  2.5423
18664TIP3    H277408   1.508   4.779  11.739  0.8762  1.1834  0.9868
18665TIP3   OH277409   6.506   0.689  14.553  0.2667  0.0447  0.2167
18665TIP3    H177410   6.480   0.781  14.545 -0.8766 -0.1590  1.1541
18665TIP3    H277411   6.455   0.643  14.486 -0.9203 -0.1811  1.2248
18666TIP3   OH277412   5.427   5.308  11.998  0.2093 -0.3221  0.1693
18666TIP3    H177413   5.376   5.385  12.024  0.1846 -0.3654  0.2469
18666TIP3    H277414   5.444   5.261  12.080 -1.1998 -1.2864 -0.0554
18667TIP3   OH277415   6.446   6.021   3.382  1.0452 -0.1249 -0.3240
18667TIP3    H177416   6.356   6.032   3.414  1.2184  1.5052 -0.3069
18667TIP3    H277417   6.441   5.945   3.323 -0.7806  1.0751 -1.8557
18668TIP3   OH277418   5.747   5.504   6.617  0.0772  0.4026  0.1706
18668TIP3    H177419   5.660   5.534   6.592 -0.1762  0.5911  1.2271
18668TIP3    H277420   5.733   5.418   6.656 -0.0023  1.3866  2.5168
18669TIP3   OH277421   0.276   1.150  15.068 -1.0209  0.3632  0.1233
18669TIP3    H177422   0.287   1.059  15.096 -1.1889  0.5801  0.9414
18669TIP3    H277423   0.359   1.173  15.026  1.3425  1.4721  4.6842
18670TIP3   OH277424   4.425   1.930   5.340 -0.0543 -0.4456 -0.4805
18670TIP3    H177425   4.432   1.840   5.307  1.4784 -1.1347  1.4951
18670TIP3    H277426   4.493   1.978   5.293  3.0069 -1.7094  2.2245
18671TIP3   OH277427   1.849   2.147   5.212 -0.0971  0.1244  0.0817
18671TIP3    H177428   1.867   2.239   5.229  0.0017 -0.0139  0.7449
18671TIP3    H277429   1.924   2.100   5.251 -0.7896 -0.3180  0.9072
18672TIP3   OH277430   4.995   6.329   6.617  0.1645  0.7271 -0.9260
18672TIP3    H177431   4.926   6.366   6.672  0.2508 -0.0343 -0.2842
18672TIP3    H277432   5.051   6.403   6.595  1.6184  0.7109  2.1676
18673TIP3   OH277433   6.561   1.437  13.802 -0.3510  0.2812  0.0740
18673TIP3    H177434   6.535   1.397  13.885 -0.7397 -1.0028 -0.6536
18673TIP3    H277435   6.500   1.510  13.790 -1.4021 -0.5827  0.0875
18674TIP3   OH277436   3.845   1.214  16.232  0.7962 -0.4349 -0.0861
18674TIP3    H177437   3.766   1.160  16.233  0.7212 -0.3761  2.1723
18674TIP3    H277438   3.820   1.292  16.182 -0.2067 -0.9229 -0.3692
18675TIP3   OH277439   4.133   5.122  11.930  0.2651 -0.1239  0.0898
18675TIP3    H177440   4.215   5.170  11.942 -1.3043  2.9799 -0.4884
18675TIP3    H277441   4.143   5.078  11.846 -0.4132  4.6845 -2.9095
18676TIP3   OH277442   3.593   4.183   0.881 -0.1781 -0.5499  1.0972
18676TIP3    H177443   3.517   4.239   0.896  0.8694  1.7687 -1.3980
18676TIP3    H277444   3.650   4.200   0.956 -0.2505  1.1710  0.8080
18677TIP3   OH277445   6.245   5.142   0.060  1.2870  0.6065  0.1477
18677TIP3    H177446   6.162   5.187   0.048  1.1109  0.1358 -0.4656
18677TIP3    H277447   6.312   5.206   0.038  1.0757  0.8944  0.3479
18678TIP3   OH277448   6.715   0.675   3.317 -0.5418 -0.6464  0.0345
18678TIP3    H177449   6.804   0.708   3.334 -1.5161  1.2244  1.9177
18678TIP3    H277450   6.657   0.744   3.349 -2.7517 -0.8677 -3.0208
18679TIP3   OH277451   0.109   6.705   0.661 -0.3381  0.1845 -0.3908
18679TIP3    H177452   0.107   6.702   0.565  0.2930  0.0371 -0.4031
18679TIP3    H277453   0.172   6.775   0.682  0.2463 -0.4191 -0.0917
18680TIP3   OH277454   4.985   4.498  13.992 -0.2926  0.2909 -0.0759
18680TIP3    H177455   5.071   4.530  13.965  0.0601  0.4380  1.1453
18680TIP3    H277456   4.928   4.515  13.917  0.5602  0.9550 -0.5927
18681TIP3   OH277457   0.484   3.333  15.835  0.1071 -0.1677  0.6829
18681TIP3    H177458   0.458   3.347  15.744  1.8069 -1.5613 -0.0780
18681TIP3    H277459   0.404   3.350  15.886 -1.0873 -0.1111 -1.1263
18682TIP3   OH277460   3.321   6.436  16.757 -0.3046 -0.1075  0.1450
18682TIP3    H177461   3.227   6.437  16.775  0.1794  0.4316  3.2307
18682TIP3    H277462   3.358   6.383  16.828  1.7729  0.0328 -0.7611
18683TIP3   OH277463   3.441   3.626   3.796 -0.5071  0.0638 -0.0635
18683TIP3    H177464   3.408   3.664   3.715 -3.5363 -2.9813 -0.4850
18683TIP3    H277465   3.387   3.662   3.865 -2.6990 -2.3680 -0.3525
18684TIP3   OH277466   2.760   5.861  14.703  0.2093 -0.1200  0.2214
18684TIP3    H177467   2.813   5.835  14.628 -0.4056  0.0903 -0.2885
18684TIP3    H277468   2.711   5.783  14.727 -1.1511  0.3433 -0.9070
18685TIP3   OH277469   1.902   1.286   3.955  0.0399 -0.1675  0.2571
18685TIP3    H177470   1.991   1.320   3.967 -0.7402  2.0105  0.4262
18685TIP3    H277471   1.848   1.345   4.007 -1.1828 -3.8266  3.5923
18686TIP3   OH277472   4.387   1.461   2.256 -0.0591  0.3548  0.4648
18686TIP3    H177473   4.462   1.500   2.210 -0.6171  2.6448  1.3421
18686TIP3    H277474   4.353   1.396   2.195  1.9596  0.0548 -0.4190
18687TIP3   OH277475   4.321   6.746   2.910 -0.2986 -0.4325  0.8444
18687TIP3    H177476   4.258   6.791   2.967  0.3637 -1.2934  2.3360
18687TIP3    H277477   4.334   6.661   2.952  0.2011 -1.1214 -0.6530
18688TIP3   OH277478   6.161   5.528  13.124 -0.4128 -0.1587 -0.3747
18688TIP3    H177479   6.151   5.623  13.134 -2.7513 -0.3765 -0.1970
18688TIP3    H277480   6.076   5.498  13.091  0.5760 -2.0897 -1.3339
18689TIP3   OH277481   4.447   5.940  13.147 -0.0738 -0.0468 -0.0442
18689TIP3    H177482   4.460   6.028  13.181  1.3529 -0.7889  1.4568
18689TIP3    H277483   4.520   5.927  13.086  0.5657 -0.6643  0.8242
18690TIP3   OH277484   5.480   4.059   4.156  0.1609  0.0376  0.6974
18690TIP3    H177485   5.422   4.131   4.184 -2.7893 -1.8249 -0.1610
18690TIP3    H277486   5.518   4.090   4.074 -0.4910  0.9079  0.6966
18691TIP3   OH277487   5.130   5.935   5.806  0.4595 -0.0855  0.6195
18691TIP3    H177488   5.047   5.984   5.805 -0.2687 -1.2819 -0.3472
18691TIP3    H277489   5.117   5.867   5.872  0.2414 -0.9471 -0.2857
18692TIP3   OH277490   6.474   0.592   0.795  0.1761  0.5418 -0.1405
18692TIP3    H177491   6.461   0.513   0.743 -1.4456  0.1015  0.8710
18692TIP3    H277492   6.508   0.560   0.879  0.4879  1.0248 -0.0787
18693TIP3   OH277493   2.356   4.821   1.213 -0.1877  0.0514  0.1613
18693TIP3    H177494   2.339   4.851   1.302  0.4984  0.4239  0.1719
18693TIP3    H277495   2.375   4.901   1.164 -3.0316  0.1517 -0.9290
18694TIP3   OH277496   4.851   0.420   2.437  0.5602  0.1890  0.0705
18694TIP3    H177497   4.931   0.417   2.384  1.0728 -0.3728  0.8483
18694TIP3    H277498   4.882   0.417   2.528 -0.3783 -1.8670  0.3859
18695TIP3   OH277499   1.539   6.635  13.677 -0.3182 -0.2686  0.3659
18695TIP3    H177500   1.468   6.576  13.653 -0.7529 -0.0429  1.0728
18695TIP3    H277501   1.618   6.592  13.644 -0.8765  0.0031 -1.3707
18696TIP3   OH277502   1.382   6.002  15.493 -0.0662  0.9697  0.1274
18696TIP3    H177503   1.414   5.916  15.465 -0.2596  1.2214 -0.9223
18696TIP3    H277504   1.286   5.993  15.490 -0.0944  0.9872  0.7947
18697TIP3   OH277505   3.710   2.918  15.294 -0.0035 -0.5336 -0.0098
18697TIP3    H177506   3.713   2.822  15.299 -0.6000 -0.5060  1.0178
18697TIP3    H277507   3.714   2.947  15.385 -1.1218  0.3700 -0.2317
18698TIP3   OH277508   1.837   1.234   5.686  0.1584  0.8429 -0.5613
18698TIP3    H177509   1.833   1.327   5.706 -0.6735  0.6923  0.0343
18698TIP3    H277510   1.792   1.192   5.759 -2.0484  0.1835 -2.1828
18699TIP3   OH277511   2.594   0.867  12.283  1.2396  0.3576 -0.7286
18699TIP3    H177512   2.555   0.949  12.314 -1.6973 -0.6851 -1.3495
18699TIP3    H277513   2.619   0.885  12.193 -3.2439 -0.3896 -2.3455
18700TIP3   OH277514   2.492   4.290   3.947 -0.2075 -0.1428 -0.0483
18700TIP3    H177515   2.449   4.231   3.884 -0.9431  1.2870 -0.9399
18700TIP3    H277516   2.579   4.252   3.960 -0.6090 -1.3474 -0.6933
18701TIP3   OH277517   1.848   4.432  12.168 -0.2095  0.0265 -0.1423
18701TIP3    H177518   1.787   4.394  12.232 -2.2757  0.9307 -1.4465
18701TIP3    H277519   1.931   4.387  12.184 -1.2667 -1.4814  1.5584
18702TIP3   OH277520   1.949   5.750  13.304  0.6920  0.1599  0.0469
18702TIP3    H177521   1.923   5.765  13.213  0.9649 -1.6903 -0.3664
18702TIP3    H277522   2.041   5.776  13.307  0.3097  1.5935  0.1829
18703TIP3   OH277523   4.817   4.670   4.384  0.5389  0.5701  0.8170
18703TIP3    H177524   4.832   4.756   4.344 -1.1139  0.5616  0.1089
18703TIP3    H277525   4.742   4.634   4.337 -1.0557  0.2338  3.4124
18704TIP3   OH277526   2.009   6.170  16.720 -0.2387  0.6111 -0.1600
18704TIP3    H177527   1.975   6.257  16.701 -0.1968  0.8921  0.9969
18704TIP3    H277528   2.034   6.173  16.812  2.6962  0.3227 -0.8528
18705TIP3   OH277529   0.677   6.076   0.263  0.3840  0.1327 -0.1077
18705TIP3    H177530   0.584   6.067   0.242  0.6304  0.5945 -1.4655
18705TIP3    H277531   0.677   6.120   0.348 -0.6595  2.3686 -1.1766
18706TIP3   OH277532   2.798   0.409  13.051  0.4635  0.1468 -0.0754
18706TIP3    H177533   2.791   0.450  13.137 -0.0480  1.4283 -0.7043
18706TIP3    H277534   2.839   0.476  12.996 -0.9600  0.0733 -1.2851
18707TIP3   OH277535   3.606   4.995   4.635  0.9740  0.1451  0.8080
18707TIP3    H177536   3.653   4.922   4.675  1.5067 -1.1331 -1.9255
18707TIP3    H277537   3.524   4.956   4.602  1.3482  0.6794 -0.8564
18708TIP3   OH277538   6.305   2.016   0.920  0.3794 -0.4976 -0.1635
18708TIP3    H177539   6.293   2.071   0.842 -0.8883 -1.5950 -0.7920
18708TIP3    H277540   6.254   2.059   0.988 -3.7550 -2.5724 -1.5679
18709TIP3   OH277541   4.728   5.653   2.641 -0.3016 -0.7195 -0.2859
18709TIP3    H177542   4.813   5.637   2.680 -0.0006 -0.6125 -0.8896
18709TIP3    H277543   4.706   5.572   2.595 -0.7379 -0.9123  0.2512
18710TIP3   OH277544   5.407   3.982  17.019 -0.0369  0.0797 -0.3460
18710TIP3    H177545   5.450   4.038  17.084 -0.8074  0.2287  0.0487
18710TIP3    H277546   5.342   4.039  16.978  0.2775 -0.0840 -1.0893
18711TIP3   OH277547   2.285   1.413   2.812  0.1940  0.1219  0.0292
18711TIP3    H177548   2.227   1.488   2.804 -0.4268 -0.1190  1.8100
18711TIP3    H277549   2.227   1.337   2.810  0.5420 -0.1754  0.8172
18712TIP3   OH277550   2.916   2.582  17.100  0.2344  0.0376  0.6604
18712TIP3    H177551   2.970   2.661  17.103 -0.6081  0.6515  0.0822
18712TIP3    H277552   2.877   2.582  17.012 -0.9582 -0.2011  1.1655
18713TIP3   OH277553   1.206   5.704   4.357  0.0590  0.2368  0.0042
18713TIP3    H177554   1.299   5.684   4.351  0.1162  0.2638  0.7104
18713TIP3    H277555   1.167   5.659   4.283  0.6535  0.3457 -0.3846
18714TIP3   OH277556   0.549   4.844   5.563 -0.4566 -0.5032 -1.0377
18714TIP3    H177557   0.503   4.887   5.491 -2.8596  0.4409  0.9348
18714TIP3    H277558   0.592   4.769   5.522 -0.1065  1.0424 -3.7442
18715TIP3   OH277559   3.847   5.947   1.600  0.1741  0.0475  0.3078
18715TIP3    H177560   3.775   5.943   1.537  0.3431  0.7810  0.0586
18715TIP3    H277561   3.926   5.960   1.547  0.5236 -0.9467  0.5659
18716TIP3   OH277562   1.128   2.643  16.840  0.1982  0.1710 -0.4448
18716TIP3    H177563   1.120   2.714  16.777  0.9837  0.3179 -0.3884
18716TIP3    H277564   1.039   2.608  16.848 -0.1174  0.8791 -0.7755
18717TIP3   OH277565   1.922   5.620  11.832 -0.4363  0.0123  0.0945
18717TIP3    H177566   1.966   5.538  11.855 -0.9330 -0.0620  0.8180
18717TIP3    H277567   1.960   5.645  11.748  0.9765 -0.0451  0.6969
18718TIP3   OH277568   4.731   1.784   5.484  0.3252 -1.0789  0.2202
18718TIP3    H177569   4.684   1.847   5.538  3.0706  0.5165  0.9125
18718TIP3    H277570   4.814   1.771   5.529  1.3444 -2.3536 -1.8796
18719TIP3   OH277571   3.410   5.992   0.408 -0.3006 -0.4594 -0.8180
18719TIP3    H177572   3.437   6.044   0.333 -0.9921  0.1535 -0.6549
18719TIP3    H277573   3.478   6.008   0.474 -0.7949  0.7187 -0.5664
18720TIP3   OH277574   1.525   0.526   4.612 -0.6759  0.1923 -0.2051
18720TIP3    H177575   1.615   0.493   4.607 -0.7083 -0.1117  0.9236
18720TIP3    H277576   1.486   0.502   4.527  0.0320 -0.5039 -0.3446
18721TIP3   OH277577   1.728   2.059  16.180  0.5466  0.1766  0.0380
18721TIP3    H177578   1.754   1.968  16.166  0.0778 -0.0085  0.3351
18721TIP3    H277579   1.670   2.080  16.107 -0.2768 -0.1427  0.5796
18722TIP3   OH277580   3.403   3.767   2.919  0.5074  0.0113 -0.1324
18722TIP3    H177581   3.327   3.809   2.879  0.9241  0.5953 -0.3122
18722TIP3    H277582   3.381   3.762   3.012  0.4600  0.6381 -0.1063
18723TIP3   OH277583   1.065   5.794  12.623 -0.3777 -0.1227  0.6585
18723TIP3    H177584   1.028   5.733  12.559  1.3501  1.0574 -1.6044
18723TIP3    H277585   1.114   5.858  12.570  1.6500  0.5936  3.2016
18724TIP3   OH277586   3.566   2.748   5.996 -0.2126 -0.6942  0.1131
18724TIP3    H177587   3.553   2.689   6.070 -0.0789  0.2406  0.8993
18724TIP3    H277588   3.515   2.709   5.925  2.0845 -3.2958 -0.2793
18725TIP3   OH277589   3.277   3.257  17.158  0.2239  1.0315 -0.0556
18725TIP3    H177590   3.200   3.232  17.107  1.2845 -1.9049 -0.3687
18725TIP3    H277591   3.269   3.207  17.239  1.9648  0.4192 -0.2417
18726TIP3   OH277592   5.154   3.426   1.619  0.4714 -0.1635 -0.0878
18726TIP3    H177593   5.210   3.487   1.667 -1.0909  0.0961  1.4788
18726TIP3    H277594   5.205   3.405   1.540  1.5808  2.2286 -0.1182
18727TIP3   OH277595   4.228   4.333   1.265 -0.0784  0.3305 -0.3260
18727TIP3    H177596   4.219   4.315   1.171  0.3681 -0.0100 -0.3096
18727TIP3    H277597   4.322   4.351   1.277 -0.3431  1.6690 -0.1607
18728TIP3   OH277598   6.429   6.034  10.344  0.3503 -0.2457 -1.1473
18728TIP3    H177599   6.510   5.999  10.379  0.0763 -1.5712 -1.8017
18728TIP3    H277600   6.456   6.098  10.278  0.8560 -0.1852 -0.8817
18729TIP3   OH277601   0.933   5.288   5.376  0.2061  0.2585  0.4157
18729TIP3    H177602   1.002   5.352   5.358  1.1816 -0.8164  0.1398
18729TIP3    H277603   0.939   5.226   5.302 -1.0883  0.1693  0.3712
18730TIP3   OH277604   4.851   5.141   3.595 -0.0387 -0.4541  0.0953
18730TIP3    H177605   4.944   5.162   3.582 -0.0495 -0.1227  0.5269
18730TIP3    H277606   4.808   5.226   3.601  0.0138 -0.5344  2.6174
18731TIP3   OH277607   5.798   1.255   3.620  0.2662  0.8652 -0.3078
18731TIP3    H177608   5.768   1.210   3.541 -1.8137  2.5070 -0.5361
18731TIP3    H277609   5.788   1.190   3.690 -2.2077  0.7237 -0.7046
18732TIP3   OH277610   6.288   0.139  16.618 -0.0388  0.8783 -0.3698
18732TIP3    H177611   6.291   0.173  16.707  2.0586 -1.1966  0.4481
18732TIP3    H277612   6.351   0.192  16.570  0.0885  0.8943 -0.1855
18733TIP3   OH277613   6.590   4.746   4.847 -0.3060  0.0443  0.0455
18733TIP3    H177614   6.512   4.697   4.821 -1.4303  1.5720  0.3767
18733TIP3    H277615   6.570   4.778   4.935  1.5789 -1.2482  1.0217
18734TIP3   OH277616   1.736   0.230  14.722  0.2090  1.0867 -0.0183
18734TIP3    H177617   1.831   0.240  14.720  0.5679 -1.4638  0.8722
18734TIP3    H277618   1.712   0.242  14.814 -0.3275  1.5812 -0.2176
18735TIP3   OH277619   1.347   3.170   3.645 -0.0301 -0.3282  0.3084
18735TIP3    H177620   1.266   3.166   3.595 -0.2452 -1.4258  0.7219
18735TIP3    H277621   1.355   3.261   3.672 -1.5743 -0.3684  0.9961
18736TIP3   OH277622   6.126   3.785  13.808 -0.4244  0.3188  0.4473
18736TIP3    H177623   6.048   3.835  13.784 -0.2387  0.0173 -0.8220
18736TIP3    H277624   6.192   3.851  13.828 -1.4166  0.6225  3.1617
18737TIP3   OH277625   2.087   1.796  13.991  0.0839 -0.4646 -0.1656
18737TIP3    H177626   1.996   1.822  13.976  0.8993  1.8690 -1.5886
18737TIP3    H277627   2.111   1.838  14.073 -0.3293 -1.8031  0.6721
18738TIP3   OH277628   3.171   0.628  15.930  0.3450  0.1913  0.6608
18738TIP3    H177629   3.102   0.694  15.928  1.8445  1.8557 -0.5657
18738TIP3    H277630   3.201   0.628  16.021 -0.3679  0.4423  0.9025
18739TIP3   OH277631   0.299   2.992   5.416  0.1199  0.1475  0.6286
18739TIP3    H177632   0.220   2.954   5.379 -1.0768  4.0321 -1.3767
18739TIP3    H277633   0.273   3.020   5.504 -0.6900  1.0004  0.1436
18740TIP3   OH277634   5.978   4.656   2.639 -0.3047  0.0358  0.0716
18740TIP3    H177635   5.943   4.733   2.682 -1.5385 -0.2833 -0.3314
18740TIP3    H277636   6.072   4.675   2.628 -0.1477  0.5049  1.9881
18741TIP3   OH277637   3.807   4.480   4.137 -0.5695  0.6474 -0.4867
18741TIP3    H177638   3.868   4.508   4.068 -0.2344  0.9871 -0.0617
18741TIP3    H277639   3.863   4.464   4.213 -0.9134  0.0852 -0.3476
18742TIP3   OH277640   5.816   3.439   3.117  0.7005  0.4034 -0.2344
18742TIP3    H177641   5.840   3.349   3.095 -0.4983  0.3094 -1.2968
18742TIP3    H277642   5.782   3.434   3.206 -0.6056 -0.4589 -0.7572
18743TIP3   OH277643   2.337   1.209  11.163  0.1731 -0.3898  0.2862
18743TIP3    H177644   2.265   1.147  11.174 -1.7239  1.8046  1.0608
18743TIP3    H277645   2.331   1.237  11.072 -0.4024  0.3023  0.5344
18744TIP3   OH277646   4.314   5.125  13.520 -0.2318  0.3901 -0.3575
18744TIP3    H177647   4.405   5.152  13.505 -0.2303  0.1799 -0.7427
18744TIP3    H277648   4.268   5.151  13.441 -0.3260 -0.3054 -0.5408
18745TIP3   OH277649   1.112   2.787  14.493 -0.4873  0.1289 -0.0262
18745TIP3    H177650   1.063   2.821  14.417  1.9718  2.8199 -0.5851
18745TIP3    H277651   1.202   2.817  14.479  0.5905 -1.4329  2.7669
18746TIP3   OH277652   1.413   5.663   0.048 -0.4417 -0.0718 -0.0558
18746TIP3    H177653   1.413   5.725   0.120  0.0575  0.0579 -0.1646
18746TIP3    H277654   1.357   5.703  -0.019 -1.0327 -0.2657  0.3132
18747TIP3   OH277655   1.127   5.333  14.065  0.2625  0.0362 -0.0179
18747TIP3    H177656   1.102   5.252  14.020  1.2892 -0.5126  0.3614
18747TIP3    H277657   1.127   5.399  13.996 -1.4426 -0.0813 -0.1671
18748TIP3   OH277658   2.908   1.442   4.350  0.7692  0.1167 -0.1731
18748TIP3    H177659   2.911   1.346   4.349  1.2166  0.1313 -0.3732
18748TIP3    H277660   2.832   1.463   4.404  1.1678 -0.3466  0.5970
18749TIP3   OH277661   1.348   0.788  13.259  0.1005 -0.0062  0.0924
18749TIP3    H177662   1.443   0.794  13.266  0.3009 -1.9144 -0.5567
18749TIP3    H277663   1.319   0.762  13.346  0.0125  1.7831  0.6370
18750TIP3   OH277664   3.364   3.169   4.114 -0.0941  0.2963  0.2978
18750TIP3    H177665   3.439   3.196   4.166  1.2362 -0.6404 -1.0248
18750TIP3    H277666   3.352   3.076   4.134  0.2033  0.0149 -0.7420
18751TIP3   OH277667   1.565   0.275   4.933 -0.0939  0.0797  0.1466
18751TIP3    H177668   1.539   0.289   5.024 -0.0299 -0.8257  0.3143
18751TIP3    H277669   1.599   0.360   4.904 -2.5244  1.1328  0.1413
18752TIP3   OH277670   5.033   0.462   3.291  0.1545  0.3904 -0.4386
18752TIP3    H177671   5.116   0.453   3.245  0.1046  0.1045 -0.4713
18752TIP3    H277672   5.007   0.373   3.312  0.2251  0.5213  0.2346
18753TIP3   OH277673   1.751   5.068  13.007 -0.2407  0.2362  0.1876
18753TIP3    H177674   1.795   5.068  12.922  1.5101  0.1489  1.0539
18753TIP3    H277675   1.661   5.041  12.987 -0.0538  0.8799 -1.7068
18754TIP3   OH277676   4.177   0.545   2.816  0.2270 -0.1149  0.3435
18754TIP3    H177677   4.113   0.606   2.780 -0.0751  0.4267  1.7349
18754TIP3    H277678   4.199   0.581   2.902 -0.4169 -2.2756  1.4929
18755TIP3   OH277679   5.866   3.397   4.340  0.1257  0.1325 -0.0681
18755TIP3    H177680   5.882   3.485   4.307 -0.4875  0.6707  1.0172
18755TIP3    H277681   5.812   3.410   4.418  1.5434 -1.0777  1.1819
18756TIP3   OH277682   0.450   5.412  16.187 -0.2749 -0.2137 -0.1191
18756TIP3    H177683   0.494   5.496  16.199  0.4180 -0.5536 -0.2456
18756TIP3    H277684   0.472   5.361  16.265 -0.5962 -0.3213 -0.0961
18757TIP3   OH277685   6.469   1.687  14.121 -0.2356  0.0345 -0.0528
18757TIP3    H177686   6.384   1.692  14.165 -1.0329 -0.1197 -1.5302
18757TIP3    H277687   6.471   1.764  14.064 -0.7062 -1.4608 -2.2240
18758TIP3   OH277688   0.185   6.255  14.933  0.0360  0.1288  0.0441
18758TIP3    H177689   0.174   6.316  15.006 -1.4660 -0.2432  0.1633
18758TIP3    H277690   0.220   6.309  14.862 -1.7698  1.2722 -0.0274
18759TIP3   OH277691   1.173   3.284  12.766 -0.2122  0.0599  0.3098
18759TIP3    H177692   1.251   3.234  12.793  0.3221  0.4780 -0.4316
18759TIP3    H277693   1.202   3.335  12.691 -1.7642 -1.3858 -1.3455
18760TIP3   OH277694   1.264   3.916  14.965  0.0104 -0.1596 -0.0213
18760TIP3    H177695   1.322   3.903  15.041 -0.2720  0.4319  0.2989
18760TIP3    H277696   1.197   3.977  14.996 -1.9577 -2.3221  0.2292
18761TIP3   OH277697   5.762   2.473   2.036 -0.6973 -0.0875 -0.1910
18761TIP3    H177698   5.778   2.387   1.996  0.6956  0.0072  0.1083
18761TIP3    H277699   5.677   2.464   2.079 -0.1065 -1.6836  0.7372
18762TIP3   OH277700   5.183   2.522  13.987  0.3364 -0.2768  0.3150
18762TIP3    H177701   5.260   2.560  14.029  0.7246  0.8902 -1.3632
18762TIP3    H277702   5.117   2.518  14.056  1.4371  0.0961  1.4083
18763TIP3   OH277703   0.306   5.787   0.615 -0.3129 -0.5440  0.2188
18763TIP3    H177704   0.392   5.823   0.634 -0.4636 -0.6412  1.1060
18763TIP3    H277705   0.288   5.727   0.688 -0.3237 -1.9726 -0.9043
18764TIP3   OH277706   2.933   0.254   2.397 -0.4924  0.4552  0.0839
18764TIP3    H177707   2.853   0.297   2.428  0.2819  2.5428 -0.6372
18764TIP3    H277708   2.918   0.241   2.303 -0.5337 -0.4472  0.2138
18765TIP3   OH277709   0.352   4.012   2.950  0.3427 -0.3249  0.4996
18765TIP3    H177710   0.407   3.956   2.896 -0.4022  0.8714 -1.6452
18765TIP3    H277711   0.333   4.088   2.894 -5.0643 -1.4681  0.1872
18766TIP3   OH277712   5.833   1.169  16.868 -0.1422 -0.1413 -0.1541
18766TIP3    H177713   5.892   1.227  16.915 -1.4464 -0.6506  2.2780
18766TIP3    H277714   5.851   1.082  16.903 -1.2854 -0.5213 -0.4493
18767TIP3   OH277715   5.571   4.699   3.747  0.1263 -0.0253 -0.0237
18767TIP3    H177716   5.620   4.754   3.685 -1.7507  0.4609 -1.1506
18767TIP3    H277717   5.483   4.737   3.749 -0.8379 -2.1232  0.2689
18768TIP3   OH277718   3.324   5.454  12.228  0.3301 -0.1259 -0.4746
18768TIP3    H177719   3.359   5.496  12.150  0.1716  0.7081 -0.1106
18768TIP3    H277720   3.333   5.360  12.212  0.1374  0.0369 -1.5648
18769TIP3   OH277721   0.372   1.398   6.082 -0.1241 -0.7504  0.5900
18769TIP3    H177722   0.291   1.444   6.103  0.5069  0.6297  0.1375
18769TIP3    H277723   0.375   1.396   5.987 -0.3260 -2.1164  0.5954
18770TIP3   OH277724   5.284   3.271  11.486 -0.3134 -0.3047 -0.3163
18770TIP3    H177725   5.209   3.281  11.544  0.9115  1.4190  1.1135
18770TIP3    H277726   5.285   3.179  11.462 -1.1541 -1.0146  2.0818
18771TIP3   OH277727   2.295   5.920   1.407 -0.1083 -0.5630  0.3118
18771TIP3    H177728   2.284   5.847   1.467  0.9720 -0.8006  0.2467
18771TIP3    H277729   2.389   5.937   1.408  0.0173 -0.9193 -1.7065
18772TIP3   OH277730   2.789   5.647  15.952 -0.1191  0.4974 -0.0438
18772TIP3    H177731   2.832   5.689  15.877  0.9566 -1.1906 -0.4333
18772TIP3    H277732   2.711   5.606  15.915 -0.9841  1.8130  0.2715
18773TIP3   OH277733   1.652   3.603  14.788 -0.1869  0.5345 -0.0942
18773TIP3    H177734   1.733   3.604  14.737  0.4397 -2.3354  0.6637
18773TIP3    H277735   1.648   3.515  14.825 -1.9209  1.6536  2.7268
18774TIP3   OH277736   4.022   1.639   1.725 -0.8664 -0.3551  0.4649
18774TIP3    H177737   3.996   1.725   1.691  0.1955  0.1044  0.7865
18774TIP3    H277738   3.978   1.577   1.666 -0.4832  0.4128 -0.6760
18775TIP3   OH277739   6.389   5.985  13.552 -0.2223  0.0414 -0.1060
18775TIP3    H177740   6.370   5.920  13.484  0.7391  0.0868 -0.4431
18775TIP3    H277741   6.482   5.970  13.573 -0.5175 -0.0055  1.2383
18776TIP3   OH277742   0.988   6.369  12.967 -0.8299 -0.0660 -0.1043
18776TIP3    H177743   1.037   6.329  13.039 -0.5591 -1.0018 -0.7813
18776TIP3    H277744   1.054   6.410  12.912 -1.0379  0.6598  0.1690
18777TIP3   OH277745   0.080   0.201   6.094  0.0538 -0.5796 -0.2272
18777TIP3    H177746   0.104   0.293   6.083 -0.1637 -0.6281 -1.2313
18777TIP3    H277747   0.036   0.178   6.012  0.5058 -1.7031 -0.1675
18778TIP3   OH277748   6.571   1.713  13.535  0.3083  0.2250  0.4553
18778TIP3    H177749   6.491   1.666  13.513 -0.6839  1.7640  0.6370
18778TIP3    H277750   6.641   1.649  13.519 -0.8087 -0.6846 -1.1798
18779TIP3   OH277751   1.276   0.288   2.492 -0.3276  0.0578 -0.1698
18779TIP3    H177752   1.254   0.351   2.424  1.6470  1.6521  0.5706
18779TIP3    H277753   1.372   0.279   2.487 -0.3227 -1.1247  1.2621
18780TIP3   OH277754   0.783   2.864  11.319 -0.0976  0.1793  0.2958
18780TIP3    H177755   0.852   2.914  11.274  1.1948 -2.4399 -0.8720
18780TIP3    H277756   0.724   2.837  11.248 -1.5649  1.1768  1.0979
18781TIP3   OH277757   0.445   0.805   0.504 -0.0433 -0.0094  0.1170
18781TIP3    H177758   0.407   0.846   0.581 -0.7532 -0.6754  0.1383
18781TIP3    H277759   0.382   0.822   0.434 -1.3404 -2.5650  0.5188
18782TIP3   OH277760   4.049   5.053   4.043 -0.6115  0.3827 -0.1029
18782TIP3    H177761   3.987   5.057   3.970 -0.9672  0.0381  0.1802
18782TIP3    H277762   4.060   4.960   4.061 -0.4921  0.4648  0.2584
18783TIP3   OH277763   5.247   5.182  11.554 -0.1043  0.3687  0.0216
18783TIP3    H177764   5.164   5.194  11.599 -0.6046  1.7385 -1.1926
18783TIP3    H277765   5.314   5.199  11.620 -0.7014 -2.0700  1.3734
18784TIP3   OH277766   5.691   0.055   1.300  0.0234 -0.1350  0.2204
18784TIP3    H177767   5.677   0.036   1.393 -0.9692  1.6788  0.4904
18784TIP3    H277768   5.650  -0.018   1.254 -0.5368 -0.4550  1.1983
18785TIP3   OH277769   5.273   5.579   0.223  0.4974  0.2427  0.2468
18785TIP3    H177770   5.348   5.638   0.216  1.8357 -1.3683  0.5285
18785TIP3    H277771   5.212   5.626   0.280  1.5302  1.3527  0.4813
18786TIP3   OH277772   1.773   4.279  14.418  0.2391 -0.4644 -0.1043
18786TIP3    H177773   1.710   4.218  14.379 -0.1677 -0.4551  0.5317
18786TIP3    H277774   1.724   4.325  14.486  0.5585  0.5335 -0.5259
18787TIP3   OH277775   3.403   4.542   1.269 -0.0978 -0.7631  0.1186
18787TIP3    H177776   3.369   4.608   1.209  0.2290 -0.4845  0.2414
18787TIP3    H277777   3.498   4.552   1.266  0.1627 -2.8606 -1.7565
18788TIP3   OH277778   1.843   1.704   2.460 -0.8032 -0.4182 -0.2669
18788TIP3    H177779   1.874   1.630   2.409  1.6869  0.1614  0.2676
18788TIP3    H277780   1.862   1.780   2.406  0.3699  0.0793  0.8052
18789TIP3   OH277781   4.017   3.540   2.649  0.6317 -0.4076 -0.0736
18789TIP3    H177782   3.960   3.615   2.667  0.7059 -0.4110  0.1797
18789TIP3    H277783   4.057   3.519   2.733  2.3968  0.7188 -0.5680
18790TIP3   OH277784   6.509   4.942   3.889 -0.2101 -0.5302  0.1760
18790TIP3    H177785   6.421   4.944   3.851 -0.6586 -0.5762  1.1755
18790TIP3    H277786   6.499   4.982   3.975  0.9332  0.2609 -0.0384
18791TIP3   OH277787   4.794   1.897  13.081  0.1913 -0.7007  0.0257
18791TIP3    H177788   4.741   1.869  13.155 -0.3290 -1.0733 -0.4797
18791TIP3    H277789   4.747   1.865  13.004  1.1275 -0.9900 -0.4355
18792TIP3   OH277790   6.236   1.403  11.909  0.1320  0.3826  0.1492
18792TIP3    H177791   6.280   1.320  11.927  0.6529  0.7516  0.6068
18792TIP3    H277792   6.301   1.470  11.931  0.3918  0.8966 -1.9286
18793TIP3   OH277793   4.055   5.553   3.861 -0.5271  0.5077 -0.5168
18793TIP3    H177794   3.977   5.533   3.913 -0.4646 -1.0972 -0.9801
18793TIP3    H277795   4.128   5.525   3.916 -0.3489  0.8700 -0.5733
18794TIP3   OH277796   5.356   2.525  12.956  0.2660 -0.2349 -0.0569
18794TIP3    H177797   5.311   2.541  12.874 -0.9139 -0.7081  0.4735
18794TIP3    H277798   5.317   2.587  13.018  0.0044 -0.9411  0.5120
18795TIP3   OH277799   3.997   3.919  14.650 -0.5068  0.0418  0.2577
18795TIP3    H177800   4.008   3.993  14.590 -0.1342 -0.5152 -0.3708
18795TIP3    H277801   3.929   3.948  14.710 -1.4049  0.3563 -0.8634
18796TIP3   OH277802   5.847   0.318  15.393  0.4307 -0.5861  0.5289
18796TIP3    H177803   5.848   0.278  15.306  0.7100 -0.2731  0.3874
18796TIP3    H277804   5.754   0.331  15.412  0.3357 -1.2861  0.5726
18797TIP3   OH277805   6.123   2.395   5.144  0.0802  0.7369 -0.7631
18797TIP3    H177806   6.148   2.458   5.076  1.5836 -0.1976 -1.1144
18797TIP3    H277807   6.163   2.313   5.116  1.5790  0.5320  1.7301
18798TIP3   OH277808   0.178   0.189   1.408  0.5307 -0.8217 -0.4290
18798TIP3    H177809   0.130   0.160   1.331  1.5360 -0.5571 -1.1757
18798TIP3    H277810   0.217   0.272   1.382  2.4569 -1.6327 -0.3173
18799TIP3   OH277811   4.772   3.870   0.411 -0.3547  0.1056  0.2911
18799TIP3    H177812   4.679   3.874   0.389 -0.7893 -0.7559  1.8301
18799TIP3    H277813   4.796   3.960   0.432 -0.8352  0.3265 -0.0747
18800TIP3   OH277814   6.253   6.063   1.806 -0.1536 -0.3485 -1.0169
18800TIP3    H177815   6.239   6.071   1.901 -2.6298  1.7891 -1.4420
18800TIP3    H277816   6.334   6.112   1.790 -0.9766  1.3633 -0.2197
18801TIP3   OH277817   6.702   5.844   2.527 -0.4047  0.0441 -0.0810
18801TIP3    H177818   6.702   5.771   2.466  0.5469 -0.2626  0.2774
18801TIP3    H277819   6.617   5.887   2.512 -0.4972 -0.4539 -1.0864
18802TIP3   OH277820   4.744   2.224  16.179 -0.0186 -0.3322  0.1876
18802TIP3    H177821   4.657   2.258  16.156  0.7266  1.3494 -0.3100
18802TIP3    H277822   4.736   2.198  16.271 -0.6505  1.3248  0.6449
18803TIP3   OH277823   6.019   5.455   1.917 -0.0758  0.2023 -0.3913
18803TIP3    H177824   6.032   5.388   1.850 -0.2461 -1.7796  1.4419
18803TIP3    H277825   5.924   5.457   1.931  0.0577 -0.4117  0.7095
18804TIP3   OH277826   1.096   5.322  14.966 -0.2974 -0.1605 -0.2651
18804TIP3    H177827   1.155   5.381  15.012 -1.1955  1.1578 -0.7415
18804TIP3    H277828   1.148   5.243  14.952  1.7971  1.3565 -1.7548
18805TIP3   OH277829   6.363   2.939   5.092  0.5362  0.1438 -0.1413
18805TIP3    H177830   6.390   3.007   5.030  1.5898 -0.5412 -0.4445
18805TIP3    H277831   6.273   2.964   5.116  1.0147  1.8438  0.0387
18806TIP3   OH277832   1.049   3.008  11.408  0.0884 -0.1532  0.6634
18806TIP3    H177833   1.113   3.061  11.361  1.3783  0.0214  2.5548
18806TIP3    H277834   0.984   3.071  11.440 -0.5182 -0.2160 -0.3880
18807TIP3   OH277835   5.598   5.829   0.727  0.1123 -0.1383  0.3035
18807TIP3    H177836   5.515   5.869   0.754  0.4504  1.2841 -0.6463
18807TIP3    H277837   5.573   5.761   0.666 -0.3387  1.5507 -1.5024
18808TIP3   OH277838   2.471   5.601  13.816  0.4997 -0.2881  0.2282
18808TIP3    H177839   2.470   5.697  13.826 -2.4739 -0.3491  1.7403
18808TIP3    H277840   2.458   5.587  13.722  1.3131  0.7752 -0.0665
18809TIP3   OH277841   2.570   3.392  14.144  0.5609  0.2707  0.5046
18809TIP3    H177842   2.487   3.437  14.160 -0.9513 -1.8486 -0.9618
18809TIP3    H277843   2.631   3.433  14.206 -1.4600  2.1045  1.4192
18810TIP3   OH277844   2.396   3.794   5.418 -0.2942 -0.1870  0.3056
18810TIP3    H177845   2.335   3.733   5.377 -0.3707  0.4260 -0.5268
18810TIP3    H277846   2.476   3.743   5.432 -0.9102 -0.9364  1.2121
18811TIP3   OH277847   3.218   3.999   3.127  0.2642  0.1933  0.0131
18811TIP3    H177848   3.247   4.089   3.143 -2.3054  0.9134  0.9832
18811TIP3    H277849   3.193   3.997   3.035  0.1941  0.4932  0.0280
18812TIP3   OH277850   5.960   5.607  13.802 -0.2140 -0.1628 -0.6045
18812TIP3    H177851   6.041   5.560  13.781  1.1041  1.7363 -0.0419
18812TIP3    H277852   5.959   5.611  13.897 -0.2304  1.0062 -0.6399
18813TIP3   OH277853   1.987   5.342  11.849 -0.5320 -0.4493 -0.3116
18813TIP3    H177854   1.990   5.259  11.896  0.6519  0.3885  1.1728
18813TIP3    H277855   2.078   5.364  11.832 -0.8156  0.5953 -0.6051
18814TIP3   OH277856   1.784   0.594   5.341  0.0647  0.3663 -0.0541
18814TIP3    H177857   1.837   0.523   5.305  0.3386  0.5764 -0.0702
18814TIP3    H277858   1.697   0.581   5.303 -0.1486 -0.5249  0.6906
18815TIP3   OH277859   4.612   6.325   5.515 -0.0522 -0.7635 -0.5596
18815TIP3    H177860   4.587   6.276   5.593 -2.9922 -1.1123 -1.5994
18815TIP3    H277861   4.644   6.259   5.454  1.8408 -0.5423  0.1439
18816TIP3   OH277862   5.470   6.669  14.857  0.7570  0.0678 -0.3242
18816TIP3    H177863   5.489   6.763  14.854  0.1269  0.1836 -0.7649
18816TIP3    H277864   5.504   6.636  14.774  0.1581  0.0619 -0.5685
18817TIP3   OH277865   5.074   6.054   3.975 -0.6214  0.1155 -0.4062
18817TIP3    H177866   5.071   6.119   4.045 -0.3392  0.2466 -0.5137
18817TIP3    H277867   4.991   6.007   3.982 -1.3620  1.2751 -1.0750
18818TIP3   OH277868   2.748   2.868  12.914 -0.5207  0.1825 -0.2783
18818TIP3    H177869   2.675   2.806  12.923  1.3747 -1.9517  2.3584
18818TIP3    H277870   2.711   2.952  12.940 -1.8314 -1.0694  2.3382
18819TIP3   OH277871   2.899   6.364  13.335 -0.1650  0.1383 -0.2781
18819TIP3    H177872   2.817   6.321  13.313 -0.5594  0.5939  0.2575
18819TIP3    H277873   2.888   6.392  13.426  0.7159 -0.0944 -0.0844
18820TIP3   OH277874   2.956   0.942  14.413 -0.0178  0.7873  0.1605
18820TIP3    H177875   2.889   0.983  14.469 -0.1267  0.5373  0.2170
18820TIP3    H277876   2.905   0.897  14.345 -0.0362 -1.3902  1.5371
18821TIP3   OH277877   6.430   2.789   4.781  0.1501  0.2732 -0.0514
18821TIP3    H177878   6.410   2.882   4.767 -1.2686  0.0575  0.4206
18821TIP3    H277879   6.509   2.790   4.835 -0.7259  1.2373  1.2728
18822TIP3   OH277880   4.770   1.818   1.457 -0.5094 -0.4261 -0.1502
18822TIP3    H177881   4.845   1.830   1.400  0.3652  0.4741  1.1328
18822TIP3    H277882   4.805   1.772   1.534 -1.6912 -1.7794 -0.3655
18823TIP3   OH277883   3.267   1.773  15.486 -0.3654  0.4661  0.1465
18823TIP3    H177884   3.321   1.708  15.531 -2.3713 -0.0332  2.0236
18823TIP3    H277885   3.289   1.763  15.393  1.7279 -0.6124  0.7084
18824TIP3   OH277886   1.898   5.389   3.857  0.0340 -0.4586  0.1575
18824TIP3    H177887   1.934   5.331   3.790 -1.5121 -1.0397 -0.2145
18824TIP3    H277888   1.974   5.437   3.891  0.9803 -0.8596 -1.3167
18825TIP3   OH277889   1.258   0.231   4.335 -0.0890  0.0174  0.0710
18825TIP3    H177890   1.219   0.318   4.324 -1.0868 -0.3757  0.3127
18825TIP3    H277891   1.352   0.247   4.341 -0.3120  1.1575  0.9019
18826TIP3   OH277892   2.482   3.314   5.541 -0.0763 -0.0398 -0.0843
18826TIP3    H177893   2.514   3.287   5.455 -0.9423 -0.2286 -0.3533
18826TIP3    H277894   2.415   3.379   5.522 -0.2425 -0.0513  0.4511
18827TIP3   OH277895   6.720   3.414  15.920 -0.2433  0.1601  0.3337
18827TIP3    H177896   6.718   3.504  15.886  2.7900  0.6156  1.0455
18827TIP3    H277897   6.694   3.423  16.012  0.4215  0.3946  0.5049
18828TIP3   OH277898   5.506   6.738  15.260  0.3635  0.3118  0.4197
18828TIP3    H177899   5.470   6.798  15.194  0.5399 -1.1590 -1.0935
18828TIP3    H277900   5.430   6.712  15.313 -0.0866  0.3104 -0.2117
18829TIP3   OH277901   2.490   6.558   0.923  0.3216 -0.2741  0.4857
18829TIP3    H177902   2.578   6.546   0.888 -0.1329  0.7862 -1.1510
18829TIP3    H277903   2.444   6.476   0.902  0.5028 -0.2493 -0.0230
18830TIP3   OH277904   1.550   2.168   3.866 -0.2604  0.7593  0.0618
18830TIP3    H177905   1.466   2.127   3.842 -0.0834  1.1108 -1.2365
18830TIP3    H277906   1.610   2.095   3.878 -0.4460  0.5545 -0.2418
18831TIP3   OH277907   1.895   1.987  17.204  0.2532  0.1105 -0.5848
18831TIP3    H177908   1.988   1.964  17.203 -0.2356 -2.0977 -0.1887
18831TIP3    H277909   1.875   2.011  17.114  1.1394  0.3284 -0.7360
18832TIP3   OH277910   0.939   1.052  12.763 -0.1521 -0.0885  0.1134
18832TIP3    H177911   1.001   1.018  12.827 -1.1632 -0.6027  0.8673
18832TIP3    H277912   0.862   1.075  12.816 -0.6929  0.2976 -0.8209
18833TIP3   OH277913   5.947   4.027  13.811 -0.3309 -0.3934  0.9094
18833TIP3    H177914   6.016   4.077  13.768 -0.2911 -0.0413  1.3808
18833TIP3    H277915   5.886   4.005  13.740  0.4559 -1.0492  0.4182
18834TIP3   OH277916   0.743   3.922   0.966  0.3322 -0.3713  0.6744
18834TIP3    H177917   0.657   3.881   0.961 -0.5619  1.5161 -0.5014
18834TIP3    H277918   0.804   3.849   0.974 -1.4000 -1.7260  2.3040
18835TIP3   OH277919   5.738   1.950  12.844 -0.0910 -0.2537 -0.6656
18835TIP3    H177920   5.773   1.861  12.839  0.9628  0.0401  0.8615
18835TIP3    H277921   5.699   1.956  12.932 -0.6255  0.6219 -0.9472
18836TIP3   OH277922   5.085   4.712   5.956  0.1074  0.9297  0.4860
18836TIP3    H177923   5.026   4.742   6.025 -0.9641 -0.5023  0.2262
18836TIP3    H277924   5.116   4.627   5.987 -1.1961 -0.2242 -1.2063
18837TIP3   OH277925   5.238   6.230   2.520  0.0656  0.0949  0.2137
18837TIP3    H177926   5.202   6.227   2.609 -1.2383 -2.6524 -0.2855
18837TIP3    H277927   5.333   6.223   2.532  0.0378  1.4140  1.4016
18838TIP3   OH277928   2.227   5.961  10.731  0.1088 -0.0554 -0.1792
18838TIP3    H177929   2.278   5.925  10.804  0.7987 -0.2806 -0.7567
18838TIP3    H277930   2.151   6.001  10.772  0.3576 -0.4053  0.6439
18839TIP3   OH277931   6.632   4.475   4.662  0.1742 -0.3965 -0.3904
18839TIP3    H177932   6.575   4.405   4.692 -0.4834 -1.2539 -3.3071
18839TIP3    H277933   6.685   4.498   4.738 -1.9631 -1.6501  1.5844
18840TIP3   OH277934   3.596   5.628   6.118  0.2412  0.5505  0.3991
18840TIP3    H177935   3.592   5.573   6.040 -0.6074  0.8687  0.2113
18840TIP3    H277936   3.573   5.570   6.190 -0.1029  0.5291  0.2720
18841TIP3   OH277937   6.105   0.922   1.078  0.0738 -0.4189 -0.6162
18841TIP3    H177938   6.062   0.845   1.116 -0.2108 -0.9422 -1.9346
18841TIP3    H277939   6.174   0.885   1.023 -0.4120  0.2377 -1.6877
18842TIP3   OH277940   5.532   5.014  11.250  0.6359 -0.0841  0.1152
18842TIP3    H177941   5.541   5.009  11.155 -1.0061  1.1737 -0.1473
18842TIP3    H277942   5.592   5.083  11.277 -1.1946  1.8505 -0.4738
18843TIP3   OH277943   5.385   4.093  12.336  0.4266 -0.4078  0.3232
18843TIP3    H177944   5.433   4.119  12.414  0.4675 -0.3179  0.2683
18843TIP3    H277945   5.387   4.170  12.280  0.2758 -0.4245  0.2922
18844TIP3   OH277946   1.584   4.788  13.364  0.4975  0.2367  0.1801
18844TIP3    H177947   1.489   4.774  13.370  0.6270 -0.2575  1.8390
18844TIP3    H277948   1.606   4.770  13.273 -0.9625  0.1293 -0.1774
18845TIP3   OH277949   3.336   6.296   2.362 -0.5266 -0.7964 -0.2701
18845TIP3    H177950   3.340   6.219   2.305 -2.0353 -1.8187  0.8986
18845TIP3    H277951   3.267   6.275   2.425  0.1295  0.8625  1.0823
18846TIP3   OH277952   5.073   0.188  12.207  0.2432 -0.2542  0.3562
18846TIP3    H177953   5.100   0.236  12.129  0.6015  1.4943  1.4866
18846TIP3    H277954   4.977   0.191  12.204  0.2459  0.9868  0.6162
18847TIP3   OH277955   0.285   5.533   5.252  0.2654 -1.0382 -0.0147
18847TIP3    H177956   0.377   5.509   5.263  0.9540  1.4444  0.3141
18847TIP3    H277957   0.267   5.592   5.325 -0.6229  0.9347 -1.7096
18848TIP3   OH277958   2.572   2.824   4.412 -0.0359  0.5927  0.1718
18848TIP3    H177959   2.608   2.814   4.324 -1.5964  3.5344 -0.9295
18848TIP3    H277960   2.492   2.770   4.412 -0.2365  0.8930 -0.3408
18849TIP3   OH277961   0.555   1.205   0.130  0.5747 -0.9686  0.2982
18849TIP3    H177962   0.645   1.193   0.100  1.2034 -1.1578  2.1343
18849TIP3    H277963   0.538   1.127   0.183 -0.7849 -1.0708 -0.2646
18850TIP3   OH277964   6.266   3.700   3.631 -0.6770  0.2652  0.6419
18850TIP3    H177965   6.222   3.619   3.656 -2.4473  1.2359  0.8172
18850TIP3    H277966   6.222   3.768   3.682 -0.6938  1.6017 -1.0805
18851TIP3   OH277967   1.099   3.848   1.038 -0.4531  0.0641 -0.1893
18851TIP3    H177968   1.013   3.874   1.070  0.8423  1.4674  2.4757
18851TIP3    H277969   1.160   3.874   1.108  2.2573  0.0358 -2.3531
18852TIP3   OH277970   4.828   3.233  13.611 -0.2071  0.6241  0.3759
18852TIP3    H177971   4.840   3.139  13.596  0.6372  0.6338  0.9034
18852TIP3    H277972   4.805   3.240  13.703  0.8981  1.0096  0.6386
18853TIP3   OH277973   2.578   3.956   4.186  0.2353  0.6473 -0.0679
18853TIP3    H177974   2.626   3.876   4.166 -0.2950  0.3788 -0.3111
18853TIP3    H277975   2.577   3.961   4.281 -0.6282 -0.2150 -0.0075
18854TIP3   OH277976   5.689   3.394   4.541 -0.2135  0.1654  0.0303
18854TIP3    H177977   5.622   3.462   4.550  0.0438  0.2620  1.4218
18854TIP3    H277978   5.747   3.408   4.615  0.8200 -0.5117 -0.6331
18855TIP3   OH277979   5.977   3.299   1.464 -0.0072  0.0279 -0.1355
18855TIP3    H177980   5.978   3.394   1.474  0.1745 -0.0770  0.9460
18855TIP3    H277981   5.942   3.284   1.376 -0.0181  1.0914 -0.3176
18856TIP3   OH277982   6.417   3.198   2.306  0.1718  0.0172  0.1461
18856TIP3    H177983   6.388   3.183   2.395 -1.2213  0.5520 -0.1898
18856TIP3    H277984   6.355   3.149   2.252  1.4387 -0.9133 -0.5133
18857TIP3   OH277985   2.073   5.585   3.980 -0.3417  0.0073 -0.1779
18857TIP3    H177986   2.029   5.670   3.990 -0.6839 -0.4030  2.9578
18857TIP3    H277987   2.161   5.599   4.014 -0.0103 -0.6125 -0.7630
18858TIP3   OH277988   0.902   1.110  15.034 -0.4975  0.0915 -0.8308
18858TIP3    H177989   0.807   1.122  15.034 -0.3994  0.9374 -1.6670
18858TIP3    H277990   0.934   1.168  14.965  0.8166  1.2656  0.7110
18859TIP3   OH277991   0.286   0.302  13.219 -0.0400  0.1861  0.2528
18859TIP3    H177992   0.241   0.247  13.283 -1.1264  2.4753  1.5814
18859TIP3    H277993   0.366   0.254  13.199 -0.2177 -1.1869  2.4272
18860TIP3   OH277994   4.029   4.178   0.853 -0.2487 -0.4179 -0.0070
18860TIP3    H177995   4.074   4.214   0.929 -1.0648 -1.4023  0.9735
18860TIP3    H277996   3.964   4.244   0.830  1.8094  1.1787 -1.6507
18861TIP3   OH277997   2.028   5.381  14.621  0.2692  0.0543  0.1589
18861TIP3    H177998   2.043   5.366  14.715  1.7388 -0.2976 -0.1114
18861TIP3    H277999   1.989   5.299  14.590  0.7731 -0.2251  0.2603
18862TIP3   OH278000   4.241   1.008   3.540  0.2112 -0.3159  0.4181
18862TIP3    H178001   4.286   0.925   3.524 -1.8347 -0.9760 -2.7012
18862TIP3    H278002   4.274   1.067   3.473 -0.0856  0.6695  1.1201
18863TIP3   OH278003   2.033   6.756   3.702 -0.3452 -0.3656  0.1351
18863TIP3    H178004   1.940   6.769   3.682 -1.0027 -0.3725  2.8645
18863TIP3    H278005   2.067   6.845   3.711 -0.2591 -0.3738 -0.0972
18864TIP3   OH278006   0.817   5.035  15.428 -0.2270  0.6623 -0.5187
18864TIP3    H178007   0.830   4.940  15.431  1.0998  0.8328  2.0051
18864TIP3    H278008   0.895   5.069  15.385 -0.3013  0.6914 -0.6339
18865TIP3   OH278009   5.876   5.190   3.907 -0.3727  0.1904  0.3138
18865TIP3    H178010   5.833   5.250   3.968  0.7446 -0.7232  2.0831
18865TIP3    H278011   5.968   5.192   3.932 -0.2260 -1.8498  0.0780
18866TIP3   OH278012   1.454   6.520   6.362 -0.5094 -0.3031 -0.3547
18866TIP3    H178013   1.394   6.446   6.349  0.8163 -2.0683  2.4774
18866TIP3    H278014   1.397   6.596   6.369 -2.0096 -1.1375 -2.4318
18867TIP3   OH278015   4.931   5.241   5.127  0.2381 -0.1833 -0.3638
18867TIP3    H178016   4.963   5.308   5.066  0.7339 -0.3473 -0.2795
18867TIP3    H278017   4.966   5.159   5.093  0.6103 -0.2623  0.2048
18868TIP3   OH278018   5.469   4.328   4.498 -0.1513  0.0406  0.1832
18868TIP3    H178019   5.394   4.383   4.520 -1.7839 -1.1918 -1.9133
18868TIP3    H278020   5.451   4.244   4.542  0.4156 -0.0131  0.3202
18869TIP3   OH278021   3.382   5.835  12.802 -0.7687 -0.5855  0.8123
18869TIP3    H178022   3.309   5.784  12.767  0.5924 -0.7971 -1.9024
18869TIP3    H278023   3.430   5.774  12.858  0.5279 -2.2516 -1.9658
18870TIP3   OH278024   3.069   0.506  16.778  0.7918 -0.3437 -0.0601
18870TIP3    H178025   3.120   0.585  16.761 -0.8227  0.8055  0.1595
18870TIP3    H278026   3.133   0.441  16.805  2.2225  0.7518 -0.6915
18871TIP3   OH278027   3.287   3.589  14.290  0.3529 -0.1112  0.4096
18871TIP3    H178028   3.370   3.632  14.270 -1.1173  3.3537  0.8887
18871TIP3    H278029   3.243   3.580  14.205 -0.2251  1.5720  0.4906
18872TIP3   OH278030   5.643   2.495  14.235  0.3125  0.6146  0.0374
18872TIP3    H178031   5.666   2.470  14.324 -0.6805  2.6540  0.9352
18872TIP3    H278032   5.712   2.556  14.208  0.1848  0.6247 -0.2782
18873TIP3   OH278033   3.551   5.363   1.728 -0.4429  0.3588 -0.0485
18873TIP3    H178034   3.626   5.421   1.743  1.0496 -0.6454 -2.7738
18873TIP3    H278035   3.571   5.284   1.778  0.3262  0.1277 -0.6977
18874TIP3   OH278036   5.356   2.086  16.143  0.0596  0.1625  0.6308
18874TIP3    H178037   5.359   2.000  16.187  0.6190  0.3883  1.0556
18874TIP3    H278038   5.309   2.142  16.204  0.5294  0.3898  0.7948
18875TIP3   OH278039   2.047   6.310   5.513  0.0272  0.1580 -0.4739
18875TIP3    H178040   2.111   6.306   5.584  0.4538  2.6109 -0.6458
18875TIP3    H278041   1.988   6.236   5.530  2.0326 -1.3353  0.4939
18876TIP3   OH278042   0.631   3.237  12.972  0.0360 -0.3955 -0.0900
18876TIP3    H178043   0.726   3.248  12.976  0.2841 -2.1129 -0.3882
18876TIP3    H278044   0.606   3.207  13.059 -0.3068  0.3867  0.0935
18877TIP3   OH278045   1.167   0.586   5.881 -0.0474  0.0525 -0.3824
18877TIP3    H178046   1.245   0.543   5.916 -0.0910  0.3698  0.1153
18877TIP3    H278047   1.115   0.515   5.844 -1.1416 -0.6630  2.3071
18878TIP3   OH278048   0.928   2.178   5.942 -0.1196 -0.3218  0.2834
18878TIP3    H178049   0.998   2.183   6.007  0.7064 -1.0920 -0.5209
18878TIP3    H278050   0.863   2.120   5.982  0.7406 -1.4272  0.1335
18879TIP3   OH278051   6.767   5.387   1.117 -0.0127  0.0437 -0.0262
18879TIP3    H178052   6.780   5.320   1.184  0.2230 -0.6322 -0.7356
18879TIP3    H278053   6.751   5.338   1.036 -1.3963  0.8363 -0.2760
18880TIP3   OH278054   4.002   3.764  13.332  0.7112 -0.4845 -0.0743
18880TIP3    H178055   4.050   3.839  13.368 -3.6203  3.1275 -0.9521
18880TIP3    H278056   3.946   3.734  13.403  0.6930 -1.3570 -0.4421
18881TIP3   OH278057   5.995   5.590  14.063  0.0482  0.0770  0.1253
18881TIP3    H178058   6.042   5.636  14.133 -0.7171  0.5831  0.3214
18881TIP3    H278059   5.910   5.569  14.101  0.1009 -0.8199 -0.2310
18882TIP3   OH278060   1.218   4.411   5.882  0.3130  0.6380  0.0834
18882TIP3    H178061   1.158   4.394   5.809  0.4765 -0.1807  0.1328
18882TIP3    H278062   1.261   4.494   5.858  1.1253 -0.1248 -1.2727
18883TIP3   OH278063   0.062   0.271  15.573 -0.2278 -0.4147  0.2659
18883TIP3    H178064   0.104   0.201  15.623 -1.6785 -1.5821 -0.0678
18883TIP3    H278065   0.120   0.285  15.499  0.8559 -0.1688  1.1316
18884TIP3   OH278066   0.945   4.192   3.866  0.4480 -0.3159 -0.4589
18884TIP3    H178067   0.931   4.161   3.956 -0.5282 -0.7237 -0.7391
18884TIP3    H278068   0.967   4.285   3.876  4.4736 -1.1839  0.4784
18885TIP3   OH278069   4.776   1.033   2.683 -0.0577 -0.2868 -0.0289
18885TIP3    H178070   4.684   1.017   2.663 -0.4460  0.9412  0.6747
18885TIP3    H278071   4.820   0.951   2.662 -1.3724 -1.0156  0.0029
18886TIP3   OH278072   0.798   0.986   0.669  0.0880 -0.2755  0.4784
18886TIP3    H178073   0.839   0.966   0.754 -1.2098  2.0043  1.7245
18886TIP3    H278074   0.789   0.900   0.627  3.7917 -1.1724  1.1333
18887TIP3   OH278075   2.280   3.526  11.128 -0.0830 -0.6203  0.2955
18887TIP3    H178076   2.198   3.573  11.145 -0.3552 -0.2818 -1.7360
18887TIP3    H278077   2.261   3.436  11.155  0.0490  0.0797  3.0634
18888TIP3   OH278078   4.253   4.566   3.460 -0.3330  0.5019 -0.5025
18888TIP3    H178079   4.281   4.597   3.373  1.9458  0.8088  0.2791
18888TIP3    H278080   4.309   4.614   3.521 -0.9389 -0.7354  1.0733
18889TIP3   OH278081   0.786   2.588  16.247  0.1207 -0.0337  0.3308
18889TIP3    H178082   0.731   2.660  16.219 -0.6846 -0.6567  0.2541
18889TIP3    H278083   0.733   2.510  16.231  2.0010 -0.9052 -2.1977
18890TIP3   OH278084   1.231   2.311  12.914 -0.0052 -0.5974  0.2207
18890TIP3    H178085   1.251   2.369  12.987  2.1332  0.8497 -1.3839
18890TIP3    H278086   1.303   2.248  12.912  1.0227  0.5155 -1.6338
18891TIP3   OH278087   2.240   0.873   2.103 -0.0426  0.8259  0.1556
18891TIP3    H178088   2.231   0.862   2.198  0.9137  0.0071  0.1802
18891TIP3    H278089   2.153   0.855   2.068 -0.1860  0.1469  0.8238
18892TIP3   OH278090   1.534   2.879  14.420 -0.1857 -0.2212 -0.2678
18892TIP3    H178091   1.481   2.848  14.493 -0.8253  0.9353 -0.2026
18892TIP3    H278092   1.480   2.947  14.379  0.3773 -0.4930 -1.4993
18893TIP3   OH278093   2.033   0.641  15.314 -0.0253 -0.1328 -0.8669
18893TIP3    H178094   2.021   0.727  15.273  1.0211 -0.0307 -1.0001
18893TIP3    H278095   1.951   0.624  15.360 -0.0131  1.2316 -0.3026
18894TIP3   OH278096   0.466   3.789  17.007 -0.3082  0.2717  0.3194
18894TIP3    H178097   0.447   3.790  17.101 -1.4739 -0.8218  0.1331
18894TIP3    H278098   0.484   3.880  16.985 -0.8507  0.6678  1.4478
18895TIP3   OH278099   0.557   0.362  16.178 -0.1929 -0.0138 -0.0727
18895TIP3    H178100   0.492   0.420  16.139  1.4393  1.6769 -0.4558
18895TIP3    H278101   0.536   0.362  16.272 -0.8733  0.2958 -0.2193
18896TIP3   OH278102   0.876   4.765   5.252 -0.0437 -0.8008 -0.0445
18896TIP3    H178103   0.823   4.689   5.226  2.8108 -3.2303  0.5443
18896TIP3    H278104   0.940   4.774   5.181  0.9056 -0.2576  0.8493
18897TIP3   OH278105   1.034   1.627  14.631 -0.2304  0.0640 -0.6149
18897TIP3    H178106   1.083   1.707  14.611  1.1127 -0.7981 -0.9205
18897TIP3    H278107   1.101   1.559  14.637 -1.4915 -1.3675 -1.9907
18898TIP3   OH278108   6.358   4.593  11.541 -0.0121  0.2074 -0.3941
18898TIP3    H178109   6.315   4.512  11.511  0.2942  0.0237 -0.3327
18898TIP3    H278110   6.450   4.569  11.550 -0.1500  0.1383  1.1209
18899TIP3   OH278111   1.856   5.630   1.134  0.4998  0.4490 -0.4150
18899TIP3    H178112   1.881   5.538   1.123  0.4805  0.4709 -0.6617
18899TIP3    H278113   1.876   5.670   1.049 -1.1754  0.2855 -0.9175
18900TIP3   OH278114   0.546   5.942   3.182 -0.4542 -0.1069  0.3050
18900TIP3    H178115   0.520   5.940   3.275 -0.9759  0.6788  0.1883
18900TIP3    H278116   0.632   5.983   3.182 -0.4876 -0.0350  0.4418
18901TIP3   OH278117   5.476   4.330   1.211 -0.4847  0.5725 -0.3195
18901TIP3    H178118   5.421   4.406   1.194 -0.7115  0.3722 -0.4869
18901TIP3    H278119   5.564   4.366   1.223  0.0495  0.6601 -3.5473
18902TIP3   OH278120   1.633   1.089  15.465 -0.5067  0.2596 -0.1483
18902TIP3    H178121   1.648   1.149  15.538 -0.4069 -0.7773  0.6954
18902TIP3    H278122   1.543   1.058  15.477 -0.6070  0.3356 -0.6666
18903TIP3   OH278123   5.663   6.666  11.606  0.4970 -0.1012  0.0806
18903TIP3    H178124   5.603   6.603  11.645  0.5814  1.0326  2.1753
18903TIP3    H278125   5.685   6.726  11.677  1.2168  1.7047 -1.5714
18904TIP3   OH278126   6.465   6.450   6.219  0.2241  0.4983 -0.4765
18904TIP3    H178127   6.532   6.504   6.261  0.3354  1.1085 -1.4040
18904TIP3    H278128   6.387   6.464   6.272  1.0159 -0.8915  1.1271
18905TIP3   OH278129   2.612   3.635   1.611 -0.3667 -0.6956 -0.0529
18905TIP3    H178130   2.619   3.597   1.699  0.7924 -0.5712 -0.0801
18905TIP3    H278131   2.517   3.639   1.595 -0.5660 -2.1713  0.5473
18906TIP3   OH278132   4.378   4.352   0.099 -0.0903  0.0299 -0.3670
18906TIP3    H178133   4.444   4.383   0.160 -0.7907 -0.6045  0.7425
18906TIP3    H278134   4.297   4.395   0.126 -0.1383  0.9640 -1.8382
18907TIP3   OH278135   0.682   0.369   0.801 -0.5818  0.2750 -0.0371
18907TIP3    H178136   0.670   0.281   0.764 -1.1385  0.2736  0.1356
18907TIP3    H278137   0.751   0.408   0.748 -0.4598 -0.2035 -0.2366
18908TIP3   OH278138   3.667   0.889  12.913  0.7695  0.2293 -0.3440
18908TIP3    H178139   3.613   0.811  12.929  0.9283  0.1149 -0.3685
18908TIP3    H278140   3.604   0.961  12.909  0.5665  0.0201 -0.9305
18909TIP3   OH278141   1.523   1.996  11.465 -0.1078  0.2332 -0.1854
18909TIP3    H178142   1.564   1.940  11.399 -0.4187 -0.1648 -0.0400
18909TIP3    H278143   1.576   1.982  11.544 -0.5217 -0.2891  0.0054
18910TIP3   OH278144   0.152   5.383  15.255  0.2349  0.7254  0.4974
18910TIP3    H178145   0.081   5.366  15.194  0.6205 -1.7469  0.6451
18910TIP3    H278146   0.230   5.390  15.201  0.4085 -0.3018  0.6082
18911TIP3   OH278147   1.108   2.052  11.697 -0.6246 -0.0771 -1.0088
18911TIP3    H178148   1.090   2.019  11.785  0.3756 -0.3310 -0.8942
18911TIP3    H278149   1.073   2.142  11.698  0.8269  0.5164  0.1806
18912TIP3   OH278150   0.188   5.648  11.595  0.4968  0.2012 -0.1942
18912TIP3    H178151   0.226   5.578  11.647  0.1539 -0.3146 -0.6285
18912TIP3    H278152   0.244   5.724  11.612  0.9552 -0.2145  0.1663
18913TIP3   OH278153   0.864   2.989  13.387 -0.0460  0.2082  0.4388
18913TIP3    H178154   0.916   2.914  13.358 -1.7652 -0.4640 -1.1689
18913TIP3    H278155   0.898   3.063  13.337  1.0000  0.3031  1.2817
18914TIP3   OH278156   1.217   4.118   2.682 -0.0812 -0.0516 -0.9233
18914TIP3    H178157   1.180   4.180   2.619  2.6499  2.4328 -0.3731
18914TIP3    H278158   1.203   4.160   2.767  1.2707 -0.4632 -0.4735
18915TIP3   OH278159   6.421   4.391   4.226  0.0625 -0.0475 -0.3573
18915TIP3    H178160   6.482   4.318   4.215 -0.7532 -0.6889 -0.7618
18915TIP3    H278161   6.422   4.436   4.141 -0.3610 -0.3349 -0.5193
18916TIP3   OH278162   6.488   3.485   2.410 -0.1987  0.2634 -0.1562
18916TIP3    H178163   6.577   3.521   2.409 -0.5442  1.2764  1.3668
18916TIP3    H278164   6.496   3.402   2.456 -0.1126  0.6648  0.5795
18917TIP3   OH278165   2.572   3.337   0.490  0.7959  0.2172  0.7993
18917TIP3    H178166   2.617   3.404   0.439  1.1536 -0.6773 -0.1082
18917TIP3    H278167   2.566   3.262   0.431 -2.0006  0.3171  0.8402
18918TIP3   OH278168   5.641   6.507  15.797 -0.3693  0.1323 -0.2638
18918TIP3    H178169   5.644   6.518  15.702 -2.2418  0.2829 -0.3538
18918TIP3    H278170   5.669   6.416  15.811  0.5310  0.3009 -0.8917
18919TIP3   OH278171   4.857   5.024  15.788 -0.2251  0.1788  0.2647
18919TIP3    H178172   4.785   5.062  15.739 -0.8608 -1.8474 -0.4497
18919TIP3    H278173   4.824   5.017  15.878  0.4708  2.6389  0.8170
18920TIP3   OH278174   2.436   3.757   4.730 -0.3523 -0.4395 -0.7471
18920TIP3    H178175   2.490   3.684   4.761 -0.1936 -1.0554 -2.3822
18920TIP3    H278176   2.487   3.795   4.658 -1.9204 -0.8470 -2.1267
18921TIP3   OH278177   5.431   3.176   2.689 -0.3268 -0.9982 -0.1416
18921TIP3    H178178   5.338   3.179   2.668  0.1077 -0.0625 -2.1812
18921TIP3    H278179   5.468   3.253   2.647  1.3582 -1.2862  0.7286
18922TIP3   OH278180   5.489   3.296   1.845  0.3423  0.9654 -0.0267
18922TIP3    H178181   5.560   3.349   1.881  1.2727 -0.1727 -0.1304
18922TIP3    H278182   5.410   3.336   1.879  1.0371  2.1824  0.2112
18923TIP3   OH278183   6.131   3.389   6.666  0.0351 -0.6831 -0.6849
18923TIP3    H178184   6.141   3.325   6.736 -0.1871  1.1633  1.1655
18923TIP3    H278185   6.073   3.456   6.704 -3.3690 -1.3894 -3.9831
18924TIP3   OH278186   6.688   5.200   0.061  0.1609 -0.4438 -0.1237
18924TIP3    H178187   6.781   5.188   0.080  0.0794 -1.6593 -0.3792
18924TIP3    H278188   6.643   5.160   0.135 -0.1592 -0.1381 -0.1520
18925TIP3   OH278189   4.304   3.565  11.479  0.4773  0.3240 -0.0252
18925TIP3    H178190   4.278   3.502  11.547  0.3743  1.2240  0.7888
18925TIP3    H278191   4.386   3.530  11.445 -0.0252 -0.7259 -0.2193
18926TIP3   OH278192   2.638   3.741  10.701  0.4383  0.3885  0.0397
18926TIP3    H178193   2.578   3.807  10.666 -0.0588 -0.5177 -0.8661
18926TIP3    H278194   2.635   3.670  10.637  0.6478 -0.6932  1.2013
18927TIP3   OH278195   0.932   3.381  16.265  0.3322 -0.0982 -0.1968
18927TIP3    H178196   0.869   3.376  16.337  0.3898  1.1430 -0.0339
18927TIP3    H278197   0.974   3.295  16.263 -0.3657 -0.4717  0.6044
18928TIP3   OH278198   3.096   4.083  12.416 -0.0829 -0.2195 -0.2717
18928TIP3    H178199   3.114   4.035  12.497  0.7561  2.9398  1.5735
18928TIP3    H278200   3.179   4.081  12.368 -0.1689 -0.8860 -0.4036
18929TIP3   OH278201   2.927   6.658   5.651  0.0638  0.2796  0.6999
18929TIP3    H178202   2.897   6.568   5.664  1.0704 -0.3822 -1.1480
18929TIP3    H278203   2.961   6.685   5.736 -0.4188 -1.0225  1.3249
18930TIP3   OH278204   1.433   2.076  17.135  0.1580  0.0126 -0.2711
18930TIP3    H178205   1.444   1.995  17.184 -1.7062  0.2287  0.5855
18930TIP3    H278206   1.340   2.095  17.141  0.3655  1.5951 -1.4736
18931TIP3   OH278207   4.717   3.622  13.653 -0.3505 -0.6092 -0.0559
18931TIP3    H178208   4.725   3.579  13.738 -0.0747  0.3325  0.4022
18931TIP3    H278209   4.799   3.670  13.642 -0.1330 -1.1985 -1.1310
18932TIP3   OH278210   2.463   2.742   2.556  0.2516 -0.2516  0.1762
18932TIP3    H178211   2.483   2.670   2.617  0.8328  0.0558  0.3581
18932TIP3    H278212   2.439   2.699   2.475 -1.6350 -0.7121  0.9149
18933TIP3   OH278213   0.403   5.244   6.084 -0.2667  0.8591 -0.2617
18933TIP3    H178214   0.375   5.301   6.156  0.4633 -0.1170  0.8226
18933TIP3    H278215   0.454   5.302   6.027  1.3304  1.1302  1.3343
18934TIP3   OH278216   5.054   5.537   1.247 -0.0947  0.1698  0.3718
18934TIP3    H178217   4.972   5.556   1.203  0.0552  1.0080  0.4359
18934TIP3    H278218   5.029   5.485   1.324 -0.5522  0.3931  0.3726
18935TIP3   OH278219   3.620   4.778   1.996  0.2626 -0.2550 -1.2456
18935TIP3    H178220   3.647   4.869   1.981 -0.1484  0.1911  0.5176
18935TIP3    H278221   3.549   4.784   2.059  0.8706 -1.8600 -0.3383
18936TIP3   OH278222   2.576   6.497  14.236  0.1543 -0.1768  0.1197
18936TIP3    H178223   2.522   6.427  14.272 -0.1579  0.4981  1.0167
18936TIP3    H278224   2.548   6.575  14.284  0.5361  0.5458 -0.8180
18937TIP3   OH278225   0.516   6.113  13.961 -0.1245 -0.5024 -0.4168
18937TIP3    H178226   0.545   6.171  13.890 -1.6527  0.5310 -0.2635
18937TIP3    H278227   0.534   6.163  14.041 -0.9603 -0.4496 -0.2512
18938TIP3   OH278228   4.834   1.380  14.173 -0.2738  0.0825  0.4659
18938TIP3    H178229   4.840   1.407  14.264 -1.3388 -1.7779  1.1345
18938TIP3    H278230   4.916   1.408  14.133  0.0115  1.3303  1.8561
18939TIP3   OH278231   3.084   3.098  14.907  0.4761 -0.3556 -0.6744
18939TIP3    H178232   3.135   3.027  14.869 -0.2745 -1.1078 -0.3170
18939TIP3    H278233   2.993   3.076  14.886  0.2016  0.2528 -0.1515
18940TIP3   OH278234   0.395   1.247  16.107  0.0771  0.2649 -0.0430
18940TIP3    H178235   0.321   1.188  16.120  1.7029 -1.4992  2.2842
18940TIP3    H278236   0.430   1.224  16.021  0.4220 -2.0241  0.6360
18941TIP3   OH278237   6.454   5.597   1.728  1.0726  0.1060  0.4957
18941TIP3    H178238   6.451   5.640   1.814 -1.1082 -1.3224  1.2060
18941TIP3    H278239   6.483   5.508   1.747  1.3197 -0.0066 -0.3704
18942TIP3   OH278240   3.440   3.274  14.331  0.0419 -0.5484 -0.1192
18942TIP3    H178241   3.398   3.247  14.412 -1.5355  2.5898  0.2719
18942TIP3    H278242   3.510   3.333  14.359  0.9317 -1.1484 -0.9996
18943TIP3   OH278243   0.625   6.034  10.841 -0.5253  0.3876 -0.2937
18943TIP3    H178244   0.657   5.969  10.778 -1.0048  0.9544 -1.1445
18943TIP3    H278245   0.540   6.000  10.869 -0.1604 -0.0367  0.3222
18944TIP3   OH278246   5.353   3.900  14.982  0.2715 -0.5126 -0.1904
18944TIP3    H178247   5.286   3.863  14.926 -0.5540  0.5357  0.0796
18944TIP3    H278248   5.305   3.941  15.054  1.1823  0.3305 -0.0357
18945TIP3   OH278249   0.808   0.175  13.944 -0.8420 -0.0882  0.4527
18945TIP3    H178250   0.717   0.200  13.925 -0.2621  2.5067  0.7212
18945TIP3    H278251   0.845   0.251  13.989  1.3404 -1.2818  0.8207
18946TIP3   OH278252   2.569   0.887  15.558  0.5587  0.0166 -0.0039
18946TIP3    H178253   2.641   0.857  15.615  0.5692  2.4131  1.3796
18946TIP3    H278254   2.548   0.811  15.504  1.9583 -1.7476  1.7893
18947TIP3   OH278255   5.846   1.201  14.032 -0.3462 -0.3509  0.1626
18947TIP3    H178256   5.823   1.160  13.949 -0.1576 -1.4957  0.6525
18947TIP3    H278257   5.779   1.268  14.046 -0.9014 -0.7698 -0.4618
18948TIP3   OH278258   0.941   3.227  12.202 -0.0311  0.3689  0.0031
18948TIP3    H178259   0.957   3.294  12.268  1.7542  0.8373 -0.8318
18948TIP3    H278260   0.993   3.255  12.127 -0.8956 -0.8825 -1.1138
18949TIP3   OH278261   6.037   0.550   5.941 -0.2253  0.0190  0.4004
18949TIP3    H178262   6.006   0.623   5.887 -0.6444 -0.5432 -0.1431
18949TIP3    H278263   6.068   0.591   6.021  0.7782  0.9145 -0.4118
18950TIP3   OH278264   5.159   6.253  17.229  0.6791 -0.1265  0.1124
18950TIP3    H178265   5.112   6.185  17.279 -0.7062  1.2016  0.7037
18950TIP3    H278266   5.131   6.239  17.139 -0.0685 -0.0051  0.3151
18951TIP3   OH278267   2.370   1.303   1.760  0.4221 -0.0058  0.5165
18951TIP3    H178268   2.405   1.371   1.817 -0.8161  1.9039 -0.8859
18951TIP3    H278269   2.433   1.298   1.688 -0.7915  1.6192 -0.7207
18952TIP3   OH278270   0.776   6.157  12.949 -0.0459  0.2285  0.0581
18952TIP3    H178271   0.838   6.230  12.952 -0.0872  0.2602  0.1588
18952TIP3    H278272   0.831   6.080  12.933  0.2266  0.0317  1.7040
18953TIP3   OH278273   6.693   0.781   0.005  0.4658  0.3024 -0.6135
18953TIP3    H178274   6.742   0.701  -0.017  0.1093 -0.4617  1.2355
18953TIP3    H278275   6.755   0.835   0.054  0.2884  0.5509 -0.6608
18954TIP3   OH278276   5.070   0.389   1.377 -0.3244 -0.3342  0.3848
18954TIP3    H178277   5.093   0.369   1.286  0.4572 -0.3299  0.5774
18954TIP3    H278278   5.051   0.483   1.377  1.4527  0.0685  0.5585
18955TIP3   OH278279   1.425   5.666   3.008  0.3102 -0.4365  0.3784
18955TIP3    H178280   1.433   5.609   2.931 -0.9300  0.7155 -0.6700
18955TIP3    H278281   1.502   5.723   3.003  0.3236 -0.4753  0.0816
18956TIP3   OH278282   1.221   0.117  11.544  0.3578  0.1912 -0.4474
18956TIP3    H178283   1.140   0.116  11.493  0.1033 -0.8910 -0.0421
18956TIP3    H278284   1.290   0.135  11.479  0.0099 -0.9128 -1.1563
18957TIP3   OH278285   3.433   0.479   0.989 -0.4202 -0.4965  0.3081
18957TIP3    H178286   3.387   0.397   1.009 -1.7452 -0.1819 -1.2430
18957TIP3    H278287   3.377   0.547   1.026 -1.5949 -0.0712 -2.0962
18958TIP3   OH278288   0.241   0.241   4.957  0.3110 -0.8697  0.0559
18958TIP3    H178289   0.312   0.232   5.020  0.5064 -0.8918 -0.1644
18958TIP3    H278290   0.285   0.240   4.872 -0.0865 -2.6368 -0.1761
18959TIP3   OH278291   5.356   3.614  16.452  0.1320  0.0410  0.0895
18959TIP3    H178292   5.368   3.552  16.524 -0.3777  0.6130  0.6733
18959TIP3    H278293   5.442   3.618  16.410  0.6526  0.2959  1.1470
18960TIP3   OH278294   4.745   3.739  11.603 -0.0817  0.1066  0.5867
18960TIP3    H178295   4.692   3.774  11.675  0.9100 -0.6110  1.6851
18960TIP3    H278296   4.763   3.649  11.628  2.1743  0.4998  0.5477
18961TIP3   OH278297   6.213   2.223  17.199 -0.0723  0.7082 -0.6155
18961TIP3    H178298   6.215   2.252  17.108 -0.2163 -0.2445 -0.9361
18961TIP3    H278299   6.171   2.137  17.195  2.4402 -0.6282 -0.0312
18962TIP3   OH278300   0.959   3.714  15.415 -0.3458 -0.9245 -0.7544
18962TIP3    H178301   0.994   3.670  15.492 -2.0580 -1.3751 -0.1934
18962TIP3    H278302   0.964   3.807  15.436  0.9966 -0.9350 -0.9326
18963TIP3   OH278303   4.965   2.091  12.309 -0.4207  0.0460  0.4437
18963TIP3    H178304   5.005   2.056  12.230 -0.1798 -1.2099  1.1012
18963TIP3    H278305   4.875   2.114  12.282  0.1192  1.1085 -0.5591
18964TIP3   OH278306   0.325   4.162   1.854 -0.0254  0.0761 -0.0985
18964TIP3    H178307   0.269   4.214   1.911 -0.1046  1.1840 -1.1615
18964TIP3    H278308   0.352   4.222   1.784  1.5367 -0.7438 -0.2537
18965TIP3   OH278309   2.879   3.897   0.627 -0.3051  0.2389  0.0813
18965TIP3    H178310   2.929   3.817   0.643  0.6116  0.9890  1.1406
18965TIP3    H278311   2.810   3.896   0.693  1.3560  1.6041  1.9782
18966TIP3   OH278312   5.837   3.384  14.350 -0.0151 -0.0091  0.0139
18966TIP3    H178313   5.802   3.296  14.369 -0.1530  0.1135  0.3387
18966TIP3    H278314   5.924   3.383  14.389  0.1768 -0.1641 -0.4087
18967TIP3   OH278315   5.291   2.440   5.772  0.4976 -0.0260 -0.0115
18967TIP3    H178316   5.263   2.523   5.809  3.0210  0.2933  1.4150
18967TIP3    H278317   5.236   2.374   5.815 -2.0139  0.8363 -1.6748
18968TIP3   OH278318   5.455   4.379  11.572  0.2053 -0.3154 -0.4489
18968TIP3    H178319   5.458   4.307  11.635  0.4328  0.5381  0.5479
18968TIP3    H278320   5.415   4.341  11.494 -1.6957 -0.9680  0.7716
18969TIP3   OH278321   2.488   1.290   6.343  0.4751 -0.4176  1.0328
18969TIP3    H178322   2.479   1.197   6.360  0.4494 -0.9736 -1.5720
18969TIP3    H278323   2.582   1.307   6.349  0.6318 -0.9336  0.1744
18970TIP3   OH278324   3.724   0.115  12.667  0.3701 -0.2431  0.2152
18970TIP3    H178325   3.785   0.182  12.636 -2.6368  2.3026 -0.7464
18970TIP3    H278326   3.663   0.162  12.724 -0.6672 -2.6436  1.2190
18971TIP3   OH278327   6.468   3.180   3.463 -0.0560  0.1325 -0.0527
18971TIP3    H178328   6.547   3.194   3.412 -0.2527 -2.0010 -1.0333
18971TIP3    H278329   6.491   3.210   3.551  1.4630  0.5465 -0.5653
18972TIP3   OH278330   4.913   6.021   6.290 -0.0028 -0.1153  0.8438
18972TIP3    H178331   4.830   6.068   6.282  0.6436  0.9813  0.3442
18972TIP3    H278332   4.918   5.996   6.382 -0.6276  0.2959  0.9942
18973TIP3   OH278333   3.194   5.849  13.254  0.1493  0.0860  0.0668
18973TIP3    H178334   3.175   5.756  13.260  1.3192 -0.2166 -0.5854
18973TIP3    H278335   3.143   5.879  13.179 -1.7697  0.4237  1.4358
18974TIP3   OH278336   0.366   6.617  15.739  0.1515  0.5695  0.0300
18974TIP3    H178337   0.308   6.556  15.694  1.3414 -0.1156 -0.6512
18974TIP3    H278338   0.383   6.577  15.824 -0.5905  0.9217  0.3523
18975TIP3   OH278339   6.101   2.927   6.723  0.0613 -0.1779 -0.2138
18975TIP3    H178340   6.172   2.911   6.662  1.4277  0.8868  1.0125
18975TIP3    H278341   6.062   2.841   6.739  0.7034 -0.6893 -1.3480
18976TIP3   OH278342   3.333   5.230  16.373  0.4663  0.4269  0.3823
18976TIP3    H178343   3.365   5.221  16.463  0.6232  0.9401  0.3791
18976TIP3    H278344   3.238   5.239  16.382  0.4208 -0.0537  0.4585
18977TIP3   OH278345   3.874   1.420  11.982 -0.0906  0.3385  0.6451
18977TIP3    H178346   3.902   1.494  12.036 -1.2028  1.5860 -0.3949
18977TIP3    H278347   3.890   1.449  11.892 -0.9872 -0.4856  0.2048
18978TIP3   OH278348   5.246   6.290  12.222 -0.5582  0.2932  0.5351
18978TIP3    H178349   5.263   6.307  12.129  0.5385 -0.0112  0.6648
18978TIP3    H278350   5.161   6.330  12.239 -0.2762  1.2905 -0.3373
18979TIP3   OH278351   2.427   3.499   0.146  0.0200  0.1679 -0.0828
18979TIP3    H178352   2.456   3.412   0.175 -0.5353 -0.2308 -0.6674
18979TIP3    H278353   2.407   3.546   0.226  1.5383  0.1972  0.2983
18980TIP3   OH278354   4.614   2.497   4.736  0.2740  0.1366  0.0188
18980TIP3    H178355   4.615   2.428   4.670  0.1483  0.2286 -0.0814
18980TIP3    H278356   4.534   2.481   4.787 -1.3240  1.8269 -1.7627
18981TIP3   OH278357   0.347   2.099   2.742  0.3376 -0.3846  0.1931
18981TIP3    H178358   0.407   2.029   2.717  0.2703  0.1036 -1.4776
18981TIP3    H278359   0.281   2.056   2.797  1.5695 -1.1455  1.1073
18982TIP3   OH278360   6.285   1.747   5.718  0.2043  0.1020  0.1661
18982TIP3    H178361   6.364   1.697   5.739  0.2759  0.4411  0.7146
18982TIP3    H278362   6.318   1.829   5.682  0.1121  0.4332  0.8266
18983TIP3   OH278363   2.587   0.672  13.664 -0.4104  0.4468  0.1848
18983TIP3    H178364   2.548   0.742  13.716 -0.6192  0.4375  0.0442
18983TIP3    H278365   2.596   0.599  13.725  2.9337  1.5972  1.2681
18984TIP3   OH278366   3.405   6.744   1.748 -0.0768 -0.3576 -0.1067
18984TIP3    H178367   3.423   6.774   1.837  0.1135  0.7245 -0.4981
18984TIP3    H278368   3.325   6.692   1.756  1.7211 -3.2017  1.2571
18985TIP3   OH278369   5.197   4.550   5.629 -0.0417  0.1778  0.5424
18985TIP3    H178370   5.135   4.481   5.651 -1.7131  1.1818 -0.8166
18985TIP3    H278371   5.277   4.504   5.605 -1.1931 -1.3272 -0.6030
18986TIP3   OH278372   4.199   0.229  12.556  0.3792 -0.2255  0.1698
18986TIP3    H178373   4.133   0.198  12.495  0.4560  1.9131 -1.1094
18986TIP3    H278374   4.259   0.155  12.567 -0.6551 -1.2476 -0.9116
18987TIP3   OH278375   5.869   4.355  17.109 -0.2920 -0.4675  0.2962
18987TIP3    H178376   5.928   4.283  17.129 -1.4625 -1.9184 -1.1695
18987TIP3    H278377   5.915   4.407  17.043  0.0732 -0.5294  0.4993
18988TIP3   OH278378   1.867   1.402   4.343  0.4968  0.1166 -0.0955
18988TIP3    H178379   1.950   1.411   4.389  1.0761 -0.1819 -1.0377
18988TIP3    H278380   1.801   1.438   4.402  1.4209  1.2173  0.2775
18989TIP3   OH278381   0.165   4.453  12.807 -0.6943  0.3254 -0.4292
18989TIP3    H178382   0.081   4.432  12.765 -1.0829  0.1838  0.3921
18989TIP3    H278383   0.154   4.424  12.898  0.0198  0.8788 -0.1553
18990TIP3   OH278384   2.937   2.371  15.901 -0.7196  0.1801 -0.1337
18990TIP3    H178385   2.927   2.450  15.955 -0.6827  0.7177 -0.8983
18990TIP3    H278386   2.893   2.302  15.951 -0.2281  0.5440  0.8400
18991TIP3   OH278387   6.448   3.805  11.899  0.2713  0.2050 -0.2583
18991TIP3    H178388   6.451   3.786  11.993  0.4219 -1.5373 -0.5735
18991TIP3    H278389   6.497   3.733  11.859 -0.9142  0.1838 -1.7582
18992TIP3   OH278390   3.001   0.577  15.271 -0.0439  0.2034 -0.2848
18992TIP3    H178391   3.021   0.668  15.291  0.0130 -0.0514  0.8887
18992TIP3    H278392   3.075   0.546  15.220  0.5379  0.4728  0.3851
18993TIP3   OH278393   0.532   1.672   5.014 -0.2702  0.2435 -0.2330
18993TIP3    H178394   0.490   1.758   5.017  0.5244  0.6078  1.4786
18993TIP3    H278395   0.626   1.692   5.011 -0.0797 -0.5671  0.1550
18994TIP3   OH278396   3.756   4.817  15.035  0.7033 -0.0505  0.2605
18994TIP3    H178397   3.678   4.820  14.979  0.0657 -0.4002  1.1183
18994TIP3    H278398   3.761   4.726  15.063 -0.2066  0.5219  2.4509
18995TIP3   OH278399   2.442   3.472  15.652  0.5231  0.6725 -0.3845
18995TIP3    H178400   2.386   3.514  15.587 -0.9530  0.4326  0.6946
18995TIP3    H278401   2.450   3.535  15.723 -0.5992 -0.2844  0.6449
18996TIP3   OH278402   6.217   6.717   5.245 -0.3309 -0.0616  0.2951
18996TIP3    H178403   6.277   6.643   5.244  1.3760  1.2534 -0.7050
18996TIP3    H278404   6.176   6.716   5.158 -1.8804 -1.0044  1.0032
18997TIP3   OH278405   3.130   0.437   5.359  0.0021 -0.0647  0.4391
18997TIP3    H178406   3.211   0.429   5.409 -0.6615 -0.3046  1.4914
18997TIP3    H278407   3.141   0.519   5.309  0.3208  0.6434  1.6394
18998TIP3   OH278408   0.099   2.860   1.980  0.2823 -0.0977 -0.4575
18998TIP3    H178409   0.093   2.826   1.890  0.1235 -1.9083  0.1941
18998TIP3    H278410   0.130   2.785   2.032  0.5307  0.9584  0.9856
18999TIP3   OH278411   6.663   5.374  13.450 -0.3448  0.2833 -0.5543
18999TIP3    H178412   6.573   5.385  13.421 -0.8231 -2.3720 -0.3696
18999TIP3    H278413   6.663   5.404  13.541 -0.5974  1.7975 -1.0223
19000TIP3   OH278414   5.756   5.823   4.615  0.1965  0.2062 -0.1162
19000TIP3    H178415   5.843   5.799   4.646 -0.1528 -2.4995 -0.9203
19000TIP3    H278416   5.699   5.813   4.691  0.2763 -0.2821 -0.1141
19001TIP3   OH278417   0.700   6.017   5.029  0.0807 -0.9137 -0.1591
19001TIP3    H178418   0.706   6.082   4.959 -3.0044 -0.8986 -0.5385
19001TIP3    H278419   0.747   5.941   4.995  1.7673  0.2905 -0.6657
19002TIP3   OH278420   5.256   3.411  17.110 -0.1500  0.1155 -0.3120
19002TIP3    H178421   5.323   3.352  17.144  2.3343  2.2806 -1.1618
19002TIP3    H278422   5.292   3.445  17.029 -3.2731 -0.2138 -2.0173
19003TIP3   OH278423   3.280   4.524   3.267  0.2937 -0.5728  0.5603
19003TIP3    H178424   3.279   4.522   3.171  1.5142  0.9145  0.4762
19003TIP3    H278425   3.250   4.613   3.288  2.2910 -0.0617  1.4451
19004TIP3   OH278426   6.679   5.159  13.014 -0.0193  0.2998  0.4149
19004TIP3    H178427   6.687   5.068  13.043 -0.6987 -0.2541 -1.0472
19004TIP3    H278428   6.614   5.197  13.073  2.0967  0.6140  2.6867
19005TIP3   OH278429   1.195   6.126   4.037  0.4531 -0.3092 -0.4285
19005TIP3    H178430   1.117   6.080   4.007  0.5955 -0.1169 -1.1208
19005TIP3    H278431   1.162   6.207   4.075  0.3204 -0.1835 -0.8093
19006TIP3   OH278432   2.324   4.111  15.762  0.3481 -0.2125 -0.0497
19006TIP3    H178433   2.384   4.183  15.785  1.6850 -1.3336  0.0636
19006TIP3    H278434   2.239   4.154  15.752  1.0887  1.3738  0.1277
19007TIP3   OH278435   3.707   6.356  14.947 -0.5753 -0.2985 -0.1010
19007TIP3    H178436   3.664   6.302  15.013 -1.7437 -0.6284 -1.0770
19007TIP3    H278437   3.660   6.439  14.950  1.8449  1.0984  2.0658
19008TIP3   OH278438   4.079   4.795  14.731  0.4032 -0.2226 -0.0188
19008TIP3    H178439   4.021   4.870  14.720 -1.3201 -1.6457 -1.2712
19008TIP3    H278440   4.118   4.807  14.817 -1.0943  1.2537  0.5054
19009TIP3   OH278441   5.354   1.355   0.172  0.1231 -0.4743  0.1996
19009TIP3    H178442   5.444   1.321   0.169 -0.3833 -1.8231 -0.6317
19009TIP3    H278443   5.312   1.318   0.094 -0.7173  1.4664 -0.3200
19010TIP3   OH278444   4.722   5.203   5.764  0.2908  0.0728  0.0575
19010TIP3    H178445   4.815   5.220   5.781  0.4326  0.1104 -0.7399
19010TIP3    H278446   4.683   5.200   5.851  1.2752 -1.3998  0.4776
19011TIP3   OH278447   4.118   3.558   4.774  0.0615  0.4527  0.3202
19011TIP3    H178448   4.126   3.650   4.801 -1.2825  0.6858  0.0052
19011TIP3    H278449   4.128   3.509   4.855  0.0838  0.9126  0.6022
19012TIP3   OH278450   3.911   0.587   1.844 -0.3857 -0.7430 -0.3480
19012TIP3    H178451   3.835   0.529   1.851 -1.3062  0.2649 -1.4486
19012TIP3    H278452   3.896   0.636   1.763  0.6164  0.6465  0.2602
19013TIP3   OH278453   4.505   0.652  16.013 -0.7039 -0.0723 -0.0072
19013TIP3    H178454   4.500   0.583  15.947  0.8458 -0.7731  0.5509
19013TIP3    H278455   4.542   0.728  15.967  1.8439 -1.0181  0.2907
19014TIP3   OH278456   6.050   3.916   4.783 -0.1542 -0.1183  0.4178
19014TIP3    H178457   6.068   4.008   4.803 -1.2238  0.2459 -0.2135
19014TIP3    H278458   6.123   3.868   4.822  1.3507  1.1248 -0.7540
19015TIP3   OH278459   4.376   3.429  15.601 -0.3070 -0.2574 -0.0061
19015TIP3    H178460   4.398   3.518  15.626 -0.3291 -0.1101 -0.4932
19015TIP3    H278461   4.288   3.434  15.565  0.2081 -0.2144 -1.3321
19016TIP3   OH278462   2.610   1.489  15.085 -0.6501  0.6159  0.4212
19016TIP3    H178463   2.539   1.431  15.059 -0.6961 -0.5455  2.8993
19016TIP3    H278464   2.570   1.550  15.147  0.4007  0.1458  1.6183
19017TIP3   OH278465   4.517   0.455  14.831 -0.4002  0.1518  0.5052
19017TIP3    H178466   4.529   0.389  14.762  0.6376  1.8257 -0.9861
19017TIP3    H278467   4.449   0.513  14.796  0.3493  1.1886  0.7414
19018TIP3   OH278468   5.743   4.254   5.354 -0.0871 -0.0921  0.5808
19018TIP3    H178469   5.760   4.194   5.281 -0.9869  0.1476  0.1666
19018TIP3    H278470   5.700   4.199   5.420 -1.0380  0.1074  0.1464
19019TIP3   OH278471   5.845   4.837   4.038 -0.2937 -0.0845 -0.0589
19019TIP3    H178472   5.866   4.757   3.990 -0.2884 -1.0098  1.4318
19019TIP3    H278473   5.790   4.808   4.111 -1.4158  1.4585 -0.2450
19020TIP3   OH278474   3.623   3.870   3.603 -0.2900  0.0843  0.3884
19020TIP3    H178475   3.591   3.843   3.516 -1.9109 -0.4310  1.1005
19020TIP3    H278476   3.546   3.864   3.659  0.2273  2.4480  1.4546
19021TIP3   OH278477   5.262   0.465  15.515 -0.2040 -0.7334 -0.1395
19021TIP3    H178478   5.168   0.482  15.514 -0.0202  0.3327 -0.4354
19021TIP3    H278479   5.293   0.499  15.431  0.9765  2.3528  1.3651
19022TIP3   OH278480   0.323   4.033  16.397 -0.3542  0.2096  0.1698
19022TIP3    H178481   0.318   4.094  16.324 -0.1792  0.3257  0.2544
19022TIP3    H278482   0.258   3.965  16.377 -1.5228  1.1301  0.7483
19023TIP3   OH278483   4.355   0.092  14.715 -0.2450  0.0743 -0.1293
19023TIP3    H178484   4.387   0.025  14.654  0.0988  0.5462 -0.4791
19023TIP3    H278485   4.424   0.101  14.780 -0.9266 -0.9461  0.7602
19024TIP3   OH278486   0.799   1.638  11.373 -0.1890 -0.2428 -0.6150
19024TIP3    H178487   0.892   1.635  11.354 -0.0288  0.7498 -0.0701
19024TIP3    H278488   0.793   1.652  11.467 -0.7630  2.6756 -0.9551
19025TIP3   OH278489   1.382   3.512  16.934  0.5320 -0.3861 -0.0271
19025TIP3    H178490   1.389   3.552  17.021 -1.7153  0.0637 -0.0039
19025TIP3    H278491   1.350   3.583  16.878 -1.2359 -1.5070 -0.4941
19026TIP3   OH278492   0.257   3.061  14.403  0.2500  0.1120  0.6429
19026TIP3    H178493   0.177   3.112  14.419  1.1111  2.5214 -1.9504
19026TIP3    H278494   0.253   3.040  14.310  1.6747 -1.5965  0.9165
19027TIP3   OH278495   3.688   6.530  16.637  0.2998  0.5087 -0.0895
19027TIP3    H178496   3.734   6.511  16.555 -1.7799  0.2190 -1.2645
19027TIP3    H278497   3.627   6.456  16.648 -0.3927  1.2136  0.9956
19028TIP3   OH278498   5.625   2.216   0.680 -0.1416  0.3472 -0.1512
19028TIP3    H178499   5.555   2.263   0.726 -1.3933 -0.8279 -0.8061
19028TIP3    H278500   5.636   2.135   0.729 -0.4010 -0.2161 -1.0161
19029TIP3   OH278501   6.667   3.782  15.365 -0.3889  0.0143 -0.3222
19029TIP3    H178502   6.724   3.720  15.318  0.8523 -0.2577  1.4444
19029TIP3    H278503   6.670   3.862  15.313 -1.0367 -1.0042 -1.9951
19030TIP3   OH278504   1.142   1.290  15.436  0.0852 -0.4406 -0.5638
19030TIP3    H178505   1.230   1.322  15.417  0.5608 -0.7199  0.9713
19030TIP3    H278506   1.149   1.251  15.523 -0.9411 -2.9277 -1.4941
19031TIP3   OH278507   3.011   0.388  12.281  0.0625 -0.2924  0.6085
19031TIP3    H178508   2.962   0.470  12.287  0.2130 -0.1690  0.1368
19031TIP3    H278509   2.950   0.321  12.312  0.5070  0.2091  2.7390
19032TIP3   OH278510   4.784   3.346  15.160  0.5693 -0.3846 -0.5199
19032TIP3    H178511   4.752   3.266  15.119  0.8505 -0.7601 -0.0332
19032TIP3    H278512   4.716   3.370  15.223  0.8835 -0.7617 -0.0202
19033TIP3   OH278513   1.670   1.767  14.541  0.0454  0.5968  0.0390
19033TIP3    H178514   1.723   1.831  14.589  0.1533  0.8881 -0.4545
19033TIP3    H278515   1.579   1.796  14.555 -0.0131 -0.1114  1.1803
19034TIP3   OH278516   2.732   2.289  15.645  0.1173  0.1156 -0.4162
19034TIP3    H178517   2.799   2.298  15.577  0.6276  0.4395  0.1120
19034TIP3    H278518   2.731   2.374  15.689  1.0601 -0.5978  1.1055
19035TIP3   OH278519   2.459   3.804   0.967 -0.2416 -0.3590 -0.0377
19035TIP3    H178520   2.432   3.878   1.021 -0.7021  0.7514 -1.6814
19035TIP3    H278521   2.406   3.812   0.887  1.6208 -0.8518 -1.4094
19036TIP3   OH278522   5.523   6.625  16.748 -0.1956  0.3346 -0.6782
19036TIP3    H178523   5.435   6.660  16.737 -1.5626 -1.3197  3.1408
19036TIP3    H278524   5.561   6.674  16.821 -0.7007 -3.0851  2.2017
19037TIP3   OH278525   1.332   5.506   0.780 -0.4484 -0.3360  0.0824
19037TIP3    H178526   1.408   5.498   0.724  0.1754  0.1293  0.8306
19037TIP3    H278527   1.291   5.420   0.779  0.1807 -0.6340 -0.2095
19038TIP3   OH278528   5.044   0.147   6.017 -1.2449 -0.2268 -0.1384
19038TIP3    H178529   5.113   0.211   6.038  0.4466 -1.8370 -0.4754
19038TIP3    H278530   5.007   0.124   6.102 -0.3145 -0.4325  0.2295
19039TIP3   OH278531   1.998   5.199  16.686  0.5047 -0.1373  0.0388
19039TIP3    H178532   1.938   5.149  16.741  0.3088 -0.3980 -0.4137
19039TIP3    H278533   1.947   5.275  16.657  1.1734  1.0412  1.7636
19040TIP3   OH278534   4.838   5.888   6.563  0.2039  0.0450 -0.1781
19040TIP3    H178535   4.797   5.971   6.586  1.8180  1.4245 -1.8890
19040TIP3    H278536   4.930   5.900   6.587  0.3291 -1.5657  0.2474
19041TIP3   OH278537   2.135   3.048   1.314  0.1838 -0.0085 -0.1634
19041TIP3    H178538   2.101   3.121   1.366  0.7082  0.7870 -0.9103
19041TIP3    H278539   2.058   3.010   1.272 -0.1254 -0.0729  0.4532
19042TIP3   OH278540   3.489   6.636   1.239 -0.1461 -0.4017  0.0936
19042TIP3    H178541   3.436   6.560   1.216 -0.5140 -0.1565  0.1320
19042TIP3    H278542   3.433   6.689   1.295  0.8830 -1.2220  2.0029
19043TIP3   OH278543   5.322   0.426  11.679  0.2510  0.1717 -0.0369
19043TIP3    H178544   5.415   0.406  11.673  0.3719  0.5556  0.4947
19043TIP3    H278545   5.318   0.502  11.736 -0.5718 -1.2439  1.8959
19044TIP3   OH278546   4.797   0.212   3.582  0.1173  0.0930 -0.7280
19044TIP3    H178547   4.810   0.242   3.672  0.4876  0.8463 -1.0241
19044TIP3    H278548   4.737   0.137   3.590  0.2712  0.0511  0.1531
19045TIP3   OH278549   5.294   4.636  16.287 -0.4542 -0.4172 -0.1460
19045TIP3    H178550   5.374   4.621  16.236 -0.8977 -0.9469 -0.7084
19045TIP3    H278551   5.322   4.691  16.360  0.4126 -0.5552 -0.3618
19046TIP3   OH278552   3.029   1.810   2.769 -0.0969  0.4663  0.0876
19046TIP3    H178553   3.102   1.799   2.708 -0.6137  0.2692 -0.5053
19046TIP3    H278554   3.066   1.791   2.855  0.6898  0.9384 -0.1358
19047TIP3   OH278555   6.670   4.021   1.759 -0.4439 -0.4350  0.0759
19047TIP3    H178556   6.693   3.933   1.787 -1.4476 -0.4689  0.8137
19047TIP3    H278557   6.631   4.010   1.672  0.7978 -0.5413 -0.4938
19048TIP3   OH278558   2.807   2.597   3.916  0.4518  0.7532 -0.4756
19048TIP3    H178559   2.742   2.559   3.857  0.7843 -0.3823 -0.1363
19048TIP3    H278560   2.886   2.547   3.899  0.6052  0.5413  0.7782
19049TIP3   OH278561   3.012   4.053  13.451  0.4977  0.1357  0.3352
19049TIP3    H178562   2.990   3.983  13.513  0.4261  0.6809  0.9374
19049TIP3    H278563   2.937   4.112  13.454  1.0740  0.8622  0.7436
19050TIP3   OH278564   2.660   3.611   4.835 -0.6659  0.3620  0.8322
19050TIP3    H178565   2.725   3.631   4.902  0.5599  2.1217 -0.8013
19050TIP3    H278566   2.710   3.594   4.756 -2.1531  0.9327 -0.2805
19051TIP3   OH278567   5.989   6.706   6.370  0.1216 -0.3198  0.0006
19051TIP3    H178568   6.074   6.750   6.360 -0.3964  0.2460 -2.2810
19051TIP3    H278569   5.975   6.705   6.465  2.9932 -1.0881  0.5284
19052TIP3   OH278570   0.576   1.997   2.388 -0.2637  0.0421 -0.3785
19052TIP3    H178571   0.498   2.021   2.337 -0.5180  2.6562  1.0177
19052TIP3    H278572   0.639   2.067   2.370  0.6966 -0.5014  0.6898
19053TIP3   OH278573   3.059   2.064   4.944  0.2806  0.2566 -0.5411
19053TIP3    H178574   3.128   2.125   4.917 -0.7290  0.7463 -2.1240
19053TIP3    H278575   3.034   2.018   4.864 -1.2879  0.1573 -0.0312
19054TIP3   OH278576   2.878   4.112   0.298 -0.1553 -0.8752  0.2527
19054TIP3    H178577   2.958   4.164   0.307 -0.7207  0.4484 -1.7495
19054TIP3    H278578   2.820   4.147   0.365 -0.1782  0.4536 -0.4287
19055TIP3   OH278579   3.518   6.514  13.931 -0.1556  0.0072  0.3576
19055TIP3    H178580   3.440   6.565  13.952  0.0088  0.4389 -0.0709
19055TIP3    H278581   3.559   6.561  13.859 -0.9042 -1.6139 -1.2215
19056TIP3   OH278582   1.122   3.791   4.682  0.1594  0.0679 -0.7673
19056TIP3    H178583   1.080   3.817   4.600  0.1328  0.0814 -0.7493
19056TIP3    H278584   1.203   3.748   4.655  0.1342  0.0424 -0.8024
19057TIP3   OH278585   6.308   2.900  13.359 -0.4538  0.0694 -0.3841
19057TIP3    H178586   6.330   2.846  13.283 -0.5030 -0.2445 -0.1819
19057TIP3    H278587   6.339   2.848  13.434  2.3005  1.6386 -0.2949
19058TIP3   OH278588   3.127   2.443  13.965 -0.1994 -0.1700  0.2021
19058TIP3    H178589   3.042   2.439  13.920 -1.0317 -0.9460  1.7691
19058TIP3    H278590   3.119   2.517  14.026  1.1478  1.2847 -1.2711
19059TIP3   OH278591   1.800   1.267   6.556 -0.0078  0.2343  0.3725
19059TIP3    H178592   1.865   1.336   6.568  0.7171 -0.5487  1.1727
19059TIP3    H278593   1.834   1.213   6.485 -1.0198  1.1661 -0.8705
19060TIP3   OH278594   0.599   2.677   0.974  0.1602  0.5275  0.8772
19060TIP3    H178595   0.628   2.593   1.009  1.6516  0.6656  0.0701
19060TIP3    H278596   0.541   2.713   1.042  0.3009 -0.6882  1.6687
19061TIP3   OH278597   2.789   5.889   3.785 -0.0578 -0.1769  0.1227
19061TIP3    H178598   2.745   5.946   3.722 -0.3713 -0.3490  0.1794
19061TIP3    H278599   2.869   5.860   3.742  0.4277  0.8146  0.3324
19062TIP3   OH278600   3.760   6.050   2.871 -0.0788  0.1580 -0.0176
19062TIP3    H178601   3.740   6.124   2.813 -1.2683  0.9151  1.2955
19062TIP3    H278602   3.730   5.973   2.823  1.1738  0.5012 -1.4103
19063TIP3   OH278603   2.736   2.805  14.215 -0.4060  0.3660 -0.1001
19063TIP3    H178604   2.764   2.728  14.167  1.1359 -0.6629  2.2349
19063TIP3    H278605   2.739   2.779  14.307  1.2295  3.4398  0.8923
19064TIP3   OH278606   1.765   5.760   4.462 -0.1026 -0.2603 -0.1081
19064TIP3    H178607   1.778   5.668   4.487 -0.9807 -0.2284  0.5108
19064TIP3    H278608   1.803   5.767   4.374  3.5237 -0.2983  1.2653
19065TIP3   OH278609   1.141   6.034  16.300 -0.2206 -0.4165  0.0328
19065TIP3    H178610   1.110   5.999  16.384 -0.3459 -1.9540 -0.6154
19065TIP3    H278611   1.070   6.091  16.270 -1.4431 -2.0204 -0.2917
19066TIP3   OH278612   2.130   0.255   5.092 -0.6587 -0.1762 -0.1717
19066TIP3    H178613   2.110   0.172   5.049  1.1466 -0.4928 -0.4771
19066TIP3    H278614   2.159   0.312   5.020 -1.7009  0.6643  0.0623
19067TIP3   OH278615   3.841   3.171   1.324 -0.4195 -0.1708 -0.3605
19067TIP3    H178616   3.924   3.124   1.316 -0.1652  0.0467  0.8688
19067TIP3    H278617   3.778   3.103   1.348 -0.6051 -0.3257 -1.2364
19068TIP3   OH278618   4.389   3.861   1.753 -0.3202  0.5182  0.0367
19068TIP3    H178619   4.328   3.795   1.785  0.8631  0.0848  1.5571
19068TIP3    H278620   4.349   3.945   1.776 -0.6059  0.2607  0.4866
19069TIP3   OH278621   0.705   1.458  14.238  0.1341 -0.1245  0.4030
19069TIP3    H178622   0.699   1.373  14.281  1.8156 -0.6031 -0.2220
19069TIP3    H278623   0.792   1.491  14.262  0.5919  0.1912 -1.5146
19070TIP3   OH278624   3.479   2.848  13.813 -0.0931 -0.0581 -0.0514
19070TIP3    H178625   3.562   2.805  13.835  0.3326  0.6818 -0.1521
19070TIP3    H278626   3.487   2.868  13.720  1.4138  3.6501  0.6900
19071TIP3   OH278627   1.233   0.081   3.343  0.4968 -0.6257  0.0046
19071TIP3    H178628   1.327   0.070   3.329  0.7469  2.8489 -2.2632
19071TIP3    H278629   1.226   0.136   3.420  0.0881 -2.7199  1.5587
19072TIP3   OH278630   2.642   5.331  16.901 -0.0556  0.1305  0.0482
19072TIP3    H178631   2.686   5.391  16.840 -0.8277 -0.3127 -0.9859
19072TIP3    H278632   2.589   5.275  16.844 -0.8639 -0.2479  1.1524
19073TIP3   OH278633   3.841   2.767   4.139 -0.0598  0.1955 -0.6381
19073TIP3    H178634   3.800   2.714   4.070 -0.0655  0.9710 -1.2462
19073TIP3    H278635   3.891   2.704   4.190 -1.3694 -0.6599 -0.3481
19074TIP3   OH278636   5.782   1.845   4.522 -0.0001  0.1408  0.1080
19074TIP3    H178637   5.740   1.927   4.495 -1.6255 -0.7447 -0.1456
19074TIP3    H278638   5.871   1.852   4.486 -0.3770  1.3996 -0.6884
19075TIP3   OH278639   5.138   2.098  13.923  0.2806  0.1647 -0.4359
19075TIP3    H178640   5.203   2.166  13.906 -0.2866  0.9056  0.2673
19075TIP3    H278641   5.101   2.079  13.837 -0.2605  1.4873 -0.5185
19076TIP3   OH278642   2.020   6.589  11.099 -0.0244  0.3646 -0.9461
19076TIP3    H178643   2.030   6.649  11.025  1.0645  0.8700 -0.4102
19076TIP3    H278644   2.029   6.502  11.060 -1.0737  0.5440 -1.6420
19077TIP3   OH278645   3.690   5.660   4.431 -0.0811  0.5414 -0.3248
19077TIP3    H178646   3.620   5.627   4.487  0.5865  2.1368  1.5778
19077TIP3    H278647   3.758   5.691   4.492  2.2619 -0.7907 -2.0691
19078TIP3   OH278648   4.208   5.081   5.500 -0.2996 -0.0327 -0.2797
19078TIP3    H178649   4.207   5.169   5.538 -0.3524  0.2799 -0.9976
19078TIP3    H278650   4.117   5.051   5.506 -0.3973  0.2027 -0.5878
19079TIP3   OH278651   5.849   1.034   1.375  0.2934  0.4457  0.0110
19079TIP3    H178652   5.832   1.085   1.295  0.6980  1.5691  0.6276
19079TIP3    H278653   5.943   1.017   1.373  0.0741 -0.8203 -0.4867
19080TIP3   OH278654   0.750   4.516  11.074  0.2006 -0.2672 -0.1005
19080TIP3    H178655   0.814   4.556  11.016 -1.5421  0.3219 -1.7270
19080TIP3    H278656   0.667   4.555  11.049 -1.1978 -2.8261  0.1591
19081TIP3   OH278657   1.447   0.347   1.824 -0.0270 -0.1643 -0.3411
19081TIP3    H178658   1.364   0.304   1.801 -0.3228 -0.1325  0.6227
19081TIP3    H278659   1.503   0.334   1.747 -0.3561 -1.6453 -0.3708
19082TIP3   OH278660   5.748   2.450   4.207 -0.5146 -0.3386 -1.0899
19082TIP3    H178661   5.754   2.543   4.185 -0.1695 -0.3491 -1.0501
19082TIP3    H278662   5.829   2.412   4.172  1.3458  0.0730  2.2427
19083TIP3   OH278663   4.134   2.780   3.182  0.1205 -0.1617 -0.5753
19083TIP3    H178664   4.046   2.789   3.145 -0.8185 -2.9985  0.6479
19083TIP3    H278665   4.139   2.688   3.209  3.7546 -0.3182 -1.2560
19084TIP3   OH278666   5.913   6.460   6.264 -0.3471  0.2057  1.4194
19084TIP3    H178667   5.890   6.544   6.303  1.3249  0.4368  1.9851
19084TIP3    H278668   5.874   6.395   6.322 -0.6263  0.5757  1.6490
19085TIP3   OH278669   2.570   0.180   2.620 -0.3694 -0.5214 -0.0439
19085TIP3    H178670   2.522   0.119   2.676 -0.1378 -0.5636  0.1128
19085TIP3    H278671   2.509   0.253   2.605  0.1381  0.3079  1.6684
19086TIP3   OH278672   1.735   1.947  15.241  0.1752 -0.0744 -0.0846
19086TIP3    H178673   1.665   1.933  15.305 -0.8198 -3.8588 -1.7199
19086TIP3    H278674   1.706   2.023  15.190 -2.8628 -1.4595 -0.6497
19087TIP3   OH278675   6.730   1.486  13.464 -0.1282  0.3449 -0.1508
19087TIP3    H178676   6.818   1.524  13.469  0.7446 -1.6767  1.4376
19087TIP3    H278677   6.746   1.392  13.454 -2.1347 -0.0539  0.0931
19088TIP3   OH278678   1.651   3.959   0.644 -0.1314 -0.1566 -0.1288
19088TIP3    H178679   1.651   3.905   0.722  0.9372  1.2496  0.8946
19088TIP3    H278680   1.740   3.954   0.610  0.2806  1.7077  0.5675
19089TIP3   OH278681   3.551   6.598  15.561 -0.0805 -0.1588 -0.0731
19089TIP3    H178682   3.553   6.586  15.466 -1.6052  2.0628 -0.4759
19089TIP3    H278683   3.642   6.611  15.586  0.5496 -2.4722 -0.9036
19090TIP3   OH278684   1.903   4.933   4.242  0.0447  0.2227  0.5226
19090TIP3    H178685   1.893   4.900   4.331 -0.1317 -1.0512  0.0490
19090TIP3    H278686   1.987   4.898   4.213  0.5531  1.4228  0.5064
19091TIP3   OH278687   1.964   3.774   4.540 -0.6585 -0.3736  0.2736
19091TIP3    H178688   2.051   3.813   4.549 -1.2167  0.9527  0.0440
19091TIP3    H278689   1.932   3.766   4.630 -1.6931  2.4399  0.2370
19092TIP3   OH278690   3.109   0.577  16.435 -0.3301  0.0266  0.2669
19092TIP3    H178691   3.180   0.520  16.464  1.0911  2.4129  1.9106
19092TIP3    H278692   3.030   0.524  16.445  1.0176 -2.1310  0.1287
19093TIP3   OH278693   3.304   5.728  11.607  0.7860 -0.4473  0.4331
19093TIP3    H178694   3.358   5.800  11.641 -1.1248  2.8320 -2.7330
19093TIP3    H278695   3.350   5.700  11.528 -0.6558  0.4596 -0.7688
19094TIP3   OH278696   2.063   0.299   6.296 -0.3170  0.3209  0.2274
19094TIP3    H178697   2.026   0.213   6.314  0.3815 -0.0697 -0.1643
19094TIP3    H278698   2.007   0.335   6.227 -0.6397  0.1996  0.4271
19095TIP3   OH278699   2.284   3.098  12.902 -0.3800 -0.6544 -0.0505
19095TIP3    H178700   2.331   3.019  12.875 -0.6610 -0.3852 -1.3877
19095TIP3    H278701   2.353   3.163  12.917 -0.2487 -0.6544 -0.6535
19096TIP3   OH278702   2.898   6.391   5.294 -0.3278 -0.0579  0.1265
19096TIP3    H178703   2.931   6.314   5.247 -2.0662 -0.7001 -0.1046
19096TIP3    H278704   2.930   6.380   5.384  0.7340 -0.2254 -0.2556
19097TIP3   OH278705   6.153   3.585  12.412 -0.0597  0.1529 -0.1911
19097TIP3    H178706   6.138   3.619  12.324  0.9978 -0.7441 -0.7441
19097TIP3    H278707   6.191   3.658  12.460 -0.1878  0.5035 -0.6138
19098TIP3   OH278708   2.309   2.437  15.769  0.0499 -0.4956  0.0833
19098TIP3    H178709   2.221   2.452  15.804 -0.3643 -1.0732 -0.6689
19098TIP3    H278710   2.367   2.448  15.844 -0.3810  2.6433  0.0864
19099TIP3   OH278711   5.301   3.435   5.788  0.2884 -0.0487  0.1682
19099TIP3    H178712   5.310   3.505   5.852  0.4301 -0.7144  0.8834
19099TIP3    H278713   5.213   3.401   5.801  0.8285 -1.1584  1.0272
19100TIP3   OH278714   1.673   3.924   3.208  0.0275  0.3722  0.1858
19100TIP3    H178715   1.614   3.857   3.175  1.5250 -1.8363  1.7372
19100TIP3    H278716   1.648   3.935   3.300  0.4926  1.1587  0.2259
19101TIP3   OH278717   2.950   6.752  12.842 -0.0084 -0.7697  0.0075
19101TIP3    H178718   3.008   6.676  12.836 -0.0738 -0.9644  1.3762
19101TIP3    H278719   2.917   6.749  12.932 -1.8040 -0.4305 -0.5828
19102TIP3   OH278720   5.806   1.210   5.273  0.0460  0.5036 -0.2706
19102TIP3    H178721   5.831   1.155   5.347 -1.8262 -0.3067 -0.2046
19102TIP3    H278722   5.856   1.174   5.199 -1.8844 -2.0601 -0.4640
19103TIP3   OH278723   5.039   2.687   2.587  0.1682  0.1156 -0.0000
19103TIP3    H178724   5.117   2.743   2.585  0.4629 -0.2878 -0.0186
19103TIP3    H278725   4.997   2.700   2.502  1.4496 -1.3757 -0.9038
19104TIP3   OH278726   1.182   4.210  16.949  0.3365  0.2788 -0.3099
19104TIP3    H178727   1.219   4.289  16.989  0.4972 -0.2478  0.6159
19104TIP3    H278728   1.258   4.154  16.934  0.5604  1.2392 -3.2647
19105TIP3   OH278729   6.609   1.278  16.062  0.3344 -0.0194  0.6313
19105TIP3    H178730   6.700   1.294  16.085  0.5760  0.3959 -0.5221
19105TIP3    H278731   6.612   1.253  15.970 -0.8380  1.4067  0.1691
19106TIP3   OH278732   2.243   6.512  11.865  0.8066  0.0590 -0.3196
19106TIP3    H178733   2.207   6.499  11.952  1.3752  1.1632  0.1003
19106TIP3    H278734   2.337   6.517  11.878  0.8802  0.5140 -0.9487
19107TIP3   OH278735   4.992   0.809  17.212  0.2081  0.1288 -0.1780
19107TIP3    H178736   5.052   0.755  17.264 -1.2277  0.0357  1.4673
19107TIP3    H278737   4.943   0.747  17.159  0.9898  0.1475 -0.9557
19108TIP3   OH278738   5.845   5.740   4.296  0.1921  0.4650 -0.4233
19108TIP3    H178739   5.823   5.727   4.203  0.3205 -0.7667 -0.2989
19108TIP3    H278740   5.791   5.676   4.342  0.6337  0.5957  0.2827
19109TIP3   OH278741   5.810   6.028  10.906  0.6890 -0.0599 -0.2581
19109TIP3    H178742   5.776   6.034  10.816  2.4568  0.6462 -0.9266
19109TIP3    H278743   5.814   6.119  10.936 -0.0960 -0.3063  0.6463
19110TIP3   OH278744   2.139   4.757  14.608  0.3653  0.6362 -0.0176
19110TIP3    H178745   2.162   4.829  14.550  0.9164 -0.1480 -0.8120
19110TIP3    H278746   2.215   4.699  14.605 -0.1137 -0.0337  0.5092
19111TIP3   OH278747   4.030   6.358   5.170 -0.9402 -0.3815  0.3471
19111TIP3    H178748   4.040   6.450   5.145  0.5737 -0.5409  0.3041
19111TIP3    H278749   3.971   6.322   5.103 -0.3809  0.2243 -0.4925
19112TIP3   OH278750   6.232   2.397  13.315  0.5933 -0.5652 -0.2269
19112TIP3    H178751   6.201   2.464  13.375  1.7337 -0.8303  0.6821
19112TIP3    H278752   6.157   2.338  13.303 -0.6012  1.0991 -1.4477
19113TIP3   OH278753   2.086   5.339  16.972  0.4458  0.5561  0.1057
19113TIP3    H178754   1.995   5.339  16.944  0.4786  0.1761 -0.0044
19113TIP3    H278755   2.130   5.400  16.913  0.2528  0.7784  0.1922
19114TIP3   OH278756   4.291   2.496  16.576 -0.7278 -0.0653 -0.7452
19114TIP3    H178757   4.292   2.401  16.565 -2.7238 -0.1363 -0.6781
19114TIP3    H278758   4.229   2.528  16.510  0.2214  1.2459 -1.0434
19115TIP3   OH278759   6.140   2.830   3.016 -0.9908  0.3929 -0.6082
19115TIP3    H178760   6.063   2.774   3.010 -1.5326  1.1991 -1.2322
19115TIP3    H278761   6.115   2.899   3.077 -0.1860 -0.2309  0.4697
19116TIP3   OH278762   4.085   6.494   1.242 -0.3032  0.1181 -0.4631
19116TIP3    H178763   4.110   6.402   1.244  3.4450  0.9338 -1.4196
19116TIP3    H278764   4.141   6.536   1.308  0.0023  1.9935 -1.8206
19117TIP3   OH278765   0.822   1.918  16.336  0.0942 -0.2804 -0.1176
19117TIP3    H178766   0.819   1.966  16.253 -0.5165 -1.2763 -0.7002
19117TIP3    H278767   0.902   1.866  16.331  1.4474  1.5805  1.0729
19118TIP3   OH278768   3.696   5.503  12.627  0.6548  0.0299  0.6396
19118TIP3    H178769   3.611   5.468  12.653  0.2343  0.8551  0.4156
19118TIP3    H278770   3.721   5.450  12.551  0.7768 -0.8168  1.2611
19119TIP3   OH278771   2.799   0.466   1.316  0.7543  0.4606  0.2207
19119TIP3    H178772   2.712   0.427   1.328  0.2317  1.7702  0.8523
19119TIP3    H278773   2.851   0.396   1.276 -0.5081 -0.4360  0.0865
19120TIP3   OH278774   6.169   4.449  14.682 -0.4474 -0.8535 -0.1208
19120TIP3    H178775   6.142   4.408  14.765 -1.7984 -1.3784 -0.7881
19120TIP3    H278776   6.154   4.542  14.695  1.0246 -0.7116  0.8178
19121TIP3   OH278777   5.791   2.518   1.707 -0.1671 -0.0723  0.0304
19121TIP3    H178778   5.755   2.430   1.696 -1.1003  0.3191 -0.1800
19121TIP3    H278779   5.882   2.504   1.733  0.0905 -1.0783 -1.3187
19122TIP3   OH278780   2.155   5.290  15.609 -0.1836 -0.0097  0.3130
19122TIP3    H178781   2.093   5.225  15.642 -0.3368  0.4460  0.9343
19122TIP3    H278782   2.241   5.250  15.621 -0.3080 -0.3114  0.2023
19123TIP3   OH278783   5.195   2.672  13.530  0.1328 -0.1073 -0.2629
19123TIP3    H178784   5.224   2.690  13.440 -0.8012 -2.1387 -1.0364
19123TIP3    H278785   5.140   2.595  13.522  0.9759 -1.0659  2.2316
19124TIP3   OH278786   5.895   2.240  12.331  0.3761 -0.0601 -0.4237
19124TIP3    H178787   5.807   2.267  12.359 -0.7517 -1.9672 -1.8541
19124TIP3    H278788   5.940   2.322  12.310 -0.6363  1.0400  1.4239
19125TIP3   OH278789   5.090   3.553  15.220  0.0916 -0.4410 -0.0307
19125TIP3    H178790   5.110   3.460  15.232  2.2110 -0.1193 -0.6062
19125TIP3    H278791   5.126   3.575  15.134  1.5418  1.3371  0.9348
19126TIP3   OH278792   0.967   4.271   3.008  0.0947  0.6242  0.8524
19126TIP3    H178793   0.935   4.348   2.962  1.2695  1.2520  1.0508
19126TIP3    H278794   1.056   4.294   3.035  0.1495 -0.4749  1.6860
19127TIP3   OH278795   3.305   5.511  11.005 -0.6420  0.2224  0.1540
19127TIP3    H178796   3.212   5.532  11.018 -0.3458  1.0534  1.0626
19127TIP3    H278797   3.336   5.484  11.091 -0.0982 -0.3223 -0.2064
19128TIP3   OH278798   2.287   5.503   5.360  0.4204 -0.3702 -0.5259
19128TIP3    H178799   2.358   5.532   5.417  0.9156 -0.7226 -0.9576
19128TIP3    H278800   2.212   5.493   5.419  0.6864  0.1374 -0.0899
19129TIP3   OH278801   1.111   6.371  15.389 -0.5306 -0.1033 -0.2568
19129TIP3    H178802   1.052   6.417  15.329 -0.6394  0.8611  0.5676
19129TIP3    H278803   1.198   6.387  15.354 -0.6857 -0.7016 -0.9263
19130TIP3   OH278804   5.823   0.351   0.035 -0.1390 -0.0581  0.3586
19130TIP3    H178805   5.915   0.343   0.059  0.7598  3.3500 -1.2818
19130TIP3    H278806   5.790   0.421   0.091 -1.7616 -1.1675  0.8539
19131TIP3   OH278807   6.477   5.862  13.053  0.1872 -0.0390  0.2527
19131TIP3    H178808   6.473   5.884  12.960  0.2164  0.8086  0.4393
19131TIP3    H278809   6.437   5.937  13.097 -0.4823 -0.7510  0.8888
19132TIP3   OH278810   6.545   3.323   0.762  0.0322  0.3066  0.3258
19132TIP3    H178811   6.590   3.367   0.834 -0.0817  1.1584 -0.1119
19132TIP3    H278812   6.611   3.313   0.694  0.0441 -0.1682  0.4014
19133TIP3   OH278813   0.107   4.241   2.517 -0.1591 -0.0935 -0.4056
19133TIP3    H178814   0.107   4.329   2.555 -0.8296 -0.5925  0.8370
19133TIP3    H278815   0.016   4.225   2.493 -0.4198 -1.1085  1.0921
19134TIP3   OH278816   6.723   2.817   5.914  0.1996 -0.2802 -0.3366
19134TIP3    H178817   6.702   2.774   5.996  0.4738  2.3255  1.2225
19134TIP3    H278818   6.811   2.785   5.892  0.3065 -0.6802  0.6215
19135TIP3   OH278819   5.077   5.109   0.490 -0.3502  0.2233  0.1432
19135TIP3    H178820   5.092   5.149   0.575  0.2636  0.1019  0.0930
19135TIP3    H278821   5.084   5.181   0.427  0.1845  0.1381  0.1051
19136TIP3   OH278822   1.017   6.542   3.699 -0.4134  0.4738 -0.3894
19136TIP3    H178823   0.973   6.550   3.784 -0.2398 -0.3230 -0.2178
19136TIP3    H278824   1.003   6.627   3.657 -0.2029  1.0015  0.5810
19137TIP3   OH278825   1.607   4.392   1.260 -0.0970 -0.0890 -0.4432
19137TIP3    H178826   1.577   4.309   1.224 -1.6913  1.0478 -1.8825
19137TIP3    H278827   1.608   4.452   1.186  0.5088  1.3226  0.6566
19138TIP3   OH278828   2.760   5.765  11.509  0.5912  0.4114 -0.3273
19138TIP3    H178829   2.849   5.791  11.535 -0.2044  0.4968  2.6414
19138TIP3    H278830   2.734   5.700  11.574 -1.6292  0.5839 -0.9735
19139TIP3   OH278831   5.794   5.206  13.800 -0.4388 -0.0833  0.2835
19139TIP3    H178832   5.702   5.180  13.806 -0.7647  1.1799  1.1759
19139TIP3    H278833   5.799   5.255  13.717 -0.1970 -1.4347 -0.5376
19140TIP3   OH278834   2.591   0.620   0.959  0.2659  0.2663  0.0062
19140TIP3    H178835   2.530   0.680   0.915 -1.5746  0.0007  2.0147
19140TIP3    H278836   2.677   0.643   0.924 -0.8591  1.2762 -2.2887
19141TIP3   OH278837   5.585   0.306   5.305  0.0921 -0.0475  0.3893
19141TIP3    H178838   5.676   0.308   5.333 -0.0925 -0.9384  1.1019
19141TIP3    H278839   5.549   0.227   5.345 -1.2566  0.7965  0.9138
19142TIP3   OH278840   1.216   6.252  13.147  0.7574 -0.4712 -1.0071
19142TIP3    H178841   1.261   6.258  13.063  3.8782 -2.7929  0.2915
19142TIP3    H278842   1.258   6.319  13.201 -1.5311  1.3061 -1.2973
19143TIP3   OH278843   0.688   4.058  14.476  0.4857 -0.1662  0.4546
19143TIP3    H178844   0.689   4.118  14.402 -0.2627  0.5745  1.0260
19143TIP3    H278845   0.604   4.012  14.469  0.4601 -0.1703  0.7783
19144TIP3   OH278846   0.806   0.308   4.151  0.6564 -0.1595 -0.5354
19144TIP3    H178847   0.808   0.225   4.199  0.3461 -0.3282 -0.8080
19144TIP3    H278848   0.889   0.311   4.105  0.7563 -0.2205 -0.3587
19145TIP3   OH278849   4.773   3.427  15.594  0.6947  0.0949  0.3253
19145TIP3    H178850   4.739   3.508  15.631  1.0534 -0.4388  1.9380
19145TIP3    H278851   4.727   3.358  15.641 -0.3022 -0.6793 -1.6904
19146TIP3   OH278852   0.102   6.268   1.633  0.4126 -0.0122 -0.0309
19146TIP3    H178853   0.163   6.313   1.692  1.6533 -0.3830 -0.9994
19146TIP3    H278854   0.112   6.175   1.655 -1.2661  0.0283  1.1354
19147TIP3   OH278855   2.737   3.562   4.374  0.2992  0.3091  0.1195
19147TIP3    H178856   2.762   3.591   4.286  3.1279 -0.0646  0.6835
19147TIP3    H278857   2.642   3.556   4.372 -0.0372  3.8192 -1.7812
19148TIP3   OH278858   1.116   1.270  16.683  0.1744 -0.1418 -0.0393
19148TIP3    H178859   1.173   1.221  16.623  0.5896  0.2922 -0.0036
19148TIP3    H278860   1.166   1.349  16.705 -0.7619  0.6369 -0.6293
19149TIP3   OH278861   5.009   5.090  17.214  0.0001  0.0640 -0.3797
19149TIP3    H178862   5.002   5.009  17.165 -0.3964 -0.0419 -0.1580
19149TIP3    H278863   5.074   5.072  17.282  0.3701  0.1341 -0.7141
19150TIP3   OH278864   0.786   4.228  15.535  0.2423  0.0268 -0.0029
19150TIP3    H178865   0.731   4.306  15.526  0.9113  0.3606 -1.4677
19150TIP3    H278866   0.834   4.222  15.452 -0.8817 -2.8178 -0.5769
19151TIP3   OH278867   2.796   1.048   4.183 -0.1503  0.1419  0.2641
19151TIP3    H178868   2.840   1.116   4.132  0.2560  0.1701  0.6425
19151TIP3    H278869   2.759   1.094   4.258 -1.5122  0.2470 -0.4292
19152TIP3   OH278870   0.876   6.274   2.044  0.2829 -0.4005  0.1864
19152TIP3    H178871   0.847   6.358   2.008 -0.3215 -0.7241 -0.0873
19152TIP3    H278872   0.804   6.245   2.099  1.0402 -0.1006  1.3793
19153TIP3   OH278873   0.890   2.459  17.101 -0.2652 -0.1722 -0.4067
19153TIP3    H178874   0.865   2.552  17.095  1.8100  0.4121 -0.9217
19153TIP3    H278875   0.818   2.418  17.148 -1.2438  1.7074 -0.1568
19154TIP3   OH278876   2.348   2.736  11.038 -0.0075  0.4583  0.6728
19154TIP3    H178877   2.308   2.660  11.080 -0.9846  0.3269 -0.4352
19154TIP3    H278878   2.275   2.795  11.021  0.5767  1.1382  0.4607
19155TIP3   OH278879   0.499   1.410   4.416  0.0684  0.2058 -0.0853
19155TIP3    H178880   0.545   1.391   4.498  0.3360  1.9449  0.1922
19155TIP3    H278881   0.473   1.501   4.424 -0.2314  0.2899 -1.7976
19156TIP3   OH278882   3.162   6.572  12.127 -0.5730 -0.5654  0.5061
19156TIP3    H178883   3.245   6.540  12.163  0.3476  1.4676  0.2680
19156TIP3    H278884   3.164   6.666  12.141 -2.9312 -0.4835  0.6299
19157TIP3   OH278885   2.446   4.084  11.653  0.0334 -0.0952 -0.1251
19157TIP3    H178886   2.378   4.040  11.604  0.1279 -0.9729  0.5017
19157TIP3    H278887   2.422   4.177  11.651 -1.0212 -0.3616 -0.1395
19158TIP3   OH278888   1.250   5.278  13.214 -0.0734 -0.2939  0.0029
19158TIP3    H178889   1.192   5.247  13.145 -2.1328  0.9052  1.0958
19158TIP3    H278890   1.272   5.200  13.264  1.4983 -1.2031 -1.9356
19159TIP3   OH278891   2.932   5.100  13.413  0.0490  0.0829 -0.1824
19159TIP3    H178892   3.025   5.112  13.432  0.5447 -1.0635 -1.6385
19159TIP3    H278893   2.887   5.165  13.466  1.6842  0.6267  0.5839
19160TIP3   OH278894   0.990   1.857  14.076  0.2087 -0.1418 -0.5464
19160TIP3    H178895   0.994   1.952  14.075 -0.4826 -0.1094 -0.6010
19160TIP3    H278896   0.924   1.836  14.142  2.6847 -0.6877  1.9416
19161TIP3   OH278897   5.740   2.102   1.390  0.3781 -0.8646  0.1924
19161TIP3    H178898   5.701   2.112   1.303  0.3615  0.7473  0.3642
19161TIP3    H278899   5.743   2.007   1.404 -2.2644 -1.0989 -0.3656
19162TIP3   OH278900   0.136   5.437   6.215 -0.1450 -0.1428 -0.1411
19162TIP3    H178901   0.145   5.499   6.288 -0.6349  1.1933 -1.1714
19162TIP3    H278902   0.113   5.354   6.257  0.2165  0.4380  1.2654
19163TIP3   OH278903   3.305   0.484  17.099 -0.3906  0.1667  1.0249
19163TIP3    H178904   3.281   0.463  17.009 -0.3303 -1.4683  1.3615
19163TIP3    H278905   3.379   0.544  17.091  1.8851 -2.5589 -0.1197
19164TIP3   OH278906   5.379   6.544  11.560 -0.0768  0.6463  0.0923
19164TIP3    H178907   5.300   6.500  11.592  0.8061  0.2031  1.7565
19164TIP3    H278908   5.451   6.486  11.586  0.7550  0.2110 -2.8098
19165TIP3   OH278909   0.736   5.172   2.599 -0.1802 -0.1841 -0.8566
19165TIP3    H178910   0.769   5.103   2.542 -0.6664 -1.6068  0.5221
19165TIP3    H278911   0.791   5.248   2.579  1.2338 -1.3267 -1.4892
19166TIP3   OH278912   0.453   4.513   2.397 -0.1256 -0.3691  0.1736
19166TIP3    H178913   0.364   4.545   2.415 -0.0439  0.5568 -0.8907
19166TIP3    H278914   0.440   4.440   2.337 -0.1822 -0.2574  0.0476
19167TIP3   OH278915   0.182   1.847   2.355  1.0297 -0.3336  0.2210
19167TIP3    H178916   0.193   1.929   2.402  3.4930 -0.2760 -0.3251
19167TIP3    H278917   0.192   1.779   2.423 -0.1042 -0.2387  0.5120
19168TIP3   OH278918   4.508   4.747  10.840 -0.3665 -0.2312 -0.0833
19168TIP3    H178919   4.518   4.738  10.935  1.6204  1.5095 -0.0632
19168TIP3    H278920   4.485   4.839  10.827 -0.3555 -0.3877 -1.3175
19169TIP3   OH278921   0.775   5.599  14.652  0.4280  0.0225 -0.2062
19169TIP3    H178922   0.830   5.578  14.727 -1.1072 -0.1977  0.9148
19169TIP3    H278923   0.740   5.686  14.671  0.9207  0.4635 -1.2392
19170TIP3   OH278924   4.677   1.454  12.657 -0.0310  0.1441  0.1939
19170TIP3    H178925   4.689   1.374  12.708  0.5978  0.6358  0.8356
19170TIP3    H278926   4.584   1.453  12.631  0.2322 -1.3372 -0.7649
19171TIP3   OH278927   0.674   0.297   3.279 -0.3194 -0.4573 -0.2532
19171TIP3    H178928   0.587   0.332   3.261 -0.6341 -0.2103  1.5851
19171TIP3    H278929   0.711   0.357   3.343  0.8715 -1.0511 -0.3625
19172TIP3   OH278930   1.018   6.449   4.513  0.6394  0.3917 -0.0891
19172TIP3    H178931   1.045   6.525   4.461 -0.2564  0.1982 -0.8586
19172TIP3    H278932   1.094   6.431   4.569  0.9629  1.6999 -0.0542
19173TIP3   OH278933   0.884   2.312   1.276  0.1083 -0.3160 -0.8880
19173TIP3    H178934   0.893   2.236   1.219  1.3373  1.4499 -3.2307
19173TIP3    H278935   0.959   2.368   1.254 -0.0406  1.0534  1.6409
19174TIP3   OH278936   4.830   2.479   0.455  0.0241 -0.3170 -0.4955
19174TIP3    H178937   4.830   2.429   0.374 -2.7482  0.6660 -1.2284
19174TIP3    H278938   4.737   2.495   0.473  0.6318  1.0424  1.9115
19175TIP3   OH278939   4.710   1.230   0.583 -0.3601 -0.0130 -0.1954
19175TIP3    H178940   4.761   1.162   0.539  1.4144  0.4576  0.9816
19175TIP3    H278941   4.775   1.278   0.635 -1.8336  1.4788  0.3687
19176TIP3   OH278942   2.359   1.159   5.644 -0.5605  0.3814  0.1666
19176TIP3    H178943   2.376   1.095   5.713 -1.0030  1.9123  1.7732
19176TIP3    H278944   2.295   1.116   5.587 -1.1945 -0.4689  1.4512
19177TIP3   OH278945   0.178   5.631   0.800 -0.6197  0.7391 -0.2406
19177TIP3    H178946   0.119   5.642   0.875 -0.8227 -1.5449  0.0128
19177TIP3    H278947   0.120   5.613   0.726 -0.3843  2.3416 -0.8477
19178TIP3   OH278948   5.527   1.988   1.108 -0.4884  0.1911 -0.2174
19178TIP3    H178949   5.531   1.909   1.054 -0.4046  0.5178 -0.6901
19178TIP3    H278950   5.571   2.055   1.056  1.4429  0.0272  1.1209
19179TIP3   OH278951   2.636   1.595  16.812 -0.1247  0.0693  0.1355
19179TIP3    H178952   2.615   1.591  16.905  0.4567  0.1552  0.2706
19179TIP3    H278953   2.623   1.687  16.789  3.0491  0.8236  0.9358
19180TIP3   OH278954   0.992   1.185  10.963 -0.2842 -0.3055  0.2669
19180TIP3    H178955   0.944   1.117  10.915  0.3121 -0.5032 -0.0684
19180TIP3    H278956   0.944   1.266  10.944 -2.0570 -0.8639  2.1279
19181TIP3   OH278957   2.617   6.560  15.794  0.4906  0.0067 -0.1573
19181TIP3    H178958   2.581   6.585  15.879  0.6048  0.4720 -0.2413
19181TIP3    H278959   2.679   6.630  15.773  1.9746 -1.1313  0.3088
19182TIP3   OH278960   2.563   3.345   1.810 -0.1803 -0.0316 -0.1998
19182TIP3    H178961   2.565   3.433   1.846  0.0338 -0.4663  0.9002
19182TIP3    H278962   2.643   3.338   1.758 -0.4858  0.6010 -0.7696
19183TIP3   OH278963   0.930   0.830   6.363  0.3103  0.6234 -0.1667
19183TIP3    H178964   0.876   0.780   6.424 -1.1556  0.4570 -1.5386
19183TIP3    H278965   0.983   0.763   6.318  0.2325  0.5756 -0.1873
19184TIP3   OH278966   0.575   0.507   2.391 -0.4083 -0.1290 -0.3198
19184TIP3    H178967   0.631   0.470   2.459 -2.2878  0.0940  1.4407
19184TIP3    H278968   0.609   0.595   2.377 -0.5853  0.1909  1.0985
19185TIP3   OH278969   4.908   3.585  15.841  0.1609 -0.3693 -0.1752
19185TIP3    H178970   4.835   3.619  15.791 -0.5232 -0.2899  0.8473
19185TIP3    H278971   4.914   3.643  15.917  1.6895  0.0053 -0.5395
19186TIP3   OH278972   0.988   2.737   3.940 -0.6606  0.2176 -0.0872
19186TIP3    H178973   0.920   2.684   3.897 -1.3976  0.4407  0.7795
19186TIP3    H278974   1.059   2.739   3.877 -0.5064 -2.0075 -0.0570
19187TIP3   OH278975   6.268   3.148  13.476 -0.0748  0.0040  0.8817
19187TIP3    H178976   6.174   3.145  13.493  0.1944 -1.4194  2.3527
19187TIP3    H278977   6.293   3.056  13.464  0.9944  0.4349 -0.4250
19188TIP3   OH278978   2.380   4.145  15.035  0.3544  0.3141  0.0947
19188TIP3    H178979   2.377   4.138  15.130 -0.2980 -0.1423  0.0459
19188TIP3    H278980   2.320   4.218  15.015  0.9578  0.8120  0.0678
19189TIP3   OH278981   1.043   3.033   1.097 -0.8511 -0.2314 -0.1975
19189TIP3    H178982   1.121   2.979   1.100 -0.6804  0.0366  1.0830
19189TIP3    H278983   0.970   2.971   1.107 -0.6467 -0.2549  1.5476
19190TIP3   OH278984   4.292   5.734   2.183  0.4738 -0.3959 -0.5117
19190TIP3    H178985   4.278   5.701   2.095  0.7228 -1.9915  0.0189
19190TIP3    H278986   4.301   5.656   2.237 -2.4815  0.4074  1.4092
19191TIP3   OH278987   3.217   4.864  12.979  0.2055 -0.0962  0.4743
19191TIP3    H178988   3.145   4.857  12.917  0.1529  1.0340  0.3874
19191TIP3    H278989   3.243   4.774  12.997 -0.5213 -0.4691 -0.3200
19192TIP3   OH278990   2.166   3.326  13.555 -0.6614 -0.0139 -1.2127
19192TIP3    H178991   2.089   3.281  13.590 -0.4157 -0.2350 -0.9453
19192TIP3    H278992   2.131   3.392  13.495 -1.2664  2.0516  1.2501
19193TIP3   OH278993   4.550   5.538  12.134  0.8241  0.0382 -0.2396
19193TIP3    H178994   4.609   5.602  12.173  1.2779 -1.0360  0.9374
19193TIP3    H278995   4.596   5.454  12.143 -1.1206 -0.9597  1.3706
19194TIP3   OH278996   2.367   2.608  11.657  0.8599  0.3384  0.6264
19194TIP3    H178997   2.315   2.631  11.733 -0.1483  0.0562  0.0376
19194TIP3    H278998   2.327   2.528  11.623  2.4065 -0.5904  0.8477
19195TIP3   OH278999   5.221   5.251   0.672  0.2141 -0.7880  0.3155
19195TIP3    H179000   5.228   5.347   0.676 -1.7699 -0.5794  0.2691
19195TIP3    H279001   5.311   5.220   0.676  0.9442  1.0959 -0.0859
19196TIP3   OH279002   1.360   4.216  15.285  0.4293 -0.0464 -0.4309
19196TIP3    H179003   1.299   4.271  15.334  1.0055 -0.1942  0.4828
19196TIP3    H279004   1.321   4.208  15.198 -0.3802  0.6192 -0.1435
19197TIP3   OH279005   2.166   4.766  15.162  0.3664  0.2420 -0.5926
19197TIP3    H179006   2.164   4.735  15.071 -0.7130 -0.0733 -0.4808
19197TIP3    H279007   2.259   4.762  15.186  0.6042 -0.1943 -1.5037
19198TIP3   OH279008   4.074   5.926  12.285 -0.0578 -0.4664  1.1299
19198TIP3    H179009   4.161   5.912  12.248 -0.4198 -2.3269  0.8797
19198TIP3    H279010   4.047   5.839  12.316 -2.3075 -0.1874  0.1512
19199TIP3   OH279011   1.014   1.537  15.626  0.4154 -0.0552 -0.6017
19199TIP3    H179012   1.075   1.485  15.677 -1.3314 -0.2995  1.3747
19199TIP3    H279013   1.025   1.626  15.660  1.5825  0.4545 -2.1946
19200TIP3   OH279014   1.580   6.639  15.234  0.1076  0.1597 -0.1514
19200TIP3    H179015   1.584   6.667  15.326  1.9249 -0.6280  0.0493
19200TIP3    H279016   1.486   6.634  15.215 -0.3478  2.6911  0.9090
19201TIP3   OH279017   1.703   4.899  16.288 -0.3488  0.4137 -0.0105
19201TIP3    H179018   1.780   4.863  16.245  0.5702  1.8458  0.3716
19201TIP3    H279019   1.701   4.858  16.374  0.2660  0.7022  0.1463
19202TIP3   OH279020   0.673   2.995   2.105 -0.1409 -0.0582 -0.0275
19202TIP3    H179021   0.595   2.957   2.066  1.8178 -5.0564  0.2089
19202TIP3    H279022   0.650   3.009   2.197 -0.5007 -2.7645  0.3605
19203TIP3   OH279023   1.751   5.598   1.832 -0.4603 -0.1697 -0.0514
19203TIP3    H179024   1.814   5.626   1.899  0.8299  0.0188 -1.3133
19203TIP3    H279025   1.666   5.627   1.866  0.1167 -0.3253  1.6273
19204TIP3   OH279026   2.084   6.074  17.003 -0.0779 -0.3197 -0.2155
19204TIP3    H179027   2.152   6.010  16.981 -1.7087 -2.6732  1.1406
19204TIP3    H279028   2.056   6.049  17.091 -1.7621  1.4391 -0.1985
19205TIP3   OH279029   1.850   2.634  13.821 -0.8053  0.7311 -0.5952
19205TIP3    H179030   1.903   2.577  13.765 -1.1967 -0.0425 -0.1985
19205TIP3    H279031   1.842   2.586  13.903  0.8518  2.4219  0.6343
19206TIP3   OH279032   2.025   0.670  11.551  0.8337  0.1824 -0.0293
19206TIP3    H179033   2.014   0.575  11.542 -0.7003  0.4035 -0.8674
19206TIP3    H279034   1.954   0.707  11.499  2.1187  1.8244 -0.7256
19207TIP3   OH279035   1.029   1.656  10.741  0.8312  0.0798  0.6072
19207TIP3    H179036   1.092   1.606  10.689 -0.5235 -0.0181 -1.0054
19207TIP3    H279037   0.968   1.693  10.677 -0.5583  0.4609  2.0788
19208TIP3   OH279038   5.265   1.210  16.072  0.5452  0.1541  0.3260
19208TIP3    H179039   5.341   1.160  16.042 -1.0124 -1.2878 -1.4328
19208TIP3    H279040   5.265   1.289  16.018  1.0822  0.4492  0.7425
19209TIP3   OH279041   6.592   2.419   6.035  0.3111  0.1459  0.3591
19209TIP3    H179042   6.573   2.358   6.106  0.6701  0.6869  0.9262
19209TIP3    H279043   6.661   2.376   5.984 -0.2609 -0.4427  0.0739
19210TIP3   OH279044   1.861   6.689  12.098  0.2113 -0.0566 -0.3803
19210TIP3    H179045   1.846   6.639  12.179 -1.1386  1.2960  0.2499
19210TIP3    H279046   1.905   6.627  12.040 -0.8240 -1.7903  0.5898
19211TIP3   OH279047   4.477   5.090  16.277 -0.3031  0.3736  0.4074
19211TIP3    H179048   4.540   5.145  16.230 -0.8718 -0.1759 -1.0330
19211TIP3    H279049   4.393   5.132  16.263 -0.3697  0.7495  1.8012
19212TIP3   OH279050   5.112   0.759  14.681  0.4957  0.0704  0.2891
19212TIP3    H179051   5.055   0.765  14.605 -0.6253  2.4809  1.2151
19212TIP3    H279052   5.149   0.670  14.676  0.3244  0.0569 -2.8866
19213TIP3   OH279053   2.561   5.408   1.571  0.2725  0.4298  0.3721
19213TIP3    H179054   2.570   5.487   1.625 -0.7404 -0.2090  1.5261
19213TIP3    H279055   2.516   5.439   1.492 -2.5532  0.6284  1.9322
19214TIP3   OH279056   6.482   1.364   3.900  0.2067 -0.2131 -0.1112
19214TIP3    H179057   6.399   1.410   3.889  1.5527  1.9137 -3.0693
19214TIP3    H279058   6.528   1.413   3.967  0.3539  0.8277 -0.9403
19215TIP3   OH279059   4.765   1.475   0.791  0.0827 -0.3659 -0.1255
19215TIP3    H179060   4.839   1.464   0.851 -0.1824  1.2325  0.5509
19215TIP3    H279061   4.688   1.470   0.848 -0.1203  2.8511  0.0299
19216TIP3   OH279062   3.755   6.731  15.746 -0.1709 -0.5885  0.2068
19216TIP3    H179063   3.682   6.788  15.719 -0.7194 -0.7304  1.3254
19216TIP3    H279064   3.713   6.660  15.794  0.7306 -0.3706  1.3770
19217TIP3   OH279065   3.995   1.794   1.137 -1.0292  0.1312  0.1107
19217TIP3    H179066   4.039   1.810   1.054  0.1787 -1.9424  0.2888
19217TIP3    H279067   3.963   1.705   1.131 -2.1898  0.4304  1.3498
19218TIP3   OH279068   4.911   2.084  15.541 -0.3037 -0.0707  0.4905
19218TIP3    H179069   4.925   2.017  15.608  1.3016 -0.2653  0.0019
19218TIP3    H279070   4.998   2.121  15.524 -0.8709  0.8940 -0.5453
19219TIP3   OH279071   3.453   4.316   4.411 -0.1602  0.7179  0.1708
19219TIP3    H179072   3.489   4.227   4.407 -0.3295  0.6219  0.7642
19219TIP3    H279073   3.365   4.307   4.376 -0.1197  0.6823  0.0775
19220TIP3   OH279074   0.159   5.560  15.480  0.6532  0.9472  0.3227
19220TIP3    H179075   0.164   5.630  15.415  0.3239  0.0771 -0.6739
19220TIP3    H279076   0.157   5.480  15.428  1.7115  0.1611  1.4644
19221TIP3   OH279077   1.245   3.200  16.020 -0.3780  0.1516 -0.0772
19221TIP3    H179078   1.226   3.200  16.114 -1.0262  2.0633 -0.1537
19221TIP3    H279079   1.168   3.160  15.980  0.5882 -2.1967  0.2413
19222TIP3   OH279080   1.338   2.866  13.798 -0.0612  0.6590 -0.1118
19222TIP3    H179081   1.422   2.821  13.794  0.1322  0.8509  1.3364
19222TIP3    H279082   1.345   2.924  13.873 -0.3973  2.9521 -1.7348
19223TIP3   OH279083   3.240   4.782   0.516  0.3741  0.3897 -0.1661
19223TIP3    H179084   3.302   4.846   0.481 -1.1051  0.7918 -2.2766
19223TIP3    H279085   3.206   4.738   0.438 -1.5875 -0.1506  0.9456
19224TIP3   OH279086   0.441   3.549   0.668  0.0291  0.2921  0.0662
19224TIP3    H179087   0.428   3.487   0.596  0.5602  1.1267 -0.7728
19224TIP3    H279088   0.513   3.513   0.719 -0.8810 -0.7234  0.6614
19225TIP3   OH279089   2.198   6.645  17.151 -0.0717  0.0741  0.3095
19225TIP3    H179090   2.163   6.709  17.090 -0.4151 -0.6411 -0.2634
19225TIP3    H279091   2.285   6.624  17.117 -0.8843 -1.5540 -0.9438
19226TIP3   OH279092   2.397   5.020  16.394  0.0036  0.2578 -0.0886
19226TIP3    H179093   2.308   5.014  16.361 -0.0083 -0.7184  0.1055
19226TIP3    H279094   2.450   4.968  16.333  0.5870  1.4604 -0.6543
19227TIP3   OH279095   6.517   3.541   0.393 -0.2679 -0.2965 -0.4593
19227TIP3    H179096   6.453   3.612   0.393 -1.5509 -1.3677  1.0542
19227TIP3    H279097   6.584   3.568   0.330 -0.6996  2.2194  0.0702
19228TIP3   OH279098   3.842   3.561  10.640  0.5169  0.1868  0.1048
19228TIP3    H179099   3.845   3.641  10.587 -0.9961  0.0029 -0.3123
19228TIP3    H279100   3.904   3.502  10.598  2.7425  1.5713  1.2426
19229TIP3   OH279101   3.991   6.663   5.514 -0.2134  0.4286 -0.3641
19229TIP3    H179102   4.057   6.614   5.464  0.7812  1.0854  0.2513
19229TIP3    H279103   4.043   6.712   5.579 -1.4597 -0.5709  1.4736
19230TIP3   OH279104   5.633   1.610  16.960 -0.5851 -0.2162  0.2159
19230TIP3    H179105   5.649   1.655  16.877 -0.1791 -0.5978  0.0908
19230TIP3    H279106   5.651   1.518  16.942 -0.8586 -0.3545  0.6301
19231TIP3   OH279107   0.459   1.535   3.665 -0.3761  0.1189  0.0508
19231TIP3    H179108   0.527   1.467   3.663 -0.1457  0.3666 -0.8054
19231TIP3    H279109   0.507   1.617   3.668 -0.6550  0.2767  0.3556
19232TIP3   OH279110   2.724   2.487  14.523  0.2595  0.0486  0.0874
19232TIP3    H179111   2.765   2.570  14.498 -1.7184  1.5001  1.3277
19232TIP3    H279112   2.631   2.500  14.506 -0.0039 -2.3489 -0.6605
19233TIP3   OH279113   3.564   0.469  14.711 -0.1320  0.2284 -0.2254
19233TIP3    H179114   3.656   0.458  14.732 -0.1027 -1.2273 -1.0443
19233TIP3    H279115   3.528   0.517  14.786  1.3992  1.4357 -0.2092
19234TIP3   OH279116   6.236   1.326   4.614  0.0382 -0.1730 -0.3200
19234TIP3    H179117   6.204   1.236   4.622 -0.5906  0.0015 -0.8354
19234TIP3    H279118   6.331   1.318   4.626  0.0948 -1.0247 -1.1764
19235TIP3   OH279119   0.546   0.282  13.936 -0.4048 -0.1702 -0.3674
19235TIP3    H179120   0.560   0.335  14.014 -1.0098 -1.2547  0.4999
19235TIP3    H279121   0.479   0.330  13.886 -2.3114 -0.9472  1.2909
19236TIP3   OH279122   1.880   1.089   2.003 -0.4418  0.3841 -0.3252
19236TIP3    H179123   1.892   1.148   1.928  0.4725  1.2602  0.4911
19236TIP3    H279124   1.805   1.125   2.050  0.3280  1.1504  0.3659
19237TIP3   OH279125   5.965   5.244   4.999 -0.0753  0.1766  0.1715
19237TIP3    H179126   6.057   5.260   5.021 -0.4547  1.5279  0.8883
19237TIP3    H279127   5.920   5.250   5.083 -1.1771  2.4553 -0.5027
19238TIP3   OH279128   5.699   5.766   4.026 -0.2211  0.1630 -0.0947
19238TIP3    H179129   5.656   5.841   3.983 -1.4005 -0.5667 -0.2370
19238TIP3    H279130   5.627   5.716   4.064  0.3729 -1.7726 -1.3778
19239TIP3   OH279131   0.826   3.512  13.762  0.3433 -1.0145  0.2624
19239TIP3    H179132   0.845   3.437  13.818 -0.3937 -0.4514  1.2721
19239TIP3    H279133   0.765   3.478  13.696 -1.2635 -0.9489  1.6609
19240TIP3   OH279134   3.708   3.066   4.661  0.3818  0.1519  0.2580
19240TIP3    H179135   3.713   3.026   4.575 -0.1950 -0.6439  0.5834
19240TIP3    H279136   3.630   3.028   4.702  1.0650 -0.0715  1.4137
19241TIP3   OH279137   1.719   3.197  11.877  0.1811 -0.6475 -0.1678
19241TIP3    H179138   1.740   3.206  11.784  1.0202 -1.2779 -0.0467
19241TIP3    H279139   1.627   3.172  11.878  0.6179 -2.4664 -0.9284
19242TIP3   OH279140   2.424   2.183  14.484  1.2749 -0.0373 -0.1847
19242TIP3    H179141   2.467   2.242  14.547  0.0087 -0.9390  1.6185
19242TIP3    H279142   2.403   2.105  14.535  0.4049 -0.9133 -1.8103
19243TIP3   OH279143   6.451   4.585   3.443  0.6189 -0.1962  0.3198
19243TIP3    H179144   6.372   4.537   3.467  1.8073 -2.0444  0.7477
19243TIP3    H279145   6.426   4.677   3.447 -1.3265 -0.7174  1.0453
19244TIP3   OH279146   6.007   4.217  15.885 -0.3420 -0.3197  0.4797
19244TIP3    H179147   6.004   4.184  15.795  0.7841 -2.1912  1.0823
19244TIP3    H279148   5.916   4.210  15.915 -0.8705  0.9980 -0.7049
19245TIP3   OH279149   2.513   2.433   0.593  0.0718 -0.0106  0.2862
19245TIP3    H179150   2.557   2.460   0.673 -0.4612  1.3245  0.1569
19245TIP3    H279151   2.421   2.425   0.617 -0.1474  0.7390 -0.2598
19246TIP3   OH279152   2.839   0.584  10.718 -0.4607  0.5605 -0.1909
19246TIP3    H179153   2.756   0.600  10.672 -0.1156 -0.7524 -1.3737
19246TIP3    H279154   2.906   0.616  10.658 -0.0913  1.1749  0.5449
19247TIP3   OH279155   1.107   5.146   2.969 -0.5998 -0.0192  0.0637
19247TIP3    H179156   1.145   5.207   3.032 -0.3812  0.1449 -0.2264
19247TIP3    H279157   1.024   5.187   2.942 -0.2292  0.3808 -0.4852
19248TIP3   OH279158   3.395   3.749  15.210 -0.3737  0.0988 -0.0113
19248TIP3    H179159   3.359   3.670  15.169 -0.7119  1.1515 -1.8581
19248TIP3    H279160   3.427   3.801  15.137  4.5406 -0.4563  1.4211
19249TIP3   OH279161   0.822   0.583   4.546 -0.3407  0.0053  0.4617
19249TIP3    H179162   0.915   0.570   4.564  0.0607  1.7570 -0.1799
19249TIP3    H279163   0.812   0.556   4.454 -0.3959  0.1471  0.4265
19250TIP3   OH279164   6.090   0.042  13.847  0.3616  0.3471 -0.0971
19250TIP3    H179165   6.064  -0.016  13.919  0.0526  1.3314  0.6091
19250TIP3    H279166   6.177   0.012  13.822 -0.5990 -1.7202 -1.1354
19251TIP3   OH279167   4.900   3.040   6.535  0.2896  0.0446 -0.2826
19251TIP3    H179168   4.807   3.018   6.546  0.1797  0.8687  0.6645
19251TIP3    H279169   4.947   2.966   6.574  0.0496 -0.5089 -1.0187
19252TIP3   OH279170   4.304   2.969   2.741  0.0457 -0.4218  0.5366
19252TIP3    H179171   4.246   2.992   2.814 -1.0642 -0.0743 -0.4251
19252TIP3    H279172   4.345   3.052   2.717  0.4298 -0.5414  0.7752
19253TIP3   OH279173   2.376   4.497  15.581 -0.5436  0.2935 -0.4888
19253TIP3    H179174   2.362   4.465  15.670  0.2115 -2.8391 -1.4018
19253TIP3    H279175   2.464   4.536  15.583 -0.1559 -0.5923 -0.0727
19254TIP3   OH279176   2.612   0.878   4.072  0.3699 -0.3433  0.0257
19254TIP3    H179177   2.657   0.934   4.135  1.2022 -1.2471  0.2717
19254TIP3    H279178   2.683   0.841   4.019 -0.3656  1.1776 -2.1453
19255TIP3   OH279179   0.706   5.716  11.801 -0.2873 -0.5938 -0.1258
19255TIP3    H179180   0.627   5.691  11.753 -1.0082  0.2313  0.5997
19255TIP3    H279181   0.692   5.683  11.890  0.3207 -0.7117 -0.0675
19256TIP3   OH279182   3.389   2.487   3.943  0.2125  0.0043  0.3491
19256TIP3    H179183   3.362   2.526   3.860  0.6281 -0.7962 -0.1848
19256TIP3    H279184   3.371   2.554   4.009 -0.1002  0.6614 -0.3895
19257TIP3   OH279185   6.652   0.370   4.600 -0.2935  0.1792  0.5595
19257TIP3    H179186   6.703   0.449   4.621  1.4398 -1.1478  1.6366
19257TIP3    H279187   6.661   0.315   4.678 -3.4358 -0.1655  0.7926
19258TIP3   OH279188   6.222   0.595  12.652  0.0616 -0.7606  0.1139
19258TIP3    H179189   6.226   0.664  12.718  1.2234  0.3822 -1.0688
19258TIP3    H279190   6.313   0.576  12.631 -0.2699 -1.3761 -0.8676
19259TIP3   OH279191   2.756   2.639  12.132  0.1237  0.3193 -0.1053
19259TIP3    H179192   2.723   2.724  12.160 -0.3950  0.6723 -1.6477
19259TIP3    H279193   2.838   2.659  12.085  0.2617 -0.0813 -0.0387
19260TIP3   OH279194   4.840   5.141  13.487 -0.0311  0.4914 -0.0548
19260TIP3    H179195   4.881   5.119  13.403  1.1391  0.3361  0.5466
19260TIP3    H279196   4.795   5.061  13.514 -0.7464  0.6551 -0.6992
19261TIP3   OH279197   6.399   4.105  16.586  0.6897 -0.0464 -0.0888
19261TIP3    H179198   6.369   4.087  16.497 -2.7351  0.1934  0.8827
19261TIP3    H279199   6.433   4.194  16.583  0.7120 -0.0869 -1.1500
19262TIP3   OH279200   4.069   4.631  11.979 -0.0099 -0.0385 -0.1458
19262TIP3    H179201   3.994   4.613  11.922  0.8392 -1.3858 -0.8854
19262TIP3    H279202   4.119   4.698  11.932 -0.2234  0.1466 -0.1160
19263TIP3   OH279203   3.778   1.738   5.506 -0.2734  0.0282 -0.2035
19263TIP3    H179204   3.708   1.682   5.472 -1.2049  1.1770 -0.2487
19263TIP3    H279205   3.857   1.707   5.462 -0.8240 -0.9878 -0.5114
19264TIP3   OH279206   4.135   3.222   4.063 -0.5655 -0.1915 -0.6759
19264TIP3    H179207   4.095   3.206   3.977  0.3553 -0.0478 -1.1423
19264TIP3    H279208   4.119   3.141   4.112 -1.2432 -0.2155 -0.9149
19265TIP3   OH279209   3.176   1.834   0.627 -0.5827 -0.3555 -0.4211
19265TIP3    H179210   3.210   1.924   0.633 -0.0811 -0.5703 -0.0195
19265TIP3    H279211   3.235   1.789   0.568 -0.8273 -0.4254 -0.6122
19266TIP3   OH279212   6.667   2.731   2.120  0.0072  0.8362 -0.2791
19266TIP3    H179213   6.660   2.812   2.070  0.1894  1.4043  0.5962
19266TIP3    H279214   6.727   2.751   2.191  0.7458 -0.3288 -0.5390
19267TIP3   OH279215   5.892   5.751  14.706 -0.7036  0.3789 -0.1933
19267TIP3    H179216   5.905   5.710  14.621 -2.0962  0.2596 -0.3730
19267TIP3    H279217   5.975   5.738  14.752  0.0672  0.4424 -1.5149
19268TIP3   OH279218   1.093   3.868  13.287 -1.0027  1.0976  0.3418
19268TIP3    H179219   1.002   3.876  13.256 -1.9122  1.1276  2.7899
19268TIP3    H279220   1.085   3.830  13.374  1.3526  1.5472  0.8164
19269TIP3   OH279221   1.220   1.895  11.299  0.2578  0.0199  0.5330
19269TIP3    H179222   1.138   1.918  11.342 -0.4326 -0.9481 -0.2071
19269TIP3    H279223   1.232   1.961  11.231 -0.5875 -0.5347 -0.1819
19270TIP3   OH279224   2.959   0.984  12.694  0.1002 -0.3478 -0.1373
19270TIP3    H179225   2.914   0.939  12.766 -0.0492  0.6851  0.4394
19270TIP3    H279226   2.895   0.983  12.622 -0.5114  0.3118  0.3830
19271TIP3   OH279227   4.878   4.877   4.221 -0.3001  0.1506 -0.1865
19271TIP3    H179228   4.812   4.931   4.265 -0.2188 -0.3953  0.6289
19271TIP3    H279229   4.852   4.879   4.129 -0.6954  1.0129 -0.0753
19272TIP3   OH279230   5.289   6.211   3.673  0.5485  0.6414  0.1702
19272TIP3    H179231   5.366   6.234   3.621  0.1529 -0.3264 -0.8852
19272TIP3    H279232   5.271   6.119   3.651 -1.7843  1.2385 -0.7771
19273TIP3   OH279233   5.726   6.325   1.821 -0.4098 -0.5678 -0.2871
19273TIP3    H179234   5.703   6.296   1.910 -1.9828 -0.2392 -0.5567
19273TIP3    H279235   5.819   6.307   1.813  0.5111  2.0883  2.4976
19274TIP3   OH279236   3.212   4.508  13.625 -0.1882  0.1463 -0.4940
19274TIP3    H179237   3.146   4.556  13.675  1.0466  0.9295  0.4485
19274TIP3    H279238   3.291   4.562  13.632  0.9729 -1.5111 -0.2816
19275TIP3   OH279239   3.532   3.952  13.812 -0.3889 -0.3806 -0.3873
19275TIP3    H179240   3.530   4.032  13.863  1.4006 -0.9917  0.7399
19275TIP3    H279241   3.625   3.929  13.807 -0.8248 -2.2119 -0.9409
19276TIP3   OH279242   5.846   3.439   4.761 -0.0674 -0.1250 -0.3079
19276TIP3    H179243   5.841   3.524   4.805 -0.8517 -0.5118  0.3635
19276TIP3    H279244   5.926   3.444   4.709 -0.0959  1.0213 -0.2654
19277TIP3   OH279245   2.237   5.093  14.049  0.4711 -0.4703  0.2660
19277TIP3    H179246   2.254   5.134  13.964  0.6384  0.2786  0.6579
19277TIP3    H279247   2.150   5.055  14.041 -1.2291  2.9663  1.0325
19278TIP3   OH279248   2.666   0.148   3.089  0.1086 -0.7655 -0.1064
19278TIP3    H179249   2.577   0.179   3.106  0.5023 -1.0891  3.3183
19278TIP3    H279250   2.655   0.080   3.023 -2.1591 -0.6079  0.0131
19279TIP3   OH279251   6.700   4.786   5.248 -0.7302 -0.1035  0.3384
19279TIP3    H179252   6.784   4.799   5.291 -0.2781 -2.9703  0.5365
19279TIP3    H279253   6.720   4.789   5.154 -0.6608  0.5533  0.3748
19280TIP3   OH279254   0.677   4.979   1.611 -0.5228  0.4868  0.0255
19280TIP3    H179255   0.767   4.970   1.645 -0.7610 -2.6400  0.0832
19280TIP3    H279256   0.630   5.022   1.682  0.6703  1.1471  0.4555
19281TIP3   OH279257   0.031   3.247  14.216 -0.3776  0.3712 -0.2156
19281TIP3    H179258   0.039   3.328  14.267 -0.7416  0.7646 -0.7655
19281TIP3    H279259  -0.059   3.217  14.232 -1.1336  1.4791 -2.0014
19282TIP3   OH279260   6.302   0.189   1.167  0.3383  0.6543 -0.1647
19282TIP3    H179261   6.311   0.114   1.227  1.1595 -0.1729 -1.2802
19282TIP3    H279262   6.354   0.258   1.209  0.1786  0.3754  0.5157
19283TIP3   OH279263   4.990   4.735  15.475 -0.1494  0.0458 -0.0485
19283TIP3    H179264   5.065   4.771  15.427 -0.5550 -0.2756 -0.9356
19283TIP3    H279265   4.917   4.791  15.451 -0.4398 -0.3612 -0.1242
19284TIP3   OH279266   0.674   4.381  15.258 -0.2561  0.2419 -0.1283
19284TIP3    H179267   0.742   4.361  15.193  1.1226 -1.8309  1.8150
19284TIP3    H279268   0.706   4.458  15.304 -0.1789  0.4206 -0.4780
19285TIP3   OH279269   1.677   4.255  16.598  0.2961 -0.6230 -0.2353
19285TIP3    H179270   1.635   4.289  16.677 -1.0773  1.5032 -1.7707
19285TIP3    H279271   1.636   4.170  16.584 -1.4608  0.1602 -0.1069
19286TIP3   OH279272   2.025   2.280  12.283  0.4853 -0.1730  0.8386
19286TIP3    H179273   1.962   2.213  12.309  1.2559 -1.0905  0.4211
19286TIP3    H279274   1.980   2.331  12.216 -0.0550 -0.3852  1.0366
19287TIP3   OH279275   0.133   5.861   3.102  0.5778  0.1841 -0.0941
19287TIP3    H179276   0.098   5.841   3.188 -1.3493 -0.0103 -0.8676
19287TIP3    H279277   0.143   5.776   3.059  0.7147  0.3366 -0.3725
19288TIP3   OH279278   1.138   1.579  13.725  0.5361 -0.2223  0.5726
19288TIP3    H179279   1.045   1.588  13.747  0.6779 -0.3042  1.2275
19288TIP3    H279280   1.144   1.608  13.634  0.3183  2.5045  1.3393
19289TIP3   OH279281   1.657   2.265   0.632 -0.1999  0.0944 -0.5012
19289TIP3    H179282   1.679   2.204   0.702  0.3121 -1.6265 -2.0626
19289TIP3    H279283   1.579   2.311   0.663  0.0350 -0.5706  1.1849
19290TIP3   OH279284   5.474   1.305   2.524  0.4879  0.5194  0.3644
19290TIP3    H179285   5.411   1.370   2.493 -0.6692 -1.0942 -0.8510
19290TIP3    H279286   5.552   1.321   2.471 -1.2325 -1.7667 -3.2733
19291TIP3   OH279287   0.246   3.711   5.219  0.0688  0.0298 -0.2456
19291TIP3    H179288   0.286   3.697   5.305  1.1161 -1.9679 -1.0082
19291TIP3    H279289   0.307   3.769   5.174 -0.5537  1.2034  0.3511
19292TIP3   OH279290   0.677   2.738   5.166 -0.2239 -0.3377 -0.1723
19292TIP3    H179291   0.672   2.646   5.137 -0.3439 -0.6331  0.7429
19292TIP3    H279292   0.631   2.739   5.250  1.0643  0.2408  0.5692
19293TIP3   OH279293   1.045   3.480   1.280  0.1717  0.2877  0.2648
19293TIP3    H179294   1.013   3.421   1.211  0.6966  1.0025 -0.6175
19293TIP3    H279295   1.025   3.434   1.362 -0.8147 -0.4133 -0.3371
19294TIP3   OH279296   0.497   3.362   2.366 -0.1221 -0.3959 -0.0447
19294TIP3    H179297   0.435   3.335   2.298 -0.4327 -1.5162  0.6480
19294TIP3    H279298   0.448   3.350   2.448  0.1866  1.0969  0.3770
19295TIP3   OH279299   4.193   2.117  13.026  0.5772  0.0476 -0.3650
19295TIP3    H179300   4.129   2.187  13.038 -1.8465 -1.8352 -1.1847
19295TIP3    H279301   4.235   2.136  12.942  1.7890  1.7609  0.5771
19296TIP3   OH279302   6.201   1.165   5.402 -0.1994 -0.1618  0.4835
19296TIP3    H179303   6.166   1.253   5.415  0.9044  0.1574  1.4337
19296TIP3    H279304   6.258   1.173   5.326  1.4898  0.4768  1.7399
19297TIP3   OH279305   2.918   4.679  12.667  0.1760 -0.5137  0.4223
19297TIP3    H179306   2.912   4.681  12.762  0.6179  0.4044  0.4372
19297TIP3    H279307   2.834   4.713  12.636  0.5299  0.4407  0.5000
19298TIP3   OH279308   3.528   3.122   2.025 -0.9588  0.0275  0.4929
19298TIP3    H179309   3.468   3.180   1.977  0.7947  1.7031  0.1990
19298TIP3    H279310   3.555   3.057   1.961 -0.1509  1.0882 -0.2854
19299TIP3   OH279311   6.560   3.814   3.554 -0.6504 -0.1135 -0.2026
19299TIP3    H179312   6.604   3.856   3.629  2.1352 -0.3859 -1.5628
19299TIP3    H279313   6.527   3.886   3.502 -0.5292  0.1752  0.1162
19300TIP3   OH279314   5.034   6.233  14.770 -0.4586  0.6841 -0.4850
19300TIP3    H179315   5.052   6.237  14.677  0.8567  1.5277 -0.2274
19300TIP3    H279316   4.975   6.307  14.786 -0.7302  0.5047 -0.6552
19301TIP3   OH279317   4.260   0.716  14.966 -0.7134 -0.5900 -0.4591
19301TIP3    H179318   4.351   0.742  14.952 -0.5738  0.4919  1.9504
19301TIP3    H279319   4.264   0.647  15.032 -1.6381 -0.4133 -0.2007
19302TIP3   OH279320   6.285   6.010   5.827 -0.0309  0.4408 -0.7923
19302TIP3    H179321   6.336   6.006   5.746  1.8635 -0.9514  0.3870
19302TIP3    H279322   6.312   6.092   5.868 -0.2764  0.6840 -1.1120
19303TIP3   OH279323   5.420   3.556  13.112  0.1370 -0.1479  0.3637
19303TIP3    H179324   5.348   3.530  13.054 -0.8291 -0.3464  1.6045
19303TIP3    H279325   5.386   3.632  13.160  1.5037  1.0241 -0.4399
19304TIP3   OH279326   1.238   2.619  12.437 -0.2981  0.4080 -0.3021
19304TIP3    H179327   1.331   2.643  12.435 -0.2637  0.3002 -0.0581
19304TIP3    H279328   1.226   2.579  12.523 -0.3085 -0.6429 -0.7737
19305TIP3   OH279329   2.033   3.422   3.128  0.4660 -0.5117  0.0766
19305TIP3    H179330   2.021   3.511   3.096 -1.4177 -0.6036  0.4391
19305TIP3    H279331   2.010   3.426   3.221 -3.1464 -1.9800 -0.5982
19306TIP3   OH279332   1.502   2.938   2.863  0.1977  0.2175 -0.1192
19306TIP3    H179333   1.551   2.962   2.784 -0.2115  0.0912 -0.4096
19306TIP3    H279334   1.570   2.931   2.931  0.6618 -0.5204 -0.6432
19307TIP3   OH279335   4.407   4.210   2.971  0.2345  0.0481  0.2210
19307TIP3    H179336   4.427   4.280   3.033 -0.0504 -0.7935  1.2940
19307TIP3    H279337   4.481   4.209   2.911  1.0197  0.2293  1.1571
19308TIP3   OH279338   6.086   5.563  17.124  0.0418  0.7397  0.4050
19308TIP3    H179339   6.079   5.474  17.090 -3.3076  1.0686 -0.1194
19308TIP3    H279340   6.144   5.556  17.199  0.0670 -1.8317  0.2213
19309TIP3   OH279341   4.130   6.070   3.085 -0.5676 -0.0027 -0.8329
19309TIP3    H179342   4.055   6.125   3.062  0.3401  1.6391  0.0222
19309TIP3    H279343   4.179   6.061   3.003 -1.0319 -0.0746 -1.1120
19310TIP3   OH279344   1.796   1.578   3.976 -0.2979 -0.4146  0.8233
19310TIP3    H179345   1.752   1.503   4.015 -2.4278  1.3436  2.0259
19310TIP3    H279346   1.769   1.652   4.030  0.6540  1.4217 -1.0795
19311TIP3   OH279347   5.433   4.095  16.540  0.4306 -0.6448  0.2652
19311TIP3    H179348   5.415   4.052  16.456 -0.3570 -0.0141  0.1018
19311TIP3    H279349   5.498   4.163  16.518  0.8708 -1.0366  0.3305
19312TIP3   OH279350   2.317   1.952   1.369  0.4412  0.1579 -0.1934
19312TIP3    H179351   2.234   1.928   1.409  0.8751 -0.3734  0.4141
19312TIP3    H279352   2.342   1.876   1.316  0.5939  0.2641 -0.2766
19313TIP3   OH279353   4.255   0.080   4.293 -0.5415  0.4536 -0.0078
19313TIP3    H179354   4.168   0.085   4.252 -0.5832 -0.3298 -0.0270
19313TIP3    H279355   4.261  -0.010   4.326  0.2769  0.4941 -0.0249
19314TIP3   OH279356   5.497   4.591  16.518 -0.1256  0.1664  0.5844
19314TIP3    H179357   5.445   4.530  16.570  0.3858  0.2779  1.2319
19314TIP3    H279358   5.448   4.673  16.522 -1.7468 -0.5663 -1.7171
19315TIP3   OH279359   0.542   4.595   0.846 -0.3078 -0.0784 -0.2518
19315TIP3    H179360   0.542   4.499   0.852 -0.4868 -0.1840 -1.7037
19315TIP3    H279361   0.450   4.619   0.860 -0.0381  0.0221  1.6225
19316TIP3   OH279362   4.711   3.070   2.380  0.5411  0.2941 -0.3456
19316TIP3    H179363   4.686   3.006   2.314 -0.0135  1.1632 -1.0110
19316TIP3    H279364   4.628   3.109   2.408  0.7719 -0.0435  0.8665
19317TIP3   OH279365   4.804   5.954  16.261  0.9711  0.1169  0.1588
19317TIP3    H179366   4.843   6.037  16.235 -0.7348  0.5910 -1.0928
19317TIP3    H279367   4.721   5.978  16.302  1.2895 -0.9075  1.4523
19318TIP3   OH279368   1.667   2.530  15.296  0.0741  0.1199  0.2349
19318TIP3    H179369   1.683   2.616  15.334 -4.1133  1.0677  0.3187
19318TIP3    H279370   1.738   2.518  15.233  1.4415  3.0700  1.0280
19319TIP3   OH279371   3.280   0.015   1.486 -0.2470  0.3018 -0.3127
19319TIP3    H179372   3.319  -0.004   1.571 -2.3776 -1.2274  0.4109
19319TIP3    H279373   3.344   0.072   1.443  1.6726 -0.2265  1.6235
19320TIP3   OH279374   3.000   5.486   5.259 -0.4239 -0.8432 -0.0731
19320TIP3    H179375   2.984   5.522   5.172 -2.0024 -0.5114  0.3209
19320TIP3    H279376   3.095   5.486   5.268 -0.2685 -0.0154 -1.4292
19321TIP3   OH279377   0.397   2.475  16.127 -0.7706  0.0991  0.1735
19321TIP3    H179378   0.471   2.438  16.080  0.1416  1.5104  0.4170
19321TIP3    H279379   0.333   2.405  16.131 -0.0857 -0.6649 -1.4295
19322TIP3   OH279380   2.692   5.971  14.962  0.1124  0.1764 -0.0558
19322TIP3    H179381   2.601   6.001  14.966  0.5967  1.5870  1.2079
19322TIP3    H279382   2.709   5.960  14.868 -1.1571  0.5072 -0.3462
19323TIP3   OH279383   1.158   1.548   5.304  0.0270 -0.4060 -0.2634
19323TIP3    H179384   1.098   1.619   5.282 -1.3948 -1.4315  0.1345
19323TIP3    H279385   1.235   1.591   5.340 -1.2348  0.8909  0.9694
19324TIP3   OH279386   4.232   0.578  15.456  0.3344  0.8197 -0.1105
19324TIP3    H179387   4.145   0.558  15.490  0.8893  1.4106  1.8035
19324TIP3    H279388   4.280   0.610  15.532  2.3457  0.1578 -1.0384
19325TIP3   OH279389   6.032   3.887  16.853 -0.1085 -0.4927  0.4330
19325TIP3    H179390   6.096   3.863  16.920  3.5076 -1.7322 -3.0650
19325TIP3    H279391   5.956   3.832  16.871  0.5293 -0.5229  3.5875
19326TIP3   OH279392   3.854   1.739   0.017  0.0759 -0.4207  0.6411
19326TIP3    H179393   3.831   1.657   0.061  0.2071 -0.3911  0.7656
19326TIP3    H279394   3.816   1.808   0.072 -0.2513 -0.4056  0.4051
19327TIP3   OH279395   5.925   3.095   1.012  0.0374  0.2579 -0.7450
19327TIP3    H179396   6.006   3.085   0.961  1.5609 -1.9064  1.8225
19327TIP3    H279397   5.859   3.048   0.962  0.7783  0.5592 -2.0459
19328TIP3   OH279398   4.527   4.790   2.086  0.0870 -0.2560  0.4454
19328TIP3    H179399   4.511   4.852   2.015  0.1300 -0.6706  0.0695
19328TIP3    H279400   4.591   4.834   2.142  3.0669 -1.4266 -1.7895
19329TIP3   OH279401   4.808   0.819  15.307  0.0382 -0.8312  0.3621
19329TIP3    H179402   4.807   0.900  15.357  0.5091  1.0874 -2.5115
19329TIP3    H279403   4.900   0.808  15.281 -0.0698 -2.1366  0.4585
19330TIP3   OH279404   0.093   5.695   0.229 -0.4780 -0.1616 -0.2542
19330TIP3    H179405   0.002   5.666   0.232 -0.8817  0.7845 -1.9472
19330TIP3    H279406   0.102   5.755   0.303 -0.8991 -1.1288  0.5969
19331TIP3   OH279407   0.677   3.138   3.162 -0.0327  0.0293 -0.3636
19331TIP3    H179408   0.636   3.078   3.225  0.4688 -0.3051 -0.3454
19331TIP3    H279409   0.711   3.210   3.215 -0.9086  0.4907 -0.4188
19332TIP3   OH279410   6.675   6.591   0.166  0.5358  0.4049 -0.0616
19332TIP3    H179411   6.590   6.595   0.123  1.2399  0.3035 -1.5561
19332TIP3    H279412   6.659   6.622   0.255 -1.2344 -0.5732  0.0107
19333TIP3   OH279413   3.405   3.553  12.963 -0.7411 -0.3782  0.1344
19333TIP3    H179414   3.431   3.478  13.017  2.5356  0.8693  0.5003
19333TIP3    H279415   3.403   3.518  12.874 -2.0539 -1.4907  0.5628
19334TIP3   OH279416   1.639   5.381   3.850  0.0542  0.0097  0.4809
19334TIP3    H179417   1.604   5.304   3.807  1.3326 -0.5953  0.4597
19334TIP3    H279418   1.734   5.375   3.837  0.2365  1.2498  1.0240
19335TIP3   OH279419   5.722   4.689   1.570 -0.1505  0.4910  0.2043
19335TIP3    H179420   5.740   4.781   1.588 -1.1025  0.8844 -0.7325
19335TIP3    H279421   5.802   4.656   1.529 -0.3546  1.3524 -0.9469
19336TIP3   OH279422   1.636   4.877   2.639 -0.1405 -0.1503 -0.8016
19336TIP3    H179423   1.599   4.954   2.683  0.8179  1.1326 -2.1180
19336TIP3    H279424   1.698   4.841   2.703 -0.4796  0.2623 -0.2276
19337TIP3   OH279425   5.137   1.662   3.401 -0.3334 -0.8814  0.0112
19337TIP3    H179426   5.224   1.623   3.405  0.3080  0.3432 -1.1842
19337TIP3    H279427   5.078   1.589   3.382  0.4343 -1.7048  0.7429
19338TIP3   OH279428   2.507   0.973  16.519 -0.1114 -0.0804  0.0624
19338TIP3    H179429   2.527   0.995  16.609 -1.8092 -0.4691  0.5725
19338TIP3    H279430   2.509   1.056  16.472 -1.4009  0.4598  0.9218
19339TIP3   OH279431   2.948   0.778  13.284 -0.5817 -0.6355  0.3438
19339TIP3    H179432   3.015   0.760  13.349  0.0047 -3.0299 -0.7892
19339TIP3    H279433   2.865   0.767  13.331 -0.1678 -1.8535  0.8274
19340TIP3   OH279434   1.544   2.991   4.657  0.6924 -0.3104  0.3176
19340TIP3    H179435   1.548   3.084   4.681  1.3556 -0.3837  0.5417
19340TIP3    H279436   1.571   2.945   4.737  1.2796 -0.6483 -0.0672
19341TIP3   OH279437   4.845   2.749   0.452  0.1439 -0.2662 -0.4144
19341TIP3    H179438   4.848   2.653   0.451  0.0792 -0.2740 -1.7714
19341TIP3    H279439   4.909   2.775   0.386 -0.5299  0.5926 -0.7419
19342TIP3   OH279440   5.239   6.127  16.128 -0.8475  0.4109 -0.0600
19342TIP3    H179441   5.331   6.150  16.139 -0.2565 -1.0477 -1.5629
19342TIP3    H279442   5.212   6.174  16.049 -0.9639 -0.2523 -0.4277
19343TIP3   OH279443   3.798   5.934  11.799 -0.6289  0.3147  0.2991
19343TIP3    H179444   3.839   5.848  11.798  0.4383  0.8069  0.3561
19343TIP3    H279445   3.818   5.971  11.714 -0.2741  0.8696  0.6197
19344TIP3   OH279446   1.320   6.466  13.609  0.1860 -0.4215 -0.2214
19344TIP3    H179447   1.381   6.397  13.584 -0.6297 -0.8352 -1.1334
19344TIP3    H279448   1.234   6.423  13.613 -0.5312  0.7120 -1.9298
19345TIP3   OH279449   6.525   2.080  17.230  0.2043 -0.7182  0.4213
19345TIP3    H179450   6.567   2.029  17.161 -0.2105 -0.5388  0.0221
19345TIP3    H279451   6.589   2.148  17.252 -0.3834  0.4519 -1.2039
19346TIP3   OH279452   2.137   0.480   6.509  0.2867  0.3825 -0.3192
19346TIP3    H179453   2.102   0.398   6.473 -0.9146  0.4843  0.5653
19346TIP3    H279454   2.223   0.489   6.467  0.1459 -0.9580 -0.9702
19347TIP3   OH279455   5.699   0.975   3.063  0.1892  0.3012 -0.4725
19347TIP3    H179456   5.743   1.027   2.996 -1.4697  1.1030 -0.9809
19347TIP3    H279457   5.705   1.027   3.142  0.1058  0.4446 -0.5594
19348TIP3   OH279458   2.002   6.223   5.233 -0.5322  0.3110 -0.2802
19348TIP3    H179459   1.926   6.267   5.195 -0.0964  0.8114 -0.6007
19348TIP3    H279460   1.991   6.231   5.327  0.6486  3.1572 -0.2938
19349TIP3   OH279461   1.568   3.517   1.046  0.0750  0.8349  0.2689
19349TIP3    H179462   1.483   3.508   1.002 -0.3203  3.5050  0.3460
19349TIP3    H279463   1.552   3.491   1.136 -1.2627  3.2730  0.8086
19350TIP3   OH279464   3.376   2.378  17.081  0.3170  0.2993 -0.8613
19350TIP3    H179465   3.393   2.296  17.035  0.9235  0.9951 -1.8990
19350TIP3    H279466   3.462   2.409  17.109 -0.0556 -0.3564  1.2568
19351TIP3   OH279467   6.030   4.497  15.801  0.3700  0.2958  0.2779
19351TIP3    H179468   6.069   4.410  15.809  0.2858  0.2222 -0.1090
19351TIP3    H279469   5.965   4.488  15.732 -0.1302  0.4944  0.7216
19352TIP3   OH279470   0.243   1.194  16.592 -0.1510  0.0902 -0.5728
19352TIP3    H179471   0.299   1.158  16.661 -0.4004 -1.1687 -1.0048
19352TIP3    H279472   0.278   1.282  16.576  0.2029  0.2209  0.8200
19353TIP3   OH279473   4.613   4.918  15.196  0.3732  0.5566 -0.2097
19353TIP3    H179474   4.587   4.993  15.144  0.2486  0.7874  0.1864
19353TIP3    H279475   4.573   4.932  15.282  1.8322  0.9470  0.4307
19354TIP3   OH279476   3.152   3.359   1.627  0.0181  0.1941 -0.0259
19354TIP3    H179477   3.231   3.310   1.607 -0.4713 -0.1800 -1.0865
19354TIP3    H279478   3.080   3.297   1.614 -0.4963  0.7103  0.2757
19355TIP3   OH279479   1.672   3.468  16.345  0.1820 -0.2457 -0.4253
19355TIP3    H179480   1.614   3.449  16.272  0.3028  0.5597 -0.7455
19355TIP3    H279481   1.701   3.382  16.377 -1.8040 -0.7020  0.2621
19356TIP3   OH279482   5.088   3.237   4.664  0.1174  0.3240 -0.2003
19356TIP3    H179483   5.163   3.253   4.607 -1.9151 -1.6910 -3.8084
19356TIP3    H279484   5.014   3.276   4.618 -1.7849 -2.1589  0.5279
19357TIP3   OH279485   2.779   4.435  16.096 -0.0924  0.0458 -0.9864
19357TIP3    H179486   2.871   4.462  16.101 -0.3751  1.2587 -1.8754
19357TIP3    H279487   2.735   4.509  16.055 -1.4809 -0.5207 -0.5583
19358TIP3   OH279488   1.173   1.406  12.213  0.2076 -0.1986 -0.2405
19358TIP3    H179489   1.166   1.404  12.308 -0.0316 -0.7049 -0.2641
19358TIP3    H279490   1.202   1.318  12.189  0.1155 -0.1216 -0.6419
19359TIP3   OH279491   5.779   3.120  14.508 -0.2429  0.0858  0.8694
19359TIP3    H179492   5.797   3.076  14.591 -1.6208  0.5231  1.4328
19359TIP3    H279493   5.691   3.090  14.484  0.9940 -1.8266 -1.6346
19360TIP3   OH279494   1.352   0.383  15.828 -0.0893 -0.1341 -0.3651
19360TIP3    H179495   1.438   0.370  15.788 -0.1567 -0.1101 -0.5210
19360TIP3    H279496   1.370   0.415  15.916  0.0605 -0.1301 -0.3976
19361TIP3   OH279497   3.206   2.501  16.929  0.2056 -0.4744  0.0709
19361TIP3    H179498   3.273   2.453  16.979  1.4113  0.5445 -0.4912
19361TIP3    H279499   3.142   2.528  16.994 -0.0451 -2.0852  0.5266
19362TIP3   OH279500   1.402   5.056  12.883 -0.2328  0.1244  0.0250
19362TIP3    H179501   1.472   5.117  12.859  0.0607  0.3905  1.4600
19362TIP3    H279502   1.321   5.101  12.860 -0.1483  2.1265  3.0547
19363TIP3   OH279503   3.744   0.156  15.460 -0.7694  0.0878  0.3623
19363TIP3    H179504   3.676   0.155  15.528  0.7009 -0.1399  1.8850
19363TIP3    H279505   3.771   0.064  15.453  1.0105  0.4702  1.5352
19364TIP3   OH279506   4.888   1.171   3.654  0.1927 -0.2833 -0.4511
19364TIP3    H179507   4.837   1.098   3.619  1.1215 -1.0275 -0.3176
19364TIP3    H279508   4.827   1.244   3.657 -0.6675 -0.9582 -0.9372
19365TIP3   OH279509   6.149   5.582   3.261 -0.5557  0.7512 -0.5045
19365TIP3    H179510   6.134   5.634   3.340 -1.3340  0.4063 -0.4109
19365TIP3    H279511   6.082   5.514   3.264  0.3565 -0.1800 -0.6946
19366TIP3   OH279512   6.275   1.437   0.661 -0.0546  0.2884 -0.0934
19366TIP3    H179513   6.358   1.483   0.644  0.2683 -0.3580 -0.3040
19366TIP3    H279514   6.222   1.453   0.583 -0.4318  1.3421  0.3634
19367TIP3   OH279515   4.402   1.904   0.300  0.5357  0.7553  0.3233
19367TIP3    H179516   4.485   1.868   0.333 -0.0144  0.0350  0.9575
19367TIP3    H279517   4.371   1.960   0.372 -0.3813 -0.3544  0.8104
19368TIP3   OH279518   2.236   1.857  16.149  0.2372  0.2792 -0.0102
19368TIP3    H179519   2.177   1.837  16.222  0.3896 -2.2445 -0.4882
19368TIP3    H279520   2.277   1.940  16.174 -1.4987  0.7294  1.6014
19369TIP3   OH279521   3.912   2.669   0.858  0.2988 -0.2632 -0.4168
19369TIP3    H179522   3.847   2.711   0.914  0.2803 -0.4146 -0.3222
19369TIP3    H279523   3.913   2.578   0.888  0.8124 -0.1808 -0.1743
19370TIP3   OH279524   0.435   2.513  15.229  0.1737  0.1393  0.1703
19370TIP3    H179525   0.345   2.548  15.233  0.3054  0.5806 -0.4631
19370TIP3    H279526   0.490   2.591  15.218  0.7096 -0.0636  1.3115
19371TIP3   OH279527   3.142   2.583   3.067 -0.2074 -0.2573 -0.0882
19371TIP3    H179528   3.136   2.611   3.158 -0.5429 -0.8015  0.0656
19371TIP3    H279529   3.143   2.664   3.017 -0.3569  0.0408  0.3811
19372TIP3   OH279530   5.408   4.566   5.471  0.9605 -0.2821 -0.2653
19372TIP3    H179531   5.497   4.546   5.499  1.5535  1.8303 -0.4644
19372TIP3    H279532   5.380   4.637   5.529 -0.9972 -1.5612  0.4479
19373TIP3   OH279533   5.804   3.687  12.257 -0.1038 -0.5967  0.8646
19373TIP3    H179534   5.798   3.604  12.305 -0.2518 -0.5248  0.9725
19373TIP3    H279535   5.858   3.742  12.313  0.5017 -0.8201  0.5053
19374TIP3   OH279536   0.827   0.571   4.269 -0.0103 -0.2330 -0.0386
19374TIP3    H179537   0.845   0.620   4.188  0.9198  0.0034  0.2954
19374TIP3    H279538   0.800   0.485   4.239 -1.1110  0.2895 -0.6261
19375TIP3   OH279539   1.553   0.203   4.378 -0.0280 -0.3549 -0.5250
19375TIP3    H179540   1.594   0.117   4.379  0.6635 -0.0797  1.7858
19375TIP3    H279541   1.586   0.244   4.298  1.3944 -1.4484 -0.5446
19376TIP3   OH279542   3.914   2.066  16.807 -0.7118  0.6187 -0.1998
19376TIP3    H179543   3.981   2.005  16.836 -0.8511 -0.3576 -1.7853
19376TIP3    H279544   3.962   2.147  16.788 -0.5882  1.2302  2.3217
19377TIP3   OH279545   3.702   5.809   4.702 -0.0768  0.7303  0.4236
19377TIP3    H179546   3.667   5.720   4.713  1.1984  0.2775  1.1621
19377TIP3    H279547   3.630   5.859   4.665 -1.4323 -0.1684  1.7412
19378TIP3   OH279548   6.701   5.842   6.709  0.8421 -0.2935 -0.0449
19378TIP3    H179549   6.648   5.806   6.779  1.3463  0.9844  1.0430
19378TIP3    H279550   6.649   5.829   6.629 -0.3156 -0.6158  0.7422
19379TIP3   OH279551   2.973   1.287  11.888 -0.1492  0.3313 -0.8615
19379TIP3    H179552   2.957   1.349  11.817 -0.3228  0.0069 -1.1081
19379TIP3    H279553   3.038   1.225  11.853 -0.2328  0.1707 -0.7393
19380TIP3   OH279554   4.979   6.020   4.632  0.1981 -0.1041  0.4700
19380TIP3    H179555   5.004   6.054   4.718  0.4976  0.7790  0.0521
19380TIP3    H279556   4.902   6.071   4.608  1.1056  0.8812 -0.5075
19381TIP3   OH279557   2.190   3.804  15.824 -0.4952  0.3566 -0.0421
19381TIP3    H179558   2.161   3.888  15.860 -0.4604  1.4002 -2.2550
19381TIP3    H279559   2.163   3.807  15.732  1.1923 -1.2436 -0.6603
19382TIP3   OH279560   3.572   3.574   0.821  0.5612  0.3311  0.4329
19382TIP3    H179561   3.494   3.557   0.769  0.9701 -0.2701  0.0021
19382TIP3    H279562   3.581   3.669   0.821 -0.4426  0.4307  0.9062
19383TIP3   OH279563   2.759   4.848   1.598 -0.2396 -0.5751  0.0858
19383TIP3    H179564   2.691   4.810   1.543  1.8174  0.1507 -3.2711
19383TIP3    H279565   2.756   4.941   1.578  0.4262 -0.2337  1.4823
19384TIP3   OH279566   1.473   0.884   0.302 -0.5202  0.2405 -0.4136
19384TIP3    H179567   1.533   0.911   0.233  0.3286 -1.5183 -0.4256
19384TIP3    H279568   1.394   0.937   0.289  0.2988  1.2030 -1.5995
19385TIP3   OH279569   5.239   2.596   0.727  0.1630 -0.0657 -0.3908
19385TIP3    H179570   5.267   2.642   0.648 -1.2989 -0.6254 -1.2620
19385TIP3    H279571   5.175   2.532   0.697 -0.6608 -0.0823  1.2716
19386TIP3   OH279572   1.369   0.645  16.928  0.2585  0.3299  0.0874
19386TIP3    H179573   1.319   0.587  16.871  0.3366 -0.7905  1.1286
19386TIP3    H279574   1.312   0.721  16.940 -0.2420  0.0659 -0.5374
19387TIP3   OH279575   1.343   0.222   0.761 -0.8320 -0.0541 -0.1581
19387TIP3    H179576   1.319   0.206   0.669 -1.0353 -1.9128  0.1882
19387TIP3    H279577   1.346   0.136   0.801  2.6498  0.3640  0.7977
19388TIP3   OH279578   5.214   6.626  14.589  0.1619  0.4190 -0.0304
19388TIP3    H179579   5.263   6.700  14.553  1.2167  0.6257  1.7103
19388TIP3    H279580   5.219   6.558  14.522  2.1825  0.7152 -0.2192
19389TIP3   OH279581   0.404   0.027   0.045 -0.6465 -0.6283 -0.2217
19389TIP3    H179582   0.389   0.092   0.114 -0.7776  0.1347 -0.9570
19389TIP3    H279583   0.482   0.057  -0.001  0.7632 -2.3137  0.9369
19390TIP3   OH279584   5.750   6.340  14.817 -0.5894 -0.0951 -0.1302
19390TIP3    H179585   5.671   6.315  14.866  0.4192 -0.7635  1.2214
19390TIP3    H279586   5.788   6.257  14.788 -0.5373  0.2406 -1.0525
19391TIP3   OH279587   6.633   1.927  17.022  0.6635  0.3478 -0.2128
19391TIP3    H179588   6.602   1.839  17.000  0.4829  0.3578 -0.0061
19391TIP3    H279589   6.624   1.977  16.941  1.3854  0.0096 -0.5125
19392TIP3   OH279590   5.038   0.961  13.520  0.6293 -0.2780 -0.1023
19392TIP3    H179591   4.962   0.992  13.470  1.4972  2.0076 -0.1176
19392TIP3    H279592   5.005   0.953  13.610  0.4787  1.3476  0.0203
19393TIP3   OH279593   0.969   0.710   5.269 -0.2068  0.0288 -0.1252
19393TIP3    H179594   0.964   0.804   5.286 -0.2185 -0.2195  1.3829
19393TIP3    H279595   0.932   0.700   5.182 -0.8495  1.3440 -0.0330
19394TIP3   OH279596   2.540   0.941   2.357 -0.0244  0.1608 -0.1130
19394TIP3    H179597   2.518   0.988   2.276  0.5198 -1.4410 -1.2318
19394TIP3    H279598   2.461   0.893   2.380  0.6711 -1.6758 -1.3625
19395TIP3   OH279599   2.789   4.054   4.025 -0.3399 -0.0704  0.2770
19395TIP3    H179600   2.784   3.987   3.957  0.3634 -0.0237  0.1699
19395TIP3    H279601   2.713   4.038   4.081  0.1653 -1.3620  0.6173
19396TIP3   OH279602   1.857   3.162   3.626  0.2495 -0.2808 -0.3118
19396TIP3    H179603   1.909   3.127   3.554  1.8808  2.2957 -0.5005
19396TIP3    H279604   1.921   3.195   3.689 -1.0423  2.6468 -0.3508
19397TIP3   OH279605   6.211   3.017  15.722  0.1403 -0.7053  0.6873
19397TIP3    H179606   6.146   3.044  15.787 -0.3211 -0.6572  0.2153
19397TIP3    H279607   6.292   3.062  15.748  0.2322 -1.4766  1.8138
19398TIP3   OH279608   4.307   6.376  14.911  0.0147  0.1933 -0.2233
19398TIP3    H179609   4.335   6.387  15.002  0.4511  1.1239 -0.4654
19398TIP3    H279610   4.264   6.458  14.888 -0.6938 -0.2854 -0.6538
19399TIP3   OH279611   5.244   3.495   0.408 -0.0358 -0.2475  0.1874
19399TIP3    H179612   5.151   3.518   0.409  0.2536  1.0566 -0.4110
19399TIP3    H279613   5.270   3.506   0.316  0.5110 -1.5427  0.1570
19400TIP3   OH279614   3.810   1.085  11.689 -0.5632 -0.1165  0.0303
19400TIP3    H179615   3.839   1.176  11.698  0.4805 -0.4338 -0.0047
19400TIP3    H279616   3.837   1.044  11.771  2.3036 -1.2512 -1.3621
19401TIP3   OH279617   0.583   3.777  14.522  0.1978  0.0428  0.1213
19401TIP3    H179618   0.545   3.747  14.440  3.8725  0.3297 -1.8877
19401TIP3    H279619   0.635   3.703  14.553  0.1208  0.4777  1.3410
19402TIP3   OH279620   1.752   3.590   4.450 -0.3234  0.6203 -1.0292
19402TIP3    H179621   1.801   3.665   4.484 -1.2336  0.3413  1.0914
19402TIP3    H279622   1.817   3.538   4.403  1.0709  1.0819  0.3036
19403TIP3   OH279623   6.315   1.100  14.162 -0.4955  0.0367 -0.3049
19403TIP3    H179624   6.388   1.146  14.204 -0.8392  2.4199 -2.0906
19403TIP3    H279625   6.238   1.152  14.185 -1.4583 -1.6250  0.3634
19404TIP3   OH279626   3.023   5.321  16.427 -0.4197  0.1508  0.1813
19404TIP3    H179627   3.029   5.391  16.492  1.5821 -0.7593  1.0859
19404TIP3    H279628   3.014   5.241  16.480 -1.5764 -0.3920 -0.7907
19405TIP3   OH279629   3.965   5.338   0.533 -0.2096  0.4216 -0.1323
19405TIP3    H179630   3.997   5.368   0.448 -1.4307 -0.4914 -0.9400
19405TIP3    H279631   4.023   5.380   0.596  0.9596  0.8222 -1.4215
19406TIP3   OH279632   0.533   0.786   5.185  0.6956 -0.2225 -0.4306
19406TIP3    H179633   0.482   0.858   5.221  0.3159 -0.5876 -0.2316
19406TIP3    H279634   0.595   0.828   5.125  1.4323  0.4058  0.7412
19407TIP3   OH279635   2.323   5.633   1.917 -0.5965 -0.1974 -0.5598
19407TIP3    H179636   2.285   5.708   1.963 -1.6682  0.6276 -2.6650
19407TIP3    H279637   2.359   5.670   1.837  3.5295 -1.1781  0.6304
19408TIP3   OH279638   4.690   4.417  14.570  0.1511  0.2998  0.5535
19408TIP3    H179639   4.730   4.458  14.648  1.0063  0.8855 -0.1661
19408TIP3    H279640   4.754   4.432  14.501 -1.9713  2.7396 -1.0881
19409TIP3   OH279641   6.210   3.373  11.248 -0.2027  0.9169  0.1464
19409TIP3    H179642   6.182   3.289  11.284  1.3340 -1.7545 -4.1443
19409TIP3    H279643   6.133   3.408  11.204  0.3925 -1.3520 -3.0032
19410TIP3   OH279644   5.093   3.294   2.879  0.3060  0.1455 -0.5947
19410TIP3    H179645   5.004   3.258   2.874  1.6399 -3.3975 -1.7264
19410TIP3    H279646   5.133   3.251   2.954  2.2271 -1.5443 -2.4553
19411TIP3   OH279647   5.527   0.940  12.776  0.5581  0.2332 -0.3809
19411TIP3    H179648   5.500   0.910  12.863  1.5788 -2.2833 -0.8661
19411TIP3    H279649   5.535   1.035  12.786 -0.6576  0.1883  1.8853
19412TIP3   OH279650   6.762   4.967  16.505 -0.0333 -0.4321 -0.3519
19412TIP3    H179651   6.840   4.987  16.453 -0.2150 -1.2605 -0.9627
19412TIP3    H279652   6.742   5.049  16.550  1.7109 -0.4476  0.5231
19413TIP3   OH279653   6.266   5.523   0.089 -0.3159 -0.3166 -0.1059
19413TIP3    H179654   6.293   5.614   0.099  0.8438 -0.6175 -0.3017
19413TIP3    H279655   6.249   5.493   0.178  0.1200 -0.1421  0.0400
19414TIP3   OH279656   3.965   2.050   4.888 -0.0631  0.1822 -0.3618
19414TIP3    H179657   3.910   1.987   4.841 -0.8269  0.0007  0.7401
19414TIP3    H279658   3.921   2.134   4.876  1.3999  0.7196 -2.5391
19415TIP3   OH279659   2.700   3.106   3.464 -0.3354 -0.1089 -0.4648
19415TIP3    H179660   2.654   3.125   3.382 -2.4405  1.9199  1.0617
19415TIP3    H279661   2.647   3.037   3.505  0.5012 -0.8529 -0.5990
19416TIP3   OH279662   0.289   2.500  14.931 -0.9193 -0.4270  0.3304
19416TIP3    H179663   0.306   2.429  14.868 -1.1614 -0.4830  0.3242
19416TIP3    H279664   0.371   2.510  14.979  0.2392  1.4894 -1.8452
19417TIP3   OH279665   6.611   2.765  12.148 -0.1860 -0.3086 -0.0639
19417TIP3    H179666   6.543   2.749  12.213 -1.1955 -0.1255 -1.0582
19417TIP3    H279667   6.693   2.762  12.198 -1.0365  2.0709  1.6537
19418TIP3   OH279668   0.370   3.384   4.302 -0.4110 -0.1918 -0.1186
19418TIP3    H179669   0.395   3.354   4.389  1.0096 -0.4636 -0.6015
19418TIP3    H279670   0.433   3.453   4.281 -1.3507  0.5712 -0.5493
19419TIP3   OH279671   3.454   0.383  16.040 -0.1543  0.6829 -0.5199
19419TIP3    H179672   3.473   0.471  16.008  2.8397  0.4839  0.4238
19419TIP3    H279673   3.429   0.395  16.132  3.1096  0.4834  0.5209
19420TIP3   OH279674   0.916   4.849  12.826  0.4942 -0.4128  0.1105
19420TIP3    H179675   0.934   4.918  12.763  0.2012  0.3000  0.7885
19420TIP3    H279676   0.862   4.891  12.893  0.2335 -1.3213  0.4885
19421TIP3   OH279677   0.869   2.687   6.099  0.0324 -0.0002 -0.0264
19421TIP3    H179678   0.892   2.608   6.148  0.9601 -0.4765 -1.1998
19421TIP3    H279679   0.800   2.728   6.152  0.9953 -0.4775  1.6717
19422TIP3   OH279680   0.533   1.354   1.174  0.2222  0.4004  0.0930
19422TIP3    H179681   0.593   1.356   1.100 -1.0475  0.8344 -0.9591
19422TIP3    H279682   0.454   1.398   1.143 -1.2317 -1.4874  0.8978
19423TIP3   OH279683   2.907   3.759  17.218  1.1013 -0.4468 -0.3301
19423TIP3    H179684   2.895   3.827  17.151 -0.2597  2.6181  2.7005
19423TIP3    H279685   2.860   3.683  17.184 -2.8167  2.1494 -1.4109
19424TIP3   OH279686   4.868   2.241   0.740  0.3831  0.2791 -0.3532
19424TIP3    H179687   4.847   2.307   0.806 -1.3060  0.2015 -0.7577
19424TIP3    H279688   4.903   2.168   0.789  0.5934  0.8026  0.2888
19425TIP3   OH279689   6.098   6.659   2.397 -0.3634 -0.2842  0.3565
19425TIP3    H179690   6.077   6.579   2.445  0.5048 -1.5218 -1.2578
19425TIP3    H279691   6.126   6.720   2.465  2.1544 -2.3932  1.3999
19426TIP3   OH279692   1.432   2.822  14.904  0.3832  0.1154  0.0087
19426TIP3    H179693   1.383   2.823  14.987  1.1437  1.7328  0.4898
19426TIP3    H279694   1.523   2.811  14.930  0.3647 -2.9031 -0.8840
19427TIP3   OH279695   6.387   6.099  13.880  0.0282  0.8470 -0.1324
19427TIP3    H179696   6.395   6.184  13.837  1.2917  0.3088 -1.0050
19427TIP3    H279697   6.388   6.035  13.809 -0.5644  0.0711  0.5325
19428TIP3   OH279698   4.825   5.447  11.021 -0.5444  0.5918 -0.1470
19428TIP3    H179699   4.775   5.409  11.093 -0.7998  1.0335 -0.0890
19428TIP3    H279700   4.786   5.409  10.942 -0.2189  0.0545 -0.0521
19429TIP3   OH279701   3.743   3.662  15.479 -0.4351 -0.0441  0.0046
19429TIP3    H179702   3.789   3.650  15.562  0.6624  1.2846 -0.3635
19429TIP3    H279703   3.740   3.757  15.468 -3.1707 -0.0790 -0.0812
19430TIP3   OH279704   6.314   1.729  14.850 -0.1275  0.4852 -0.4165
19430TIP3    H179705   6.337   1.636  14.855  2.0164  0.9513 -0.6686
19430TIP3    H279706   6.375   1.772  14.911 -0.9664  1.7479 -0.4369
19431TIP3   OH279707   5.645   3.021  15.863  0.6676 -0.0621 -0.5227
19431TIP3    H179708   5.583   3.030  15.790  0.2791  1.5973 -0.0218
19431TIP3    H279709   5.595   3.047  15.940  1.6556  0.1449  0.0601
19432TIP3   OH279710   1.561   4.019  16.545 -0.0824 -0.0885 -0.2511
19432TIP3    H179711   1.543   3.994  16.454  0.8901 -0.5383 -0.3385
19432TIP3    H279712   1.507   3.961  16.598 -1.0413  0.5217 -0.5531
19433TIP3   OH279713   0.040   4.899  16.786  0.4236  0.4247 -0.2238
19433TIP3    H179714   0.006   4.940  16.866  1.1673 -0.8048  0.7664
19433TIP3    H279715  -0.037   4.889  16.730 -0.1542  1.0899  0.4315
19434TIP3   OH279716   4.778   6.773  14.836 -0.3515 -0.2052  0.7944
19434TIP3    H179717   4.814   6.760  14.924  2.5594  1.8670  0.0466
19434TIP3    H279718   4.854   6.767  14.778 -1.5943  1.8465 -1.2058
19435TIP3   OH279719   3.227   0.817  14.064  0.5767  0.5581  0.5411
19435TIP3    H179720   3.190   0.766  13.992  0.2651  1.9935 -0.3779
19435TIP3    H279721   3.317   0.835  14.037  0.2626  1.6575  0.1606
19436TIP3   OH279722   5.635   0.654  16.351 -0.3885  0.0486  0.2732
19436TIP3    H179723   5.606   0.564  16.358  1.8135 -0.6636  1.1246
19436TIP3    H279724   5.723   0.648  16.312  0.9516  1.5518  2.7925
19437TIP3   OH279725   3.866   0.347  12.595 -0.1891  0.5244 -0.0275
19437TIP3    H179726   3.811   0.424  12.590  0.5330  1.2245  1.9756
19437TIP3    H279727   3.931   0.368  12.662  0.6699 -1.4127 -0.1891
19438TIP3   OH279728   1.914   3.572  16.012  0.4207  0.3894  0.1990
19438TIP3    H179729   1.963   3.606  16.087 -0.2893 -1.9337  1.8368
19438TIP3    H279730   1.980   3.530  15.958  0.5456 -1.0707  1.4226
19439TIP3   OH279731   0.499   5.712   1.980 -0.2880  0.1370 -0.5924
19439TIP3    H179732   0.416   5.737   1.940 -0.1924  1.0229 -0.2692
19439TIP3    H279733   0.563   5.719   1.909 -0.5736 -1.1769 -1.0061
19440TIP3   OH279734   5.354   1.627  14.847  0.0090 -0.0121 -0.7067
19440TIP3    H179735   5.321   1.544  14.813  1.0817 -0.5112 -0.5861
19440TIP3    H279736   5.416   1.601  14.915 -1.2359  0.9501  0.8453
19441TIP3   OH279737   4.784   4.338  15.766  0.2469  0.0396  0.2237
19441TIP3    H179738   4.807   4.250  15.736 -4.8148 -1.7994  0.7846
19441TIP3    H279739   4.792   4.392  15.687  2.4100 -1.0784 -0.4140
19442TIP3   OH279740   2.738   0.690  15.258  0.3507 -0.2912  0.0236
19442TIP3    H179741   2.824   0.670  15.295 -0.0644  0.0257  1.2136
19442TIP3    H279742   2.679   0.626  15.297 -0.1351  0.1722  0.0680
19443TIP3   OH279743   2.758   4.376  11.530  0.5998  0.4961 -0.1616
19443TIP3    H179744   2.674   4.400  11.490 -0.0677 -1.0241  0.2512
19443TIP3    H279745   2.817   4.363  11.456 -0.1891 -0.7227 -0.6200
19444TIP3   OH279746   0.466   2.094  17.052  0.5706  0.2759  0.0881
19444TIP3    H179747   0.404   2.100  17.124 -1.9609 -0.6488 -1.8712
19444TIP3    H279748   0.514   2.012  17.069  0.6419  0.5234  1.1514
19445TIP3   OH279749   4.809   4.984  15.425  0.2241 -0.8419  0.4497
19445TIP3    H179750   4.759   5.049  15.475  0.6815 -0.7921  0.8594
19445TIP3    H279751   4.752   4.959  15.353  0.2439  0.4106 -0.0194
19446TIP3   OH279752   4.232   6.605   0.954 -0.5060  0.2543  0.1722
19446TIP3    H179753   4.308   6.640   0.906  0.4120 -1.4313  0.3239
19446TIP3    H279754   4.257   6.614   1.046 -0.6239 -0.0351  0.2317
19447TIP3   OH279755   1.131   1.581  11.771 -0.2722 -0.4205  0.2990
19447TIP3    H179756   1.123   1.489  11.744 -1.2568 -0.4399  0.6134
19447TIP3    H279757   1.048   1.601  11.813 -0.8149  1.1545 -1.3868
19448TIP3   OH279758   4.023   6.538  12.250  0.4105  0.6079  0.4230
19448TIP3    H179759   3.961   6.551  12.178  1.4155  2.4792 -0.1567
19448TIP3    H279760   4.095   6.488  12.211  0.1426  0.0439  0.6283
19449TIP3   OH279761   6.000   5.060  13.907 -0.9325 -0.1369  0.2236
19449TIP3    H179762   6.053   5.110  13.969  0.6110  2.0926 -2.6702
19449TIP3    H279763   5.932   5.121  13.877 -1.8772 -1.2694 -0.0348
19450TIP3   OH279764   2.757   1.810   2.307  0.0660 -0.2741 -0.1172
19450TIP3    H179765   2.760   1.782   2.399  0.5050 -2.7975 -0.8097
19450TIP3    H279766   2.672   1.778   2.275 -0.6792  1.7418 -0.3306
19451TIP3   OH279767   0.109   6.292  13.256 -0.2706  0.0536 -0.4163
19451TIP3    H179768   0.147   6.207  13.232  1.6860 -0.1205  2.7062
19451TIP3    H279769   0.080   6.281  13.346  1.3257  3.0236  0.6023
19452TIP3   OH279770   1.308   2.565   3.273  0.2261 -0.9289  0.4008
19452TIP3    H179771   1.359   2.487   3.250  0.8251 -0.2499 -0.6759
19452TIP3    H279772   1.362   2.638   3.242 -1.9023 -0.2014 -1.9324
19453TIP3   OH279773   5.040   0.669   3.491 -0.5231 -0.0953  0.0569
19453TIP3    H179774   4.950   0.680   3.462  0.1277  1.1666 -1.6109
19453TIP3    H279775   5.066   0.584   3.455 -0.8238 -0.1547 -0.0247
19454TIP3   OH279776   2.051   4.183   4.606  0.0207 -0.0086 -0.0592
19454TIP3    H179777   2.010   4.191   4.520 -0.7271 -0.7391  0.2134
19454TIP3    H279778   2.059   4.274   4.636 -0.3895  0.2160 -0.5943
19455TIP3   OH279779   4.598   0.237   5.064  0.3216  0.1436 -0.4606
19455TIP3    H179780   4.617   0.279   4.981 -1.0799 -0.1507 -0.9479
19455TIP3    H279781   4.512   0.196   5.052  0.2389 -0.1802  1.0172
19456TIP3   OH279782   5.560   1.657   3.515  0.2921 -0.3261  0.4326
19456TIP3    H179783   5.612   1.617   3.445 -1.3596 -0.1821 -0.9652
19456TIP3    H279784   5.618   1.721   3.555  0.9669  0.4576 -1.6404
19457TIP3   OH279785   3.513   6.556   6.126  0.0944 -0.5361 -0.5657
19457TIP3    H179786   3.601   6.522   6.109 -0.2840 -0.6784 -2.3494
19457TIP3    H279787   3.527   6.624   6.192  1.4713 -0.8666 -0.4737
19458TIP3   OH279788   4.495   0.800   1.077 -0.2646 -0.3086  0.1410
19458TIP3    H179789   4.408   0.785   1.115 -1.9017  1.4368 -2.6069
19458TIP3    H279790   4.531   0.872   1.129 -0.0080 -1.6134  1.8650
19459TIP3   OH279791   1.775   0.545   4.394 -0.3933 -0.4786 -0.4424
19459TIP3    H179792   1.851   0.498   4.361  0.6426  0.3240  0.7371
19459TIP3    H279793   1.727   0.572   4.315  0.0435 -1.7694 -1.1712
19460TIP3   OH279794   3.992   1.842   3.901  0.0027 -0.0253 -0.3595
19460TIP3    H179795   4.039   1.777   3.954  0.1064  0.1129 -0.2825
19460TIP3    H279796   3.900   1.828   3.923  0.1176  0.7663  0.6968
19461TIP3   OH279797   4.935   5.492   0.718  0.1043  0.1306  0.8313
19461TIP3    H179798   4.944   5.497   0.623 -2.3451  1.0613  0.5831
19461TIP3    H279799   5.017   5.453   0.748  0.2264 -1.8813 -1.7942
19462TIP3   OH279800   5.437   3.451  15.680 -0.4364 -0.1355  0.2436
19462TIP3    H179801   5.360   3.399  15.656 -0.1142  0.6842 -3.1378
19462TIP3    H279802   5.402   3.537  15.700 -0.5732 -0.4157  1.2682
19463TIP3   OH279803   3.379   4.204   4.756  0.4963  0.0833  0.1673
19463TIP3    H179804   3.472   4.218   4.737 -0.2238  2.1817 -2.4811
19463TIP3    H279805   3.352   4.285   4.800  0.1609 -1.1220  2.3148
19464TIP3   OH279806   0.105   4.259   1.298 -0.4468 -0.1319  0.1614
19464TIP3    H179807   0.045   4.294   1.232  1.4009  2.4558 -0.3241
19464TIP3    H279808   0.192   4.280   1.264  0.6133 -0.1457  2.6721
19465TIP3   OH279809   5.849   5.250  11.367 -0.1366  0.0106 -0.8723
19465TIP3    H179810   5.877   5.271  11.278  0.5684  0.6028 -0.5192
19465TIP3    H279811   5.755   5.231  11.359  0.2076 -1.3499 -1.9665
19466TIP3   OH279812   3.389   4.167  14.297  0.8305 -0.1388 -0.2623
19466TIP3    H179813   3.341   4.104  14.243  0.6774 -0.5816  0.3894
19466TIP3    H279814   3.397   4.244  14.241  1.6639 -0.9778 -1.3433
19467TIP3   OH279815   2.597   2.445  14.190  0.0364 -0.0579 -0.8550
19467TIP3    H179816   2.686   2.448  14.153  0.6609 -1.9636  0.3424
19467TIP3    H279817   2.543   2.489  14.124  1.8293  1.1335 -1.6501
19468TIP3   OH279818   4.774   1.398   3.844 -0.1979 -0.1219 -0.0675
19468TIP3    H179819   4.825   1.450   3.781 -1.9050  4.2910  1.7565
19468TIP3    H279820   4.840   1.356   3.899  1.3353 -0.1041 -1.7911
19469TIP3   OH279821   2.636   4.190  14.563  0.3861 -0.0656 -0.3092
19469TIP3    H179822   2.668   4.277  14.587 -1.4352  0.3059  1.0388
19469TIP3    H279823   2.667   4.132  14.633  0.1343 -0.1422 -0.2557
19470TIP3   OH279824   1.824   1.584  14.814 -0.1222  0.3843 -0.1424
19470TIP3    H179825   1.836   1.670  14.775  0.0810 -0.1244 -1.2200
19470TIP3    H279826   1.747   1.593  14.870 -0.3681  1.1383 -0.6019
19471TIP3   OH279827   1.417   4.594  16.214 -0.3613 -0.1834  0.1887
19471TIP3    H179828   1.384   4.542  16.287  1.2731  1.4049  2.2120
19471TIP3    H279829   1.513   4.585  16.220 -0.0550  2.2989  0.1565
19472TIP3   OH279830   1.201   4.851  14.128 -0.3774  0.7439  0.0150
19472TIP3    H179831   1.129   4.793  14.152 -0.3656  0.5723 -0.3726
19472TIP3    H279832   1.175   4.889  14.044 -0.3453  1.2309  0.2210
19473TIP3   OH279833   5.969   3.717  11.999  0.2375  0.0731  0.3178
19473TIP3    H179834   5.947   3.808  11.979 -0.9357 -0.1910  0.3069
19473TIP3    H279835   5.992   3.716  12.092  0.8202  0.4748  0.1774
19474TIP3   OH279836   6.580   4.975  12.256  0.2672 -0.9687  0.0957
19474TIP3    H179837   6.615   4.893  12.292 -0.9760 -1.8289 -0.5671
19474TIP3    H279838   6.652   5.037  12.263  1.7104 -2.4732 -0.5701
19475TIP3   OH279839   6.365   0.113   2.365  0.3036 -0.5739 -0.4117
19475TIP3    H179840   6.310   0.087   2.290  0.5229  2.5871 -1.8357
19475TIP3    H279841   6.306   0.113   2.440 -1.1011  0.4483 -1.4697
19476TIP3   OH279842   3.935   6.418   3.409 -0.1941  0.1462 -0.6547
19476TIP3    H179843   4.023   6.443   3.377 -0.0880  0.1820 -0.3349
19476TIP3    H279844   3.925   6.466   3.491 -0.4259 -0.0317 -0.5786
19477TIP3   OH279845   3.973   1.000   3.278  0.4054 -0.6158  0.1054
19477TIP3    H179846   3.980   0.977   3.185 -0.4581  2.5834 -0.8862
19477TIP3    H279847   4.054   1.048   3.297 -0.3517  0.6356  0.3207
19478TIP3   OH279848   1.690   2.658   4.375  0.1694 -0.4838  0.7847
19478TIP3    H179849   1.756   2.679   4.441  1.5800 -5.0350  1.1525
19478TIP3    H279850   1.740   2.640   4.295 -0.9282 -0.8734  0.1607
19479TIP3   OH279851   2.065   0.795  12.837  0.0295 -0.4499 -0.0619
19479TIP3    H179852   2.073   0.757  12.750 -3.3792 -1.1264 -0.1972
19479TIP3    H279853   2.012   0.733  12.887  0.6308  0.6225  2.0679
19480TIP3   OH279854   4.548   6.139  16.751 -0.0778 -0.3518  0.5528
19480TIP3    H179855   4.483   6.091  16.802 -1.4202 -0.8617 -1.5272
19480TIP3    H279856   4.524   6.123  16.660  1.7396  1.1676 -0.2621
19481TIP3   OH279857   4.555   1.669  11.450 -0.1836  0.1093  0.0803
19481TIP3    H179858   4.573   1.675  11.543 -0.1768  0.6309  0.0472
19481TIP3    H279859   4.482   1.607  11.443  0.3652 -0.5828  0.3610
19482TIP3   OH279860   0.488   2.209   0.166  0.1542  0.3988  0.0959
19482TIP3    H179861   0.407   2.170   0.134  0.1721  0.2881  0.1847
19482TIP3    H279862   0.536   2.136   0.205  0.7609  0.2657 -0.8758
19483TIP3   OH279863   5.477   5.788  14.425  0.3726 -0.2268  0.2546
19483TIP3    H179864   5.535   5.858  14.453 -0.6785  0.6125  0.3703
19483TIP3    H279865   5.402   5.794  14.483  0.0011 -1.0678 -0.1286
19484TIP3   OH279866   6.579   1.234   4.256  0.5886 -0.0613 -0.1186
19484TIP3    H179867   6.518   1.286   4.308 -0.3546  0.8814 -2.0612
19484TIP3    H279868   6.636   1.193   4.321 -0.8696  0.5696  1.6785
19485TIP3   OH279869   3.651   2.647   3.244 -0.0012  0.7511  0.6882
19485TIP3    H179870   3.607   2.654   3.159  0.4459  1.8847  0.5344
19485TIP3    H279871   3.657   2.553   3.260  1.3040  0.4479 -1.2639
19486TIP3   OH279872   5.744   2.854  16.105  0.4848  0.2423 -0.1648
19486TIP3    H179873   5.813   2.852  16.038  0.5671 -0.9302 -0.0652
19486TIP3    H279874   5.678   2.914  16.069  1.8349  1.9472  0.0446
19487TIP3   OH279875   5.444   3.823   5.642 -0.6649  0.3779  0.2133
19487TIP3    H179876   5.493   3.785   5.715  1.9198  1.2021 -0.9657
19487TIP3    H279877   5.445   3.755   5.575  0.1929  0.9182 -0.3425
19488TIP3   OH279878   1.434   4.889   4.228  0.1595 -0.1341  0.4259
19488TIP3    H179879   1.477   4.860   4.308  0.1443  0.6808  0.7469
19488TIP3    H279880   1.498   4.946   4.186  0.5704 -1.3798 -0.6842
19489TIP3   OH279881   4.659   2.195  14.287  0.9047 -0.2716 -0.4444
19489TIP3    H179882   4.667   2.118  14.344 -0.7265  1.0305  1.7029
19489TIP3    H279883   4.581   2.178  14.235 -0.0853  0.2873  0.7804
19490TIP3   OH279884   4.102   6.581   0.304  0.5175  0.4734 -0.5422
19490TIP3    H179885   4.077   6.628   0.384  0.4793 -0.0715 -0.2287
19490TIP3    H279886   4.054   6.498   0.309  2.9814 -1.0175  0.5322
19491TIP3   OH279887   3.759   4.268  15.403 -0.0042 -0.3059  0.3689
19491TIP3    H179888   3.810   4.216  15.466  1.2217 -0.6773 -0.8753
19491TIP3    H279889   3.768   4.220  15.321 -0.4105  0.8974 -0.3969
19492TIP3   OH279890   3.005   1.118  15.098  0.4944 -0.3228 -0.1642
19492TIP3    H179891   2.962   1.038  15.127 -0.1668 -0.3863 -1.2436
19492TIP3    H279892   2.939   1.186  15.109  1.0821  0.0902  0.8218
19493TIP3   OH279893   1.817   4.056  17.094 -0.6157 -0.0480  0.0169
19493TIP3    H179894   1.776   4.112  17.160  1.5825  2.3553 -0.4828
19493TIP3    H279895   1.886   4.009  17.141  1.7764  2.5865 -0.6126
19494TIP3   OH279896   1.234   4.715   6.627 -0.0525 -0.1480  0.6428
19494TIP3    H179897   1.215   4.733   6.535 -2.6635 -2.7720  0.5156
19494TIP3    H279898   1.189   4.785   6.675 -3.1039 -1.4972 -0.0220
19495TIP3   OH279899   1.160   5.047  12.730 -0.2110 -0.0875  0.3337
19495TIP3    H179900   1.210   5.066  12.650 -1.2230  0.8134 -0.1080
19495TIP3    H279901   1.075   5.016  12.699 -0.6713  0.4190  1.0491
19496TIP3   OH279902   3.173   4.576  12.310  0.2835  0.0875  0.6661
19496TIP3    H179903   3.121   4.573  12.390 -2.1144  1.6654 -0.6909
19496TIP3    H279904   3.140   4.502  12.259  0.4007  0.2343  0.3780
19497TIP3   OH279905   1.367   5.932   3.910  0.1836 -0.3610  0.0571
19497TIP3    H179906   1.324   5.922   3.825 -0.6458  0.0996  0.4112
19497TIP3    H279907   1.318   6.002   3.953  2.2309  1.3187 -0.1396
19498TIP3   OH279908   2.452   4.259  16.855  0.3705 -0.5841 -0.1012
19498TIP3    H179909   2.416   4.334  16.806  0.2422 -0.2052  0.5630
19498TIP3    H279910   2.477   4.296  16.939 -0.4384 -1.4557  0.5301
19499TIP3   OH279911   0.514   3.285  16.591 -0.0120 -0.3102 -0.5177
19499TIP3    H179912   0.514   3.376  16.620  0.3552 -0.5789  0.3433
19499TIP3    H279913   0.421   3.262  16.584 -0.1156  0.2852 -1.2635
19500TIP3   OH279914   3.731   6.566  13.372 -0.1140 -0.5372 -0.4537
19500TIP3    H179915   3.696   6.624  13.304  0.8150 -0.7757 -1.1654
19500TIP3    H279916   3.818   6.601  13.391 -1.1919  0.9160  2.3197
19501TIP3   OH279917   1.649   2.200  15.715 -0.2882  0.7053  0.3529
19501TIP3    H179918   1.662   2.247  15.632  0.4280  2.0854  1.1972
19501TIP3    H279919   1.630   2.110  15.689 -0.8504  1.2622 -1.3268
19502TIP3   OH279920   3.251   6.056   3.397 -0.1250 -0.4843 -0.3913
19502TIP3    H179921   3.232   6.037   3.489 -1.4329  0.5979 -0.4159
19502TIP3    H279922   3.301   6.137   3.399  0.6094 -0.9210 -0.6038
19503TIP3   OH279923   5.723   2.699  14.675  0.1718 -0.5473  0.6176
19503TIP3    H179924   5.770   2.615  14.667  0.3196 -0.4532  0.4831
19503TIP3    H279925   5.632   2.677  14.658  0.6446 -0.0724 -3.5136
19504TIP3   OH279926   1.641   2.824   3.520  0.0402  0.3555  0.2674
19504TIP3    H179927   1.620   2.733   3.544  0.3800  0.3130  0.4103
19504TIP3    H279928   1.641   2.872   3.603  2.0580  0.0393  0.5115
19505TIP3   OH279929   0.349   1.899   0.875 -0.1490  0.3570  0.6450
19505TIP3    H179930   0.427   1.887   0.928 -0.6175  2.0590  1.7878
19505TIP3    H279931   0.315   1.810   0.861  1.1191 -0.2714  1.4495
19506TIP3   OH279932   3.829   4.884   6.514  0.0344  0.1022 -0.2125
19506TIP3    H179933   3.751   4.897   6.460  1.3907  1.3881 -2.0229
19506TIP3    H279934   3.840   4.789   6.519 -0.8377 -0.0684 -1.1914
19507TIP3   OH279935   4.173   4.026  16.297 -0.1981  0.1037 -0.4081
19507TIP3    H179936   4.245   4.089  16.298  0.7093 -0.8974  0.4083
19507TIP3    H279937   4.159   4.003  16.389 -1.3903  0.0679 -0.5753
19508TIP3   OH279938   4.387   6.416   5.891 -0.8104  0.2581  0.2923
19508TIP3    H179939   4.353   6.326   5.886  1.2658 -0.5624  0.2166
19508TIP3    H279940   4.465   6.409   5.945 -0.6117  2.0481  0.2802
19509TIP3   OH279941   6.435   2.259  15.858  0.0359 -0.2339  0.1529
19509TIP3    H179942   6.413   2.347  15.888 -0.5080 -1.3455  3.3560
19509TIP3    H279943   6.523   2.268  15.821 -0.1511  1.6970  0.0993
19510TIP3   OH279944   0.357   5.082   2.936 -0.0687  0.4057 -0.1320
19510TIP3    H179945   0.388   4.993   2.922 -0.3208  0.2336  0.4279
19510TIP3    H279946   0.393   5.131   2.862  2.0589  0.3308  0.7796
19511TIP3   OH279947   5.331   3.799  16.782  0.1922  0.1796 -0.1470
19511TIP3    H179948   5.287   3.851  16.850  0.0475  1.4775 -1.1943
19511TIP3    H279949   5.369   3.864  16.723  0.1522 -0.9140 -1.4239
19512TIP3   OH279950   4.034   3.272   0.257 -0.1028 -0.2277  0.4626
19512TIP3    H179951   4.028   3.329   0.180  0.8513 -0.0202  0.5286
19512TIP3    H279952   4.079   3.194   0.225  0.3195 -0.1313  0.8118
19513TIP3   OH279953   3.290   1.967  16.060  0.2478  0.4359  0.4640
19513TIP3    H179954   3.237   2.027  16.008  0.4097  0.3223  0.1694
19513TIP3    H279955   3.236   1.949  16.138 -0.2748  0.0969  0.0342
19514TIP3   OH279956   2.979   6.604   0.666 -0.2586 -0.2590  0.5587
19514TIP3    H179957   3.051   6.546   0.691  1.0261  0.4697 -1.2027
19514TIP3    H279958   3.020   6.691   0.657 -1.4539  0.2768  0.0456
19515TIP3   OH279959   4.203   1.348   5.222  0.4114 -0.1917  0.3414
19515TIP3    H179960   4.180   1.437   5.197 -0.5985 -0.4704  0.2553
19515TIP3    H279961   4.297   1.352   5.240  0.7471  0.5264 -1.3122
19516TIP3   OH279962   0.501   3.945   1.865  0.0575  0.0731  0.3401
19516TIP3    H179963   0.451   4.026   1.873 -0.3678 -0.0516 -0.7835
19516TIP3    H279964   0.450   3.880   1.913 -0.4867  0.1167 -0.1585
19517TIP3   OH279965   4.505   4.317  11.520  0.5687 -0.0927  0.2274
19517TIP3    H179966   4.593   4.350  11.538  0.0254  0.3823  2.3674
19517TIP3    H279967   4.472   4.290  11.606 -0.6527 -2.1458 -0.8255
19518TIP3   OH279968   0.769   5.612   1.263  0.1356  0.3332  0.0185
19518TIP3    H179969   0.832   5.565   1.209 -1.4518 -0.6801 -1.0398
19518TIP3    H279970   0.754   5.555   1.339  0.1478  0.3522  0.0350
19519TIP3   OH279971   5.238   0.309  12.380 -0.4101  0.1000 -0.2489
19519TIP3    H179972   5.188   0.236  12.343 -2.1689  1.0100  0.2226
19519TIP3    H279973   5.178   0.383  12.377  0.5225  0.9830  1.3966
19520TIP3   OH279974   3.801   6.686  15.404  0.3688 -0.2978 -0.9635
19520TIP3    H179975   3.792   6.675  15.309  2.7847 -1.5279 -1.1339
19520TIP3    H279976   3.875   6.630  15.427  0.2967  0.5406  1.5648
19521TIP3   OH279977   1.520   4.683   0.199 -0.0941 -0.2470 -0.0864
19521TIP3    H179978   1.502   4.616   0.133 -0.3067 -0.2339 -0.0413
19521TIP3    H279979   1.607   4.715   0.176 -0.4419  0.2321 -0.7714
19522TIP3   OH279980   3.906   0.659   5.841  0.5881  0.6010  0.6588
19522TIP3    H179981   3.926   0.663   5.748  0.7415  0.3172  0.6780
19522TIP3    H279982   3.957   0.731   5.879  1.5276 -0.0583  0.6936
19523TIP3   OH279983   4.356   5.939  15.516 -0.1407 -0.4103 -0.1021
19523TIP3    H179984   4.444   5.970  15.494  0.1949 -0.3582  1.1998
19523TIP3    H279985   4.311   5.932  15.432  0.0737  2.6594 -0.5705
19524TIP3   OH279986   2.779   1.799  15.377 -0.1214 -0.5871 -0.1869
19524TIP3    H179987   2.712   1.745  15.420 -0.8390 -0.1796 -0.7786
19524TIP3    H279988   2.858   1.744  15.379 -0.0086 -0.4061  2.0153
19525TIP3   OH279989   2.145   2.052   3.984 -0.5712 -0.6515  0.0311
19525TIP3    H179990   2.196   1.979   3.948 -0.3143 -0.5702  0.2329
19525TIP3    H279991   2.069   2.010   4.025  0.2220 -0.9158  1.2743
19526TIP3   OH279992   0.093   4.607  11.623  0.1499  0.3318 -0.0945
19526TIP3    H179993   0.141   4.527  11.644 -1.6579 -1.2919 -1.7692
19526TIP3    H279994   0.152   4.656  11.565  0.7254 -0.4586 -0.1964
19527TIP3   OH279995   0.231   4.805   2.500 -0.3600  0.0641 -0.3166
19527TIP3    H179996   0.310   4.848   2.466 -1.6849  1.5408 -1.7006
19527TIP3    H279997   0.204   4.859   2.574 -0.5853  0.0914 -0.4187
19528TIP3   OH279998   6.358   3.331  14.314  0.0105  0.0154  0.0338
19528TIP3    H179999   6.377   3.260  14.253 -2.3229 -3.3075  2.8127
19528TIP3    H280000   6.370   3.292  14.401 -0.7206  3.2876  1.7692
19529TIP3   OH280001   1.364   2.077  13.949 -0.2739 -0.6066  0.2524
19529TIP3    H180002   1.368   2.008  13.884 -0.1736 -0.4850  0.1288
19529TIP3    H280003   1.380   2.033  14.032 -2.0200 -1.0346  0.4030
19530TIP3   OH280004   0.888   0.244   1.930 -0.0873 -0.1396  0.0264
19530TIP3    H180005   0.928   0.264   2.015  0.3658  1.6671 -0.5858
19530TIP3    H280006   0.826   0.315   1.915  0.6383  0.1818 -1.6466
19531TIP3   OH280007   0.915   4.179  16.866 -0.0601  0.3907 -0.5545
19531TIP3    H180008   1.002   4.207  16.895 -0.6505  1.4828  0.2521
19531TIP3    H280009   0.902   4.093  16.905  0.3260  0.5908  0.0173
19532TIP3   OH280010   1.747   5.786   0.811  0.2291  0.4344  0.3473
19532TIP3    H180011   1.793   5.853   0.759  0.1950  0.5358  0.4474
19532TIP3    H280012   1.718   5.833   0.889 -2.0027  0.9231 -0.7116
19533TIP3   OH280013   0.827   6.090   1.093 -0.6855  0.7332 -0.2188
19533TIP3    H180014   0.765   6.135   1.149  0.1572  2.7891 -0.8493
19533TIP3    H280015   0.851   6.011   1.141 -2.2996  0.8863  0.8845
19534TIP3   OH280016   0.074   1.104  16.879  0.1639  0.3215 -0.3709
19534TIP3    H180017   0.091   1.025  16.828  1.3019 -0.3568  1.0010
19534TIP3    H280018  -0.021   1.104  16.893  0.0067 -0.1509 -1.3907
19535TIP3   OH280019   2.404   3.354   2.643  0.2448  0.0194 -0.5396
19535TIP3    H180020   2.354   3.342   2.561  0.2558  0.7319 -0.6592
19535TIP3    H280021   2.414   3.266   2.678  0.4535 -0.3280 -1.4369
19536TIP3   OH280022   2.738   1.922  12.944  0.5972  0.2160  0.0226
19536TIP3    H180023   2.729   1.848  12.884 -0.3925  0.2679  0.0907
19536TIP3    H280024   2.654   1.926  12.989  0.5405  1.5389 -0.1660
19537TIP3   OH280025   0.815   4.050   2.994 -0.4263 -0.1252  0.4971
19537TIP3    H180026   0.875   4.123   2.987  0.4155 -0.8531 -0.0912
19537TIP3    H280027   0.748   4.079   3.056  0.5732  0.6578  1.2317
19538TIP3   OH280028   4.038   2.801  13.148 -0.7244  0.1940  0.5543
19538TIP3    H180029   4.031   2.796  13.053  0.3216  0.4146  0.4470
19538TIP3    H280030   3.960   2.847  13.176 -0.3609  1.3930 -0.3426
19539TIP3   OH280031   6.590   0.105  15.908  0.3259 -0.1394  0.0091
19539TIP3    H180032   6.648   0.179  15.890  0.3021  0.1996  1.2343
19539TIP3    H280033   6.629   0.061  15.984 -0.1862 -0.8162 -0.1060
19540TIP3   OH280034   4.184   0.234   3.264  0.1007 -0.8175 -0.0976
19540TIP3    H180035   4.140   0.175   3.203 -0.6184 -0.8109  0.4052
19540TIP3    H280036   4.227   0.175   3.327 -1.0818 -0.8214  0.7326
19541TIP3   OH280037   6.339   2.729  13.774  0.2437 -0.4064  0.7921
19541TIP3    H180038   6.279   2.760  13.842 -2.5243 -1.6243 -0.9245
19541TIP3    H280039   6.383   2.808  13.744 -2.7057  1.1485  0.1496
19542TIP3   OH280040   2.183   5.729   0.814  0.4601 -0.2945 -0.4740
19542TIP3    H180041   2.144   5.761   0.895  0.0457 -1.1340 -0.3299
19542TIP3    H280042   2.113   5.734   0.749  1.4203  2.6582 -1.4544
19543TIP3   OH280043   0.663   0.774   2.673  0.5661  0.3724  0.2535
19543TIP3    H180044   0.682   0.754   2.581 -0.4017  1.9437 -0.3145
19543TIP3    H280045   0.722   0.846   2.694  1.1294 -0.3008  1.0387
19544TIP3   OH280046   3.987   4.668  16.049 -0.1763 -0.2653 -0.0190
19544TIP3    H180047   3.894   4.663  16.027 -0.1863 -1.3336  0.2087
19544TIP3    H280048   3.991   4.643  16.142  0.2583  0.5005  0.1708
19545TIP3   OH280049   2.540   2.643   4.669  0.2041 -0.4544 -0.0531
19545TIP3    H180050   2.614   2.694   4.636 -1.7501  1.5025 -1.7468
19545TIP3    H280051   2.484   2.630   4.593 -0.7808 -2.6897  0.9742
19546TIP3   OH280052   2.173   2.590   6.425  0.1168  0.5863  0.4375
19546TIP3    H180053   2.254   2.642   6.433 -1.2503  2.7958  0.9094
19546TIP3    H280054   2.163   2.575   6.331  1.0797  0.2789  0.3758
19547TIP3   OH280055   6.117   1.273   2.405  0.3492  0.1574  0.5674
19547TIP3    H180056   6.056   1.208   2.440  0.1402  0.6756  1.1979
19547TIP3    H280057   6.162   1.228   2.333  0.6716 -0.9083  1.3951
19548TIP3   OH280058   4.812   5.107  14.844 -0.1356 -0.7722  0.0301
19548TIP3    H180059   4.901   5.119  14.878  1.2749 -2.7716 -2.6229
19548TIP3    H280060   4.791   5.191  14.803  0.5768 -0.3391  0.5316
19549TIP3   OH280061   3.378   5.188  12.169  0.3309 -0.3935 -0.0872
19549TIP3    H180062   3.470   5.165  12.165  0.4403 -0.0419  0.3829
19549TIP3    H280063   3.345   5.144  12.248 -0.0632 -1.0725 -0.6168
19550TIP3   OH280064   6.620   1.980  12.157  0.0470  1.0766  0.0258
19550TIP3    H180065   6.625   1.922  12.081 -0.9553 -1.2516  1.6239
19550TIP3    H280066   6.615   2.068  12.120  2.5999  0.2979 -2.5235
19551TIP3   OH280067   3.637   0.986  14.237  0.1335  0.5472  0.0211
19551TIP3    H180068   3.674   0.902  14.264  0.7405  0.7436 -0.1880
19551TIP3    H280069   3.576   0.964  14.167  1.2663  0.3966 -0.9534
19552TIP3   OH280070   4.863   1.476  15.953 -0.4075  0.1768  0.6565
19552TIP3    H180071   4.786   1.529  15.973 -0.6207  0.2392 -0.2802
19552TIP3    H280072   4.929   1.539  15.925 -1.0354 -0.0833 -1.6362
19553TIP3   OH280073   2.635   1.985   1.142 -0.7200  0.3676  0.1598
19553TIP3    H180074   2.651   2.046   1.070 -0.4807  1.8010  1.3853
19553TIP3    H280075   2.677   1.903   1.114 -1.2380  0.6810 -1.6071
19554TIP3   OH280076   6.442   4.434   6.488  0.0092  0.3090  0.2522
19554TIP3    H180077   6.503   4.473   6.550  0.2637 -0.1060  0.2616
19554TIP3    H280078   6.366   4.410   6.541 -0.7054  1.9643  0.0455
19555TIP3   OH280079   4.087   0.957   5.746  0.1944  0.3545 -0.2535
19555TIP3    H180080   4.166   0.919   5.784 -0.0822  0.5927  0.5842
19555TIP3    H280081   4.116   1.041   5.710  0.7872 -0.5616 -2.0229
19556TIP3   OH280082   5.545   1.135   4.113  0.4983  0.1516 -0.2854
19556TIP3    H180083   5.510   1.217   4.148 -1.2302 -1.3046  1.6036
19556TIP3    H280084   5.477   1.102   4.055 -0.1144 -1.2970  1.1839
19557TIP3   OH280085   0.852   5.533   5.492 -0.1755 -0.2967 -0.2966
19557TIP3    H180086   0.856   5.441   5.465  0.1004 -1.2661  2.6941
19557TIP3    H280087   0.771   5.539   5.542  0.0212  0.9990 -0.1193
19558TIP3   OH280088   4.710   2.973  14.002 -0.3631  0.4378  0.1492
19558TIP3    H180089   4.715   2.885  13.966  1.3053  0.5576 -0.0102
19558TIP3    H280090   4.787   2.980  14.059  0.0970  2.0860 -0.5982
19559TIP3   OH280091   2.324   0.652   0.783 -0.9471  0.0270  0.1427
19559TIP3    H180092   2.407   0.613   0.755  0.0155  1.4219  0.9313
19559TIP3    H280093   2.293   0.596   0.854  1.3282  1.5424  2.4966
19560TIP3   OH280094   3.378   0.578  16.290  0.4235 -0.4973 -0.0118
19560TIP3    H180095   3.379   0.515  16.363  0.1121 -0.9974 -0.4355
19560TIP3    H280096   3.290   0.615  16.293 -0.1323 -1.6667 -1.0973
19561TIP3   OH280097   0.977   4.207  12.003  0.2785 -0.0208  0.0332
19561TIP3    H180098   0.919   4.153  11.949 -0.4197  0.9263 -0.2042
19561TIP3    H280099   1.065   4.185  11.973  0.1565 -2.2060  1.0643
19562TIP3   OH280100   6.064   4.277   2.043 -0.0929  0.5417 -0.3412
19562TIP3    H180101   6.074   4.199   2.098  2.0970  1.8698  1.3325
19562TIP3    H280102   6.153   4.302   2.020 -0.6106  3.1435  0.1037
19563TIP3   OH280103   0.596   3.911  10.619 -0.1274  0.1570 -0.7460
19563TIP3    H180104   0.527   3.973  10.595 -1.0533 -1.3814 -2.2890
19563TIP3    H280105   0.678   3.957  10.600 -0.7715  1.2182 -1.0181
19564TIP3   OH280106   2.674   2.181   4.268  0.0306  0.9002  0.3950
19564TIP3    H180107   2.635   2.094   4.256  2.1538  0.0371 -0.6058
19564TIP3    H280108   2.722   2.174   4.351  0.1926  1.1259  0.3197
19565TIP3   OH280109   5.372   5.522  15.654 -0.2494  0.1852  0.5011
19565TIP3    H180110   5.360   5.470  15.575  2.4036  0.4489 -0.1783
19565TIP3    H280111   5.326   5.474  15.722 -0.6000 -1.3095 -0.7352
19566TIP3   OH280112   0.281   3.491  15.139 -0.0195  0.5518 -0.5576
19566TIP3    H180113   0.297   3.400  15.165 -0.1978  0.5256 -0.5352
19566TIP3    H280114   0.354   3.540  15.176 -0.5382  0.5978  0.4537
19567TIP3   OH280115   3.435   6.642  11.091  0.6155 -0.8239 -0.2703
19567TIP3    H180116   3.390   6.558  11.080 -1.2611  0.0369  0.4240
19567TIP3    H280117   3.493   6.648  11.015 -0.1217 -2.1925 -0.9832
19568TIP3   OH280118   0.186   3.039   1.754  0.6394 -0.0142  0.0616
19568TIP3    H180119   0.169   2.945   1.746 -0.7577  0.0957  1.2533
19568TIP3    H280120   0.198   3.052   1.848  0.6043  1.0476 -0.0743
19569TIP3   OH280121   3.932   5.573   2.824 -0.6635 -0.2213  0.5396
19569TIP3    H180122   3.883   5.493   2.809  0.5767 -0.9418  0.1789
19569TIP3    H280123   3.982   5.556   2.904  2.5026 -1.3586 -1.4937
19570TIP3   OH280124   5.406   3.092  10.364 -0.3154 -0.0391 -0.0644
19570TIP3    H180125   5.491   3.084  10.408  0.8396 -0.6710 -2.3082
19570TIP3    H280126   5.410   3.176  10.319 -0.9367 -0.0309 -0.1202
19571TIP3   OH280127   1.853   5.949   5.035 -0.0393  0.2432 -0.2907
19571TIP3    H180128   1.879   6.001   4.959 -1.2008 -0.0922 -0.9313
19571TIP3    H280129   1.763   5.924   5.018 -0.5281  0.6448  1.4851
19572TIP3   OH280130   6.761   3.574  16.450 -0.0306  0.2141  0.0798
19572TIP3    H180131   6.751   3.482  16.423 -1.5825  0.1667  0.6729
19572TIP3    H280132   6.673   3.610  16.439  0.7321  1.8592 -0.8859
19573TIP3   OH280133   3.003   5.558  16.106 -0.1664 -0.0088 -0.0049
19573TIP3    H180134   2.990   5.464  16.113 -0.5279  0.0978  0.9090
19573TIP3    H280135   2.921   5.591  16.068  0.0688 -0.0896 -0.5897
19574TIP3   OH280136   0.865   6.671  16.055 -0.0712  0.7325 -0.3801
19574TIP3    H180137   0.828   6.667  15.967  0.9937  1.2439 -0.8828
19574TIP3    H280138   0.792   6.655  16.113 -0.8546  0.6613 -1.3573
19575TIP3   OH280139   1.571   6.385   3.508  0.3181 -0.1229 -0.4131
19575TIP3    H180140   1.571   6.426   3.595  1.0217 -1.2136  0.1185
19575TIP3    H280141   1.539   6.296   3.524  0.9277 -0.4933 -1.1923
19576TIP3   OH280142   2.148   0.303  12.234  0.1935 -0.1376 -0.0643
19576TIP3    H180143   2.163   0.224  12.181 -0.1617 -1.8009  2.1589
19576TIP3    H280144   2.053   0.315  12.232  0.3820  1.6610 -2.2062
19577TIP3   OH280145   2.030   1.851   1.578 -0.2566  0.0117  0.0746
19577TIP3    H180146   1.995   1.900   1.652 -0.2695 -1.1965  0.8984
19577TIP3    H280147   1.955   1.804   1.542 -0.2070  0.4140 -0.5897
19578TIP3   OH280148   0.853   4.013  10.577 -0.0617 -0.4895 -0.1432
19578TIP3    H180149   0.927   3.989  10.522 -1.5193 -1.7068 -1.6961
19578TIP3    H280150   0.873   4.102  10.607  2.2304 -0.9763 -0.0751
19579TIP3   OH280151   2.788   4.575  12.083 -0.3297 -0.2137 -0.4478
19579TIP3    H180152   2.773   4.613  11.997 -0.4530 -0.2893 -0.4599
19579TIP3    H280153   2.739   4.492  12.081 -2.0542  0.7357  0.4205
19580TIP3   OH280154   6.067   1.475   4.469 -0.0495  0.3462 -0.1590
19580TIP3    H180155   6.044   1.544   4.531 -0.8438  1.3766 -1.5498
19580TIP3    H280156   6.131   1.421   4.516 -0.8350  0.9119  1.6372
19581TIP3   OH280157   0.876   0.199   3.744 -0.2489  0.0668 -0.1711
19581TIP3    H180158   0.839   0.287   3.751 -1.5179 -0.1766 -2.7958
19581TIP3    H280159   0.912   0.181   3.831  0.7117  3.4405  0.2622
19582TIP3   OH280160   3.107   4.489   2.167  0.6578  0.2709  0.3919
19582TIP3    H180161   3.048   4.559   2.194 -0.7442 -0.2554 -1.1404
19582TIP3    H280162   3.049   4.424   2.126  2.1984 -0.7332 -0.2589
19583TIP3   OH280163   4.135   3.724   6.052  0.1053 -0.3787 -0.1860
19583TIP3    H180164   4.064   3.725   6.116  0.2644  0.7212 -0.0067
19583TIP3    H280165   4.094   3.689   5.972 -0.5674 -0.0422 -0.0005
19584TIP3   OH280166   0.673   2.028  12.598 -0.0632 -0.6182 -0.0670
19584TIP3    H180167   0.692   1.934  12.601 -1.5822 -0.9195  1.2645
19584TIP3    H280168   0.737   2.067  12.658 -1.8734 -1.3462  2.5358
19585TIP3   OH280169   5.372   1.609   0.292  0.1760 -0.2713 -0.2476
19585TIP3    H180170   5.356   1.527   0.246  0.4617 -0.4236 -0.0730
19585TIP3    H280171   5.284   1.644   0.309  0.0462 -0.6522 -0.1176
19586TIP3   OH280172   2.140   4.375  17.096 -0.2132 -0.4451 -0.0465
19586TIP3    H180173   2.146   4.281  17.081  2.8717 -0.3763  0.2921
19586TIP3    H280174   2.102   4.383  17.184  0.1501 -1.4004  0.2018
19587TIP3   OH280175   1.444   6.469   5.377  0.0298 -0.5160  0.2091
19587TIP3    H180176   1.452   6.389   5.326 -1.4375  0.3916 -1.5808
19587TIP3    H280177   1.518   6.523   5.349  0.8881 -1.1043  1.2492
19588TIP3   OH280178   5.293   2.432   4.053 -0.1008 -0.5296 -0.0699
19588TIP3    H180179   5.275   2.480   4.134 -0.7368 -0.7032 -0.1001
19588TIP3    H280180   5.215   2.379   4.039  1.0589 -2.5241  0.6132
19589TIP3   OH280181   4.644   6.089  10.373  0.3798 -0.2522 -0.0127
19589TIP3    H180182   4.716   6.028  10.383  0.8846  0.3500  0.0583
19589TIP3    H280183   4.633   6.128  10.459  0.0517 -0.2426 -0.0565
19590TIP3   OH280184   1.863   5.967   2.026  0.1631 -0.6061  0.0548
19590TIP3    H180185   1.911   6.012   2.096  1.5152 -0.8407 -0.6980
19590TIP3    H280186   1.917   5.978   1.948 -0.9529 -0.9975 -0.8069
19591TIP3   OH280187   0.846   5.416  13.676 -0.1806 -0.3330  0.3638
19591TIP3    H180188   0.912   5.485  13.672 -0.5413  0.0764  1.2245
19591TIP3    H280189   0.791   5.431  13.599  1.3001 -1.3044 -0.9475
19592TIP3   OH280190   1.545   5.310  12.578 -0.0629 -0.4134  0.2799
19592TIP3    H180191   1.516   5.401  12.586  0.3290 -0.3634  1.2039
19592TIP3    H280192   1.616   5.313  12.514 -1.7335 -0.4780 -1.7245
19593TIP3   OH280193   1.029   5.227  15.357  0.1435 -0.9575 -0.4456
19593TIP3    H180194   1.124   5.242  15.361  0.1140 -0.4026 -1.4973
19593TIP3    H280195   1.001   5.232  15.448  0.7720  1.4110 -0.3174
19594TIP3   OH280196   4.629   0.689  13.842  0.0976 -0.1767 -0.0858
19594TIP3    H180197   4.577   0.741  13.903  1.0851  0.4020  0.2749
19594TIP3    H280198   4.569   0.669  13.770 -0.8177 -0.1123  0.6491
19595TIP3   OH280199   3.303   0.783  12.089 -0.4291 -0.1651 -0.0994
19595TIP3    H180200   3.271   0.696  12.110 -1.7734  0.5301  0.8797
19595TIP3    H280201   3.277   0.837  12.164  2.9190  0.5317  0.7289
19596TIP3   OH280202   4.200   6.148   3.699 -1.0391  0.0868 -0.4387
19596TIP3    H180203   4.110   6.138   3.670 -0.7186 -1.4174 -0.9827
19596TIP3    H280204   4.227   6.234   3.665 -0.9231 -1.2018 -4.0104
19597TIP3   OH280205   5.130   2.179  15.982  0.3472  0.1791 -0.1630
19597TIP3    H180206   5.220   2.165  16.011  0.8498  0.2249 -1.5890
19597TIP3    H280207   5.092   2.239  16.046  1.2152 -0.1451  0.6631
19598TIP3   OH280208   3.996   5.058  15.181 -0.4864 -0.2324 -0.3986
19598TIP3    H180209   4.057   5.120  15.141  1.0081 -0.6085  1.1700
19598TIP3    H280210   3.942   5.113  15.239 -2.6183  0.3032 -2.7434
19599TIP3   OH280211   4.751   1.857  15.720  0.0316  0.8095  0.1356
19599TIP3    H180212   4.818   1.869  15.787 -0.0840  0.9655  0.2255
19599TIP3    H280213   4.691   1.792  15.757  1.6725 -1.5531 -1.1317
19600TIP3   OH280214   0.245   5.829  12.670  0.1263 -0.2028  0.5786
19600TIP3    H180215   0.281   5.889  12.736  0.3330  0.4232 -0.0982
19600TIP3    H280216   0.158   5.807  12.703  0.3365 -0.1192  1.2050
19601TIP3   OH280217   5.061   0.745   0.973 -0.5300 -0.1471 -0.0847
19601TIP3    H180218   5.077   0.801   0.897  1.4029  1.0006  1.0933
19601TIP3    H280219   4.988   0.787   1.019 -2.4282 -1.4236 -1.7530
19602TIP3   OH280220   1.543   1.550   6.113 -0.6430  0.0812 -0.1306
19602TIP3    H180221   1.609   1.507   6.168 -1.0101 -0.8111 -0.3751
19602TIP3    H280222   1.513   1.481   6.053 -0.8785  0.8148 -0.8684
19603TIP3   OH280223   5.757   4.684   4.266 -0.1074  0.2155  0.0916
19603TIP3    H180224   5.764   4.706   4.358 -1.2867  1.8992 -0.1817
19603TIP3    H280225   5.784   4.592   4.261 -0.4736 -0.0444  2.1553
19604TIP3   OH280226   3.173   0.930   2.308  0.0629  0.0860  1.0091
19604TIP3    H180227   3.212   0.911   2.223 -0.8666 -2.2174  1.0311
19604TIP3    H280228   3.089   0.970   2.288  0.0140 -0.0919  0.8621
19605TIP3   OH280229   2.877   2.784  13.848 -0.1531 -0.0634 -0.2677
19605TIP3    H180230   2.904   2.858  13.903  0.2839 -0.8153  0.5670
19605TIP3    H280231   2.860   2.713  13.910 -2.1427 -0.2106 -0.9287
19606TIP3   OH280232   0.449   0.098   5.418 -0.0135 -0.5547 -0.1369
19606TIP3    H180233   0.447   0.095   5.322  1.2982 -2.2144 -0.1612
19606TIP3    H280234   0.540   0.121   5.439 -0.3998  0.2409  0.7211
19607TIP3   OH280235   2.105   2.790  13.168  0.5527  0.1701 -0.4807
19607TIP3    H180236   2.184   2.843  13.164  1.1166 -0.6258 -0.0109
19607TIP3    H280237   2.116   2.735  13.246  0.1549 -0.9029 -1.1630
19608TIP3   OH280238   5.364   1.417  15.910  0.1649  0.0841  0.0564
19608TIP3    H180239   5.333   1.507  15.900  2.6784  0.9740 -0.3333
19608TIP3    H280240   5.455   1.426  15.937  0.1152 -2.3710  1.3076
19609TIP3   OH280241   2.364   2.208   2.458 -0.2908  0.8147  0.1940
19609TIP3    H180242   2.311   2.130   2.442  0.6384  0.3008 -0.5105
19609TIP3    H280243   2.304   2.281   2.443 -1.5669  0.2802  2.2406
19610TIP3   OH280244   2.017   1.862   0.882  0.3294  0.2098  0.2676
19610TIP3    H180245   2.096   1.808   0.877  1.8145  2.3876 -2.5645
19610TIP3    H280246   2.028   1.912   0.963  0.1409 -1.8607  1.6331
19611TIP3   OH280247   5.462   4.349   5.027  0.2546 -0.5043  0.0501
19611TIP3    H180248   5.486   4.384   5.113  0.8991  0.1900 -0.3936
19611TIP3    H280249   5.434   4.426   4.978 -2.0706 -1.1569  0.2446
19612TIP3   OH280250   0.467   5.520   4.968 -0.4484 -0.5893  0.0120
19612TIP3    H180251   0.394   5.460   4.978 -0.2278 -0.5065  3.2924
19612TIP3    H280252   0.543   5.471   4.998 -0.3616  1.3087  3.4423
19613TIP3   OH280253   4.009   1.924   3.110  0.1761 -0.5846 -0.1575
19613TIP3    H180254   4.056   1.969   3.179  0.9163 -0.1820 -0.9069
19613TIP3    H280255   4.077   1.884   3.056 -0.3193  0.0968 -1.3282
19614TIP3   OH280256   3.527   2.112   2.589  0.7435 -0.0445  0.6833
19614TIP3    H180257   3.455   2.174   2.574  1.3398  0.5205  0.0823
19614TIP3    H280258   3.597   2.142   2.530  0.6801 -1.9176 -0.4139
19615TIP3   OH280259   6.539   3.242   2.609  0.7256  0.2406  0.0652
19615TIP3    H180260   6.536   3.284   2.695 -1.5240  0.9644 -0.2923
19615TIP3    H280261   6.468   3.178   2.611 -1.3288  2.2255 -2.1242
19616TIP3   OH280262   0.331   0.968   0.692 -0.4466  0.1084  0.1531
19616TIP3    H180263   0.283   0.885   0.692 -2.3208  1.1493  0.2420
19616TIP3    H280264   0.345   0.987   0.785  2.9444 -1.6342  0.1913
19617TIP3   OH280265   5.869   3.141   3.920 -0.4014  0.3926 -0.9528
19617TIP3    H180266   5.784   3.135   3.964  0.8548 -0.5484  1.5164
19617TIP3    H280267   5.873   3.063   3.865 -0.2106 -0.8435  0.7593
19618TIP3   OH280268   6.361   1.974   0.196  0.7232  0.0313  0.4793
19618TIP3    H180269   6.400   1.948   0.279  1.8142 -0.8540 -0.2787
19618TIP3    H280270   6.422   2.039   0.161  1.0430 -0.6801 -0.2978
19619TIP3   OH280271   1.101   4.735  15.446  0.2021 -0.2037  0.5940
19619TIP3    H180272   1.029   4.764  15.390  0.1970 -1.6070 -0.1999
19619TIP3    H280273   1.131   4.814  15.490  0.1948  0.9737 -1.3992
19620TIP3   OH280274   5.157   3.029   5.450 -0.4563  0.2861 -0.4195
19620TIP3    H180275   5.196   3.033   5.537  0.3293  0.3310 -0.7589
19620TIP3    H280276   5.187   3.109   5.407  0.0491 -0.2378 -1.0748
19621TIP3   OH280277   5.476   6.768  12.796  0.1100 -0.4770 -0.1618
19621TIP3    H180278   5.548   6.774  12.733  0.8482  0.7478  0.7452
19621TIP3    H280279   5.412   6.711  12.754  1.2452 -0.9235 -1.3530
19622TIP3   OH280280   3.422   3.927  12.308 -0.2393  0.5163  0.2798
19622TIP3    H180281   3.381   4.001  12.264  0.0815  0.1886 -0.5840
19622TIP3    H280282   3.421   3.856  12.244  1.9818  0.6011  0.0709
19623TIP3   OH280283   4.810   4.831  12.221 -0.2816  0.7961  0.4016
19623TIP3    H180284   4.854   4.865  12.143  0.8304 -0.1321  0.6021
19623TIP3    H280285   4.823   4.899  12.288 -1.5966  1.7894 -0.2929
19624TIP3   OH280286   5.879   3.928   0.375 -0.9270  0.0847 -0.3737
19624TIP3    H180287   5.848   3.871   0.305  0.5465  0.3189 -1.2643
19624TIP3    H280288   5.808   3.929   0.439 -1.3434 -2.0167 -0.7512
19625TIP3   OH280289   3.604   0.688   1.290  0.3906  0.3490 -0.1905
19625TIP3    H180290   3.633   0.641   1.212 -1.0343 -1.5468  0.3353
19625TIP3    H280291   3.509   0.682   1.288  0.3024  0.5020  1.5229
19626TIP3   OH280292   1.511   4.090   2.359 -0.1209  0.8605  0.1844
19626TIP3    H180293   1.422   4.059   2.347 -0.5694  1.4006  1.8059
19626TIP3    H280294   1.503   4.163   2.422  1.5939 -0.0495  1.5549
19627TIP3   OH280295   6.333   5.317  15.101  0.6561 -0.4326  0.0131
19627TIP3    H180296   6.341   5.346  15.010  1.6616  0.1509  0.2704
19627TIP3    H280297   6.354   5.223  15.097  0.3896 -0.4785 -0.4017
19628TIP3   OH280298   5.906   5.905   2.100 -0.3581 -0.6382  1.0494
19628TIP3    H180299   5.948   5.886   2.016 -0.2841 -1.5589  1.2789
19628TIP3    H280300   5.906   6.000   2.107  0.2277 -0.5810  0.3027
19629TIP3   OH280301   2.217   0.183  16.383 -0.1654  1.0081 -0.1616
19629TIP3    H180302   2.174   0.193  16.298 -3.0440  1.9372  1.2727
19629TIP3    H280303   2.257   0.268  16.400 -1.1320  1.4072  0.1634
19630TIP3   OH280304   2.678   2.869  12.238  0.2371 -0.1811  0.1897
19630TIP3    H180305   2.608   2.913  12.190 -0.1062 -0.8269  0.0828
19630TIP3    H280306   2.639   2.844  12.321  1.4984  3.0988  1.9298
19631TIP3   OH280307   0.650   1.652  11.883 -0.5699 -0.2841  0.0371
19631TIP3    H180308   0.609   1.733  11.914  0.7391  0.8631 -1.1064
19631TIP3    H280309   0.579   1.588  11.883 -1.2094  0.2943  2.8550
19632TIP3   OH280310   1.874   6.659   1.736 -0.1161  0.7176  0.2154
19632TIP3    H180311   1.892   6.660   1.830  0.9681  2.4464  0.0385
19632TIP3    H280312   1.784   6.629   1.729 -0.2232  0.5752  1.8057
19633TIP3   OH280313   2.353   0.203  15.599  0.3809 -0.2037  0.2854
19633TIP3    H180314   2.282   0.181  15.538  0.8895 -0.1607 -0.3294
19633TIP3    H280315   2.308   0.222  15.682 -0.6372  2.6439 -0.7750
19634TIP3   OH280316   0.021   3.671   3.833 -1.3647 -0.0315 -0.4718
19634TIP3    H180317  -0.059   3.656   3.884 -0.7108 -1.5387  0.1362
19634TIP3    H280318   0.088   3.619   3.876 -0.1786  0.7243 -1.3464
19635TIP3   OH280319   3.078   1.112   2.601  0.2470  0.2142  0.3224
19635TIP3    H180320   3.068   1.167   2.524 -0.1087 -1.0356 -0.5402
19635TIP3    H280321   3.171   1.088   2.602  0.3478  0.5903  0.5589
19636TIP3   OH280322   2.849   2.864   3.937  0.0438 -0.0058  0.0359
19636TIP3    H180323   2.811   2.781   3.909 -2.6836  2.1098 -3.3058
19636TIP3    H280324   2.934   2.867   3.893 -0.4089 -0.4470 -0.8775
19637TIP3   OH280325   4.808   5.044   1.159 -0.5393  0.1783  0.0998
19637TIP3    H180326   4.733   5.036   1.100 -0.7357 -0.5040  0.4342
19637TIP3    H280327   4.844   4.955   1.164  0.3026  0.4951 -0.0672
19638TIP3   OH280328   4.508   0.315  16.781 -0.0646 -0.4213  0.0144
19638TIP3    H180329   4.578   0.324  16.845 -0.6031  0.1851  0.5375
19638TIP3    H280330   4.478   0.224  16.791  0.0245 -0.4056  0.4440
19639TIP3   OH280331   3.504   6.401   1.545  0.3124  0.2382  0.1147
19639TIP3    H180332   3.464   6.346   1.613  0.6541 -0.7772 -0.4790
19639TIP3    H280333   3.598   6.385   1.554  0.2901 -1.4674 -1.8046
19640TIP3   OH280334   6.613   6.537  12.605 -0.1986 -0.0407  0.3721
19640TIP3    H180335   6.564   6.580  12.535  1.4545  0.7614 -0.3712
19640TIP3    H280336   6.654   6.610  12.653 -0.6879 -0.6189  1.7283
19641TIP3   OH280337   2.788   2.731  15.901  0.6237  0.3947 -0.1237
19641TIP3    H180338   2.850   2.665  15.932 -0.0851 -0.0707  0.3248
19641TIP3    H280339   2.797   2.803  15.963  2.4405  1.3686 -1.4198
19642TIP3   OH280340   1.963   6.494  12.509  0.2455  0.2603  0.0043
19642TIP3    H180341   1.985   6.430  12.576 -1.5818  0.9807  1.3734
19642TIP3    H280342   2.047   6.515  12.467  1.0698 -1.9885  0.4146
19643TIP3   OH280343   4.005   5.919  11.218 -0.3828  0.6888  0.0148
19643TIP3    H180344   3.918   5.932  11.255  0.0065  0.2291  1.1361
19643TIP3    H280345   4.056   5.880  11.289  0.2324 -0.8410 -1.2167
19644TIP3   OH280346   4.894   4.091  11.580 -0.1096 -0.5176 -0.0024
19644TIP3    H180347   4.799   4.095  11.566  0.1602  0.1662 -1.9629
19644TIP3    H280348   4.912   4.161  11.642 -0.6898  0.5709 -1.0245
19645TIP3   OH280349   0.695   0.073  14.456 -0.0735 -0.1492  0.2185
19645TIP3    H180350   0.768   0.085  14.395  0.4113  1.0560  0.9852
19645TIP3    H280351   0.727   0.110  14.538 -1.5290  0.3295  0.5926
19646TIP3   OH280352   2.774   3.888   3.813 -0.3647  0.3283 -0.3399
19646TIP3    H180353   2.692   3.840   3.828  0.1590 -0.0089  1.6810
19646TIP3    H280354   2.841   3.820   3.806 -0.1908  0.6140 -1.7936
19647TIP3   OH280355   5.578   6.708   1.970  0.4350  0.1689  0.5724
19647TIP3    H180356   5.648   6.744   2.024  0.7954 -2.5036  2.0529
19647TIP3    H280357   5.518   6.665   2.032  1.0620 -3.3620 -0.9882
19648TIP3   OH280358   4.993   6.064  13.789 -0.2425  0.2982 -0.6437
19648TIP3    H180359   4.966   5.972  13.797  0.2846  0.0312 -1.7952
19648TIP3    H280360   5.055   6.077  13.861 -0.3641 -0.2313 -0.4378
19649TIP3   OH280361   3.969   2.627  13.359  0.1703  0.3885 -0.0218
19649TIP3    H180362   3.892   2.601  13.308  1.0661  0.6055 -1.5548
19649TIP3    H280363   4.005   2.702  13.311  1.4812  0.1389  0.5250
19650TIP3   OH280364   6.511   2.266   1.528 -0.0631  0.2249  0.3584
19650TIP3    H180365   6.431   2.318   1.537  0.9306  1.6426  1.4677
19650TIP3    H280366   6.563   2.312   1.462  0.8648  0.7357  1.4151
19651TIP3   OH280367   4.052   4.905  16.997 -0.5425 -0.2932 -0.1992
19651TIP3    H180368   4.117   4.851  17.041  0.6771 -1.1176 -2.8035
19651TIP3    H280369   4.099   4.987  16.978 -0.9411 -0.0651 -0.1989
19652TIP3   OH280370   5.546   4.161   1.516  0.0546  0.0640 -0.0078
19652TIP3    H180371   5.582   4.242   1.553 -1.0160  0.7363 -0.3897
19652TIP3    H280372   5.471   4.190   1.464  0.0849 -1.1066 -0.7419
19653TIP3   OH280373   0.341   4.581   1.319 -0.2580  0.0064  0.1176
19653TIP3    H180374   0.262   4.628   1.293 -0.4405 -0.8099 -0.8759
19653TIP3    H280375   0.413   4.626   1.276 -0.4678 -0.7923 -1.1225
19654TIP3   OH280376   4.267   5.725  11.244 -0.7344  0.1948  0.6042
19654TIP3    H180377   4.349   5.675  11.248 -1.3640 -0.8730  0.6353
19654TIP3    H280378   4.293   5.812  11.215  0.2690 -0.4752 -0.5784
19655TIP3   OH280379   2.821   6.745  13.099  0.9670  0.5728 -0.5170
19655TIP3    H180380   2.854   6.808  13.163 -0.6610  0.7018  0.2304
19655TIP3    H280381   2.737   6.716  13.134  0.9187 -0.7932 -1.6618
19656TIP3   OH280382   5.429   6.308  15.491 -0.4877  0.7130 -0.7333
19656TIP3    H180383   5.417   6.262  15.407 -1.1542 -1.5501  0.5149
19656TIP3    H280384   5.422   6.239  15.557  1.6672  2.1655  1.1442
19657TIP3   OH280385   4.567   2.211   5.490 -0.6415 -0.2218  0.1490
19657TIP3    H180386   4.518   2.255   5.420  0.3912 -0.8228 -0.9859
19657TIP3    H280387   4.529   2.124   5.496  0.6263 -0.9083 -1.1650
19658TIP3   OH280388   4.351   3.520   5.192 -0.7590 -0.6944  0.0690
19658TIP3    H180389   4.394   3.604   5.208 -0.1604 -1.2599  1.7100
19658TIP3    H280390   4.292   3.536   5.118 -0.2474  1.0076 -0.0065
19659TIP3   OH280391   4.777   1.125  11.414 -0.2971 -0.2013  0.4675
19659TIP3    H180392   4.739   1.180  11.345 -0.0621  0.7107  1.0578
19659TIP3    H280393   4.789   1.184  11.488  0.1989 -0.9936  1.0291
19660TIP3   OH280394   4.143   2.856  12.391 -0.1590  0.1097 -0.7502
19660TIP3    H180395   4.194   2.906  12.454  0.1478 -0.5535 -0.4623
19660TIP3    H280396   4.208   2.801  12.346 -0.2624  1.0495 -2.1266
19661TIP3   OH280397   6.030   0.838   6.639 -0.0250  0.2561  0.2148
19661TIP3    H180398   6.040   0.815   6.547  0.8298  0.4172  0.2505
19661TIP3    H280399   6.053   0.758   6.687  3.4836  1.1556  0.3517
19662TIP3   OH280400   4.137   2.309  10.360  0.5226 -0.2635 -0.1291
19662TIP3    H180401   4.195   2.324  10.435  0.9679 -0.7136 -0.3767
19662TIP3    H280402   4.182   2.348  10.286  2.0254 -3.1965 -0.9167
19663TIP3   OH280403   6.631   5.767  14.761 -0.1101 -0.4474  0.2193
19663TIP3    H180404   6.667   5.841  14.710 -2.1589  0.4471 -0.0255
19663TIP3    H280405   6.696   5.697  14.750  1.6920  1.1531  0.0945
19664TIP3   OH280406   3.800   6.469   3.910 -0.0997  0.1229 -0.6077
19664TIP3    H180407   3.735   6.521   3.958  0.1068  0.6253 -0.8668
19664TIP3    H280408   3.773   6.378   3.924  0.2959  0.2103  0.9702
19665TIP3   OH280409   3.008   5.974   6.028  0.1515  0.0723  0.1617
19665TIP3    H180410   3.048   6.015   5.952  1.9100  0.6328  1.3201
19665TIP3    H280411   2.968   6.046   6.076 -0.4182 -0.1912  0.0942
19666TIP3   OH280412   6.659   5.724   5.383 -0.0322 -0.0115 -0.3299
19666TIP3    H180413   6.718   5.700   5.312  0.9233  0.1145  0.3901
19666TIP3    H280414   6.573   5.693   5.355  0.7466 -2.2192 -0.4603
19667TIP3   OH280415   3.607   6.468   3.664 -0.3171 -0.2917 -0.2998
19667TIP3    H180416   3.618   6.413   3.741 -0.6417  0.1998  0.0992
19667TIP3    H280417   3.553   6.541   3.693 -0.6732 -0.2360 -1.0576
19668TIP3   OH280418   4.702   0.680  11.348  0.3541  0.2533 -0.1076
19668TIP3    H180419   4.699   0.712  11.439  3.3069 -0.5891  0.4158
19668TIP3    H280420   4.751   0.747  11.301  1.8158 -0.8644 -0.2498
19669TIP3   OH280421   6.041   5.595  16.544  0.4260  0.0839  0.0959
19669TIP3    H180422   6.038   5.549  16.628  1.6075  0.7796  0.5503
19669TIP3    H280423   6.129   5.579  16.511 -0.1370 -0.4748 -1.2078
19670TIP3   OH280424   4.146   0.517   4.593  0.7191 -0.5756  0.1952
19670TIP3    H180425   4.062   0.538   4.634  1.1891  0.8032  0.5140
19670TIP3    H280426   4.211   0.566   4.645  1.3918  0.8835 -1.9011
19671TIP3   OH280427   5.463   0.087  13.406  0.0592  0.3858  0.0587
19671TIP3    H180428   5.371   0.085  13.434  0.4996 -0.2435  1.5986
19671TIP3    H280429   5.489  -0.005  13.403  0.5973  0.5518 -0.5414
19672TIP3   OH280430   6.563   1.017  15.213 -0.0539 -0.0263  0.2663
19672TIP3    H180431   6.572   0.952  15.143 -0.4321  1.3837 -1.1624
19672TIP3    H280432   6.644   1.067  15.209  0.1373 -0.2500  1.2002
19673TIP3   OH280433   5.824   5.989   0.784 -0.1744  0.3383 -0.2557
19673TIP3    H180434   5.753   5.927   0.769  0.6782 -0.3587 -1.6379
19673TIP3    H280435   5.864   6.001   0.698  2.8303 -1.1020  0.7686
19674TIP3   OH280436   3.685   5.371   5.525  0.5758  0.0086 -0.1165
19674TIP3    H180437   3.722   5.335   5.445  0.1879 -0.5749 -0.0431
19674TIP3    H280438   3.757   5.420   5.565  0.2445  1.9546 -1.7742
19675TIP3   OH280439   0.252   3.162  11.294 -0.2010 -0.2681  0.5028
19675TIP3    H180440   0.168   3.138  11.254  0.0958  1.0239 -1.0102
19675TIP3    H280441   0.260   3.256  11.277  2.2658 -0.6481 -0.8561
19676TIP3   OH280442   1.570   5.710  14.189 -0.2851 -0.7356  0.4197
19676TIP3    H180443   1.530   5.796  14.173  1.5535  0.2517  0.8414
19676TIP3    H280444   1.530   5.680  14.271  0.2827  0.5245  1.1869
19677TIP3   OH280445   5.590   1.082   0.807 -1.0410  0.3197 -0.2973
19677TIP3    H180446   5.585   1.115   0.897 -1.8406  3.5755 -1.3914
19677TIP3    H280447   5.499   1.079   0.778 -0.7329  0.3601 -1.3079
19678TIP3   OH280448   5.644   5.266  13.058 -0.3958  0.1486 -0.3813
19678TIP3    H180449   5.728   5.235  13.024 -0.1955 -0.1571  0.3773
19678TIP3    H280450   5.594   5.292  12.980 -0.2184 -1.1945 -0.9618
19679TIP3   OH280451   5.034   6.533   1.995 -0.0264 -0.3694  0.1076
19679TIP3    H180452   4.955   6.513   1.944  0.6962 -0.3151 -1.0934
19679TIP3    H280453   5.044   6.628   1.986 -0.1911 -0.2830  0.8219
19680TIP3   OH280454   5.721   4.497   5.006  0.0858 -0.4102  0.5011
19680TIP3    H180455   5.649   4.480   5.067  2.6457 -2.4578  3.2195
19680TIP3    H280456   5.716   4.426   4.943  0.2361 -1.0598  1.2107
19681TIP3   OH280457   3.948   2.709   5.798 -0.0726  0.1301  0.0818
19681TIP3    H180458   3.852   2.708   5.806 -0.0313 -0.6094  0.5355
19681TIP3    H280459   3.965   2.674   5.710 -0.2510  1.3173 -0.4436
19682TIP3   OH280460   1.852   6.402   0.204 -0.1810  0.0828  0.3534
19682TIP3    H180461   1.914   6.424   0.134 -2.8097  3.4207 -1.2359
19682TIP3    H280462   1.824   6.313   0.184  2.2245 -0.5986 -0.2841
19683TIP3   OH280463   0.091   4.919   4.127 -0.2598 -0.5725  0.5216
19683TIP3    H180464   0.079   4.985   4.059  2.2175 -1.3156 -0.7597
19683TIP3    H280465   0.035   4.948   4.199 -2.3977  0.6769 -1.4898
19684TIP3   OH280466   4.274   2.911  13.265 -0.1804 -0.2797  0.1125
19684TIP3    H180467   4.321   2.844  13.314  1.5245 -1.0998 -2.4057
19684TIP3    H280468   4.195   2.868  13.234 -0.1123 -0.4799  0.2193
19685TIP3   OH280469   4.972   4.223   1.136  0.0093  1.0636  0.1681
19685TIP3    H180470   4.991   4.226   1.230  1.2580 -2.6822  0.1896
19685TIP3    H280471   5.049   4.260   1.094 -0.1562  1.8943  0.5832
19686TIP3   OH280472   6.162   0.493  11.748  0.4578 -0.5534 -0.2856
19686TIP3    H180473   6.129   0.537  11.670  0.4597  1.1780  0.6310
19686TIP3    H280474   6.123   0.406  11.745 -0.8882  0.0463 -1.3381
19687TIP3   OH280475   3.979   5.252  15.858  0.3582 -0.2853  0.2117
19687TIP3    H180476   4.023   5.327  15.817 -0.4797 -0.3444 -0.8495
19687TIP3    H280477   4.050   5.194  15.883  0.9429  0.0146 -0.6721
19688TIP3   OH280478   3.880   3.949   3.706 -0.0705  0.2949  0.7312
19688TIP3    H180479   3.878   4.038   3.671 -0.0633 -0.3258 -0.9499
19688TIP3    H280480   3.804   3.906   3.667  0.8754 -0.9066  0.1593
19689TIP3   OH280481   3.863   5.063  12.989 -0.2990 -0.0225  0.3283
19689TIP3    H180482   3.928   5.100  12.930  0.2988 -0.3250  0.7915
19689TIP3    H280483   3.910   4.997  13.040 -0.5467  0.8794  1.8159
19690TIP3   OH280484   5.515   2.442   4.787 -0.1028  0.1841 -0.0187
19690TIP3    H180485   5.527   2.502   4.713  2.2173 -0.3149 -0.1342
19690TIP3    H280486   5.554   2.489   4.861 -0.2274 -0.3103  0.3615
19691TIP3   OH280487   2.869   0.895   1.383 -0.2853 -0.1963  0.1689
19691TIP3    H180488   2.868   0.816   1.437 -0.1665  0.1097  0.6289
19691TIP3    H280489   2.895   0.865   1.296 -3.0801 -1.1307 -0.4361
19692TIP3   OH280490   4.571   2.737   2.611 -0.0645  0.1955  0.5117
19692TIP3    H180491   4.640   2.670   2.607 -1.4698 -1.3825  1.5355
19692TIP3    H280492   4.514   2.709   2.683 -1.0409  2.1987  0.5925
19693TIP3   OH280493   2.334   1.730  14.982  0.2737  0.6785  1.0354
19693TIP3    H180494   2.424   1.759  14.965 -0.4416  1.7541 -1.3188
19693TIP3    H280495   2.302   1.699  14.897 -1.0760 -1.2242  2.1724
19694TIP3   OH280496   0.116   4.279   5.333  0.5129  0.0406 -0.2586
19694TIP3    H180497   0.116   4.194   5.376 -1.9811  0.1565  0.1552
19694TIP3    H280498   0.146   4.340   5.400  1.3193 -0.3813 -0.2296
19695TIP3   OH280499   0.985   3.103  16.262 -0.1749 -0.0740 -0.4852
19695TIP3    H180500   1.057   3.047  16.287 -0.7759 -0.9538 -0.6842
19695TIP3    H280501   0.984   3.101  16.166 -0.0453  0.4807 -0.5015
19696TIP3   OH280502   2.759   5.712   3.991 -0.4634  0.3818 -0.0522
19696TIP3    H180503   2.760   5.772   3.917 -1.1327  2.0405  1.2335
19696TIP3    H280504   2.667   5.710   4.019 -0.1412  0.1699  1.0310
19697TIP3   OH280505   2.558   2.722   1.982 -0.1833 -0.1071  0.0316
19697TIP3    H180506   2.562   2.742   2.076  3.3982 -0.8704  0.1872
19697TIP3    H280507   2.540   2.807   1.941 -1.5027  0.2917  1.3353
19698TIP3   OH280508   4.630   2.139   4.336 -0.0970  0.2502  0.2996
19698TIP3    H180509   4.711   2.143   4.285  0.5148 -1.6228  1.0381
19698TIP3    H280510   4.572   2.082   4.285 -1.3914  2.3342 -0.7126
19699TIP3   OH280511   4.546   0.513  11.830  0.3844  0.2296 -0.0554
19699TIP3    H180512   4.618   0.449  11.834  1.1695  0.8660 -2.4338
19699TIP3    H280513   4.498   0.491  11.751 -0.7129  1.2148  0.3034
19700TIP3   OH280514   5.680   3.387   3.352 -0.4951 -0.4574 -0.1226
19700TIP3    H180515   5.621   3.455   3.319 -0.6353 -0.7669 -0.5192
19700TIP3    H280516   5.638   3.354   3.431  0.0585  0.5975  0.6440
19701TIP3   OH280517   3.484   4.044  11.130  0.1727  0.1823 -0.1828
19701TIP3    H180518   3.487   4.008  11.218  1.9045  0.6388 -0.0141
19701TIP3    H280519   3.500   4.138  11.142  1.4493  0.1057 -1.0167
19702TIP3   OH280520   5.093   2.602   1.409 -0.8841 -0.0147  0.7010
19702TIP3    H180521   5.063   2.658   1.338  0.8875 -0.6431 -0.6099
19702TIP3    H280522   5.070   2.513   1.381 -0.5301 -0.2392  1.1174
19703TIP3   OH280523   3.292   3.389   4.423  0.3078  0.1650 -0.5607
19703TIP3    H180524   3.263   3.301   4.399  0.0360  0.1452 -0.1881
19703TIP3    H280525   3.234   3.414   4.495 -0.4772  1.1694 -1.5023
19704TIP3   OH280526   5.944   4.808  14.760 -0.0350 -0.0066  0.9623
19704TIP3    H180527   5.939   4.764  14.675  0.2408  1.4760  0.1442
19704TIP3    H280528   6.034   4.842  14.764  0.1761 -0.6329  2.1682
19705TIP3   OH280529   0.559   3.511   4.716 -0.5476 -0.1179  0.2409
19705TIP3    H180530   0.578   3.471   4.801 -1.7912  0.4441  0.8088
19705TIP3    H280531   0.504   3.448   4.671  0.3574 -0.5495 -0.2948
19706TIP3   OH280532   6.011   0.913  15.638 -0.1461  0.1572  0.1744
19706TIP3    H180533   5.928   0.913  15.590 -0.1957  0.4402  0.2617
19706TIP3    H280534   6.043   0.823  15.630 -0.5042  0.0249  0.2146
19707TIP3   OH280535   3.176   2.136  16.619  0.5360  0.3620  0.2552
19707TIP3    H180536   3.093   2.145  16.665  0.8344  0.8357  0.7237
19707TIP3    H280537   3.242   2.168  16.682  0.9680  0.8731 -0.4352
19708TIP3   OH280538   4.557   5.509  15.955 -0.4619  0.4199  0.1595
19708TIP3    H180539   4.492   5.538  15.892 -0.3287 -0.7037 -0.5269
19708TIP3    H280540   4.542   5.562  16.033 -0.4078  2.0732 -0.9261
19709TIP3   OH280541   3.911   2.798  16.950 -0.5320  0.4307 -0.0886
19709TIP3    H180542   3.826   2.793  16.906 -0.6305 -0.5291  0.1974
19709TIP3    H280543   3.892   2.777  17.041  0.3261 -2.1095 -0.4217
19710TIP3   OH280544   3.858   4.055  16.481  0.0245  0.8440 -0.2194
19710TIP3    H180545   3.895   4.081  16.566 -1.9814 -1.0342  1.3564
19710TIP3    H280546   3.778   4.107  16.472 -0.0835  0.6041 -0.6694
19711TIP3   OH280547   0.862   6.639  11.475 -0.0480  0.0290  0.1679
19711TIP3    H180548   0.835   6.731  11.464  0.3938  0.0788 -0.5151
19711TIP3    H280549   0.890   6.611  11.388  1.3995 -0.2500  0.6988
19712TIP3   OH280550   2.600   5.515   6.027 -0.2954 -0.2095 -0.3543
19712TIP3    H180551   2.515   5.470   6.025  0.0887 -1.0256  0.5904
19712TIP3    H280552   2.602   5.568   5.947 -1.8058  0.0308 -0.2583
19713TIP3   OH280553   0.238   3.038   5.699 -0.2803  0.2537  0.6349
19713TIP3    H180554   0.169   3.087   5.745 -0.3021  0.7544  0.0957
19713TIP3    H280555   0.285   2.991   5.768  0.0952  1.4844  1.2613
19714TIP3   OH280556   5.028   6.325  15.485  0.2464  0.4915 -0.0373
19714TIP3    H180557   5.041   6.408  15.441  1.0649  0.5543  0.3122
19714TIP3    H280558   5.113   6.282  15.483  0.0379  0.0294  0.5334
19715TIP3   OH280559   4.833   3.193   4.055  0.3894  0.4728 -0.2470
19715TIP3    H180560   4.756   3.214   4.109 -0.1828 -0.2027 -0.7840
19715TIP3    H280561   4.907   3.218   4.109 -0.1221 -1.2417  1.3312
19716TIP3   OH280562   1.931   3.266   2.446  0.5370 -0.1439 -0.2320
19716TIP3    H180563   1.904   3.249   2.356  0.9839  0.8114 -0.5589
19716TIP3    H280564   1.852   3.253   2.498 -0.0108  0.4572 -0.9052
19717TIP3   OH280565   5.711   0.373  12.342 -0.0183  0.1431 -0.0411
19717TIP3    H180566   5.634   0.350  12.290 -1.1613  0.2410  1.5517
19717TIP3    H280567   5.684   0.360  12.433  1.2953  1.8466  0.6390
19718TIP3   OH280568   3.813   0.848  15.058 -0.2087  0.5096  0.1358
19718TIP3    H180569   3.769   0.925  15.023 -0.5061  0.6683  0.8345
19718TIP3    H280570   3.891   0.837  15.003 -1.1658  0.1535 -1.1902
19719TIP3   OH280571   3.005   1.788   3.518 -0.2358  0.0688 -0.2689
19719TIP3    H180572   3.005   1.857   3.451  0.6532 -1.0433 -1.4503
19719TIP3    H280573   2.956   1.716   3.478 -1.5457  0.1433  1.1237
19720TIP3   OH280574   4.246   5.338  16.885  0.0513  0.2730  0.1787
19720TIP3    H180575   4.323   5.334  16.828 -0.3410  0.8093 -0.4017
19720TIP3    H280576   4.237   5.430  16.908  0.3060  0.0390  1.2660
19721TIP3   OH280577   2.164   4.682  14.911 -0.0752  0.0302 -0.5651
19721TIP3    H180578   2.099   4.616  14.888 -0.4757  0.4052 -0.5028
19721TIP3    H280579   2.161   4.746  14.840 -1.6587  1.4479  0.7204
19722TIP3   OH280580   4.434   5.971  13.637 -0.1261  0.3621  0.2733
19722TIP3    H180581   4.478   6.050  13.606 -0.3267  0.6404  0.6847
19722TIP3    H280582   4.502   5.904  13.635  0.0148  0.5117 -0.2009
19723TIP3   OH280583   4.288   6.645  14.567  0.4977 -0.0941  0.3840
19723TIP3    H180584   4.238   6.594  14.504 -0.2463 -0.9661  1.6470
19723TIP3    H280585   4.246   6.628  14.651  2.1942  0.0856  1.3151
19724TIP3   OH280586   2.217   3.301   2.437 -0.4843 -0.2663 -0.2007
19724TIP3    H180587   2.123   3.295   2.455 -0.4463 -0.3823 -0.0405
19724TIP3    H280588   2.233   3.235   2.370 -1.0953  1.8394 -2.5880
19725TIP3   OH280589   5.313   3.784   4.008  0.1571 -0.2661 -0.2212
19725TIP3    H180590   5.304   3.878   3.996 -1.2413 -0.3773 -0.1504
19725TIP3    H280591   5.302   3.747   3.921  0.1953 -0.4053 -0.1680
19726TIP3   OH280592   1.793   2.360   2.517  0.4272  0.0317  0.5358
19726TIP3    H180593   1.785   2.438   2.462  0.0352 -0.0626  0.4617
19726TIP3    H280594   1.867   2.312   2.480 -0.9598 -0.9758 -1.0771
19727TIP3   OH280595   4.927   5.719   0.066 -0.0394 -0.5285  0.0967
19727TIP3    H180596   4.835   5.705   0.044 -0.6084  1.7961  0.7134
19727TIP3    H280597   4.955   5.790   0.008  0.0779  1.7343  2.7334
19728TIP3   OH280598   6.691   2.290   3.708 -0.4415 -0.0708 -0.1760
19728TIP3    H180599   6.664   2.316   3.620 -0.4666  3.1952  0.6894
19728TIP3    H280600   6.707   2.372   3.754  1.5498 -1.6936  2.2999
19729TIP3   OH280601   6.579   0.859  10.487  0.2529  0.5806 -0.0700
19729TIP3    H180602   6.649   0.811  10.442  0.8942  2.2054 -0.8797
19729TIP3    H280603   6.622   0.894  10.565  0.5554  2.1041 -0.8851
19730TIP3   OH280604   2.006   3.896   3.225  0.0566  0.0999  0.3773
19730TIP3    H180605   2.085   3.941   3.255  1.4065 -1.7831 -0.1214
19730TIP3    H280606   1.943   3.965   3.208  1.1866  1.5940  1.9456
19731TIP3   OH280607   4.335   4.870  13.270  0.8514 -0.6621 -0.3691
19731TIP3    H180608   4.407   4.919  13.309 -0.4826  0.5078  0.7043
19731TIP3    H280609   4.295   4.823  13.343 -1.6313  1.4806 -0.2081
19732TIP3   OH280610   5.318   2.820   3.928  0.1211  0.1195  0.4526
19732TIP3    H180611   5.368   2.739   3.932 -0.2048 -0.0772  0.5626
19732TIP3    H280612   5.245   2.806   3.988 -1.4542 -0.5462 -1.5047
19733TIP3   OH280613   2.580   5.448   4.965  0.4145 -0.5787 -0.0035
19733TIP3    H180614   2.519   5.419   4.897  0.7705  1.1242 -1.0960
19733TIP3    H280615   2.533   5.516   5.013  0.5616 -1.0084  0.7719
19734TIP3   OH280616   3.356   6.779  13.054 -0.5344  0.0866 -0.1666
19734TIP3    H180617   3.339   6.824  12.971  0.0662  0.3440 -0.1532
19734TIP3    H280618   3.302   6.700  13.049 -1.5051  0.7295 -0.2455
19735TIP3   OH280619   5.312   6.669   3.242 -0.0560 -0.5494  0.3507
19735TIP3    H180620   5.223   6.700   3.255 -1.1826 -2.6928 -1.4712
19735TIP3    H280621   5.325   6.604   3.312  0.1540 -0.1217  0.7134
19736TIP3   OH280622   1.760   1.364  15.148 -0.1453  0.3311  0.1183
19736TIP3    H180623   1.763   1.452  15.185 -1.8736  0.4898 -0.0528
19736TIP3    H280624   1.818   1.312  15.204 -0.6911  1.1374  1.4566
19737TIP3   OH280625   6.642   2.394   0.306  0.2556 -0.0253 -0.0703
19737TIP3    H180626   6.697   2.320   0.280  1.8412  1.0459  0.0576
19737TIP3    H280627   6.636   2.448   0.228 -1.4297 -0.5758 -0.3440
19738TIP3   OH280628   0.374   5.531  12.767  0.2737 -0.0093 -0.6977
19738TIP3    H180629   0.422   5.448  12.762  1.0240  0.3082  0.6003
19738TIP3    H280630   0.399   5.577  12.687  1.2016 -0.3559 -0.6286
19739TIP3   OH280631   5.566   5.920  10.503 -0.1285  0.8057 -0.1208
19739TIP3    H180632   5.575   5.836  10.547  2.1120  1.1088  0.1527
19739TIP3    H280633   5.493   5.963  10.547 -0.8734 -0.7261  0.1794
19740TIP3   OH280634   1.767   6.676  16.659  0.2026  0.1411 -0.1714
19740TIP3    H180635   1.703   6.608  16.637  0.5990 -0.4212  0.3830
19740TIP3    H280636   1.812   6.694  16.576  0.0721 -0.2498 -0.3285
19741TIP3   OH280637   4.502   1.353  11.656 -0.2143 -0.1658 -0.1244
19741TIP3    H180638   4.579   1.331  11.602 -0.3695 -0.1755 -0.3411
19741TIP3    H280639   4.531   1.427  11.709 -0.0674 -0.1405 -0.2374
19742TIP3   OH280640   5.741   3.332  11.374  0.1405  0.3107 -0.0105
19742TIP3    H180641   5.695   3.397  11.426  1.3627  0.0461  1.4624
19742TIP3    H280642   5.672   3.274  11.340 -0.7712  1.1854  0.3175
19743TIP3   OH280643   3.697   3.740  12.413 -0.2249  0.5769  0.4162
19743TIP3    H180644   3.608   3.756  12.443 -0.6544 -0.1855 -0.4104
19743TIP3    H280645   3.722   3.822  12.369 -1.2601  0.1599 -1.0603
19744TIP3   OH280646   0.535   2.523   1.946 -0.1356  0.1452  0.6170
19744TIP3    H180647   0.594   2.469   1.894 -0.6941 -0.8242  0.9791
19744TIP3    H280648   0.592   2.587   1.989  0.8820 -1.7586  2.2224
19745TIP3   OH280649   5.424   0.282  15.300 -0.1255 -0.7123 -0.3423
19745TIP3    H180650   5.480   0.316  15.370  0.0278 -1.9424  0.1457
19745TIP3    H280651   5.425   0.351  15.234  1.5533 -0.4774 -0.1225
19746TIP3   OH280652   6.279   0.372  10.767 -0.0197  0.3671  0.9653
19746TIP3    H180653   6.353   0.337  10.815  1.0084  2.9020  1.3708
19746TIP3    H280654   6.299   0.354  10.675  0.0382 -0.7997  1.1881
19747TIP3   OH280655   6.154   6.184  14.250 -0.9644  0.0082  0.1814
19747TIP3    H180656   6.095   6.242  14.201  1.6719  2.5526 -0.2758
19747TIP3    H280657   6.122   6.096  14.232 -3.2109  1.1266 -1.8435
19748TIP3   OH280658   3.145   6.336  13.244  0.0811 -0.3227  0.0519
19748TIP3    H180659   3.201   6.261  13.264 -1.2398 -1.3797 -0.1036
19748TIP3    H280660   3.057   6.308  13.270 -0.7946  0.3418 -2.0460
19749TIP3   OH280661   2.037   6.040   0.045 -0.3678  0.1582  0.5885
19749TIP3    H180662   2.001   5.978   0.108  1.9434 -2.2210 -0.2787
19749TIP3    H280663   2.128   6.053   0.073 -0.3599  1.9995 -0.1562
19750TIP3   OH280664   0.571   5.303  11.100 -0.0793  0.5809  0.3821
19750TIP3    H180665   0.660   5.268  11.101 -0.1324  0.3989  2.4752
19750TIP3    H280666   0.581   5.395  11.075  0.3852 -0.0145 -1.9323
19751TIP3   OH280667   4.178   5.211  14.362  0.2345  0.3600  0.0351
19751TIP3    H180668   4.169   5.284  14.301 -0.9888  0.6907  0.5819
19751TIP3    H280669   4.229   5.247  14.435 -0.2725  0.6464  0.2539
19752TIP3   OH280670   1.430   1.762  16.773 -0.0412 -0.5850 -0.3072
19752TIP3    H180671   1.487   1.826  16.815 -0.4190  1.5704 -2.7568
19752TIP3    H280672   1.487   1.713  16.714 -0.2944  0.0082 -1.0707
19753TIP3   OH280673   1.351   1.088   5.065  0.2482  0.4781 -0.3123
19753TIP3    H180674   1.370   1.088   4.971  0.8207  0.8695 -0.2054
19753TIP3    H280675   1.427   1.131   5.104  0.2387 -0.1113  0.3740
19754TIP3   OH280676   6.211   4.215  14.108  0.2704  0.4246  0.0224
19754TIP3    H180677   6.138   4.265  14.070 -0.7636 -2.0042 -1.4130
19754TIP3    H280678   6.173   4.170  14.183  0.4647 -0.2979 -0.3064
19755TIP3   OH280679   6.527   5.910  15.783  0.9343  0.0057  0.4603
19755TIP3    H180680   6.563   5.835  15.831  0.6330 -0.5433 -0.1515
19755TIP3    H280681   6.603   5.951  15.742  0.8568 -1.6436 -1.5202
19756TIP3   OH280682   1.378   0.061   5.104 -0.2296  0.7229  0.3481
19756TIP3    H180683   1.402   0.123   5.173  1.4133 -0.9731  1.3975
19756TIP3    H280684   1.316   0.001   5.146  0.4055 -0.0251  0.2578
19757TIP3   OH280685   6.091   2.048   5.216 -0.3887  0.1318 -0.5004
19757TIP3    H180686   6.117   1.961   5.246  1.5103  1.0286  0.6287
19757TIP3    H280687   6.016   2.070   5.271 -0.7622 -0.6939 -0.6589
19758TIP3   OH280688   6.622   5.979  13.723 -0.1662 -0.2447 -0.1726
19758TIP3    H180689   6.598   6.052  13.781 -0.9006 -0.8416  0.2916
19758TIP3    H280690   6.715   5.965  13.741 -0.5602 -0.9830  1.5550
19759TIP3   OH280691   1.820   4.203   4.421 -0.1181 -0.5293  0.0118
19759TIP3    H180692   1.765   4.242   4.489  0.8946  0.5873  0.2225
19759TIP3    H280693   1.770   4.127   4.391 -1.1241 -0.3639  1.1705
19760TIP3   OH280694   2.695   1.291  11.131  0.2445  0.1875 -0.1612
19760TIP3    H180695   2.652   1.209  11.155 -0.6707  0.5250 -0.6184
19760TIP3    H280696   2.718   1.331  11.215  1.3507 -0.8589  0.0596
19761TIP3   OH280697   1.850   3.165   4.955 -0.2012  0.0468  1.0844
19761TIP3    H180698   1.929   3.202   4.994 -0.2863  1.7129 -0.1928
19761TIP3    H280699   1.881   3.088   4.906  0.0610 -1.3866  3.3809
19762TIP3   OH280700   1.484   2.097  12.219 -0.1425  0.0323  0.7480
19762TIP3    H180701   1.450   2.061  12.137  4.7841  0.6650 -1.9751
19762TIP3    H280702   1.471   2.192  12.211  0.2971  0.0898  0.6461
19763TIP3   OH280703   3.567   6.047   4.900  0.1613  0.2513  0.0035
19763TIP3    H180704   3.564   6.066   4.993 -0.8092  1.5279 -0.2623
19763TIP3    H280705   3.556   5.952   4.894  1.2373  0.0283  1.2115
19764TIP3   OH280706   4.524   4.062  14.962 -0.3939  0.2551  0.1273
19764TIP3    H180707   4.544   4.117  14.886  0.9140 -1.0861 -0.5492
19764TIP3    H280708   4.536   4.120  15.037  2.5101  0.5708 -0.4641
19765TIP3   OH280709   5.298   5.898  17.069 -0.7602  0.0039  0.0070
19765TIP3    H180710   5.249   5.962  17.019 -1.3878 -0.3100  0.2116
19765TIP3    H280711   5.374   5.946  17.102 -0.3419  0.2232 -1.2176
19766TIP3   OH280712   2.339   5.205  17.020  0.4376  0.3484  0.0045
19766TIP3    H180713   2.253   5.245  17.029  0.7893  1.9223 -2.6323
19766TIP3    H280714   2.395   5.256  17.080 -0.1088  0.4879  0.4040
19767TIP3   OH280715   4.412   4.712   0.815 -0.5894  0.1804 -0.5539
19767TIP3    H180716   4.368   4.694   0.731  0.8605 -0.2341 -1.2605
19767TIP3    H280717   4.502   4.685   0.800 -0.5528 -1.0637  1.5444
19768TIP3   OH280718   2.634   3.038   5.136 -0.1246 -0.2025  0.0876
19768TIP3    H180719   2.553   3.013   5.092 -1.0897 -0.5713  1.9574
19768TIP3    H280720   2.692   3.065   5.065 -2.0416  0.5707 -1.2909
19769TIP3   OH280721   5.853   6.106   4.308  0.1716  0.7184  0.5493
19769TIP3    H180722   5.842   6.188   4.356 -0.3428 -0.2411  2.1454
19769TIP3    H280723   5.901   6.049   4.368 -2.3792 -1.2618  0.9127
19770TIP3   OH280724   1.808   5.349   2.802 -0.2395  0.6065  0.5557
19770TIP3    H180725   1.856   5.313   2.727 -0.8681  3.2844 -1.3085
19770TIP3    H280726   1.719   5.359   2.770 -0.7872  0.8105  2.0726
19771TIP3   OH280727   5.939   5.750  12.336  0.0182 -0.0439 -0.1528
19771TIP3    H180728   5.989   5.718  12.411 -1.3850 -0.5405  0.6064
19771TIP3    H280729   5.968   5.840  12.324  0.3701 -0.0091  0.8982
19772TIP3   OH280730   5.506   6.625   4.259  0.2248  0.4033 -0.2240
19772TIP3    H180731   5.581   6.570   4.281 -1.1009 -1.7019 -0.6390
19772TIP3    H280732   5.466   6.581   4.183 -1.7373  1.1247  0.3374
19773TIP3   OH280733   2.535   4.433  11.387  0.2390  0.4009  0.2388
19773TIP3    H180734   2.484   4.352  11.385  1.9950 -0.7757  1.1503
19773TIP3    H280735   2.565   4.444  11.296  0.2237 -0.1227  0.1686
19774TIP3   OH280736   2.083   1.691   2.076  0.1986  0.1164  0.4178
19774TIP3    H180737   2.148   1.643   2.127  0.7276  0.0095 -0.3425
19774TIP3    H280738   2.083   1.648   1.991 -1.5759 -0.5065  0.6980
19775TIP3   OH280739   0.308   6.619  11.396  0.6865  0.3946 -0.2157
19775TIP3    H180740   0.360   6.571  11.332  0.5440 -0.1222  0.0554
19775TIP3    H280741   0.259   6.683  11.345  0.6516  0.0539 -0.6092
19776TIP3   OH280742   2.914   4.043   0.908 -0.3753  0.4170 -0.1894
19776TIP3    H180743   2.967   4.055   0.829 -2.0377 -1.8600 -1.7834
19776TIP3    H280744   2.825   4.033   0.876 -1.1364 -0.4973  2.0133
19777TIP3   OH280745   5.949   3.155  12.514 -0.5963  0.0819  0.2374
19777TIP3    H180746   5.974   3.225  12.454 -1.2884 -0.0754 -0.2454
19777TIP3    H280747   6.010   3.162  12.587  0.7085 -0.1666 -0.8072
19778TIP3   OH280748   1.196   2.095   4.650 -0.0946  0.3103 -0.6499
19778TIP3    H180749   1.114   2.113   4.604 -0.1856  0.0797 -0.5834
19778TIP3    H280750   1.182   2.128   4.738 -0.0906  0.3351 -0.6583
19779TIP3   OH280751   1.433   2.757   0.484  0.2259 -0.0832  0.2022
19779TIP3    H180752   1.395   2.768   0.570 -0.5699  0.0049 -0.1522
19779TIP3    H280753   1.414   2.666   0.460 -1.5770  0.5189 -0.8125
19780TIP3   OH280754   3.059   5.452   5.866  0.2391 -0.2217  0.1533
19780TIP3    H180755   2.967   5.458   5.839 -0.3258  0.8945  2.1363
19780TIP3    H280756   3.084   5.362   5.846 -0.9769 -0.2675 -1.3190
19781TIP3   OH280757   4.288   0.893  16.879  0.3775  0.9313  0.8257
19781TIP3    H180758   4.287   0.831  16.951 -1.4952  0.5537  0.5241
19781TIP3    H280759   4.331   0.847  16.808 -0.4360  0.1968  0.7995
19782TIP3   OH280760   0.122   1.104  12.669 -0.1720 -0.1457  0.2242
19782TIP3    H180761   0.030   1.096  12.697 -0.1565 -0.4496  0.1990
19782TIP3    H280762   0.149   1.013  12.652 -0.1820  0.0311 -0.7842
19783TIP3   OH280763   3.327   4.269  13.140 -0.5160  0.4139 -0.6625
19783TIP3    H180764   3.241   4.252  13.101 -1.3274 -0.0079  1.2197
19783TIP3    H280765   3.338   4.201  13.206  1.9995 -0.5073 -1.8789
19784TIP3   OH280766   5.822   2.515  12.497  0.3674  0.0723 -0.3553
19784TIP3    H180767   5.881   2.542  12.567  0.2247 -0.6930  0.0766
19784TIP3    H280768   5.825   2.587  12.434  2.8225 -0.5411 -1.0315
19785TIP3   OH280769   3.077   3.711   5.122 -0.4201 -0.3128  0.1453
19785TIP3    H180770   3.034   3.792   5.150 -0.6311 -0.8448  1.4100
19785TIP3    H280771   3.169   3.736   5.110 -0.6344  0.2963 -0.3001
19786TIP3   OH280772   5.916   0.452   1.210 -0.3484 -0.1296 -0.3203
19786TIP3    H180773   5.841   0.428   1.265 -0.3511  0.0918 -0.2275
19786TIP3    H280774   5.883   0.520   1.153 -0.2978 -0.2415 -0.4837
19787TIP3   OH280775   1.045   3.948  16.605  0.3251 -0.2711 -0.3333
19787TIP3    H180776   1.073   3.880  16.543 -0.2371 -1.3461  0.5493
19787TIP3    H280777   1.056   4.030  16.557 -0.4839 -1.0800 -2.0228
19788TIP3   OH280778   3.364   3.732   6.093  0.0075 -0.3363 -0.0594
19788TIP3    H180779   3.434   3.674   6.062  3.0921  1.6562  2.5146
19788TIP3    H280780   3.367   3.807   6.034 -0.2525 -0.4197 -0.1801
19789TIP3   OH280781   2.666   5.632   1.665  0.3016 -0.8543  0.2489
19789TIP3    H180782   2.590   5.689   1.650  0.2124 -0.9540  0.3272
19789TIP3    H280783   2.712   5.633   1.581 -0.4252 -1.7514 -0.1907
19790TIP3   OH280784   3.691   5.138   0.673  0.0907  0.4586 -0.2528
19790TIP3    H180785   3.643   5.208   0.718 -0.3448 -0.0580  0.0929
19790TIP3    H280786   3.626   5.070   0.657  0.7839 -0.4495  0.6336
19791TIP3   OH280787   5.315   2.608   2.985  0.2291 -0.1170 -0.3472
19791TIP3    H180788   5.285   2.549   2.917  0.3153 -0.4619 -0.0903
19791TIP3    H280789   5.394   2.567   3.021  0.0032 -0.1091  0.1784
19792TIP3   OH280790   0.365   2.366   6.169 -0.2102 -0.3944  0.7141
19792TIP3    H180791   0.427   2.297   6.146 -1.1716 -1.5276  1.4589
19792TIP3    H280792   0.416   2.447   6.159  1.3605 -1.2708  1.2227
19793TIP3   OH280793   5.292   4.372  13.077  0.0314  0.7283 -0.5117
19793TIP3    H180794   5.317   4.300  13.134 -0.8087 -0.5426 -1.6571
19793TIP3    H280795   5.230   4.424  13.129 -1.6847 -1.0968 -0.6201
19794TIP3   OH280796   3.859   1.830   3.360  0.3371  0.2485  0.5206
19794TIP3    H180797   3.923   1.776   3.407  0.6443  0.4603  0.3441
19794TIP3    H280798   3.791   1.849   3.426  0.8375  0.6696  0.9256
19795TIP3   OH280799   6.218   2.113   4.315  0.2737  0.3383 -0.3656
19795TIP3    H180800   6.268   2.150   4.387 -0.9234  0.8956  0.2148
19795TIP3    H280801   6.278   2.113   4.240  1.6578 -0.6024  0.7002
19796TIP3   OH280802   6.354   6.130  15.505  0.1447  0.1010  0.3916
19796TIP3    H180803   6.296   6.167  15.572  1.4900 -0.3380  1.8691
19796TIP3    H280804   6.314   6.156  15.422 -2.2504 -0.3593  1.3196
19797TIP3   OH280805   0.823   4.698  14.425  0.2274 -0.1680  0.0013
19797TIP3    H180806   0.751   4.725  14.482 -0.8177 -0.0636 -1.3060
19797TIP3    H280807   0.780   4.678  14.341  1.8984  1.3365 -1.2749
19798TIP3   OH280808   0.877   5.002   4.765 -0.4887  0.2304 -0.6828
19798TIP3    H180809   0.792   4.963   4.749 -1.2683  1.5689  0.0183
19798TIP3    H280810   0.859   5.077   4.823  0.8711  1.6709 -2.0076
19799TIP3   OH280811   6.627   2.716  15.178  0.3436  0.2908 -0.5575
19799TIP3    H180812   6.604   2.627  15.207 -0.1825 -0.1413 -2.1799
19799TIP3    H280813   6.632   2.709  15.083  0.7456  1.9147 -0.6776
19800TIP3   OH280814   0.083   3.968  11.003 -0.5840  0.2510  0.2329
19800TIP3    H180815   0.165   3.947  10.958 -0.5341  0.1599  0.3657
19800TIP3    H280816   0.102   4.050  11.049 -0.1468 -0.4371  1.3303
19801TIP3   OH280817   5.425   4.343  11.297  0.2986  0.6329 -0.5758
19801TIP3    H180818   5.502   4.377  11.251  0.5337  1.1753  0.1986
19801TIP3    H280819   5.414   4.254  11.263  0.2189  1.1522 -1.9665
19802TIP3   OH280820   5.490   4.530  14.848  0.2501  0.6013 -0.3875
19802TIP3    H180821   5.537   4.505  14.927  1.7435  0.5813 -1.2403
19802TIP3    H280822   5.506   4.458  14.787 -0.3925  0.8759 -0.8926
19803TIP3   OH280823   5.575   4.566   0.503  0.0058 -1.0197  0.5891
19803TIP3    H180824   5.483   4.555   0.479 -0.1371  0.7713  0.1572
19803TIP3    H280825   5.580   4.655   0.540  1.6604 -0.8221 -0.0010
19804TIP3   OH280826   5.812   3.731   5.058 -0.1809 -0.0773  0.5710
19804TIP3    H180827   5.868   3.676   5.002  0.1392 -1.5495  2.2542
19804TIP3    H280828   5.756   3.778   4.996  1.4592 -0.1449 -1.0777
19805TIP3   OH280829   5.310   5.375  16.686  0.0888 -0.1488 -0.4314
19805TIP3    H180830   5.298   5.470  16.692  1.6172  0.0098  1.1286
19805TIP3    H280831   5.222   5.339  16.697 -0.4857  1.0614 -0.8150
19806TIP3   OH280832   5.528   5.432   3.884  0.0739 -0.2533 -0.6285
19806TIP3    H180833   5.567   5.390   3.808 -1.6890 -1.3409 -0.9902
19806TIP3    H280834   5.442   5.462   3.853 -1.2628 -1.9043  1.2064
19807TIP3   OH280835   1.034   2.163  15.465  0.0222 -0.0281  0.2878
19807TIP3    H180836   1.093   2.095  15.498 -1.9065 -1.5232  0.8807
19807TIP3    H280837   1.068   2.244  15.502  1.3351 -0.9051  1.1063
19808TIP3   OH280838   3.931   3.028   5.531 -0.0677  0.0848 -0.4538
19808TIP3    H180839   3.841   3.034   5.501 -0.0824  1.0000 -0.2452
19808TIP3    H280840   3.959   3.118   5.543  0.5107 -0.2111  0.5712
19809TIP3   OH280841   0.203   0.120  16.405  0.3746  1.0703  0.2332
19809TIP3    H180842   0.228   0.062  16.333  1.5167 -0.2669  1.6481
19809TIP3    H280843   0.223   0.071  16.484 -2.1178  1.9313  1.5222
19810TIP3   OH280844   3.886   0.791  13.817  0.6565 -0.2427  0.0096
19810TIP3    H180845   3.958   0.829  13.767 -0.6451  2.6060  0.1239
19810TIP3    H280846   3.908   0.809  13.908  1.0383 -1.7705  0.2475
19811TIP3   OH280847   2.069   5.735  14.382  0.0548 -0.2688  0.1508
19811TIP3    H180848   1.999   5.674  14.362  1.0568 -0.9105 -1.7256
19811TIP3    H280849   2.043   5.817  14.339 -0.4285  0.0931  1.1085
19812TIP3   OH280850   1.037   2.976  12.142  0.2534 -0.1271 -0.8663
19812TIP3    H180851   1.039   2.918  12.219  0.5121 -0.7861 -1.3621
19812TIP3    H280852   1.014   3.061  12.178 -0.9413 -0.6928 -0.2158
19813TIP3   OH280853   6.140   0.025   0.711 -0.3743  0.3296  0.5784
19813TIP3    H180854   6.053  -0.009   0.733 -0.0664 -0.0985  1.1541
19813TIP3    H280855   6.123   0.101   0.656 -1.1291  0.5206  1.0648
19814TIP3   OH280856   6.371   0.072   1.644 -0.1560  0.0755  0.2422
19814TIP3    H180857   6.304   0.069   1.712  1.2417 -1.5706  1.6369
19814TIP3    H280858   6.447   0.030   1.683  0.6776 -1.0938 -2.4060
19815TIP3   OH280859   3.331   3.717   1.835  0.0261  0.5674 -0.1056
19815TIP3    H180860   3.325   3.805   1.799 -1.1905  0.6286  0.1857
19815TIP3    H280861   3.339   3.731   1.930 -2.4318  0.4020  0.2003
19816TIP3   OH280862   0.422   3.678  13.856 -0.0299  0.9141 -0.0332
19816TIP3    H180863   0.415   3.596  13.807 -0.8283  1.1485 -0.3146
19816TIP3    H280864   0.503   3.668  13.907  0.0614  0.0954 -0.3246
19817TIP3   OH280865   5.452   5.467   4.535  0.0288  0.2785 -0.4394
19817TIP3    H180866   5.432   5.516   4.615 -0.1587  0.4122 -0.5694
19817TIP3    H280867   5.400   5.387   4.542  1.1586 -0.4357  0.3027
19818TIP3   OH280868   3.321   2.968  15.219 -0.4645  0.1127 -0.1552
19818TIP3    H180869   3.334   3.026  15.294  1.3705  0.4289 -0.6504
19818TIP3    H280870   3.395   2.987  15.161  0.0773 -2.5115 -0.4828
19819TIP3   OH280871   1.226   3.403   3.754 -0.1164  0.2988  0.1935
19819TIP3    H180872   1.178   3.471   3.801 -0.8160 -0.0485 -0.0012
19819TIP3    H280873   1.169   3.379   3.682  1.0214  0.9517 -0.9580
19820TIP3   OH280874   2.299   6.124  11.038  0.6309  0.2529 -0.0814
19820TIP3    H180875   2.232   6.066  11.002  0.0333  0.7507  0.2159
19820TIP3    H280876   2.349   6.154  10.962  0.6540 -0.2812 -0.2833
19821TIP3   OH280877   0.131   6.589  12.225 -0.6072 -0.2347  0.2644
19821TIP3    H180878   0.076   6.667  12.224  0.7708  0.7932  1.1369
19821TIP3    H280879   0.072   6.519  12.255 -2.0198  0.2953 -1.1192
19822TIP3   OH280880   2.498   1.456   1.942  0.2257 -0.1318 -0.0908
19822TIP3    H180881   2.448   1.464   2.023 -1.5022 -0.5151 -1.0528
19822TIP3    H280882   2.576   1.408   1.966  0.6502  1.3162  1.6810
19823TIP3   OH280883   2.925   2.296  14.451 -0.5360  0.2155 -0.1902
19823TIP3    H180884   2.849   2.252  14.490  0.6758 -1.3855  0.4505
19823TIP3    H280885   2.957   2.354  14.519 -1.1107  0.8297 -0.4316
19824TIP3   OH280886   4.238   0.861   1.161  0.3827 -0.2009 -0.3880
19824TIP3    H180887   4.288   0.940   1.142  0.4960 -0.6139 -1.9355
19824TIP3    H280888   4.171   0.858   1.092  0.9999 -1.9677 -0.9585
19825TIP3   OH280889   0.202   6.468  11.915  0.0134 -0.0366  0.0121
19825TIP3    H180890   0.292   6.443  11.932 -0.7935 -2.4270  1.3393
19825TIP3    H280891   0.184   6.538  11.978  1.3430  1.5790 -1.3434
19826TIP3   OH280892   2.383   4.040   6.610  0.7928 -0.6357  0.3983
19826TIP3    H180893   2.342   3.973   6.666 -0.1545 -0.6492 -0.2787
19826TIP3    H280894   2.422   3.991   6.538  0.1935 -0.4841 -0.0405
19827TIP3   OH280895   3.357   6.290   1.748 -0.3450 -0.6709 -0.1864
19827TIP3    H180896   3.379   6.301   1.840 -0.6104 -1.1548 -0.0576
19827TIP3    H280897   3.308   6.207   1.745 -0.3494 -0.6535 -0.7573
19828TIP3   OH280898   3.642   6.090   0.511  0.7952  0.3948  0.1251
19828TIP3    H180899   3.698   6.105   0.587  2.9912  0.1703 -1.3602
19828TIP3    H280900   3.620   6.178   0.480  0.5118  0.4834  0.5647
19829TIP3   OH280901   6.354   2.652  13.230 -0.1415  0.3153  0.0765
19829TIP3    H180902   6.279   2.595  13.216 -0.3227  0.7573 -0.8234
19829TIP3    H280903   6.376   2.641  13.322  1.3202 -3.0432 -0.5010
19830TIP3   OH280904   5.194   1.225   4.200 -0.2215  0.5568  0.1108
19830TIP3    H180905   5.279   1.258   4.230  0.2039  0.6757 -1.1772
19830TIP3    H280906   5.215   1.143   4.155 -0.9052  0.1193  0.5688
19831TIP3   OH280907   1.306   2.122   5.358 -0.1387 -0.2145 -0.2949
19831TIP3    H180908   1.316   2.032   5.388  1.3970 -0.1055 -0.3692
19831TIP3    H280909   1.316   2.118   5.263  2.3696  0.2601 -0.1204
19832TIP3   OH280910   5.481   3.607  11.933  0.0749 -0.1925  0.3361
19832TIP3    H180911   5.433   3.677  11.890  0.3302  0.4925  1.1438
19832TIP3    H280912   5.464   3.619  12.026  2.2441  0.4232  0.7028
19833TIP3   OH280913   4.204   5.390  14.146  0.0754  0.2699 -0.4566
19833TIP3    H180914   4.192   5.426  14.058 -1.0814  0.6832 -0.1556
19833TIP3    H280915   4.295   5.409  14.168  1.1849 -2.0404 -2.5107
19834TIP3   OH280916   0.209   4.035  13.090 -0.6541  0.0582  0.1915
19834TIP3    H180917   0.270   4.103  13.061 -0.0372 -0.8382 -0.6387
19834TIP3    H280918   0.155   4.017  13.013 -0.4489 -0.7826  0.2395
19835TIP3   OH280919   0.951   5.034   0.424 -0.3294  0.5534 -0.3328
19835TIP3    H180920   0.901   5.088   0.485 -1.6738  0.5695 -1.4030
19835TIP3    H280921   0.918   4.945   0.440  1.0011  0.1974  0.5712
19836TIP3   OH280922   2.955   1.250   4.065 -0.1496  0.1464  0.2217
19836TIP3    H180923   2.986   1.301   3.990 -1.4647  0.0304 -0.4134
19836TIP3    H280924   3.030   1.194   4.087  1.2155  2.0658  0.7423
19837TIP3   OH280925   4.481   0.951   3.694 -0.4307  0.0372  0.1415
19837TIP3    H180926   4.524   1.034   3.714 -0.5645  0.2879 -0.5698
19837TIP3    H280927   4.410   0.944   3.758 -0.6521  0.6585 -0.0244
19838TIP3   OH280928   4.716   4.620  13.489  0.0200  0.2787 -0.0570
19838TIP3    H180929   4.706   4.529  13.463  0.5423  0.2958 -0.3395
19838TIP3    H280930   4.805   4.644  13.460 -0.1529  0.9076 -0.0930
19839TIP3   OH280931   3.101   2.202   0.276 -0.1923  0.4538 -0.4502
19839TIP3    H180932   3.176   2.262   0.266 -0.3085  0.3053 -3.1797
19839TIP3    H280933   3.058   2.230   0.356  1.5116  2.0200 -0.0115
19840TIP3   OH280934   2.172   6.475  13.340 -0.1615  0.0833 -0.0866
19840TIP3    H180935   2.238   6.444  13.278 -1.1762 -0.5748 -0.8629
19840TIP3    H280936   2.092   6.484  13.288 -0.6971  0.8588  0.8350
19841TIP3   OH280937   0.427   1.491  12.791  0.2090 -0.1817  0.0400
19841TIP3    H180938   0.473   1.521  12.713 -1.2898 -0.3066 -0.9250
19841TIP3    H280939   0.391   1.570  12.830  2.6963  0.1795  1.8623
19842TIP3   OH280940   2.317   1.783   4.367  0.5896 -0.2424  0.1197
19842TIP3    H180941   2.235   1.832   4.374  0.4906 -0.2316 -0.9419
19842TIP3    H280942   2.308   1.710   4.428  0.9265  1.2859  2.0818
19843TIP3   OH280943   4.765   0.981  13.754 -0.2159 -0.0499 -0.2406
19843TIP3    H180944   4.702   1.053  13.758 -0.2702  0.0303 -1.9169
19843TIP3    H280945   4.735   0.927  13.680  2.5584  0.8789 -2.2041
19844TIP3   OH280946   5.760   0.752   0.881  0.0587  0.1230  0.3060
19844TIP3    H180947   5.847   0.788   0.870 -1.1696  3.8146  1.3053
19844TIP3    H280948   5.730   0.733   0.792  1.3120  0.1689 -0.1417
19845TIP3   OH280949   5.271   4.997  11.342 -0.1186 -0.9996 -0.0085
19845TIP3    H180950   5.267   5.067  11.408 -1.2039  0.0474 -1.1277
19845TIP3    H280951   5.365   4.985  11.326  0.0914  1.1185 -0.6828
19846TIP3   OH280952   1.583   0.620  11.400 -0.3751 -0.6309  0.3995
19846TIP3    H180953   1.519   0.551  11.380  0.0065 -0.3953 -1.8995
19846TIP3    H280954   1.603   0.660  11.315  1.2216  0.7335  1.3515
19847TIP3   OH280955   0.618   4.425  11.992 -0.5450 -0.3589 -0.0293
19847TIP3    H180956   0.712   4.439  11.976 -0.8749  1.4476 -0.5947
19847TIP3    H280957   0.614   4.388  12.080  0.8234 -2.8895 -0.9274
19848TIP3   OH280958   1.491   3.219  15.282  0.1678 -0.1461 -0.4894
19848TIP3    H180959   1.503   3.131  15.247 -2.0473 -0.6711 -0.0809
19848TIP3    H280960   1.476   3.274  15.204 -0.6764 -0.5599 -0.6310
19849TIP3   OH280961   0.840   6.787   4.279 -0.1958 -0.5178  0.3707
19849TIP3    H180962   0.745   6.789   4.265  0.0019  0.4199 -0.9763
19849TIP3    H280963   0.873   6.732   4.208  0.3488 -0.1237  0.3169
19850TIP3   OH280964   3.673   2.139   1.295 -0.6261  0.6237  0.3642
19850TIP3    H180965   3.602   2.194   1.327 -0.4323  0.4753  1.0589
19850TIP3    H280966   3.679   2.067   1.358 -1.4396 -0.6879 -0.9856
19851TIP3   OH280967   6.214   6.091   4.369 -0.1154 -0.4704  0.1498
19851TIP3    H180968   6.235   5.998   4.376  0.1732 -0.3464  1.0875
19851TIP3    H280969   6.121   6.092   4.344 -0.4333 -1.0259  1.2199
19852TIP3   OH280970   4.275   5.188   5.063  0.2720  0.0242 -0.5827
19852TIP3    H180971   4.305   5.105   5.102 -0.0002 -0.6385 -1.7180
19852TIP3    H280972   4.337   5.253   5.095  2.8520 -1.2481 -2.5839
19853TIP3   OH280973   0.311   1.599   3.184  0.1905  0.2159  0.9309
19853TIP3    H180974   0.342   1.530   3.127  1.6227  1.9435 -0.5150
19853TIP3    H280975   0.384   1.616   3.244 -1.1125 -1.2461  3.0804
19854TIP3   OH280976   0.450   5.773  14.850  0.1403  0.2890 -0.1085
19854TIP3    H180977   0.455   5.701  14.788 -0.4644  0.8701 -0.8466
19854TIP3    H280978   0.504   5.745  14.924  0.2317 -0.7433 -0.5547
19855TIP3   OH280979   0.046   6.069   3.540  0.0272 -0.2889  0.1073
19855TIP3    H180980   0.075   6.083   3.450  1.2740 -1.1718  0.3574
19855TIP3    H280981   0.034   6.157   3.575  0.0510  0.0632 -0.7460
19856TIP3   OH280982   4.106   5.212  13.683  0.2284 -0.7332 -0.0535
19856TIP3    H180983   4.178   5.155  13.658 -0.4393 -1.9103  0.6091
19856TIP3    H280984   4.063   5.234  13.601  2.0870  1.0822 -0.6175
19857TIP3   OH280985   0.699   4.981  10.782  0.2474 -0.2061 -0.0346
19857TIP3    H180986   0.749   5.034  10.720  0.9338  0.2731  0.9000
19857TIP3    H280987   0.766   4.938  10.835 -0.3216  0.5033  1.2985
19858TIP3   OH280988   3.680   0.710  14.314 -0.4887  0.5415  0.4319
19858TIP3    H180989   3.590   0.725  14.343 -0.4307  1.9863 -0.0737
19858TIP3    H280990   3.722   0.666  14.387 -0.9306  2.1679  1.7190
19859TIP3   OH280991   6.474   1.104   1.362 -0.0252 -0.0478 -0.2443
19859TIP3    H180992   6.482   1.037   1.294  0.5088  0.2637 -0.4914
19859TIP3    H280993   6.563   1.119   1.392 -0.2605 -0.2064  0.5572
19860TIP3   OH280994   1.739   1.421  13.516  0.1884 -0.5715  0.2411
19860TIP3    H180995   1.833   1.420  13.495  0.0514 -2.9580 -0.5345
19860TIP3    H280996   1.697   1.387  13.437 -1.3152  0.1145  0.7163
19861TIP3   OH280997   3.822   0.453  15.787 -0.0451  0.2490  0.1782
19861TIP3    H180998   3.803   0.532  15.736 -1.9135 -0.5576 -0.4549
19861TIP3    H280999   3.744   0.398  15.776 -0.4538 -0.0962  3.7289
19862TIP3   OH281000   0.859   6.562  10.899  0.2450 -0.2876  0.1352
19862TIP3    H181001   0.854   6.637  10.838  0.0489  0.8955  1.5457
19862TIP3    H281002   0.940   6.517  10.874  0.6585  0.7030 -0.4113
19863TIP3   OH281003   6.339   2.409  11.490  0.0527 -0.0440 -0.3837
19863TIP3    H181004   6.357   2.385  11.581  1.4274  2.7682  0.2015
19863TIP3    H281005   6.388   2.346  11.438  0.9105 -0.4658  0.8973
19864TIP3   OH281006   0.691   5.787  12.695 -0.0345  0.1198 -0.0171
19864TIP3    H181007   0.696   5.754  12.605  0.5227 -1.6413  0.6222
19864TIP3    H281008   0.700   5.709  12.750  1.8274  1.3832  1.5994
19865TIP3   OH281009   1.445   1.981  14.847 -0.8588 -0.5151 -0.2528
19865TIP3    H181010   1.466   1.961  14.756 -0.7983 -0.4126 -0.2603
19865TIP3    H281011   1.376   1.918  14.869  0.0841 -1.4647  0.0546
19866TIP3   OH281012   3.516   1.845   5.049 -0.1329 -0.5300  0.2612
19866TIP3    H181013   3.566   1.772   5.012 -0.4914  0.4932 -2.4499
19866TIP3    H281014   3.488   1.896   4.974  0.1758  2.5197  2.0496
19867TIP3   OH281015   4.830   4.707  10.735 -0.0085 -0.6418 -0.4808
19867TIP3    H181016   4.915   4.696  10.692  0.0321  0.8914 -0.8650
19867TIP3    H281017   4.833   4.796  10.770 -1.3573 -0.6718 -0.2615
19868TIP3   OH281018   5.333   4.537  14.580 -0.6631 -0.4134  0.7646
19868TIP3    H181019   5.355   4.573  14.666  2.9418 -0.1650 -0.0895
19868TIP3    H281020   5.378   4.452  14.578 -2.4025 -1.3641 -0.1926
19869TIP3   OH281021   5.851   5.072  14.642 -0.3819 -0.0147  0.4968
19869TIP3    H181022   5.826   5.011  14.713 -3.0565 -0.8843 -1.0351
19869TIP3    H281023   5.933   5.037  14.608 -1.5676 -2.5469  0.0241
19870TIP3   OH281024   2.707   2.226  14.608 -0.3806  0.1589  0.1498
19870TIP3    H181025   2.701   2.243  14.702 -0.6375  1.0238 -0.0200
19870TIP3    H281026   2.718   2.312  14.568 -0.2218 -0.2051 -0.6147
19871TIP3   OH281027   6.317   5.901  14.899 -0.4157 -0.7539 -0.2585
19871TIP3    H181028   6.333   5.822  14.847  0.9533  0.2072 -1.3489
19871TIP3    H281029   6.330   5.873  14.990  3.0653 -1.1751 -0.7747
19872TIP3   OH281030   6.483   2.372   3.001  0.1630  0.8664 -0.0401
19872TIP3    H181031   6.405   2.337   3.045  2.1069 -4.1150  0.0924
19872TIP3    H281032   6.449   2.406   2.918 -2.2927 -0.2095  0.4163
19873TIP3   OH281033   2.940   2.214  15.375  0.3426 -0.5716  0.5155
19873TIP3    H181034   2.891   2.284  15.332  2.0302  0.5528  0.3004
19873TIP3    H281035   2.964   2.155  15.303  0.9919 -0.0442  0.2837
19874TIP3   OH281036   4.192   4.600  16.504 -0.2913 -0.2496 -0.6317
19874TIP3    H181037   4.212   4.565  16.418  2.0766  2.3377 -1.2930
19874TIP3    H281038   4.273   4.590  16.554 -0.2851  1.9348 -0.0984
19875TIP3   OH281039   4.555   1.638  11.721  0.4708 -0.0336  0.1067
19875TIP3    H181040   4.557   1.592  11.804  0.2620 -0.5441 -0.1654
19875TIP3    H281041   4.584   1.727  11.742 -1.6346  0.4699  1.1167
19876TIP3   OH281042   3.882   0.023   5.324 -0.6571 -0.3986 -0.0096
19876TIP3    H181043   3.964   0.072   5.320 -0.5499 -0.6099 -0.5468
19876TIP3    H281044   3.897  -0.044   5.391  0.0181 -1.1421 -0.8682
19877TIP3   OH281045   2.672   1.753  13.213 -0.0274  0.0349  0.2523
19877TIP3    H181046   2.678   1.693  13.287  0.9313  1.2840  1.2191
19877TIP3    H281047   2.728   1.827  13.236 -1.0238  1.2420 -0.9846
19878TIP3   OH281048   6.755   2.586   3.782  0.0573  0.6668 -0.1540
19878TIP3    H181049   6.689   2.653   3.798 -1.8154 -1.2641  0.7427
19878TIP3    H281050   6.838   2.634   3.779 -1.1757  2.9878  0.3757
19879TIP3   OH281051   3.801   2.989  14.189  0.1197  0.1128 -0.6353
19879TIP3    H181052   3.871   2.939  14.231 -0.8832 -0.4245  0.4933
19879TIP3    H281053   3.834   3.079  14.186  0.5935  0.0026  0.5462
19880TIP3   OH281054   3.345   3.028   6.679 -0.2805 -0.0324  0.6547
19880TIP3    H181055   3.315   3.110   6.640 -0.9395 -0.7051 -0.2757
19880TIP3    H281056   3.415   3.055   6.739 -1.7767  1.4220  1.8408
19881TIP3   OH281057   3.753   1.083  10.689 -0.7013  0.0199  0.4373
19881TIP3    H181058   3.841   1.077  10.727 -0.0459 -0.9063 -1.1311
19881TIP3    H281059   3.713   1.158  10.733  0.5808 -0.0279  1.7569
19882TIP3   OH281060   6.053   5.762   3.063 -0.5536 -0.2750  0.2651
19882TIP3    H181061   5.965   5.752   3.101  0.1369 -1.3747  1.6553
19882TIP3    H281062   6.108   5.703   3.114  1.0441  0.5270 -0.4651
19883TIP3   OH281063   3.356   0.860   4.664 -0.8937 -0.1725 -0.2944
19883TIP3    H181064   3.399   0.777   4.640  0.0211 -0.1415  1.0904
19883TIP3    H281065   3.295   0.836   4.734  1.1605  0.6127  1.8968
19884TIP3   OH281066   2.910   5.417   6.410  0.1381 -0.0187 -0.1235
19884TIP3    H181067   2.864   5.357   6.468 -0.0452 -2.7789 -2.8410
19884TIP3    H281068   2.849   5.431   6.337  0.2630  3.4536  0.2696
19885TIP3   OH281069   2.006   3.502  15.623  0.4584  0.0079 -0.0018
19885TIP3    H181070   2.033   3.467  15.708  1.3676  0.5530 -0.0473
19885TIP3    H281071   1.911   3.509  15.629  0.4733 -0.3369  0.8208
19886TIP3   OH281072   6.353   5.494   3.819 -0.2370  0.2657 -0.5933
19886TIP3    H181073   6.343   5.455   3.906 -1.5658 -0.2855 -0.9568
19886TIP3    H281074   6.435   5.543   3.823 -0.0880 -0.0651  0.8463
19887TIP3   OH281075   2.741   1.737  11.292 -0.4858 -0.3401  0.0825
19887TIP3    H181076   2.760   1.797  11.364 -1.0913  0.7522 -0.6396
19887TIP3    H281077   2.646   1.731  11.289 -0.4534 -0.7648 -0.3069
19888TIP3   OH281078   6.420   4.879   3.506 -0.0554  0.3428  0.0412
19888TIP3    H181079   6.515   4.876   3.508 -0.0736 -1.9872  0.3233
19888TIP3    H281080   6.399   4.963   3.466  2.1228  0.3393 -1.2448
19889TIP3   OH281081   3.549   0.451  15.709 -0.3142  0.3876  0.1906
19889TIP3    H181082   3.468   0.457  15.659 -0.1496  1.1088  0.0044
19889TIP3    H281083   3.539   0.514  15.780 -0.2110 -0.0430  0.5944
19890TIP3   OH281084   3.418   4.631   2.795  0.0955 -0.2519 -0.0639
19890TIP3    H181085   3.324   4.647   2.786  0.0349 -0.8140 -0.4684
19890TIP3    H281086   3.460   4.708   2.756 -0.1691  1.1087  2.1419
19891TIP3   OH281087   1.948   3.931  14.425 -0.5433 -0.1847  0.0409
19891TIP3    H181088   1.987   3.954  14.340 -1.9949  1.1864 -0.3001
19891TIP3    H281089   1.986   3.995  14.486  0.0760 -0.8241  0.3525
19892TIP3   OH281090   6.616   4.393  12.136 -0.2985  0.4505  0.0126
19892TIP3    H181091   6.541   4.356  12.089  0.3691 -0.6538 -0.2138
19892TIP3    H281092   6.649   4.321  12.189 -0.3615  1.3804  1.3434
19893TIP3   OH281093   2.013   5.104   0.981  0.2322 -0.3810  0.2915
19893TIP3    H181094   1.974   5.096   0.894 -0.6149  0.6910  0.5539
19893TIP3    H281095   1.981   5.028   1.029 -1.5937  0.4681  0.4957
19894TIP3   OH281096   3.308   5.828   0.038  0.4070 -0.4688 -0.6525
19894TIP3    H181097   3.305   5.753  -0.020  3.7480 -1.4521  0.2092
19894TIP3    H281098   3.391   5.819   0.085 -0.2044  2.4574  1.2956
19895TIP3   OH281099   2.722   5.354  12.262 -0.4650  0.4064  0.4922
19895TIP3    H181100   2.766   5.285  12.212  0.0357  1.1150 -0.0684
19895TIP3    H281101   2.749   5.435  12.220 -1.5419  0.9181  0.7597
19896TIP3   OH281102   5.471   1.969   4.780  0.2119  0.4178 -0.2773
19896TIP3    H181103   5.492   2.059   4.805  1.3386  0.4486 -1.2333
19896TIP3    H281104   5.555   1.930   4.757 -0.4814 -0.1804 -2.0581
19897TIP3   OH281105   6.260   1.813  13.945  0.3467 -0.4046 -0.4792
19897TIP3    H181106   6.309   1.882  13.990 -0.4959  1.1913 -1.8908
19897TIP3    H281107   6.184   1.797  14.001  0.3751  0.0704 -0.2996
19898TIP3   OH281108   6.732   2.835  16.479 -0.0737  0.6563  0.4941
19898TIP3    H181109   6.640   2.809  16.484  0.1054  0.1982  1.6331
19898TIP3    H281110   6.781   2.756  16.502  0.7022  0.3255 -2.0454
19899TIP3   OH281111   6.456   6.487   2.661 -0.0378 -0.5706 -0.1951
19899TIP3    H181112   6.524   6.527   2.716  0.5933 -1.6145 -0.1980
19899TIP3    H281113   6.389   6.458   2.723 -0.0435 -0.3834 -0.1123
19900TIP3   OH281114   1.537   3.959   2.035  0.2005  0.6224  0.2721
19900TIP3    H181115   1.581   4.000   1.960 -1.5923  0.6779 -0.8029
19900TIP3    H281116   1.525   4.031   2.098  1.4675  0.6361  0.5208
19901TIP3   OH281117   2.227   6.009   4.051 -0.6088 -0.1687 -0.1290
19901TIP3    H181118   2.165   6.080   4.036  1.1228  0.9999 -2.2029
19901TIP3    H281119   2.195   5.937   3.996 -0.1226  0.4746 -1.2955
19902TIP3   OH281120   3.472   2.638   4.182 -0.3390  0.0939  0.1828
19902TIP3    H181121   3.451   2.731   4.190  1.1302  0.3584  1.6083
19902TIP3    H281122   3.475   2.606   4.272 -0.4942 -1.2662 -0.2679
19903TIP3   OH281123   5.097   4.996  15.992  0.2246  0.0296  0.1263
19903TIP3    H181124   5.125   4.999  15.901  0.1489  2.3847  0.1404
19903TIP3    H281125   5.007   4.963  15.989 -0.2390  1.3250 -0.7978
19904TIP3   OH281126   6.675   0.768   3.684 -0.0750 -0.0244  0.1991
19904TIP3    H181127   6.771   0.771   3.685 -0.0876  0.4739  0.3113
19904TIP3    H281128   6.650   0.789   3.774 -0.3016  0.2929  0.0624
19905TIP3   OH281129   6.125   2.038  10.633  0.0203 -0.0347 -0.2163
19905TIP3    H181130   6.178   2.007  10.706 -1.5767  0.1728  1.0922
19905TIP3    H281131   6.118   2.132  10.646  0.1081  0.0727 -0.9074
19906TIP3   OH281132   5.415   5.688   2.171 -0.7708 -0.3697 -0.7566
19906TIP3    H181133   5.334   5.738   2.170 -1.6308 -1.5665  2.0542
19906TIP3    H281134   5.388   5.597   2.159 -0.0044 -0.8925  1.1998
19907TIP3   OH281135   2.858   5.771   5.927  0.4031  0.4268 -0.6330
19907TIP3    H181136   2.778   5.769   5.979  0.1187 -2.5666 -0.9913
19907TIP3    H281137   2.914   5.836   5.970 -1.4282  1.1326  0.7934
19908TIP3   OH281138   6.749   3.069  16.968 -0.0394 -0.1618 -0.2910
19908TIP3    H181139   6.682   3.086  17.034  0.6147 -0.0875  0.3609
19908TIP3    H281140   6.777   2.979  16.984 -0.4713 -0.4311 -1.0083
19909TIP3   OH281141   5.395   3.385  11.155 -0.3066  0.1057  0.0694
19909TIP3    H181142   5.359   3.346  11.076  1.7969  0.5664 -1.2012
19909TIP3    H281143   5.449   3.458  11.123 -1.9952  2.4569  2.1511
19910TIP3   OH281144   2.389   1.370  12.729 -0.1459  0.3662 -0.9247
19910TIP3    H181145   2.361   1.454  12.692 -0.5036  0.6438 -0.0687
19910TIP3    H281146   2.328   1.355  12.802  1.0727  0.3000  0.1139
19911TIP3   OH281147   5.763   0.922   2.557  0.0672 -0.2370  0.0235
19911TIP3    H181148   5.738   0.832   2.577 -1.8695 -0.5259 -3.0847
19911TIP3    H281149   5.691   0.975   2.592  0.3758 -0.0410  0.3669
19912TIP3   OH281150   3.237   0.539  14.581  0.8945  0.6776 -0.0287
19912TIP3    H181151   3.169   0.515  14.645  0.1740  2.3107 -0.1347
19912TIP3    H281152   3.277   0.618  14.616 -0.0401  2.0728 -1.9244
19913TIP3   OH281153   1.900   3.493   3.447  0.0612 -0.2439 -0.0144
19913TIP3    H181154   1.882   3.579   3.411  3.1398  1.2524  1.6177
19913TIP3    H281155   1.840   3.484   3.521  0.7625  1.2411  0.7674
19914TIP3   OH281156   3.415   1.090   2.273 -0.0024 -0.4375  0.1053
19914TIP3    H181157   3.402   1.039   2.353  0.5325 -0.8254 -0.0443
19914TIP3    H281158   3.419   1.024   2.204  2.7606 -0.4317  0.1346
19915TIP3   OH281159   1.127   2.740  14.925  0.0424 -0.0637  0.1931
19915TIP3    H181160   1.149   2.802  14.855 -1.1466  1.1273  0.8526
19915TIP3    H281161   1.124   2.793  15.004 -2.4614 -0.6511  0.5564
19916TIP3   OH281162   3.006   3.880   4.202 -0.3777 -0.1263 -0.2195
19916TIP3    H181163   2.985   3.959   4.152 -0.0259  0.8185  1.0899
19916TIP3    H281164   3.102   3.874   4.198 -0.4232 -0.7366 -0.6538
19917TIP3   OH281165   4.480   3.978  15.277  0.2902  0.3582 -0.1121
19917TIP3    H181166   4.555   4.038  15.285  0.7619 -0.3188  0.5912
19917TIP3    H281167   4.517   3.891  15.288 -0.2934 -0.1434 -1.7292
19918TIP3   OH281168   3.118   4.880   2.192  0.0847  0.2694  0.3108
19918TIP3    H181169   3.031   4.902   2.227 -0.4813  0.3478 -1.0858
19918TIP3    H281170   3.122   4.925   2.108  1.9989  1.2943  0.9096
19919TIP3   OH281171   6.279   2.267  14.014  0.4083 -0.7776  0.3222
19919TIP3    H181172   6.201   2.211  14.010 -0.0990 -0.2414  1.7051
19919TIP3    H281173   6.325   2.251  13.932 -2.3745  0.6465 -1.6854
19920TIP3   OH281174   1.910   6.150  14.479  0.0488 -0.1353 -0.5076
19920TIP3    H181175   1.902   6.243  14.460 -0.9444 -0.2550 -0.7126
19920TIP3    H281176   1.985   6.144  14.539  0.8922  0.6512 -1.4440
19921TIP3   OH281177   1.950   3.589  13.639 -0.7851 -0.4040 -0.5933
19921TIP3    H181178   1.870   3.577  13.588 -0.2564  2.3956 -2.3034
19921TIP3    H281179   2.021   3.568  13.578 -0.1939  0.4555 -0.2338
19922TIP3   OH281180   0.465   5.057  16.327  0.4527  0.0260 -0.1366
19922TIP3    H181181   0.452   5.087  16.237  1.9370  0.1452 -0.3400
19922TIP3    H281182   0.412   5.116  16.380 -0.6169 -0.1837 -0.9369
19923TIP3   OH281183   5.382   0.893   5.430  0.3242  0.1470  0.1541
19923TIP3    H181184   5.385   0.960   5.499  0.5483 -0.3277  0.6073
19923TIP3    H281185   5.466   0.848   5.437 -0.0660 -0.5789  0.2496
19924TIP3   OH281186   0.273   5.360   3.279 -0.5547  0.6195  0.2665
19924TIP3    H181187   0.354   5.360   3.228 -1.2208  3.2377 -0.9156
19924TIP3    H281188   0.238   5.271   3.266  1.1773  0.0094 -0.6976
19925TIP3   OH281189   2.561   5.146  11.031  0.0702 -0.4916 -0.4678
19925TIP3    H181190   2.579   5.116  10.942  0.5373 -0.0557 -0.5202
19925TIP3    H281191   2.513   5.229  11.020  1.8365  0.5959 -0.3270
19926TIP3   OH281192   1.465   3.439   6.190  0.0131  0.0747 -0.0754
19926TIP3    H181193   1.480   3.428   6.284  0.4983  3.0505  0.2926
19926TIP3    H281194   1.370   3.445   6.182 -0.0366 -0.2760  0.2015
19927TIP3   OH281195   4.626   5.754  16.093 -0.4677  0.0178 -0.5345
19927TIP3    H181196   4.716   5.754  16.125 -0.0100 -3.2478 -1.5143
19927TIP3    H281197   4.604   5.847  16.084  2.4462  0.9282  0.5913
19928TIP3   OH281198   0.828   0.349  11.666 -0.0867  0.6571  0.0439
19928TIP3    H181199   0.761   0.279  11.667 -0.3641  0.7881 -2.4846
19928TIP3    H281200   0.891   0.322  11.732 -0.8387 -1.3497  0.0289
19929TIP3   OH281201   1.041   4.886   3.996  0.0631 -0.2585  0.3989
19929TIP3    H181202   1.036   4.980   3.979  0.8339 -0.2804  0.0065
19929TIP3    H281203   0.996   4.874   4.080  0.8835  0.6088  0.9813
19930TIP3   OH281204   1.972   0.694   6.015 -0.0665  0.2926 -0.1025
19930TIP3    H181205   1.901   0.723   5.957 -0.8800 -2.0693 -0.4127
19930TIP3    H281206   1.969   0.754   6.089 -1.0800  1.4542 -1.0331
19931TIP3   OH281207   2.853   1.608   2.847 -0.4141 -0.7370 -0.0102
19931TIP3    H181208   2.854   1.696   2.811  1.1252 -0.6685  0.1043
19931TIP3    H281209   2.939   1.572   2.823 -1.4860 -2.7051 -1.2470
19932TIP3   OH281210   5.155   5.664  16.707 -0.5203 -0.5364  0.3318
19932TIP3    H181211   5.099   5.612  16.650 -0.8311  0.6301 -0.4536
19932TIP3    H281212   5.095   5.724  16.752 -0.0037  0.1581  0.1047
19933TIP3   OH281213   0.547   6.638  13.279 -0.1139 -0.7233  0.1451
19933TIP3    H181214   0.598   6.643  13.360  1.7443 -1.9077 -0.8660
19933TIP3    H281215   0.484   6.567  13.294 -2.2265  1.3215  1.7263
19934TIP3   OH281216   5.105   0.216  11.342 -0.0920  0.3824  0.1842
19934TIP3    H181217   5.085   0.297  11.389  1.5305  0.7552  0.2845
19934TIP3    H281218   5.106   0.240  11.250  1.5335  0.7610  0.2820
19935TIP3   OH281219   6.318   4.838   3.216 -0.2894  0.2701  0.1719
19935TIP3    H181220   6.281   4.856   3.303  0.1471  0.1822  0.3790
19935TIP3    H281221   6.248   4.792   3.170  0.1266 -1.3861  1.1109
19936TIP3   OH281222   3.032   2.282  11.272  0.3141 -0.3199  0.4745
19936TIP3    H181223   3.075   2.265  11.188  1.4843 -0.3645  1.0502
19936TIP3    H281224   2.939   2.286  11.252  0.5072 -1.1614 -0.6920
19937TIP3   OH281225   5.696   1.197  13.031 -0.4232  0.9119  0.1850
19937TIP3    H181226   5.628   1.129  13.037 -0.7752  1.2976  0.6459
19937TIP3    H281227   5.729   1.190  12.942 -0.2407 -0.0707  0.3203
19938TIP3   OH281228   6.761   3.743   2.160 -0.9005 -0.2178 -0.0710
19938TIP3    H181229   6.704   3.766   2.233 -0.1456 -1.1803  0.8797
19938TIP3    H281230   6.846   3.724   2.202 -0.2928 -0.2322 -1.2673
19939TIP3   OH281231   1.484   5.809   0.630  0.1069 -0.2034  0.8319
19939TIP3    H181232   1.545   5.835   0.699 -0.7886 -0.4988  1.7793
19939TIP3    H281233   1.495   5.714   0.624  1.9802  0.0768 -1.2471
19940TIP3   OH281234   4.060   4.179  14.508 -0.0391  0.0202  0.0696
19940TIP3    H181235   4.128   4.173  14.440 -1.2887  1.5876 -1.4199
19940TIP3    H281236   4.044   4.273  14.517 -0.8032 -0.2322  1.6678
19941TIP3   OH281237   6.717   5.692  11.876 -0.3101 -0.0078 -0.3598
19941TIP3    H181238   6.663   5.637  11.932  1.4980 -0.8478  0.6475
19941TIP3    H281239   6.770   5.744  11.937  0.1460  0.6541 -1.2944
19942TIP3   OH281240   0.323   2.492   1.132  0.2941 -0.1314  0.5927
19942TIP3    H181241   0.295   2.558   1.196 -0.5002  0.8762 -0.7368
19942TIP3    H281242   0.310   2.534   1.047 -0.0922 -1.9572 -0.3067
19943TIP3   OH281243   3.777   5.165   2.341 -0.0330 -0.0826  0.1810
19943TIP3    H181244   3.850   5.144   2.283  1.9628  0.8307  2.1807
19943TIP3    H281245   3.741   5.080   2.366  0.7582 -0.5896 -0.3577
19944CLA    CLA81246   3.765   0.578   5.326 -0.3732 -0.1013 -0.2129
19945LIG     O181247   3.640   3.291  16.530 -0.1511 -0.4837  0.3766
19945LIG     O281248   3.083   3.593  16.794  0.2730 -0.2535  0.4125
19945LIG     O381249   3.707   2.649  16.462  0.4769 -0.4958 -0.4643
19945LIG     O481250   2.992   3.784  16.881  0.5993  0.2714 -0.0296
19945LIG      N81251   3.749   3.514  16.741 -0.6086  0.0761 -0.1831
19945LIG     C181252   3.622   3.512  16.819 -0.6106 -0.0620 -0.2148
19945LIG     C281253   3.714   3.529  16.597 -0.5068  0.2808  0.4941
19945LIG     C381254   3.540   3.640  16.823 -0.1975 -0.0025 -0.0295
19945LIG     C481255   3.816   3.377  16.751  0.3416 -0.5605 -0.3165
19945LIG     C581256   3.849   3.619  16.801  0.6301  0.6631  0.5828
19945LIG     C681257   3.612   3.434  16.528  0.7030 -0.6139  0.5529
19945LIG     C781258   3.395   3.606  16.862 -0.0807 -0.7041  0.5668
19945LIG     C881259   3.534   3.206  16.481 -0.0273 -0.6444  0.0731
19945LIG     C981260   3.330   3.729  16.928 -0.7961  0.5789  0.3564
19945LIG    C1081261   3.583   3.055  16.474  0.1630  0.4535  0.2556
19945LIG    C1181262   3.494   3.250  16.331  0.2845  0.1386  0.1470
19945LIG    C1281263   3.406   3.196  16.587 -0.3003 -0.0678 -0.1762
19945LIG    C1381264   3.194   3.705  16.991 -0.5614  0.1883  0.2639
19945LIG    C1481265   3.512   2.954  16.400  0.0088 -0.4451  0.4126
19945LIG    C1581266   3.680   3.006  16.565  0.1431  0.3227  0.8507
19945LIG    C1681267   3.399   3.354  16.302  0.4347  0.2166 -0.3805
19945LIG    C1781268   3.426   3.216  16.728 -0.1428 -0.6209  0.4850
19945LIG    C1881269   3.558   3.211  16.213 -0.5574 -0.5951  0.3942
19945LIG    C1981270   3.277   3.174  16.542  0.4605  0.0451 -0.1956
19945LIG    C2081271   3.081   3.700  16.884 -1.0660  0.2508 -0.4599
19945LIG    C2181272   3.562   2.828  16.390 -0.4226  0.2808 -0.0821
19945LIG    C2281273   3.728   2.871  16.560  0.1709  0.3359 -0.2554
19945LIG    C2381274   3.361   3.400  16.176  0.5241  0.1396 -0.4636
19945LIG    C2481275   3.322   3.214  16.819  0.5528  0.2682 -0.6119
19945LIG    C2581276   3.521   3.252  16.080  0.2648 -0.3090 -0.5870
19945LIG    C2681277   3.170   3.179  16.633 -0.5183  0.5004 -0.0170
19945LIG    C2781278   3.663   2.780  16.476 -0.0213 -0.4619 -0.4164
19945LIG    C2881279   3.430   3.355  16.063 -0.1632  0.1005  0.0604
19945LIG    C2981280   3.188   3.200  16.773 -0.0336  0.2085  0.8263
19945LIG    C3081281   3.684   2.573  16.344 -0.4033 -0.6092 -0.0965
19945LIG     H181282   3.643   3.487  16.922  1.2652 -0.8798 -0.7529
19945LIG     H281283   3.562   3.436  16.770 -1.7649  0.1788  0.7690
19945LIG     H381284   3.808   3.534  16.544  0.2154  3.0884  1.8138
19945LIG     H481285   3.670   3.628  16.597 -1.2458  0.0083  2.6363
19945LIG     H581286   3.537   3.684  16.722  1.8330 -0.8234 -0.5033
19945LIG     H681287   3.580   3.713  16.896  1.6508  0.1361 -1.1203
19945LIG     H781288   3.913   3.380  16.702  0.3045 -1.5634 -0.4681
19945LIG     H881289   3.754   3.306  16.699  1.2381 -0.7921 -1.1173
19945LIG     H981290   3.830   3.350  16.855 -0.6550  2.0573  0.5813
19945LIG    H1081291   3.798   3.714  16.810  1.5675  1.2799 -0.3980
19945LIG    H1181292   3.937   3.634  16.740  1.1588 -0.1402  1.1241
19945LIG    H1281293   3.875   3.579  16.898 -0.0857 -0.9208  0.1607
19945LIG    H1381294   3.510   3.461  16.563 -0.4831 -1.2391 -2.1322
19945LIG    H1481295   3.617   3.462  16.421 -0.5169 -0.2170  0.5883
19945LIG    H1581296   3.403   3.528  16.941 -1.2136 -0.6995  0.7121
19945LIG    H1681297   3.329   3.575  16.778 -1.4991  0.1466  1.3320
19945LIG    H1781298   3.306   3.803  16.848 -1.7718 -0.2883 -0.1869
19945LIG    H1881299   3.398   3.780  16.999 -0.4018 -0.4383  0.7240
19945LIG    H1981300   3.177   3.789  17.061  0.5151 -1.2263  2.3584
19945LIG    H2081301   3.194   3.610  17.050 -3.0449  0.0938  0.1944
19945LIG    H2181302   3.430   2.989  16.338  0.4693 -0.9590 -0.5036
19945LIG    H2281303   3.736   3.075  16.627  1.3011  1.7842 -1.6876
19945LIG    H2381304   3.350   3.407  16.383 -0.4192 -1.8015  0.4742
19945LIG    H2481305   3.528   3.233  16.760  0.5894 -2.0052 -0.9535
19945LIG    H2581306   3.647   3.151  16.213 -0.6244 -0.6940  0.5477
19945LIG    H2681307   3.254   3.151  16.439 -2.0369 -2.2035  0.7714
19945LIG    H2781308   3.510   2.762  16.323  0.4260 -1.0447  0.5336
19945LIG    H2881309   3.804   2.835  16.627 -0.1909 -0.5002 -0.2803
19945LIG    H2981310   3.285   3.477  16.183 -0.5771 -0.9875  0.3552
19945LIG    H3081311   3.353   3.226  16.922  0.8351  1.2256 -0.7962
19945LIG    H3181312   3.579   3.217  15.996 -0.6435  0.0118 -1.3630
19945LIG    H3281313   3.073   3.178  16.585  0.8672  1.8481 -3.1317
19945LIG    H3381314   3.407   3.387  15.963  1.2678 -0.0585 -0.3451
19945LIG    H3481315   3.097   3.205  16.830 -3.0961 -1.7606 -3.3280
19945LIG    H3581316   3.000   3.613  16.750 -0.5955 -1.7797  1.2420
19945LIG    H3681317   3.674   2.637  16.254 -0.9953 -0.3374  0.1552
19945LIG    H3781318   3.602   2.498  16.354 -1.0855  0.3679  2.9220
19945LIG    H3881319   3.774   2.511  16.325 -0.9370 -1.3139 -0.3933
   6.79018   6.79018  17.22962
